                         Program Version 3.0.3 - RELEASE   -
|  1> ! RI-MP2 RIJK def2-TZVP def2-TZVP/C def2-TZVP/JK TIGHTSCF
|  2> % maxcore 2000
|  3> % mp2 density relaxed end
|  4> *xyz 0 1
|  5>  O       -0.0529586472     1.4671113332    -0.1219575423
|  6>  C        0.0037004403     0.0516552450    -0.0132265031
|  7>  C       -0.0204878290    -0.6236121383     1.3987355403
|  8>  C       -1.5149880116    -0.1663257606     1.5250781198
|  9>  O       -1.8562257962     1.1464379320     1.8239220099
| 10>  C       -1.3702786162    -0.6685612698     0.0422868646
| 11>  C       -0.6073543216    -1.8669439973     0.6556474912
| 12>  O        0.1968841077    -2.5947959411    -0.2388401157
| 13>  H        0.8414545774     1.8120247146    -0.0368957448
| 14>  H        0.7249227557    -0.3581981189    -0.7221898813
| 15>  H        0.7556767499    -0.6110689129     2.1664901135
| 16>  H       -2.1352894300    -0.8056971987     2.1613091123
| 17>  H       -1.3274626107     1.7104549101     1.2409151750
| 18>  H       -2.1307495651    -0.7037840398    -0.7377424171
| 19>  H       -1.2176036350    -2.5305747394     1.2801886109
| 20>  H        0.7587113516    -3.1817528781     0.2764530469
| 21> *
| 22>
| 23>                          ****END OF INPUT****

CARTESIAN COORDINATES (ANGSTROEM)
---------------------------------
  O     -0.052959    1.467111   -0.121958
  C      0.003700    0.051655   -0.013227
  C     -0.020488   -0.623612    1.398736
  C     -1.514988   -0.166326    1.525078
  O     -1.856226    1.146438    1.823922
  C     -1.370279   -0.668561    0.042287
  C     -0.607354   -1.866944    0.655647
  O      0.196884   -2.594796   -0.238840
  H      0.841455    1.812025   -0.036896
  H      0.724923   -0.358198   -0.722190
  H      0.755677   -0.611069    2.166490
  H     -2.135289   -0.805697    2.161309
  H     -1.327463    1.710455    1.240915
  H     -2.130750   -0.703784   -0.737742
  H     -1.217604   -2.530575    1.280189
  H      0.758711   -3.181753    0.276453

 Total Charge           Charge          ....    0
 Multiplicity           Mult            ....    1
 Number of Electrons    NEL             ....   62
 Basis Dimension        Dim             ....  296

ORBITAL ENERGIES
----------------

  NO   OCC          E(Eh)            E(eV)
   0   2.0000     -20.577247      -559.9353
   1   2.0000     -20.569200      -559.7164
   2   2.0000     -20.541230      -558.9553
   3   2.0000     -11.298139      -307.4380
   4   2.0000     -11.295930      -307.3779
   5   2.0000     -11.290182      -307.2215
   6   2.0000     -11.244831      -305.9874
   7   2.0000     -11.243709      -305.9569
   8   2.0000      -1.392916       -37.9032
   9   2.0000      -1.377615       -37.4868
  10   2.0000      -1.353083       -36.8193
  11   2.0000      -1.194461       -32.5029
  12   2.0000      -0.907604       -24.6972
  13   2.0000      -0.878693       -23.9104
  14   2.0000      -0.870632       -23.6911
  15   2.0000      -0.771330       -20.9890
  16   2.0000      -0.732238       -19.9252
  17   2.0000      -0.696744       -18.9594
  18   2.0000      -0.685713       -18.6592
  19   2.0000      -0.632216       -17.2035
  20   2.0000      -0.628639       -17.1061
  21   2.0000      -0.588283       -16.0080
  22   2.0000      -0.574092       -15.6219
  23   2.0000      -0.553532       -15.0624
  24   2.0000      -0.549662       -14.9571
  25   2.0000      -0.537531       -14.6270
  26   2.0000      -0.471147       -12.8206
  27   2.0000      -0.448097       -12.1933
  28   2.0000      -0.439437       -11.9577
  29   2.0000      -0.421428       -11.4676
  30   2.0000      -0.396182       -10.7807
  31   0.0000       0.130178         3.5423
  32   0.0000       0.131574         3.5803
  33   0.0000       0.167624         4.5613
  34   0.0000       0.180697         4.9170
  35   0.0000       0.193105         5.2547

MULLIKEN ATOMIC CHARGES
-----------------------
   0 O :   -0.512528
   1 C :   -0.000447
   2 C :   -0.063547
   3 C :    0.001549
   4 O :   -0.477318
   5 C :   -0.043829
   6 C :   -0.057104
   7 O :   -0.470873
   8 H :    0.332481
   9 H :    0.125012
  10 H :    0.149088
  11 H :    0.103451
  12 H :    0.340707
  13 H :    0.140252
  14 H :    0.107998
  15 H :    0.325108
Sum of atomic charges:   -0.0000000

LOEWDIN ATOMIC CHARGES
----------------------
   0 O :   -0.023170
   1 C :   -0.278476
   2 C :   -0.161384
   3 C :   -0.290786
   4 O :   -0.004089
   5 C :   -0.136106
   6 C :   -0.289784
   7 O :   -0.008919
   8 H :    0.180372
   9 H :    0.134974
  10 H :    0.122685
  11 H :    0.138189
  12 H :    0.173077
  13 H :    0.130252
  14 H :    0.132981
  15 H :    0.180183

  Mayer bond orders larger than 0.1
B(  0-O ,  1-C ) :   0.9621 B(  0-O ,  8-H ) :   0.8367 B(  1-C ,  2-C ) :   0.8665
B(  1-C ,  5-C ) :   0.9041 B(  1-C ,  9-H ) :   0.9289 B(  2-C ,  3-C ) :   0.8227
B(  2-C ,  6-C ) :   0.8177 B(  2-C , 10-H ) :   0.8829 B(  3-C ,  4-O ) :   1.0023
B(  3-C ,  5-C ) :   0.8486 B(  3-C , 11-H ) :   0.9669 B(  4-O , 12-H ) :   0.8032
B(  5-C ,  6-C ) :   0.8567 B(  5-C , 13-H ) :   0.8887 B(  6-C ,  7-O ) :   1.0771
B(  6-C , 14-H ) :   0.9799 B(  7-O , 15-H ) :   0.8411

MP2 TOTAL ENERGY:     -420.163703697 Eh
FINAL SINGLE POINT ENERGY      -420.163703697326

DIPOLE MOMENT
-------------
                                X             Y             Z
Electronic contribution:     -0.11304       1.03251      -0.46065
Nuclear contribution   :      1.24131      -1.53657       0.59323
                        -----------------------------------------
Total Dipole Moment    :      1.12828      -0.50405       0.13259
                        -----------------------------------------
Magnitude (a.u.)       :      1.24284
Magnitude (Debye)      :      3.15906

                             ****ORCA TERMINATED NORMALLY****
TOTAL RUN TIME: 0 days 0 hours 10 minutes 52 seconds 888 msec
