                         Program Version 3.0.3 - RELEASE   -
|  1> ! RI-MP2 RIJK def2-TZVP def2-TZVP/C def2-TZVP/JK TIGHTSCF
|  2> % maxcore 2000
|  3> % mp2 density relaxed end
|  4> *xyz 0 1
|  5>  C       -0.2190686979     1.6116365794     0.0654052517
|  6>  C        0.0335990445     0.1159564190     0.0123325899
|  7>  C        0.8207579564    -0.5715413189    -1.1352258979
|  8>  C        2.0741770576     0.2083723763    -1.5584116752
|  9>  C        2.8695024628     0.5766438297    -0.3235804458
| 10>  C        2.4205905023     0.2049772746     0.8783270759
| 11>  C        3.0803247969     0.5128259824     2.1875838369
| 12>  C        1.1288489794    -0.5985682527     0.8572595668
| 13>  O        1.2276011621    -1.6061937503    -0.1942717234
| 14>  H        0.7051608537     2.1880101767    -0.0217604037
| 15>  H       -0.8904825503     1.9172662892    -0.7448810915
| 16>  H       -0.7015879777     1.8906676324     1.0088554630
| 17>  H       -0.9018321686    -0.4355152332     0.1447738499
| 18>  H        0.2652444873    -0.9776683803    -1.9856279601
| 19>  H        2.6778615159    -0.4089394160    -2.2367407627
| 20>  H        1.7932075395     1.1056750610    -2.1277834840
| 21>  H        3.7963288632     1.1324930241    -0.4427970428
| 22>  H        3.9938595513     1.0980794115     2.0496792197
| 23>  H        2.4127190807     1.0799584662     2.8497801859
| 24>  H        3.3411676593    -0.4078551201     2.7255815062
| 25>  H        0.8646934416    -1.0337310709     1.8250655911
| 26> *
| 27>
| 28>                          ****END OF INPUT****

CARTESIAN COORDINATES (ANGSTROEM)
---------------------------------
  C     -0.219069    1.611637    0.065405
  C      0.033599    0.115956    0.012333
  C      0.820758   -0.571541   -1.135226
  C      2.074177    0.208372   -1.558412
  C      2.869502    0.576644   -0.323580
  C      2.420591    0.204977    0.878327
  C      3.080325    0.512826    2.187584
  C      1.128849   -0.598568    0.857260
  O      1.227601   -1.606194   -0.194272
  H      0.705161    2.188010   -0.021760
  H     -0.890483    1.917266   -0.744881
  H     -0.701588    1.890668    1.008855
  H     -0.901832   -0.435515    0.144774
  H      0.265244   -0.977668   -1.985628
  H      2.677862   -0.408939   -2.236741
  H      1.793208    1.105675   -2.127783
  H      3.796329    1.132493   -0.442797
  H      3.993860    1.098079    2.049679
  H      2.412719    1.079958    2.849780
  H      3.341168   -0.407855    2.725582
  H      0.864693   -1.033731    1.825066

 Total Charge           Charge          ....    0
 Multiplicity           Mult            ....    1
 Number of Electrons    NEL             ....   68
 Basis Dimension        Dim             ....  351

ORBITAL ENERGIES
----------------

  NO   OCC          E(Eh)            E(eV)
   0   2.0000     -20.539804      -558.9165
   1   2.0000     -11.281092      -306.9741
   2   2.0000     -11.279749      -306.9376
   3   2.0000     -11.232740      -305.6584
   4   2.0000     -11.228245      -305.5361
   5   2.0000     -11.226478      -305.4880
   6   2.0000     -11.223924      -305.4185
   7   2.0000     -11.219959      -305.3106
   8   2.0000     -11.216839      -305.2257
   9   2.0000      -1.375724       -37.4353
  10   2.0000      -1.102639       -30.0043
  11   2.0000      -1.039299       -28.2808
  12   2.0000      -1.016099       -27.6495
  13   2.0000      -0.930096       -25.3092
  14   2.0000      -0.909468       -24.7479
  15   2.0000      -0.838894       -22.8275
  16   2.0000      -0.783412       -21.3177
  17   2.0000      -0.698924       -19.0187
  18   2.0000      -0.664481       -18.0814
  19   2.0000      -0.618963       -16.8428
  20   2.0000      -0.605794       -16.4845
  21   2.0000      -0.600253       -16.3337
  22   2.0000      -0.588088       -16.0027
  23   2.0000      -0.570066       -15.5123
  24   2.0000      -0.558412       -15.1952
  25   2.0000      -0.545547       -14.8451
  26   2.0000      -0.538928       -14.6650
  27   2.0000      -0.523238       -14.2380
  28   2.0000      -0.502273       -13.6676
  29   2.0000      -0.488516       -13.2932
  30   2.0000      -0.454278       -12.3615
  31   2.0000      -0.431686       -11.7468
  32   2.0000      -0.396097       -10.7784
  33   2.0000      -0.335462        -9.1284
  34   0.0000       0.128456         3.4955
  35   0.0000       0.147599         4.0164
  36   0.0000       0.152973         4.1626
  37   0.0000       0.167631         4.5615
  38   0.0000       0.171379         4.6635

MULLIKEN ATOMIC CHARGES
-----------------------
   0 C :   -0.427408
   1 C :   -0.088833
   2 C :    0.053544
   3 C :   -0.174410
   4 C :   -0.222124
   5 C :   -0.038872
   6 C :   -0.461766
   7 C :    0.143541
   8 O :   -0.325704
   9 H :    0.147462
  10 H :    0.132920
  11 H :    0.132709
  12 H :    0.106123
  13 H :    0.114645
  14 H :    0.126025
  15 H :    0.116740
  16 H :    0.117741
  17 H :    0.136159
  18 H :    0.136987
  19 H :    0.145807
  20 H :    0.128716
Sum of atomic charges:   -0.0000000

LOEWDIN ATOMIC CHARGES
----------------------
   0 C :   -0.296765
   1 C :   -0.219586
   2 C :   -0.243070
   3 C :   -0.229934
   4 C :   -0.138426
   5 C :   -0.180320
   6 C :   -0.274797
   7 C :   -0.206399
   8 O :    0.158953
   9 H :    0.129136
  10 H :    0.127159
  11 H :    0.126799
  12 H :    0.155128
  13 H :    0.131954
  14 H :    0.146829
  15 H :    0.144857
  16 H :    0.139597
  17 H :    0.130009
  18 H :    0.129976
  19 H :    0.132282
  20 H :    0.136618

  Mayer bond orders larger than 0.1
B(  0-C ,  1-C ) :   0.9129 B(  0-C ,  9-H ) :   0.9317 B(  0-C , 10-H ) :   0.9334
B(  0-C , 11-H ) :   0.9356 B(  1-C ,  2-C ) :   0.9400 B(  1-C ,  7-C ) :   0.9230
B(  1-C , 12-H ) :   0.9300 B(  2-C ,  3-C ) :   0.9671 B(  2-C ,  8-O ) :   0.9433
B(  2-C , 13-H ) :   0.9149 B(  3-C ,  4-C ) :   0.9609 B(  3-C , 14-H ) :   0.9087
B(  3-C , 15-H ) :   0.9004 B(  4-C ,  5-C ) :   1.7741 B(  4-C , 16-H ) :   0.9329
B(  5-C ,  6-C ) :   0.8792 B(  5-C ,  7-C ) :   0.8917 B(  6-C , 17-H ) :   0.9500
B(  6-C , 18-H ) :   0.9273 B(  6-C , 19-H ) :   0.9388 B(  7-C ,  8-O ) :   0.9428
B(  7-C , 20-H ) :   0.9132

MP2 TOTAL ENERGY:     -386.406686735 Eh
FINAL SINGLE POINT ENERGY      -386.406686734694

DIPOLE MOMENT
-------------
                                X             Y             Z
Electronic contribution:      0.20917      -5.39218      -1.73177
Nuclear contribution   :     -0.38097       6.11499       1.78414
                        -----------------------------------------
Total Dipole Moment    :     -0.17180       0.72281       0.05237
                        -----------------------------------------
Magnitude (a.u.)       :      0.74479
Magnitude (Debye)      :      1.89311

                             ****ORCA TERMINATED NORMALLY****
TOTAL RUN TIME: 0 days 0 hours 21 minutes 41 seconds 999 msec
