                         Program Version 3.0.3 - RELEASE   -
|  1> ! RI-MP2 RIJK def2-TZVP def2-TZVP/C def2-TZVP/JK TIGHTSCF
|  2> % maxcore 2000
|  3> % mp2 density relaxed end
|  4> *xyz 0 1
|  5>  C       -0.0396555863     1.4577138077    -0.0468915633
|  6>  O        0.2435939810     0.0851756437     0.0892133078
|  7>  C        0.5773465399    -0.5297560420    -1.1337286852
|  8>  C        0.8158532554    -2.0118225321    -0.8663653708
|  9>  C        1.2164759698    -2.7750687593    -2.1102819895
| 10>  C        1.1781396424    -4.3137761049    -2.0638856488
| 11>  C        0.0765500360    -4.1580132868    -3.1133389392
| 12>  O       -0.6362962906    -4.8564257850    -3.7571954139
| 13>  O        0.1420158713    -2.7869961606    -3.1247191674
| 14>  H        0.8260821209     2.0174014027    -0.4354258978
| 15>  H       -0.8918929582     1.6340331867    -0.7217304984
| 16>  H       -0.2897481494     1.8395906159     0.9457500474
| 17>  H       -0.2325828292    -0.4059759288    -1.8703474628
| 18>  H        1.4826859222    -0.0668532978    -1.5659849641
| 19>  H        1.6099505499    -2.1181799321    -0.1173282374
| 20>  H       -0.0934706461    -2.4504052842    -0.4399884179
| 21>  H        2.1209600217    -2.3618675961    -2.5669924757
| 22>  H        2.0660964208    -4.8381838499    -2.4198940774
| 23>  H        0.8426556084    -4.7539736372    -1.1229205355
| 24> *
| 25>
| 26>                          ****END OF INPUT****

CARTESIAN COORDINATES (ANGSTROEM)
---------------------------------
  C     -0.039656    1.457714   -0.046892
  O      0.243594    0.085176    0.089213
  C      0.577347   -0.529756   -1.133729
  C      0.815853   -2.011823   -0.866365
  C      1.216476   -2.775069   -2.110282
  C      1.178140   -4.313776   -2.063886
  C      0.076550   -4.158013   -3.113339
  O     -0.636296   -4.856426   -3.757195
  O      0.142016   -2.786996   -3.124719
  H      0.826082    2.017401   -0.435426
  H     -0.891893    1.634033   -0.721730
  H     -0.289748    1.839591    0.945750
  H     -0.232583   -0.405976   -1.870347
  H      1.482686   -0.066853   -1.565985
  H      1.609951   -2.118180   -0.117328
  H     -0.093471   -2.450405   -0.439988
  H      2.120960   -2.361868   -2.566992
  H      2.066096   -4.838184   -2.419894
  H      0.842656   -4.753974   -1.122921

 Total Charge           Charge          ....    0
 Multiplicity           Mult            ....    1
 Number of Electrons    NEL             ....   70
 Basis Dimension        Dim             ....  339

ORBITAL ENERGIES
----------------

  NO   OCC          E(Eh)            E(eV)
   0   2.0000     -20.601358      -560.5915
   1   2.0000     -20.563951      -559.5735
   2   2.0000     -20.553075      -559.2776
   3   2.0000     -11.385933      -309.8270
   4   2.0000     -11.318087      -307.9808
   5   2.0000     -11.286147      -307.1117
   6   2.0000     -11.276658      -306.8535
   7   2.0000     -11.265963      -306.5624
   8   2.0000     -11.243389      -305.9482
   9   2.0000      -1.464205       -39.8430
  10   2.0000      -1.385638       -37.7051
  11   2.0000      -1.380298       -37.5598
  12   2.0000      -1.087312       -29.5873
  13   2.0000      -1.034582       -28.1524
  14   2.0000      -0.947935       -25.7946
  15   2.0000      -0.877972       -23.8908
  16   2.0000      -0.834039       -22.6954
  17   2.0000      -0.757566       -20.6144
  18   2.0000      -0.718197       -19.5431
  19   2.0000      -0.686502       -18.6807
  20   2.0000      -0.684597       -18.6288
  21   2.0000      -0.674766       -18.3613
  22   2.0000      -0.653444       -17.7811
  23   2.0000      -0.628394       -17.0995
  24   2.0000      -0.602902       -16.4058
  25   2.0000      -0.573420       -15.6035
  26   2.0000      -0.560239       -15.2449
  27   2.0000      -0.549881       -14.9630
  28   2.0000      -0.541065       -14.7231
  29   2.0000      -0.511839       -13.9278
  30   2.0000      -0.501080       -13.6351
  31   2.0000      -0.481295       -13.0967
  32   2.0000      -0.459979       -12.5167
  33   2.0000      -0.445259       -12.1161
  34   2.0000      -0.432117       -11.7585
  35   0.0000       0.128171         3.4877
  36   0.0000       0.141424         3.8483
  37   0.0000       0.150947         4.1075
  38   0.0000       0.162896         4.4326
  39   0.0000       0.171542         4.6679

MULLIKEN ATOMIC CHARGES
-----------------------
   0 C :   -0.215050
   1 O :   -0.301984
   2 C :   -0.074918
   3 C :   -0.180170
   4 C :    0.061221
   5 C :   -0.280868
   6 C :    0.260234
   7 O :   -0.260471
   8 O :   -0.247292
   9 H :    0.111545
  10 H :    0.115910
  11 H :    0.140535
  12 H :    0.119983
  13 H :    0.086658
  14 H :    0.125222
  15 H :    0.123556
  16 H :    0.113837
  17 H :    0.151648
  18 H :    0.150404
Sum of atomic charges:    0.0000000

LOEWDIN ATOMIC CHARGES
----------------------
   0 C :   -0.359140
   1 O :    0.134002
   2 C :   -0.327466
   3 C :   -0.249449
   4 C :   -0.245751
   5 C :   -0.193476
   6 C :   -0.460491
   7 O :    0.154270
   8 O :    0.243491
   9 H :    0.101433
  10 H :    0.102892
  11 H :    0.114086
  12 H :    0.125747
  13 H :    0.119170
  14 H :    0.151319
  15 H :    0.149362
  16 H :    0.142159
  17 H :    0.147631
  18 H :    0.150212

  Mayer bond orders larger than 0.1
B(  0-C ,  1-O ) :   0.9150 B(  0-C ,  9-H ) :   0.9373 B(  0-C , 10-H ) :   0.9371
B(  0-C , 11-H ) :   0.9391 B(  1-O ,  2-C ) :   0.9603 B(  2-C ,  3-C ) :   0.9449
B(  2-C , 12-H ) :   0.9266 B(  2-C , 13-H ) :   0.9210 B(  3-C ,  4-C ) :   0.9281
B(  3-C , 14-H ) :   0.9173 B(  3-C , 15-H ) :   0.9093 B(  4-C ,  5-C ) :   0.8994
B(  4-C ,  8-O ) :   0.8693 B(  4-C , 16-H ) :   0.9188 B(  5-C ,  6-C ) :   0.9378
B(  5-C , 17-H ) :   0.9107 B(  5-C , 18-H ) :   0.9069 B(  6-C ,  7-O ) :   2.0545
B(  6-C ,  8-O ) :   1.0886

MP2 TOTAL ENERGY:     -459.440817185 Eh
FINAL SINGLE POINT ENERGY      -459.440817185088

DIPOLE MOMENT
-------------
                                X             Y             Z
Electronic contribution:     -2.27553      -8.76854      -6.19870
Nuclear contribution   :      3.39698       9.42046       6.96728
                        -----------------------------------------
Total Dipole Moment    :      1.12145       0.65192       0.76857
                        -----------------------------------------
Magnitude (a.u.)       :      1.50777
Magnitude (Debye)      :      3.83244

                             ****ORCA TERMINATED NORMALLY****
TOTAL RUN TIME: 0 days 0 hours 16 minutes 2 seconds 640 msec
