                         Program Version 3.0.3 - RELEASE   -
|  1> ! RI-MP2 RIJK def2-TZVP def2-TZVP/C def2-TZVP/JK TIGHTSCF
|  2> % maxcore 2000
|  3> % mp2 density relaxed end
|  4> *xyz 0 1
|  5>  C       -0.0319548230     1.5491842393     0.0110133739
|  6>  C       -0.0193943029     0.0110588512     0.0022776135
|  7>  C       -1.4497501246    -0.5526507293    -0.0464238969
|  8>  C        0.8155306004    -0.5200695158    -1.1717425387
|  9>  O        0.5920414378    -0.3372873644    -2.3447528153
| 10>  C        1.9561410302    -1.3046170130    -0.6137941015
| 11>  C        1.9136468678    -1.3125739566     0.7265873879
| 12>  C        0.7397039509    -0.5342525397     1.2204386490
| 13>  O        0.4423228663    -0.3652833387     2.3790262247
| 14>  H        0.9814987640     1.9615699501     0.0454604922
| 15>  H       -0.5198713196     1.9202635162    -0.8941657769
| 16>  H       -0.5761386060     1.9096650158     0.8879569140
| 17>  H       -1.9535054699    -0.2054566285    -0.9524033838
| 18>  H       -1.4528850046    -1.6473128326    -0.0528711018
| 19>  H       -2.0101337357    -0.2157972817     0.8297103491
| 20>  H        2.6887852474    -1.7812777635    -1.2541617828
| 21>  H        2.6044358316    -1.7970738190     1.4063770634
| 22> *
| 23>
| 24>                          ****END OF INPUT****

CARTESIAN COORDINATES (ANGSTROEM)
---------------------------------
  C     -0.031955    1.549184    0.011013
  C     -0.019394    0.011059    0.002278
  C     -1.449750   -0.552651   -0.046424
  C      0.815531   -0.520070   -1.171743
  O      0.592041   -0.337287   -2.344753
  C      1.956141   -1.304617   -0.613794
  C      1.913647   -1.312574    0.726587
  C      0.739704   -0.534253    1.220439
  O      0.442323   -0.365283    2.379026
  H      0.981499    1.961570    0.045460
  H     -0.519871    1.920264   -0.894166
  H     -0.576139    1.909665    0.887957
  H     -1.953505   -0.205457   -0.952403
  H     -1.452885   -1.647313   -0.052871
  H     -2.010134   -0.215797    0.829710
  H      2.688785   -1.781278   -1.254162
  H      2.604436   -1.797074    1.406377

 Total Charge           Charge          ....    0
 Multiplicity           Mult            ....    1
 Number of Electrons    NEL             ....   66
 Basis Dimension        Dim             ....  327

ORBITAL ENERGIES
----------------

  NO   OCC          E(Eh)            E(eV)
   0   2.0000     -20.566035      -559.6303
   1   2.0000     -20.566035      -559.6303
   2   2.0000     -11.348959      -308.8209
   3   2.0000     -11.348949      -308.8206
   4   2.0000     -11.283886      -307.0501
   5   2.0000     -11.282219      -307.0048
   6   2.0000     -11.267436      -306.6025
   7   2.0000     -11.237115      -305.7774
   8   2.0000     -11.237100      -305.7770
   9   2.0000      -1.410196       -38.3734
  10   2.0000      -1.404999       -38.2320
  11   2.0000      -1.170240       -31.8439
  12   2.0000      -1.080075       -29.3903
  13   2.0000      -0.953741       -25.9526
  14   2.0000      -0.911695       -24.8085
  15   2.0000      -0.899204       -24.4686
  16   2.0000      -0.768254       -20.9052
  17   2.0000      -0.745079       -20.2746
  18   2.0000      -0.700237       -19.0544
  19   2.0000      -0.655475       -17.8364
  20   2.0000      -0.638827       -17.3834
  21   2.0000      -0.621298       -16.9064
  22   2.0000      -0.620330       -16.8800
  23   2.0000      -0.608191       -16.5497
  24   2.0000      -0.573178       -15.5970
  25   2.0000      -0.553506       -15.0617
  26   2.0000      -0.543640       -14.7932
  27   2.0000      -0.541573       -14.7370
  28   2.0000      -0.528938       -14.3931
  29   2.0000      -0.494408       -13.4535
  30   2.0000      -0.440537       -11.9876
  31   2.0000      -0.416898       -11.3444
  32   2.0000      -0.410727       -11.1764
  33   0.0000       0.044093         1.1998
  34   0.0000       0.135782         3.6948
  35   0.0000       0.137414         3.7392
  36   0.0000       0.157687         4.2909
  37   0.0000       0.179440         4.8828

MULLIKEN ATOMIC CHARGES
-----------------------
   0 C :   -0.423252
   1 C :    0.124703
   2 C :   -0.423254
   3 C :    0.169384
   4 O :   -0.267795
   5 C :   -0.143699
   6 C :   -0.143697
   7 C :    0.169381
   8 O :   -0.267795
   9 H :    0.135893
  10 H :    0.153958
  11 H :    0.153962
  12 H :    0.153962
  13 H :    0.135892
  14 H :    0.153957
  15 H :    0.159201
  16 H :    0.159201
Sum of atomic charges:   -0.0000000

LOEWDIN ATOMIC CHARGES
----------------------
   0 C :   -0.247078
   1 C :   -0.257140
   2 C :   -0.247080
   3 C :   -0.274628
   4 O :    0.170152
   5 C :   -0.071218
   6 C :   -0.071217
   7 C :   -0.274628
   8 O :    0.170152
   9 H :    0.131003
  10 H :    0.135256
  11 H :    0.135256
  12 H :    0.135256
  13 H :    0.131003
  14 H :    0.135255
  15 H :    0.149829
  16 H :    0.149828

  Mayer bond orders larger than 0.1
B(  0-C ,  1-C ) :   0.8921 B(  0-C ,  9-H ) :   0.9249 B(  0-C , 10-H ) :   0.9322
B(  0-C , 11-H ) :   0.9322 B(  1-C ,  2-C ) :   0.8921 B(  1-C ,  3-C ) :   0.8166
B(  1-C ,  7-C ) :   0.8166 B(  2-C , 12-H ) :   0.9322 B(  2-C , 13-H ) :   0.9249
B(  2-C , 14-H ) :   0.9322 B(  3-C ,  4-O ) :   2.0107 B(  3-C ,  5-C ) :   0.9746
B(  5-C ,  6-C ) :   1.5902 B(  5-C , 15-H ) :   0.9073 B(  6-C ,  7-C ) :   0.9746
B(  6-C , 16-H ) :   0.9073 B(  7-C ,  8-O ) :   2.0107

MP2 TOTAL ENERGY:     -421.168988474 Eh
FINAL SINGLE POINT ENERGY      -421.168988473731

DIPOLE MOMENT
-------------
                                X             Y             Z
Electronic contribution:      4.48895      -3.03147       0.12433
Nuclear contribution   :     -4.05845       2.74079      -0.11241
                        -----------------------------------------
Total Dipole Moment    :      0.43050      -0.29068       0.01192
                        -----------------------------------------
Magnitude (a.u.)       :      0.51958
Magnitude (Debye)      :      1.32067

                             ****ORCA TERMINATED NORMALLY****
TOTAL RUN TIME: 0 days 0 hours 17 minutes 57 seconds 266 msec
