                         Program Version 3.0.3 - RELEASE   -
|  1> ! RI-MP2 RIJK def2-TZVP def2-TZVP/C def2-TZVP/JK TIGHTSCF
|  2> % maxcore 2000
|  3> % mp2 density relaxed end
|  4> *xyz 0 1
|  5>  O       -0.0904801566     1.6137724547    -0.1639501041
|  6>  C        0.0329911625     0.2000185451    -0.2290193957
|  7>  C       -1.3158946091    -0.3857365356     0.1777581731
|  8>  C       -1.3798689251    -1.8993546752     0.0390836457
|  9>  C       -2.8065255081    -2.5285331299    -0.0121873358
| 10>  C       -2.4328133610    -2.9144027133    -1.4553883852
| 11>  O       -1.1045884078    -2.3662670046    -1.3077763338
| 12>  C       -0.4839820668    -2.6341519473     1.0278781319
| 13>  O       -0.1603154000    -2.2123777870     2.1074768996
| 14>  H        0.7572491763     1.9981928891    -0.4046677146
| 15>  H        0.2814604704    -0.1365308357    -1.2462195318
| 16>  H        0.8187403562    -0.1626472616     0.4498693104
| 17>  H       -1.5276631006    -0.1236613646     1.2196509831
| 18>  H       -2.0919226265     0.0674140420    -0.4480418152
| 19>  H       -2.9703450836    -3.3692208561     0.6650035781
| 20>  H       -3.6168116404    -1.8087598653     0.1076947069
| 21>  H       -2.4079208985    -3.9881360829    -1.6721954132
| 22>  H       -2.9977508913    -2.4053859754    -2.2449504785
| 23>  H       -0.1680913000    -3.6381704465     0.6626521790
| 24> *
| 25>
| 26>                          ****END OF INPUT****

CARTESIAN COORDINATES (ANGSTROEM)
---------------------------------
  O     -0.090480    1.613772   -0.163950
  C      0.032991    0.200019   -0.229019
  C     -1.315895   -0.385737    0.177758
  C     -1.379869   -1.899355    0.039084
  C     -2.806526   -2.528533   -0.012187
  C     -2.432813   -2.914403   -1.455388
  O     -1.104588   -2.366267   -1.307776
  C     -0.483982   -2.634152    1.027878
  O     -0.160315   -2.212378    2.107477
  H      0.757249    1.998193   -0.404668
  H      0.281460   -0.136531   -1.246220
  H      0.818740   -0.162647    0.449869
  H     -1.527663   -0.123661    1.219651
  H     -2.091923    0.067414   -0.448042
  H     -2.970345   -3.369221    0.665004
  H     -3.616812   -1.808760    0.107695
  H     -2.407921   -3.988136   -1.672195
  H     -2.997751   -2.405386   -2.244950
  H     -0.168091   -3.638170    0.662652

 Total Charge           Charge          ....    0
 Multiplicity           Mult            ....    1
 Number of Electrons    NEL             ....   70
 Basis Dimension        Dim             ....  339

ORBITAL ENERGIES
----------------

  NO   OCC          E(Eh)            E(eV)
   0   2.0000     -20.567068      -559.6584
   1   2.0000     -20.566717      -559.6488
   2   2.0000     -20.553991      -559.3025
   3   2.0000     -11.336447      -308.4804
   4   2.0000     -11.308877      -307.7302
   5   2.0000     -11.296132      -307.3834
   6   2.0000     -11.273426      -306.7655
   7   2.0000     -11.252411      -306.1937
   8   2.0000     -11.227894      -305.5265
   9   2.0000      -1.410626       -38.3851
  10   2.0000      -1.394111       -37.9357
  11   2.0000      -1.357694       -36.9447
  12   2.0000      -1.070619       -29.1330
  13   2.0000      -1.022022       -27.8106
  14   2.0000      -0.955460       -25.9994
  15   2.0000      -0.856825       -23.3154
  16   2.0000      -0.835506       -22.7353
  17   2.0000      -0.748819       -20.3764
  18   2.0000      -0.705349       -19.1935
  19   2.0000      -0.703278       -19.1372
  20   2.0000      -0.673162       -18.3177
  21   2.0000      -0.659784       -17.9536
  22   2.0000      -0.642651       -17.4874
  23   2.0000      -0.622931       -16.9508
  24   2.0000      -0.583933       -15.8896
  25   2.0000      -0.569342       -15.4926
  26   2.0000      -0.560488       -15.2517
  27   2.0000      -0.537901       -14.6370
  28   2.0000      -0.527753       -14.3609
  29   2.0000      -0.501784       -13.6542
  30   2.0000      -0.487765       -13.2728
  31   2.0000      -0.472448       -12.8560
  32   2.0000      -0.445710       -12.1284
  33   2.0000      -0.442378       -12.0377
  34   2.0000      -0.409606       -11.1460
  35   0.0000       0.114041         3.1032
  36   0.0000       0.140484         3.8228
  37   0.0000       0.143673         3.9095
  38   0.0000       0.163345         4.4448
  39   0.0000       0.167942         4.5699

MULLIKEN ATOMIC CHARGES
-----------------------
   0 O :   -0.464317
   1 C :   -0.128499
   2 C :   -0.159332
   3 C :    0.303197
   4 C :   -0.307434
   5 C :   -0.026510
   6 O :   -0.356837
   7 C :    0.009426
   8 O :   -0.255786
   9 H :    0.316848
  10 H :    0.118653
  11 H :    0.109814
  12 H :    0.131761
  13 H :    0.112435
  14 H :    0.140782
  15 H :    0.143928
  16 H :    0.106811
  17 H :    0.104462
  18 H :    0.100598
Sum of atomic charges:   -0.0000000

LOEWDIN ATOMIC CHARGES
----------------------
   0 O :   -0.050829
   1 C :   -0.342509
   2 C :   -0.224902
   3 C :   -0.317908
   4 C :   -0.193476
   5 C :   -0.266534
   6 O :    0.156577
   7 C :   -0.256172
   8 O :    0.148330
   9 H :    0.172667
  10 H :    0.119971
  11 H :    0.118866
  12 H :    0.155385
  13 H :    0.148419
  14 H :    0.137021
  15 H :    0.138146
  16 H :    0.118457
  17 H :    0.118958
  18 H :    0.119533

  Mayer bond orders larger than 0.1
B(  0-O ,  1-C ) :   1.0160 B(  0-O ,  9-H ) :   0.8487 B(  1-C ,  2-C ) :   0.9250
B(  1-C , 10-H ) :   0.9304 B(  1-C , 11-H ) :   0.9314 B(  2-C ,  3-C ) :   0.9159
B(  2-C , 12-H ) :   0.9057 B(  2-C , 13-H ) :   0.9126 B(  3-C ,  4-C ) :   0.8389
B(  3-C ,  6-O ) :   0.8712 B(  3-C ,  7-C ) :   0.8309 B(  4-C ,  5-C ) :   0.9802
B(  4-C , 14-H ) :   0.9265 B(  4-C , 15-H ) :   0.9277 B(  5-C ,  6-O ) :   0.9452
B(  5-C , 16-H ) :   0.9165 B(  5-C , 17-H ) :   0.9168 B(  7-C ,  8-O ) :   1.9969
B(  7-C , 18-H ) :   0.9412

MP2 TOTAL ENERGY:     -459.409183498 Eh
FINAL SINGLE POINT ENERGY      -459.409183497875

DIPOLE MOMENT
-------------
                                X             Y             Z
Electronic contribution:      2.74648      -0.97990       2.21940
Nuclear contribution   :     -3.19978       0.49469      -2.85287
                        -----------------------------------------
Total Dipole Moment    :     -0.45329      -0.48520      -0.63347
                        -----------------------------------------
Magnitude (a.u.)       :      0.91770
Magnitude (Debye)      :      2.33262

                             ****ORCA TERMINATED NORMALLY****
TOTAL RUN TIME: 0 days 0 hours 16 minutes 28 seconds 751 msec
