                         Program Version 3.0.3 - RELEASE   -
|  1> ! RI-MP2 RIJK def2-TZVP def2-TZVP/C def2-TZVP/JK TIGHTSCF
|  2> % maxcore 2000
|  3> % mp2 density relaxed end
|  4> *xyz 0 1
|  5>  C       -0.8998726960     0.9299094167     0.3303376907
|  6>  N        0.0322990318    -0.1675382687     0.0905687420
|  7>  C        1.3499117290     0.1390408094    -0.4405553055
|  8>  C        1.1928156721    -0.3902442013     0.9510308001
|  9>  C        1.5872942767     0.4192685160     2.1418823273
| 10>  C        2.6474693092    -0.0586288041     3.1592762019
| 11>  C        1.8604445837     0.6751877039     4.2943198834
| 12>  C        0.8389758588     1.1301774081     3.2471604678
| 13>  N        1.4896083348     1.8732997900     2.1685149085
| 14>  H       -0.4258506774     1.8655994576     0.6484302288
| 15>  H       -1.4542486092     1.1084167385    -0.5970768592
| 16>  H       -1.6232125377     0.6222100728     1.0930839294
| 17>  H        1.7086713310    -0.4998462602    -1.2446367458
| 18>  H        1.6349050039     1.1875273406    -0.5172829859
| 19>  H        1.3850470893    -1.4511711038     1.1121990927
| 20>  H        2.6523415655    -1.1427676432     3.2965627254
| 21>  H        3.6725252228     0.2712370194     2.9579257521
| 22>  H        1.4490671022    -0.0211175035     5.0286799151
| 23>  H        2.3791397407     1.4787272684     4.8284872227
| 24>  H       -0.2242478316     1.2811194161     3.3944685037
| 25>  H        2.3528050105     2.3277033275     2.4644844247
| 26> *
| 27>
| 28>                          ****END OF INPUT****

CARTESIAN COORDINATES (ANGSTROEM)
---------------------------------
  C     -0.899873    0.929909    0.330338
  N      0.032299   -0.167538    0.090569
  C      1.349912    0.139041   -0.440555
  C      1.192816   -0.390244    0.951031
  C      1.587294    0.419269    2.141882
  C      2.647469   -0.058629    3.159276
  C      1.860445    0.675188    4.294320
  C      0.838976    1.130177    3.247160
  N      1.489608    1.873300    2.168515
  H     -0.425851    1.865599    0.648430
  H     -1.454249    1.108417   -0.597077
  H     -1.623213    0.622210    1.093084
  H      1.708671   -0.499846   -1.244637
  H      1.634905    1.187527   -0.517283
  H      1.385047   -1.451171    1.112199
  H      2.652342   -1.142768    3.296563
  H      3.672525    0.271237    2.957926
  H      1.449067   -0.021118    5.028680
  H      2.379140    1.478727    4.828487
  H     -0.224248    1.281119    3.394469
  H      2.352805    2.327703    2.464484

 Total Charge           Charge          ....    0
 Multiplicity           Mult            ....    1
 Number of Electrons    NEL             ....   68
 Basis Dimension        Dim             ....  351

ORBITAL ENERGIES
----------------

  NO   OCC          E(Eh)            E(eV)
   0   2.0000     -15.558538      -423.3693
   1   2.0000     -15.549338      -423.1190
   2   2.0000     -11.269536      -306.6597
   3   2.0000     -11.261233      -306.4337
   4   2.0000     -11.255764      -306.2849
   5   2.0000     -11.243268      -305.9449
   6   2.0000     -11.235713      -305.7393
   7   2.0000     -11.235163      -305.7243
   8   2.0000     -11.230288      -305.5917
   9   2.0000      -1.292702       -35.1762
  10   2.0000      -1.255541       -34.1650
  11   2.0000      -1.047408       -28.5014
  12   2.0000      -0.990729       -26.9591
  13   2.0000      -0.923873       -25.1399
  14   2.0000      -0.877215       -23.8702
  15   2.0000      -0.818821       -22.2813
  16   2.0000      -0.805414       -21.9164
  17   2.0000      -0.733434       -19.9577
  18   2.0000      -0.691748       -18.8234
  19   2.0000      -0.656005       -17.8508
  20   2.0000      -0.639257       -17.3951
  21   2.0000      -0.623268       -16.9600
  22   2.0000      -0.583440       -15.8762
  23   2.0000      -0.572864       -15.5884
  24   2.0000      -0.545481       -14.8433
  25   2.0000      -0.527646       -14.3580
  26   2.0000      -0.500508       -13.6195
  27   2.0000      -0.486007       -13.2249
  28   2.0000      -0.470898       -12.8138
  29   2.0000      -0.461353       -12.5540
  30   2.0000      -0.440583       -11.9889
  31   2.0000      -0.424169       -11.5422
  32   2.0000      -0.383886       -10.4461
  33   2.0000      -0.348243        -9.4762
  34   0.0000       0.139599         3.7987
  35   0.0000       0.157319         4.2809
  36   0.0000       0.163245         4.4421
  37   0.0000       0.169882         4.6227
  38   0.0000       0.190653         5.1879

MULLIKEN ATOMIC CHARGES
-----------------------
   0 C :   -0.320985
   1 N :   -0.213794
   2 C :   -0.170215
   3 C :   -0.050822
   4 C :    0.112212
   5 C :   -0.268210
   6 C :   -0.198828
   7 C :   -0.124329
   8 N :   -0.353980
   9 H :    0.150812
  10 H :    0.136888
  11 H :    0.122842
  12 H :    0.120879
  13 H :    0.123109
  14 H :    0.116752
  15 H :    0.121899
  16 H :    0.117642
  17 H :    0.117800
  18 H :    0.120082
  19 H :    0.132537
  20 H :    0.207711
Sum of atomic charges:   -0.0000000

LOEWDIN ATOMIC CHARGES
----------------------
   0 C :   -0.331400
   1 N :    0.093396
   2 C :   -0.239981
   3 C :   -0.232621
   4 C :   -0.254452
   5 C :   -0.197883
   6 C :   -0.228816
   7 C :   -0.217790
   8 N :    0.044554
   9 H :    0.113956
  10 H :    0.117140
  11 H :    0.115154
  12 H :    0.120642
  13 H :    0.127874
  14 H :    0.149238
  15 H :    0.136972
  16 H :    0.126811
  17 H :    0.136079
  18 H :    0.126066
  19 H :    0.131192
  20 H :    0.163870

  Mayer bond orders larger than 0.1
B(  0-C ,  1-N ) :   0.8804 B(  0-C ,  9-H ) :   0.9236 B(  0-C , 10-H ) :   0.9350
B(  0-C , 11-H ) :   0.9395 B(  1-N ,  2-C ) :   0.9018 B(  1-N ,  3-C ) :   0.9470
B(  2-C ,  3-C ) :   0.9178 B(  2-C , 12-H ) :   0.9194 B(  2-C , 13-H ) :   0.9113
B(  3-C ,  4-C ) :   0.8996 B(  3-C , 14-H ) :   0.9231 B(  4-C ,  5-C ) :   0.9311
B(  4-C ,  7-C ) :   0.8412 B(  4-C ,  8-N ) :   0.9001 B(  5-C ,  6-C ) :   0.9602
B(  5-C , 15-H ) :   0.9207 B(  5-C , 16-H ) :   0.9157 B(  6-C ,  7-C ) :   0.9302
B(  6-C , 17-H ) :   0.9136 B(  6-C , 18-H ) :   0.9287 B(  7-C ,  8-N ) :   0.9392
B(  7-C , 19-H ) :   0.9123 B(  8-N , 20-H ) :   0.8579

MP2 TOTAL ENERGY:     -382.511489779 Eh
FINAL SINGLE POINT ENERGY      -382.511489778630

DIPOLE MOMENT
-------------
                                X             Y             Z
Electronic contribution:      0.37800      -0.58101      -0.59100
Nuclear contribution   :      0.16214       0.69115       1.24878
                        -----------------------------------------
Total Dipole Moment    :      0.54014       0.11014       0.65778
                        -----------------------------------------
Magnitude (a.u.)       :      0.85823
Magnitude (Debye)      :      2.18145

                             ****ORCA TERMINATED NORMALLY****
TOTAL RUN TIME: 0 days 0 hours 20 minutes 13 seconds 26 msec
