                         Program Version 3.0.3 - RELEASE   -
|  1> ! RI-MP2 RIJK def2-TZVP def2-TZVP/C def2-TZVP/JK TIGHTSCF
|  2> % maxcore 2000
|  3> % mp2 density relaxed end
|  4> *xyz 0 1
|  5>  C        0.0412474249     1.5613819802    -0.1350933900
|  6>  C       -0.0155552077     0.0514082830     0.1299382003
|  7>  C       -1.4294578143    -0.5125713458     0.1045843415
|  8>  O       -2.2762516404     0.0133404647     1.0910485299
|  9>  C       -2.0679321057    -0.7799355923    -1.3107600126
| 10>  O       -1.1450135394    -1.9331433945    -1.4468919894
| 11>  C       -1.5804475985    -2.0531760174    -0.0330006185
| 12>  C       -3.0062008878    -1.8062343162    -0.6122104540
| 13>  O       -4.0976179578    -2.2610791398    -0.6524731105
| 14>  H        1.0767080738     1.9124095570    -0.1324695455
| 15>  H       -0.3926912318     1.8159063729    -1.1079907935
| 16>  H       -0.4873225476     2.1377262486     0.6336967609
| 17>  H        0.5794111666    -0.4815005708    -0.6152695293
| 18>  H        0.4159914871    -0.1662307903     1.1140192070
| 19>  H       -2.2620359546     0.9745155785     1.0363981032
| 20>  H       -2.1984094480    -0.1331680168    -2.1767765996
| 21>  H       -1.1537662888    -2.8553573010     0.5657681801
| 22> *
| 23>
| 24>                          ****END OF INPUT****

CARTESIAN COORDINATES (ANGSTROEM)
---------------------------------
  C      0.041247    1.561382   -0.135093
  C     -0.015555    0.051408    0.129938
  C     -1.429458   -0.512571    0.104584
  O     -2.276252    0.013340    1.091049
  C     -2.067932   -0.779936   -1.310760
  O     -1.145014   -1.933143   -1.446892
  C     -1.580448   -2.053176   -0.033001
  C     -3.006201   -1.806234   -0.612210
  O     -4.097618   -2.261079   -0.652473
  H      1.076708    1.912410   -0.132470
  H     -0.392691    1.815906   -1.107991
  H     -0.487323    2.137726    0.633697
  H      0.579411   -0.481501   -0.615270
  H      0.415991   -0.166231    1.114019
  H     -2.262036    0.974516    1.036398
  H     -2.198409   -0.133168   -2.176777
  H     -1.153766   -2.855357    0.565768

 Total Charge           Charge          ....    0
 Multiplicity           Mult            ....    1
 Number of Electrons    NEL             ....   68
 Basis Dimension        Dim             ....  327

ORBITAL ENERGIES
----------------

  NO   OCC          E(Eh)            E(eV)
   0   2.0000     -20.588254      -560.2349
   1   2.0000     -20.587908      -560.2255
   2   2.0000     -20.567244      -559.6632
   3   2.0000     -11.356663      -309.0305
   4   2.0000     -11.327071      -308.2253
   5   2.0000     -11.319419      -308.0171
   6   2.0000     -11.319317      -308.0143
   7   2.0000     -11.244915      -305.9897
   8   2.0000     -11.241199      -305.8886
   9   2.0000      -1.444882       -39.3173
  10   2.0000      -1.406298       -38.2673
  11   2.0000      -1.391043       -37.8522
  12   2.0000      -1.086386       -29.5621
  13   2.0000      -1.045846       -28.4589
  14   2.0000      -0.929819       -25.3017
  15   2.0000      -0.915408       -24.9095
  16   2.0000      -0.813221       -22.1289
  17   2.0000      -0.753929       -20.5154
  18   2.0000      -0.729059       -19.8387
  19   2.0000      -0.692681       -18.8488
  20   2.0000      -0.674549       -18.3554
  21   2.0000      -0.638256       -17.3678
  22   2.0000      -0.632199       -17.2030
  23   2.0000      -0.612662       -16.6714
  24   2.0000      -0.576817       -15.6960
  25   2.0000      -0.567537       -15.4435
  26   2.0000      -0.553761       -15.0686
  27   2.0000      -0.536618       -14.6021
  28   2.0000      -0.521765       -14.1980
  29   2.0000      -0.509900       -13.8751
  30   2.0000      -0.498706       -13.5705
  31   2.0000      -0.463462       -12.6114
  32   2.0000      -0.440159       -11.9773
  33   2.0000      -0.406613       -11.0645
  34   0.0000       0.114577         3.1178
  35   0.0000       0.139281         3.7900
  36   0.0000       0.159062         4.3283
  37   0.0000       0.162791         4.4298
  38   0.0000       0.175211         4.7677

MULLIKEN ATOMIC CHARGES
-----------------------
   0 C :   -0.426774
   1 C :   -0.250744
   2 C :    0.195884
   3 O :   -0.457953
   4 C :   -0.086388
   5 O :   -0.293929
   6 C :   -0.020707
   7 C :    0.233681
   8 O :   -0.221150
   9 H :    0.149709
  10 H :    0.136999
  11 H :    0.115318
  12 H :    0.150964
  13 H :    0.127926
  14 H :    0.326982
  15 H :    0.160722
  16 H :    0.159462
Sum of atomic charges:    0.0000000

LOEWDIN ATOMIC CHARGES
----------------------
   0 C :   -0.316549
   1 C :   -0.256658
   2 C :   -0.338566
   3 O :    0.042389
   4 C :   -0.167237
   5 O :    0.166106
   6 C :   -0.154862
   7 C :   -0.274396
   8 O :    0.189883
   9 H :    0.128314
  10 H :    0.123348
  11 H :    0.115726
  12 H :    0.153946
  13 H :    0.146217
  14 H :    0.182077
  15 H :    0.128526
  16 H :    0.131736

  Mayer bond orders larger than 0.1
B(  0-C ,  1-C ) :   0.8943 B(  0-C ,  9-H ) :   0.9394 B(  0-C , 10-H ) :   0.9384
B(  0-C , 11-H ) :   0.9378 B(  1-C ,  2-C ) :   0.8933 B(  1-C , 12-H ) :   0.9241
B(  1-C , 13-H ) :   0.9282 B(  2-C ,  3-O ) :   0.9877 B(  2-C ,  4-C ) :   0.9134
B(  2-C ,  6-C ) :   0.9004 B(  3-O , 14-H ) :   0.8329 B(  4-C ,  5-O ) :   0.8841
B(  4-C ,  7-C ) :   0.8849 B(  4-C , 15-H ) :   0.8625 B(  5-O ,  6-C ) :   0.8809
B(  6-C ,  7-C ) :   0.8945 B(  6-C , 16-H ) :   0.8690 B(  7-C ,  8-O ) :   2.0848

MP2 TOTAL ENERGY:     -458.165368955 Eh
FINAL SINGLE POINT ENERGY      -458.165368955361

DIPOLE MOMENT
-------------
                                X             Y             Z
Electronic contribution:     -7.76403      -7.99350      -1.44975
Nuclear contribution   :      8.79419       9.20026       1.64972
                        -----------------------------------------
Total Dipole Moment    :      1.03017       1.20675       0.19998
                        -----------------------------------------
Magnitude (a.u.)       :      1.59922
Magnitude (Debye)      :      4.06488

                             ****ORCA TERMINATED NORMALLY****
TOTAL RUN TIME: 0 days 0 hours 16 minutes 53 seconds 638 msec
