                         Program Version 3.0.3 - RELEASE   -
|  1> ! RI-MP2 RIJK def2-TZVP def2-TZVP/C def2-TZVP/JK TIGHTSCF
|  2> % maxcore 2000
|  3> % mp2 density relaxed end
|  4> *xyz 0 1
|  5>  C        0.0456295750     1.4110195943     0.0954537141
|  6>  N       -0.0777628235    -0.0205626309    -0.0486961820
|  7>  C       -1.2812633594    -0.6431996257    -0.0421937807
|  8>  N       -2.3957967076    -0.0052600397    -0.0342729077
|  9>  C       -3.6117195944    -0.8031382102    -0.0277185841
| 10>  C       -3.4785210468    -2.1417525621    -0.7533830887
| 11>  N       -2.2875761049    -2.8272121790    -0.2612269977
| 12>  C       -1.1311684180    -2.1592308932    -0.0301691191
| 13>  O       -0.0586687536    -2.6975930989     0.1963552889
| 14>  H        1.0921909968     1.6941605596    -0.0332929516
| 15>  H       -0.5586540841     1.9162166504    -0.6637949382
| 16>  H       -0.3035319949     1.7603691848     1.0764149624
| 17>  H        0.7081386406    -0.6300792556     0.1197201153
| 18>  H       -3.9248895152    -0.9832850736     1.0123845055
| 19>  H       -4.4151718968    -0.2250111172    -0.4971857172
| 20>  H       -4.3525747035    -2.7725483177    -0.5663719013
| 21>  H       -3.4100589121    -1.9765064103    -1.8388565253
| 22>  H       -2.1990835176    -3.8281376448    -0.3610244028
| 23> *
| 24>
| 25>                          ****END OF INPUT****

CARTESIAN COORDINATES (ANGSTROEM)
---------------------------------
  C      0.045630    1.411020    0.095454
  N     -0.077763   -0.020563   -0.048696
  C     -1.281263   -0.643200   -0.042194
  N     -2.395797   -0.005260   -0.034273
  C     -3.611720   -0.803138   -0.027719
  C     -3.478521   -2.141753   -0.753383
  N     -2.287576   -2.827212   -0.261227
  C     -1.131168   -2.159231   -0.030169
  O     -0.058669   -2.697593    0.196355
  H      1.092191    1.694161   -0.033293
  H     -0.558654    1.916217   -0.663795
  H     -0.303532    1.760369    1.076415
  H      0.708139   -0.630079    0.119720
  H     -3.924890   -0.983285    1.012385
  H     -4.415172   -0.225011   -0.497186
  H     -4.352575   -2.772548   -0.566372
  H     -3.410059   -1.976506   -1.838857
  H     -2.199084   -3.828138   -0.361024

 Total Charge           Charge          ....    0
 Multiplicity           Mult            ....    1
 Number of Electrons    NEL             ....   68
 Basis Dimension        Dim             ....  333

ORBITAL ENERGIES
----------------

  NO   OCC          E(Eh)            E(eV)
   0   2.0000     -20.534845      -558.7815
   1   2.0000     -15.596295      -424.3968
   2   2.0000     -15.569555      -423.6691
   3   2.0000     -15.539258      -422.8447
   4   2.0000     -11.365174      -309.2621
   5   2.0000     -11.319135      -308.0093
   6   2.0000     -11.279892      -306.9415
   7   2.0000     -11.259989      -306.3999
   8   2.0000     -11.252541      -306.1972
   9   2.0000      -1.399850       -38.0919
  10   2.0000      -1.283295       -34.9202
  11   2.0000      -1.249828       -34.0095
  12   2.0000      -1.174638       -31.9635
  13   2.0000      -1.022863       -27.8335
  14   2.0000      -0.955845       -26.0099
  15   2.0000      -0.880524       -23.9603
  16   2.0000      -0.862620       -23.4731
  17   2.0000      -0.750457       -20.4210
  18   2.0000      -0.721234       -19.6258
  19   2.0000      -0.692375       -18.8405
  20   2.0000      -0.665709       -18.1149
  21   2.0000      -0.635621       -17.2961
  22   2.0000      -0.614912       -16.7326
  23   2.0000      -0.595602       -16.2072
  24   2.0000      -0.584303       -15.8997
  25   2.0000      -0.579987       -15.7823
  26   2.0000      -0.556667       -15.1477
  27   2.0000      -0.548620       -14.9287
  28   2.0000      -0.540397       -14.7050
  29   2.0000      -0.473424       -12.8825
  30   2.0000      -0.464315       -12.6346
  31   2.0000      -0.406187       -11.0529
  32   2.0000      -0.392070       -10.6688
  33   2.0000      -0.341366        -9.2890
  34   0.0000       0.110219         2.9992
  35   0.0000       0.129232         3.5166
  36   0.0000       0.155444         4.2298
  37   0.0000       0.160481         4.3669
  38   0.0000       0.182065         4.9542

MULLIKEN ATOMIC CHARGES
-----------------------
   0 C :   -0.259265
   1 N :   -0.312648
   2 C :    0.125763
   3 N :   -0.283422
   4 C :   -0.110061
   5 C :   -0.138783
   6 N :   -0.286939
   7 C :    0.234308
   8 O :   -0.372576
   9 H :    0.135361
  10 H :    0.144269
  11 H :    0.131103
  12 H :    0.263197
  13 H :    0.107905
  14 H :    0.127572
  15 H :    0.131807
  16 H :    0.120454
  17 H :    0.241956
Sum of atomic charges:   -0.0000000

LOEWDIN ATOMIC CHARGES
----------------------
   0 C :   -0.317740
   1 N :    0.093569
   2 C :   -0.330489
   3 N :    0.079029
   4 C :   -0.302119
   5 C :   -0.277826
   6 N :    0.125475
   7 C :   -0.421466
   8 O :    0.073685
   9 H :    0.117934
  10 H :    0.122918
  11 H :    0.115149
  12 H :    0.194458
  13 H :    0.134153
  14 H :    0.135930
  15 H :    0.135887
  16 H :    0.130948
  17 H :    0.190507

  Mayer bond orders larger than 0.1
B(  0-C ,  1-N ) :   0.8802 B(  0-C ,  9-H ) :   0.9316 B(  0-C , 10-H ) :   0.9324
B(  0-C , 11-H ) :   0.9355 B(  1-N ,  2-C ) :   1.1947 B(  1-N , 12-H ) :   0.8496
B(  2-C ,  3-N ) :   1.7251 B(  2-C ,  7-C ) :   0.8929 B(  3-N ,  4-C ) :   0.9472
B(  4-C ,  5-C ) :   0.9336 B(  4-C , 13-H ) :   0.9133 B(  4-C , 14-H ) :   0.9343
B(  5-C ,  6-N ) :   0.8618 B(  5-C , 15-H ) :   0.9220 B(  5-C , 16-H ) :   0.9311
B(  6-N ,  7-C ) :   1.2536 B(  6-N , 17-H ) :   0.8595 B(  7-C ,  8-O ) :   1.8812

MP2 TOTAL ENERGY:     -434.593273145 Eh
FINAL SINGLE POINT ENERGY      -434.593273144608

DIPOLE MOMENT
-------------
                                X             Y             Z
Electronic contribution:      2.38715      -4.75611       0.49318
Nuclear contribution   :     -3.07176       4.56238      -0.80616
                        -----------------------------------------
Total Dipole Moment    :     -0.68461      -0.19373      -0.31298
                        -----------------------------------------
Magnitude (a.u.)       :      0.77729
Magnitude (Debye)      :      1.97571

                             ****ORCA TERMINATED NORMALLY****
TOTAL RUN TIME: 0 days 0 hours 17 minutes 13 seconds 993 msec
