                         Program Version 3.0.3 - RELEASE   -
|  1> ! RI-MP2 RIJK def2-TZVP def2-TZVP/C def2-TZVP/JK TIGHTSCF
|  2> % maxcore 2000
|  3> % mp2 density relaxed end
|  4> *xyz 0 1
|  5>  C       -0.1096053775     1.6231359374    -0.0703082619
|  6>  C        1.4382595073     1.5274917008     0.0459286152
|  7>  O        1.3430178006     0.1423651908     0.4496071655
|  8>  C       -0.0455340363     0.0741326291     0.0522791053
|  9>  C       -0.2689404031    -0.6896934073    -1.2197922058
| 10>  C        0.6473380369    -1.0022111592    -2.1369000325
| 11>  C        2.1337936743    -0.6761837619    -2.1167722450
| 12>  C        2.4904514210     0.8030932618    -2.1447861105
| 13>  C        2.2009876646     1.7295696601    -1.2303613307
| 14>  H       -0.5818781479     2.1090390273     0.7855514602
| 15>  H       -0.5066553671     2.0244278055    -1.0022908399
| 16>  H        1.8798386021     2.1317542160     0.8478739727
| 17>  H       -0.6553040318    -0.3513905265     0.8587233175
| 18>  H       -1.3014544729    -0.9904127888    -1.3901944304
| 19>  H        0.3069356861    -1.5584258565    -3.0073952559
| 20>  H        2.5818924818    -1.1297872599    -1.2287342681
| 21>  H        2.5974714603    -1.1533632409    -2.9846145487
| 22>  H        3.0497938641     1.1281626589    -3.0191295384
| 23>  H        2.5222853975     2.7548879134    -1.4065558486
| 24> *
| 25>
| 26>                          ****END OF INPUT****

CARTESIAN COORDINATES (ANGSTROEM)
---------------------------------
  C     -0.109605    1.623136   -0.070308
  C      1.438260    1.527492    0.045929
  O      1.343018    0.142365    0.449607
  C     -0.045534    0.074133    0.052279
  C     -0.268940   -0.689693   -1.219792
  C      0.647338   -1.002211   -2.136900
  C      2.133794   -0.676184   -2.116772
  C      2.490451    0.803093   -2.144786
  C      2.200988    1.729570   -1.230361
  H     -0.581878    2.109039    0.785551
  H     -0.506655    2.024428   -1.002291
  H      1.879839    2.131754    0.847874
  H     -0.655304   -0.351391    0.858723
  H     -1.301454   -0.990413   -1.390194
  H      0.306936   -1.558426   -3.007395
  H      2.581892   -1.129787   -1.228734
  H      2.597471   -1.153363   -2.984615
  H      3.049794    1.128163   -3.019130
  H      2.522285    2.754888   -1.406556

 Total Charge           Charge          ....    0
 Multiplicity           Mult            ....    1
 Number of Electrons    NEL             ....   66
 Basis Dimension        Dim             ....  339

ORBITAL ENERGIES
----------------

  NO   OCC          E(Eh)            E(eV)
   0   2.0000     -20.545644      -559.0754
   1   2.0000     -11.287123      -307.1382
   2   2.0000     -11.287121      -307.1382
   3   2.0000     -11.231353      -305.6207
   4   2.0000     -11.230301      -305.5920
   5   2.0000     -11.230270      -305.5912
   6   2.0000     -11.225565      -305.4632
   7   2.0000     -11.223132      -305.3970
   8   2.0000     -11.223131      -305.3969
   9   2.0000      -1.381620       -37.5958
  10   2.0000      -1.090834       -29.6831
  11   2.0000      -1.057375       -28.7726
  12   2.0000      -1.018977       -27.7278
  13   2.0000      -0.930106       -25.3095
  14   2.0000      -0.922977       -25.1155
  15   2.0000      -0.791972       -21.5506
  16   2.0000      -0.746454       -20.3121
  17   2.0000      -0.713544       -19.4165
  18   2.0000      -0.696391       -18.9497
  19   2.0000      -0.637895       -17.3580
  20   2.0000      -0.635663       -17.2973
  21   2.0000      -0.615598       -16.7513
  22   2.0000      -0.590563       -16.0700
  23   2.0000      -0.548921       -14.9369
  24   2.0000      -0.543225       -14.7819
  25   2.0000      -0.538227       -14.6459
  26   2.0000      -0.508845       -13.8464
  27   2.0000      -0.508724       -13.8431
  28   2.0000      -0.466433       -12.6923
  29   2.0000      -0.454729       -12.3738
  30   2.0000      -0.412377       -11.2213
  31   2.0000      -0.357250        -9.7213
  32   2.0000      -0.339562        -9.2399
  33   0.0000       0.122074         3.3218
  34   0.0000       0.144453         3.9308
  35   0.0000       0.160773         4.3749
  36   0.0000       0.166774         4.5382
  37   0.0000       0.173502         4.7212

MULLIKEN ATOMIC CHARGES
-----------------------
   0 C :   -0.266815
   1 C :    0.186870
   2 O :   -0.349219
   3 C :    0.186870
   4 C :   -0.271307
   5 C :   -0.151890
   6 C :   -0.130365
   7 C :   -0.151890
   8 C :   -0.271307
   9 H :    0.124088
  10 H :    0.130982
  11 H :    0.112446
  12 H :    0.112446
  13 H :    0.115365
  14 H :    0.122307
  15 H :    0.138973
  16 H :    0.124774
  17 H :    0.122307
  18 H :    0.115365
Sum of atomic charges:   -0.0000000

LOEWDIN ATOMIC CHARGES
----------------------
   0 C :   -0.185952
   1 C :   -0.264957
   2 O :    0.173749
   3 C :   -0.264957
   4 C :   -0.167134
   5 C :   -0.155681
   6 C :   -0.243960
   7 C :   -0.155681
   8 C :   -0.167134
   9 H :    0.132111
  10 H :    0.134624
  11 H :    0.139429
  12 H :    0.139429
  13 H :    0.147579
  14 H :    0.143888
  15 H :    0.161558
  16 H :    0.141622
  17 H :    0.143888
  18 H :    0.147579

  Mayer bond orders larger than 0.1
B(  0-C ,  1-C ) :   0.9128 B(  0-C ,  3-C ) :   0.9128 B(  0-C ,  9-H ) :   0.9204
B(  0-C , 10-H ) :   0.9213 B(  1-C ,  2-O ) :   0.9104 B(  1-C ,  8-C ) :   0.9198
B(  1-C , 11-H ) :   0.9190 B(  2-O ,  3-C ) :   0.9104 B(  3-C ,  4-C ) :   0.9198
B(  3-C , 12-H ) :   0.9190 B(  4-C ,  5-C ) :   1.8358 B(  4-C , 13-H ) :   0.9197
B(  5-C ,  6-C ) :   0.9247 B(  5-C , 14-H ) :   0.9245 B(  6-C ,  7-C ) :   0.9247
B(  6-C , 15-H ) :   0.9039 B(  6-C , 16-H ) :   0.9330 B(  7-C ,  8-C ) :   1.8358
B(  7-C , 17-H ) :   0.9245 B(  8-C , 18-H ) :   0.9197

MP2 TOTAL ENERGY:     -385.181841779 Eh
FINAL SINGLE POINT ENERGY      -385.181841779378

DIPOLE MOMENT
-------------
                                X             Y             Z
Electronic contribution:      0.56220      -0.56483       2.09251
Nuclear contribution   :     -0.95887       0.96874      -2.33542
                        -----------------------------------------
Total Dipole Moment    :     -0.39667       0.40391      -0.24292
                        -----------------------------------------
Magnitude (a.u.)       :      0.61604
Magnitude (Debye)      :      1.56584

                             ****ORCA TERMINATED NORMALLY****
TOTAL RUN TIME: 0 days 0 hours 19 minutes 32 seconds 327 msec
