                         Program Version 3.0.3 - RELEASE   -
|  1> ! RI-MP2 RIJK def2-TZVP def2-TZVP/C def2-TZVP/JK TIGHTSCF
|  2> % maxcore 2000
|  3> % mp2 density relaxed end
|  4> *xyz 0 1
|  5>  C       -0.2679918620     1.5528435587     0.2092868999
|  6>  N       -0.1774867758     0.1005499362     0.3187643062
|  7>  C        1.0212701734    -0.5451542472    -0.1711362456
|  8>  C        0.7467639307    -0.4865281748     1.3152701064
|  9>  C        1.5840755210     0.3591183248     2.1234390336
| 10>  C        2.2552439357     1.0896950868     2.8017920447
| 11>  C        0.2451934334    -1.7535614516     2.0096158330
| 12>  N       -0.9078104157    -2.2387122838     1.4773738138
| 13>  O        0.8636853405    -2.2733264903     2.9141571826
| 14>  H        0.6946744502     2.0619928962     0.3475517640
| 15>  H       -0.6617077546     1.7964494581    -0.7817613349
| 16>  H       -0.9674599427     1.9259969286     0.9624029876
| 17>  H        0.8815880051    -1.4862701245    -0.6956068184
| 18>  H        1.8353278713     0.0812817362    -0.5303729226
| 19>  H        2.8603225146     1.7143745646     3.4112673351
| 20>  H       -1.4388708223    -1.6450606010     0.8591521919
| 21>  H       -1.3388347628    -3.0282548972     1.9280426229
| 22> *
| 23>
| 24>                          ****END OF INPUT****

CARTESIAN COORDINATES (ANGSTROEM)
---------------------------------
  C     -0.267992    1.552844    0.209287
  N     -0.177487    0.100550    0.318764
  C      1.021270   -0.545154   -0.171136
  C      0.746764   -0.486528    1.315270
  C      1.584076    0.359118    2.123439
  C      2.255244    1.089695    2.801792
  C      0.245193   -1.753561    2.009616
  N     -0.907810   -2.238712    1.477374
  O      0.863685   -2.273326    2.914157
  H      0.694674    2.061993    0.347552
  H     -0.661708    1.796449   -0.781761
  H     -0.967460    1.925997    0.962403
  H      0.881588   -1.486270   -0.695607
  H      1.835328    0.081282   -0.530373
  H      2.860323    1.714375    3.411267
  H     -1.438871   -1.645061    0.859152
  H     -1.338835   -3.028255    1.928043

 Total Charge           Charge          ....    0
 Multiplicity           Mult            ....    1
 Number of Electrons    NEL             ....   66
 Basis Dimension        Dim             ....  327

ORBITAL ENERGIES
----------------

  NO   OCC          E(Eh)            E(eV)
   0   2.0000     -20.517850      -558.3191
   1   2.0000     -15.593896      -424.3315
   2   2.0000     -15.577296      -423.8798
   3   2.0000     -11.355065      -308.9870
   4   2.0000     -11.308945      -307.7320
   5   2.0000     -11.286131      -307.1112
   6   2.0000     -11.262747      -306.4749
   7   2.0000     -11.242126      -305.9138
   8   2.0000     -11.232608      -305.6548
   9   2.0000      -1.384676       -37.6790
  10   2.0000      -1.307416       -35.5766
  11   2.0000      -1.207912       -32.8690
  12   2.0000      -1.055402       -28.7189
  13   2.0000      -1.012390       -27.5485
  14   2.0000      -0.919913       -25.0321
  15   2.0000      -0.851245       -23.1636
  16   2.0000      -0.817800       -22.2535
  17   2.0000      -0.747576       -20.3426
  18   2.0000      -0.715651       -19.4738
  19   2.0000      -0.686990       -18.6939
  20   2.0000      -0.674559       -18.3557
  21   2.0000      -0.634342       -17.2613
  22   2.0000      -0.613147       -16.6846
  23   2.0000      -0.590314       -16.0633
  24   2.0000      -0.584127       -15.8949
  25   2.0000      -0.571675       -15.5561
  26   2.0000      -0.501063       -13.6346
  27   2.0000      -0.496991       -13.5238
  28   2.0000      -0.444459       -12.0943
  29   2.0000      -0.424486       -11.5508
  30   2.0000      -0.413654       -11.2561
  31   2.0000      -0.398020       -10.8307
  32   2.0000      -0.366759        -9.9800
  33   0.0000       0.137400         3.7388
  34   0.0000       0.145475         3.9586
  35   0.0000       0.153648         4.1810
  36   0.0000       0.164846         4.4857
  37   0.0000       0.170236         4.6324

MULLIKEN ATOMIC CHARGES
-----------------------
   0 C :   -0.314619
   1 N :   -0.261242
   2 C :   -0.150339
   3 C :   -0.058437
   4 C :    0.069254
   5 C :   -0.109396
   6 C :    0.201994
   7 N :   -0.480903
   8 O :   -0.327694
   9 H :    0.132562
  10 H :    0.145196
  11 H :    0.144720
  12 H :    0.144365
  13 H :    0.137096
  14 H :    0.193775
  15 H :    0.280539
  16 H :    0.253128
Sum of atomic charges:   -0.0000000

LOEWDIN ATOMIC CHARGES
----------------------
   0 C :   -0.314463
   1 N :    0.110520
   2 C :   -0.192374
   3 C :   -0.230241
   4 C :   -0.066580
   5 C :   -0.070991
   6 C :   -0.440897
   7 N :   -0.007139
   8 O :    0.104537
   9 H :    0.116981
  10 H :    0.121171
  11 H :    0.123024
  12 H :    0.132965
  13 H :    0.134873
  14 H :    0.128951
  15 H :    0.176132
  16 H :    0.173531

  Mayer bond orders larger than 0.1
B(  0-C ,  1-N ) :   0.8806 B(  0-C ,  9-H ) :   0.9255 B(  0-C , 10-H ) :   0.9340
B(  0-C , 11-H ) :   0.9380 B(  1-N ,  2-C ) :   0.8800 B(  1-N ,  3-C ) :   0.8136
B(  2-C ,  3-C ) :   0.8592 B(  2-C , 12-H ) :   0.9084 B(  2-C , 13-H ) :   0.9204
B(  3-C ,  4-C ) :   1.2310 B(  3-C ,  5-C ) :  -0.1308 B(  3-C ,  6-C ) :   0.8934
B(  4-C ,  5-C ) :   2.5493 B(  5-C , 14-H ) :   0.8858 B(  6-C ,  7-N ) :   1.2005
B(  6-C ,  8-O ) :   2.0277 B(  7-N , 15-H ) :   0.8397 B(  7-N , 16-H ) :   0.8629

MP2 TOTAL ENERGY:     -417.263559805 Eh
FINAL SINGLE POINT ENERGY      -417.263559804850

DIPOLE MOMENT
-------------
                                X             Y             Z
Electronic contribution:      1.71110      -4.29069       4.44394
Nuclear contribution   :     -2.34279       5.06609      -5.51677
                        -----------------------------------------
Total Dipole Moment    :     -0.63169       0.77541      -1.07283
                        -----------------------------------------
Magnitude (a.u.)       :      1.46672
Magnitude (Debye)      :      3.72810

                             ****ORCA TERMINATED NORMALLY****
TOTAL RUN TIME: 0 days 0 hours 16 minutes 48 seconds 987 msec
