                         Program Version 3.0.3 - RELEASE   -
|  1> ! RI-MP2 RIJK def2-TZVP def2-TZVP/C def2-TZVP/JK TIGHTSCF
|  2> % maxcore 2000
|  3> % mp2 density relaxed end
|  4> *xyz 0 1
|  5>  C        0.0853258347     1.5225618896    -0.1478592510
|  6>  C       -0.0237763385     0.0070113984     0.0066874111
|  7>  C       -1.4721398836    -0.4763125808    -0.0170833847
|  8>  O       -2.4153741429     0.2461591005    -0.3006374771
|  9>  N       -1.6523386600    -1.7834336234     0.3136466261
| 10>  C       -0.7448044649    -2.9316950757     0.3978542005
| 11>  C       -1.9915398110    -3.8596489702     0.3851327006
| 12>  C       -2.8727490775    -2.5924414812     0.1583143633
| 13>  C       -3.9843100596    -2.3026325117     1.1539433742
| 14>  H        1.1334477626     1.8345459190    -0.1699438786
| 15>  H       -0.4001008871     1.8512445398    -1.0692713592
| 16>  H       -0.4117307635     2.0354290625     0.6796609580
| 17>  H        0.5179420082    -0.5023149824    -0.8026504212
| 18>  H        0.4512763637    -0.3313835087     0.9360696086
| 19>  H       -0.0859665245    -3.0417022889    -0.4725343852
| 20>  H       -0.1300710884    -2.9617222771     1.3043313835
| 21>  H       -2.0149680042    -4.6024866506    -0.4124112227
| 22>  H       -2.1818379647    -4.3525553258     1.3403325425
| 23>  H       -3.2652946441    -2.5199749013    -0.8640317671
| 24>  H       -3.6149936419    -2.3741463054     2.1823395461
| 25>  H       -4.3746239281    -1.2950766652     0.9931823943
| 26>  H       -4.8020183747    -3.0207713914     1.0285402981
| 27> *
| 28>
| 29>                          ****END OF INPUT****

CARTESIAN COORDINATES (ANGSTROEM)
---------------------------------
  C      0.085326    1.522562   -0.147859
  C     -0.023776    0.007011    0.006687
  C     -1.472140   -0.476313   -0.017083
  O     -2.415374    0.246159   -0.300637
  N     -1.652339   -1.783434    0.313647
  C     -0.744804   -2.931695    0.397854
  C     -1.991540   -3.859649    0.385133
  C     -2.872749   -2.592441    0.158314
  C     -3.984310   -2.302633    1.153943
  H      1.133448    1.834546   -0.169944
  H     -0.400101    1.851245   -1.069271
  H     -0.411731    2.035429    0.679661
  H      0.517942   -0.502315   -0.802650
  H      0.451276   -0.331384    0.936070
  H     -0.085967   -3.041702   -0.472534
  H     -0.130071   -2.961722    1.304331
  H     -2.014968   -4.602487   -0.412411
  H     -2.181838   -4.352555    1.340333
  H     -3.265295   -2.519975   -0.864032
  H     -3.614994   -2.374146    2.182340
  H     -4.374624   -1.295077    0.993182
  H     -4.802018   -3.020771    1.028540

 Total Charge           Charge          ....    0
 Multiplicity           Mult            ....    1
 Number of Electrons    NEL             ....   70
 Basis Dimension        Dim             ....  357

ORBITAL ENERGIES
----------------

  NO   OCC          E(Eh)            E(eV)
   0   2.0000     -20.505523      -557.9836
   1   2.0000     -15.570085      -423.6835
   2   2.0000     -11.335983      -308.4678
   3   2.0000     -11.275396      -306.8191
   4   2.0000     -11.269545      -306.6599
   5   2.0000     -11.237793      -305.7959
   6   2.0000     -11.236050      -305.7485
   7   2.0000     -11.211766      -305.0877
   8   2.0000     -11.211489      -305.0801
   9   2.0000      -1.370387       -37.2901
  10   2.0000      -1.261242       -34.3201
  11   2.0000      -1.063768       -28.9466
  12   2.0000      -1.020189       -27.7608
  13   2.0000      -0.996181       -27.1075
  14   2.0000      -0.885576       -24.0977
  15   2.0000      -0.872543       -23.7431
  16   2.0000      -0.805085       -21.9075
  17   2.0000      -0.725343       -19.7376
  18   2.0000      -0.682175       -18.5629
  19   2.0000      -0.666612       -18.1394
  20   2.0000      -0.633833       -17.2475
  21   2.0000      -0.620107       -16.8740
  22   2.0000      -0.587850       -15.9962
  23   2.0000      -0.577222       -15.7070
  24   2.0000      -0.548580       -14.9276
  25   2.0000      -0.536571       -14.6008
  26   2.0000      -0.531782       -14.4705
  27   2.0000      -0.528124       -14.3710
  28   2.0000      -0.510235       -13.8842
  29   2.0000      -0.499422       -13.5900
  30   2.0000      -0.493649       -13.4329
  31   2.0000      -0.481242       -13.0953
  32   2.0000      -0.458926       -12.4880
  33   2.0000      -0.407162       -11.0794
  34   2.0000      -0.368202       -10.0193
  35   0.0000       0.125388         3.4120
  36   0.0000       0.146011         3.9732
  37   0.0000       0.158149         4.3035
  38   0.0000       0.162351         4.4178
  39   0.0000       0.175945         4.7877

MULLIKEN ATOMIC CHARGES
-----------------------
   0 C :   -0.362568
   1 C :   -0.228681
   2 C :    0.191876
   3 O :   -0.386335
   4 N :   -0.068907
   5 C :   -0.165374
   6 C :   -0.223915
   7 C :    0.017897
   8 C :   -0.405795
   9 H :    0.127501
  10 H :    0.138343
  11 H :    0.128819
  12 H :    0.123690
  13 H :    0.125025
  14 H :    0.114735
  15 H :    0.117958
  16 H :    0.129713
  17 H :    0.123882
  18 H :    0.096040
  19 H :    0.114020
  20 H :    0.164642
  21 H :    0.127432
Sum of atomic charges:    0.0000000

LOEWDIN ATOMIC CHARGES
----------------------
   0 C :   -0.309957
   1 C :   -0.263000
   2 C :   -0.440594
   3 O :    0.079853
   4 N :    0.207782
   5 C :   -0.229617
   6 C :   -0.209457
   7 C :   -0.244740
   8 C :   -0.293485
   9 H :    0.119018
  10 H :    0.128311
  11 H :    0.126286
  12 H :    0.146422
  13 H :    0.144783
  14 H :    0.124399
  15 H :    0.123284
  16 H :    0.129700
  17 H :    0.134171
  18 H :    0.144052
  19 H :    0.122683
  20 H :    0.134162
  21 H :    0.125944

  Mayer bond orders larger than 0.1
B(  0-C ,  1-C ) :   0.9430 B(  0-C ,  9-H ) :   0.9397 B(  0-C , 10-H ) :   0.9349
B(  0-C , 11-H ) :   0.9371 B(  1-C ,  2-C ) :   0.9248 B(  1-C , 12-H ) :   0.9059
B(  1-C , 13-H ) :   0.9220 B(  2-C ,  3-O ) :   1.8784 B(  2-C ,  4-N ) :   1.1861
B(  4-N ,  5-C ) :   0.9089 B(  4-N ,  7-C ) :   0.8833 B(  5-C ,  6-C ) :   0.9524
B(  5-C , 14-H ) :   0.9145 B(  5-C , 15-H ) :   0.9147 B(  6-C ,  7-C ) :   0.9230
B(  6-C , 16-H ) :   0.9305 B(  6-C , 17-H ) :   0.9222 B(  7-C ,  8-C ) :   0.9126
B(  7-C , 18-H ) :   0.9242 B(  8-C , 19-H ) :   0.9317 B(  8-C , 20-H ) :   0.9327
B(  8-C , 21-H ) :   0.9322

MP2 TOTAL ENERGY:     -403.679891760 Eh
FINAL SINGLE POINT ENERGY      -403.679891760462

DIPOLE MOMENT
-------------
                                X             Y             Z
Electronic contribution:     -1.71862       0.70005      -1.51274
Nuclear contribution   :      2.44885      -1.93984       1.73480
                        -----------------------------------------
Total Dipole Moment    :      0.73022      -1.23980       0.22206
                        -----------------------------------------
Magnitude (a.u.)       :      1.45590
Magnitude (Debye)      :      3.70059

                             ****ORCA TERMINATED NORMALLY****
TOTAL RUN TIME: 0 days 0 hours 18 minutes 58 seconds 551 msec
