                         Program Version 3.0.3 - RELEASE   -
|  1> ! RI-MP2 RIJK def2-TZVP def2-TZVP/C def2-TZVP/JK TIGHTSCF
|  2> % maxcore 2000
|  3> % mp2 density relaxed end
|  4> *xyz 0 1
|  5>  C        0.0439096934     1.5121939704    -0.1137959936
|  6>  C        0.0467997364    -0.0140427955     0.0788176438
|  7>  C        0.7992201692    -0.4150915202     1.3574998411
|  8>  C       -1.3618580797    -0.5553971129     0.0402450338
|  9>  C       -2.4425677402    -0.3822293468     1.1079634279
| 10>  O       -2.9894322802    -1.7088162130     0.8364786966
| 11>  C       -1.9336050642    -1.9666503074    -0.1016409659
| 12>  C       -2.0751651474    -1.0014489139    -1.2312937747
| 13>  O       -3.3265667287    -0.5337675843    -1.6249568460
| 14>  H        1.0652738424     1.9049440534    -0.1451180810
| 15>  H       -0.4603267931     1.7930160274    -1.0432003907
| 16>  H       -0.4763169949     2.0104667599     0.7126416143
| 17>  H        0.5814373098    -0.4576958287    -0.7727822207
| 18>  H        0.3440362726     0.0348381758     2.2467004168
| 19>  H        0.8005817746    -1.5009690957     1.4946630929
| 20>  H        1.8394392885    -0.0763694228     1.3164532045
| 21>  H       -2.0639115321    -0.3401877736     2.1338706391
| 22>  H       -3.1814359000     0.4102274245     0.9459617359
| 23>  H       -1.5066319779    -2.9640292529    -0.1170361151
| 24>  H       -1.4072814014    -1.1550191769    -2.0755055748
| 25>  H       -3.9594594970    -0.9274424867    -1.0082492941
| 26> *
| 27>
| 28>                          ****END OF INPUT****

CARTESIAN COORDINATES (ANGSTROEM)
---------------------------------
  C      0.043910    1.512194   -0.113796
  C      0.046800   -0.014043    0.078818
  C      0.799220   -0.415092    1.357500
  C     -1.361858   -0.555397    0.040245
  C     -2.442568   -0.382229    1.107963
  O     -2.989432   -1.708816    0.836479
  C     -1.933605   -1.966650   -0.101641
  C     -2.075165   -1.001449   -1.231294
  O     -3.326567   -0.533768   -1.624957
  H      1.065274    1.904944   -0.145118
  H     -0.460327    1.793016   -1.043200
  H     -0.476317    2.010467    0.712642
  H      0.581437   -0.457696   -0.772782
  H      0.344036    0.034838    2.246700
  H      0.800582   -1.500969    1.494663
  H      1.839439   -0.076369    1.316453
  H     -2.063912   -0.340188    2.133871
  H     -3.181436    0.410227    0.945962
  H     -1.506632   -2.964029   -0.117036
  H     -1.407281   -1.155019   -2.075506
  H     -3.959459   -0.927442   -1.008249

 Total Charge           Charge          ....    0
 Multiplicity           Mult            ....    1
 Number of Electrons    NEL             ....   70
 Basis Dimension        Dim             ....  351

ORBITAL ENERGIES
----------------

  NO   OCC          E(Eh)            E(eV)
   0   2.0000     -20.565046      -559.6034
   1   2.0000     -20.558714      -559.4311
   2   2.0000     -11.289715      -307.2088
   3   2.0000     -11.288281      -307.1698
   4   2.0000     -11.288102      -307.1649
   5   2.0000     -11.243534      -305.9521
   6   2.0000     -11.242883      -305.9344
   7   2.0000     -11.220944      -305.3374
   8   2.0000     -11.220023      -305.3124
   9   2.0000      -1.409181       -38.3458
  10   2.0000      -1.357906       -36.9505
  11   2.0000      -1.129327       -30.7306
  12   2.0000      -1.055796       -28.7297
  13   2.0000      -0.952930       -25.9305
  14   2.0000      -0.936869       -25.4935
  15   2.0000      -0.837401       -22.7868
  16   2.0000      -0.821685       -22.3592
  17   2.0000      -0.749835       -20.4041
  18   2.0000      -0.710828       -19.3426
  19   2.0000      -0.671892       -18.2831
  20   2.0000      -0.656520       -17.8648
  21   2.0000      -0.623436       -16.9646
  22   2.0000      -0.597794       -16.2668
  23   2.0000      -0.580619       -15.7994
  24   2.0000      -0.578994       -15.7552
  25   2.0000      -0.563193       -15.3253
  26   2.0000      -0.544870       -14.8267
  27   2.0000      -0.539613       -14.6836
  28   2.0000      -0.526772       -14.3342
  29   2.0000      -0.496588       -13.5128
  30   2.0000      -0.490929       -13.3588
  31   2.0000      -0.475949       -12.9512
  32   2.0000      -0.459099       -12.4927
  33   2.0000      -0.385746       -10.4967
  34   2.0000      -0.378095       -10.2885
  35   0.0000       0.127793         3.4774
  36   0.0000       0.150073         4.0837
  37   0.0000       0.159895         4.3510
  38   0.0000       0.161795         4.4027
  39   0.0000       0.184842         5.0298

MULLIKEN ATOMIC CHARGES
-----------------------
   0 C :   -0.409017
   1 C :   -0.036779
   2 C :   -0.406879
   3 C :   -0.025957
   4 C :   -0.065482
   5 O :   -0.353036
   6 C :    0.008853
   7 C :    0.044526
   8 O :   -0.466511
   9 H :    0.134284
  10 H :    0.145796
  11 H :    0.123086
  12 H :    0.080507
  13 H :    0.119481
  14 H :    0.136037
  15 H :    0.136388
  16 H :    0.115437
  17 H :    0.128912
  18 H :    0.129976
  19 H :    0.120595
  20 H :    0.339785
Sum of atomic charges:   -0.0000000

LOEWDIN ATOMIC CHARGES
----------------------
   0 C :   -0.282402
   1 C :   -0.277949
   2 C :   -0.286859
   3 C :   -0.184147
   4 C :   -0.214626
   5 O :    0.131920
   6 C :   -0.220358
   7 C :   -0.290070
   8 O :    0.002041
   9 H :    0.123428
  10 H :    0.128256
  11 H :    0.124011
  12 H :    0.157896
  13 H :    0.121958
  14 H :    0.125002
  15 H :    0.124454
  16 H :    0.127621
  17 H :    0.122811
  18 H :    0.129829
  19 H :    0.149704
  20 H :    0.187479

  Mayer bond orders larger than 0.1
B(  0-C ,  1-C ) :   0.9239 B(  0-C ,  9-H ) :   0.9385 B(  0-C , 10-H ) :   0.9364
B(  0-C , 11-H ) :   0.9307 B(  1-C ,  2-C ) :   0.9213 B(  1-C ,  3-C ) :   0.9141
B(  1-C , 12-H ) :   0.9151 B(  2-C , 13-H ) :   0.9302 B(  2-C , 14-H ) :   0.9392
B(  2-C , 15-H ) :   0.9386 B(  3-C ,  4-C ) :   0.9355 B(  3-C ,  6-C ) :   0.8867
B(  3-C ,  7-C ) :   0.8028 B(  4-C ,  5-O ) :   0.8958 B(  4-C , 16-H ) :   0.9146
B(  4-C , 17-H ) :   0.9255 B(  5-O ,  6-C ) :   0.9406 B(  6-C ,  7-C ) :   0.9174
B(  6-C , 18-H ) :   0.9122 B(  7-C ,  8-O ) :   1.0039 B(  7-C , 19-H ) :   0.9604
B(  8-O , 20-H ) :   0.8162

MP2 TOTAL ENERGY:     -423.476489597 Eh
FINAL SINGLE POINT ENERGY      -423.476489597398

DIPOLE MOMENT
-------------
                                X             Y             Z
Electronic contribution:     -8.19988      -4.98139      -2.72254
Nuclear contribution   :      8.97317       5.03514       3.02871
                        -----------------------------------------
Total Dipole Moment    :      0.77329       0.05374       0.30616
                        -----------------------------------------
Magnitude (a.u.)       :      0.83343
Magnitude (Debye)      :      2.11840

                             ****ORCA TERMINATED NORMALLY****
TOTAL RUN TIME: 0 days 0 hours 20 minutes 32 seconds 316 msec
