                         Program Version 3.0.3 - RELEASE   -
|  1> ! RI-MP2 RIJK def2-TZVP def2-TZVP/C def2-TZVP/JK TIGHTSCF
|  2> % maxcore 2000
|  3> % mp2 density relaxed end
|  4> *xyz 0 1
|  5>  O       -0.2487446478     1.4289618792    -0.0588895416
|  6>  C       -0.0691529812     0.0539441566     0.1036664528
|  7>  C       -0.4749412506    -0.7012889259     1.3466047207
|  8>  C       -1.7152825987    -0.0956015387     1.9556867637
|  9>  O       -2.8205930740    -0.9757549515     1.8197330906
| 10>  C       -2.4585628415    -0.2159055412     0.6641196249
| 11>  C       -3.4122070817     0.7701260013     0.0978031020
| 12>  O       -4.4407237638     1.1075356909     0.6253389730
| 13>  C       -1.2523765155    -0.8483947742    -0.0022225403
| 14>  H        0.4464699438     1.8861644513     0.4265710846
| 15>  H        0.8316658547    -0.3417189205    -0.3692262244
| 16>  H        0.1704136107    -1.4305799548     1.8216886328
| 17>  H       -1.8033010590     0.6941850312     2.6919975031
| 18>  H       -3.0729454869     1.1957569435    -0.8703139087
| 19>  H       -1.2818906886    -1.7077175772    -0.6602997831
| 20> *
| 21>
| 22>                          ****END OF INPUT****

CARTESIAN COORDINATES (ANGSTROEM)
---------------------------------
  O     -0.248745    1.428962   -0.058890
  C     -0.069153    0.053944    0.103666
  C     -0.474941   -0.701289    1.346605
  C     -1.715283   -0.095602    1.955687
  O     -2.820593   -0.975755    1.819733
  C     -2.458563   -0.215906    0.664120
  C     -3.412207    0.770126    0.097803
  O     -4.440724    1.107536    0.625339
  C     -1.252377   -0.848395   -0.002223
  H      0.446470    1.886164    0.426571
  H      0.831666   -0.341719   -0.369226
  H      0.170414   -1.430580    1.821689
  H     -1.803301    0.694185    2.691998
  H     -3.072945    1.195757   -0.870314
  H     -1.281891   -1.707718   -0.660300

 Total Charge           Charge          ....    0
 Multiplicity           Mult            ....    1
 Number of Electrons    NEL             ....   66
 Basis Dimension        Dim             ....  315

ORBITAL ENERGIES
----------------

  NO   OCC          E(Eh)            E(eV)
   0   2.0000     -20.588852      -560.2512
   1   2.0000     -20.587669      -560.2190
   2   2.0000     -20.557021      -559.3850
   3   2.0000     -11.336771      -308.4892
   4   2.0000     -11.321266      -308.0673
   5   2.0000     -11.314231      -307.8759
   6   2.0000     -11.308950      -307.7322
   7   2.0000     -11.267603      -306.6071
   8   2.0000     -11.266596      -306.5797
   9   2.0000      -1.445827       -39.3429
  10   2.0000      -1.399360       -38.0785
  11   2.0000      -1.392017       -37.8787
  12   2.0000      -1.186028       -32.2735
  13   2.0000      -0.981623       -26.7113
  14   2.0000      -0.939953       -25.5774
  15   2.0000      -0.858227       -23.3535
  16   2.0000      -0.815999       -22.2045
  17   2.0000      -0.760504       -20.6944
  18   2.0000      -0.741792       -20.1852
  19   2.0000      -0.701109       -19.0781
  20   2.0000      -0.699031       -19.0216
  21   2.0000      -0.656512       -17.8646
  22   2.0000      -0.641255       -17.4494
  23   2.0000      -0.606381       -16.5005
  24   2.0000      -0.583933       -15.8896
  25   2.0000      -0.542756       -14.7691
  26   2.0000      -0.539191       -14.6721
  27   2.0000      -0.528504       -14.3813
  28   2.0000      -0.487445       -13.2640
  29   2.0000      -0.453574       -12.3424
  30   2.0000      -0.433468       -11.7953
  31   2.0000      -0.418889       -11.3986
  32   2.0000      -0.407361       -11.0849
  33   0.0000       0.106497         2.8979
  34   0.0000       0.124634         3.3915
  35   0.0000       0.149617         4.0713
  36   0.0000       0.165195         4.4952
  37   0.0000       0.181398         4.9361

MULLIKEN ATOMIC CHARGES
-----------------------
   0 O :   -0.452795
   1 C :    0.014634
   2 C :   -0.105201
   3 C :   -0.007536
   4 O :   -0.297960
   5 C :    0.242488
   6 C :    0.034261
   7 O :   -0.253523
   8 C :   -0.168060
   9 H :    0.326276
  10 H :    0.113934
  11 H :    0.151344
  12 H :    0.146719
  13 H :    0.100299
  14 H :    0.155120
Sum of atomic charges:   -0.0000000

LOEWDIN ATOMIC CHARGES
----------------------
   0 O :    0.008397
   1 C :   -0.293484
   2 C :   -0.142037
   3 C :   -0.192100
   4 O :    0.229902
   5 C :   -0.259928
   6 C :   -0.266729
   7 O :    0.149152
   8 C :   -0.111112
   9 H :    0.184472
  10 H :    0.142798
  11 H :    0.141518
  12 H :    0.141262
  13 H :    0.123396
  14 H :    0.144493

  Mayer bond orders larger than 0.1
B(  0-O ,  1-C ) :   1.0786 B(  0-O ,  9-H ) :   0.8373 B(  1-C ,  2-C ) :   0.8560
B(  1-C ,  8-C ) :   0.8632 B(  1-C , 10-H ) :   0.9459 B(  2-C ,  3-C ) :   0.8855
B(  2-C ,  8-C ) :   0.8474 B(  2-C , 11-H ) :   0.9030 B(  3-C ,  4-O ) :   0.9409
B(  3-C ,  5-C ) :   0.8708 B(  3-C , 12-H ) :   0.9140 B(  4-O ,  5-C ) :   0.9121
B(  5-C ,  6-C ) :   0.8437 B(  5-C ,  8-C ) :   0.9096 B(  6-C ,  7-O ) :   2.0221
B(  6-C , 13-H ) :   0.9525 B(  8-C , 14-H ) :   0.9075

MP2 TOTAL ENERGY:     -456.960279003 Eh
FINAL SINGLE POINT ENERGY      -456.960279003443

DIPOLE MOMENT
-------------
                                X             Y             Z
Electronic contribution:     -4.14378       0.18199       1.01702
Nuclear contribution   :      6.15929      -0.27551      -1.21850
                        -----------------------------------------
Total Dipole Moment    :      2.01552      -0.09352      -0.20148
                        -----------------------------------------
Magnitude (a.u.)       :      2.02772
Magnitude (Debye)      :      5.15405

                             ****ORCA TERMINATED NORMALLY****
TOTAL RUN TIME: 0 days 0 hours 15 minutes 43 seconds 691 msec
