                         Program Version 3.0.3 - RELEASE   -
|  1> ! RI-MP2 RIJK def2-TZVP def2-TZVP/C def2-TZVP/JK TIGHTSCF
|  2> % maxcore 2000
|  3> % mp2 density relaxed end
|  4> *xyz 0 1
|  5>  C       -0.0467926917     1.5142633593     0.1835477919
|  6>  C       -0.0865981542    -0.0105333459     0.0371312648
|  7>  C       -1.5094999068    -0.5771714455    -0.0735112306
|  8>  C       -2.1843983591    -0.1810411192    -1.3813786235
|  9>  O       -3.3534269576    -0.3723999606    -1.6268222301
| 10>  C       -1.5600763166    -2.0974331011     0.0542655235
| 11>  C       -1.7397909984    -2.7394354280     1.4177517172
| 12>  C       -2.8660570638    -2.7595443061     0.4237299860
| 13>  O       -3.9714605862    -1.9589430981     0.7034609814
| 14>  H        0.9828113902     1.8780689525     0.2491528787
| 15>  H       -0.5194217797     2.0194887043    -0.6664149850
| 16>  H       -0.5737746210     1.8346209426     1.0888251446
| 17>  H        0.4920731332    -0.3167416369    -0.8454322963
| 18>  H        0.4051136566    -0.4770004804     0.8972032116
| 19>  H       -2.1391736266    -0.1617860098     0.7228894925
| 20>  H       -1.5305884718     0.2879864332    -2.1504325303
| 21>  H       -0.9289104316    -2.6290031825    -0.6542814040
| 22>  H       -1.2097487319    -3.6605696595     1.6329891405
| 23>  H       -1.8661844852    -2.0753841695     2.2660758507
| 24>  H       -3.0940990609    -3.7104791613    -0.0584511545
| 25>  H       -4.1464825769    -1.4392847774    -0.0974735591
| 26> *
| 27>
| 28>                          ****END OF INPUT****

CARTESIAN COORDINATES (ANGSTROEM)
---------------------------------
  C     -0.046793    1.514263    0.183548
  C     -0.086598   -0.010533    0.037131
  C     -1.509500   -0.577171   -0.073511
  C     -2.184398   -0.181041   -1.381379
  O     -3.353427   -0.372400   -1.626822
  C     -1.560076   -2.097433    0.054266
  C     -1.739791   -2.739435    1.417752
  C     -2.866057   -2.759544    0.423730
  O     -3.971461   -1.958943    0.703461
  H      0.982811    1.878069    0.249153
  H     -0.519422    2.019489   -0.666415
  H     -0.573775    1.834621    1.088825
  H      0.492073   -0.316742   -0.845432
  H      0.405114   -0.477000    0.897203
  H     -2.139174   -0.161786    0.722889
  H     -1.530588    0.287986   -2.150433
  H     -0.928910   -2.629003   -0.654281
  H     -1.209749   -3.660570    1.632989
  H     -1.866184   -2.075384    2.266076
  H     -3.094099   -3.710479   -0.058451
  H     -4.146483   -1.439285   -0.097474

 Total Charge           Charge          ....    0
 Multiplicity           Mult            ....    1
 Number of Electrons    NEL             ....   70
 Basis Dimension        Dim             ....  351

ORBITAL ENERGIES
----------------

  NO   OCC          E(Eh)            E(eV)
   0   2.0000     -20.569530      -559.7254
   1   2.0000     -20.545064      -559.0596
   2   2.0000     -11.343400      -308.6696
   3   2.0000     -11.280104      -306.9472
   4   2.0000     -11.251910      -306.1800
   5   2.0000     -11.242253      -305.9173
   6   2.0000     -11.240371      -305.8661
   7   2.0000     -11.230193      -305.5891
   8   2.0000     -11.228108      -305.5323
   9   2.0000      -1.408911       -38.3384
  10   2.0000      -1.358886       -36.9772
  11   2.0000      -1.146503       -31.1979
  12   2.0000      -1.080115       -29.3914
  13   2.0000      -0.979852       -26.6631
  14   2.0000      -0.856494       -23.3064
  15   2.0000      -0.835672       -22.7398
  16   2.0000      -0.814519       -22.1642
  17   2.0000      -0.774656       -21.0795
  18   2.0000      -0.699335       -19.0299
  19   2.0000      -0.678111       -18.4523
  20   2.0000      -0.670424       -18.2432
  21   2.0000      -0.653841       -17.7919
  22   2.0000      -0.614781       -16.7291
  23   2.0000      -0.594021       -16.1641
  24   2.0000      -0.578162       -15.7326
  25   2.0000      -0.560932       -15.2637
  26   2.0000      -0.542639       -14.7660
  27   2.0000      -0.536216       -14.5912
  28   2.0000      -0.510379       -13.8881
  29   2.0000      -0.504114       -13.7176
  30   2.0000      -0.496311       -13.5053
  31   2.0000      -0.479701       -13.0533
  32   2.0000      -0.439331       -11.9548
  33   2.0000      -0.407513       -11.0890
  34   2.0000      -0.390924       -10.6376
  35   0.0000       0.109222         2.9721
  36   0.0000       0.130564         3.5528
  37   0.0000       0.148323         4.0361
  38   0.0000       0.159932         4.3520
  39   0.0000       0.171413         4.6644

MULLIKEN ATOMIC CHARGES
-----------------------
   0 C :   -0.396137
   1 C :   -0.232775
   2 C :   -0.110820
   3 C :    0.111580
   4 O :   -0.308046
   5 C :   -0.117044
   6 C :   -0.261797
   7 C :    0.070696
   8 O :   -0.476132
   9 H :    0.141284
  10 H :    0.125998
  11 H :    0.133292
  12 H :    0.115782
  13 H :    0.133082
  14 H :    0.136083
  15 H :    0.101694
  16 H :    0.120667
  17 H :    0.133849
  18 H :    0.133781
  19 H :    0.108812
  20 H :    0.336150
Sum of atomic charges:    0.0000000

LOEWDIN ATOMIC CHARGES
----------------------
   0 C :   -0.315426
   1 C :   -0.267637
   2 C :   -0.247858
   3 C :   -0.248278
   4 O :    0.126673
   5 C :   -0.195589
   6 C :   -0.204636
   7 C :   -0.320883
   8 O :   -0.003474
   9 H :    0.123829
  10 H :    0.120644
  11 H :    0.123973
  12 H :    0.139004
  13 H :    0.144603
  14 H :    0.175994
  15 H :    0.119115
  16 H :    0.149865
  17 H :    0.132319
  18 H :    0.140746
  19 H :    0.130793
  20 H :    0.176222

  Mayer bond orders larger than 0.1
B(  0-C ,  1-C ) :   0.9229 B(  0-C ,  9-H ) :   0.9419 B(  0-C , 10-H ) :   0.9357
B(  0-C , 11-H ) :   0.9385 B(  1-C ,  2-C ) :   0.9026 B(  1-C , 12-H ) :   0.9212
B(  1-C , 13-H ) :   0.9382 B(  2-C ,  3-C ) :   0.8522 B(  2-C ,  5-C ) :   0.8877
B(  2-C , 14-H ) :   0.9065 B(  3-C ,  4-O ) :   1.8947 B(  3-C , 15-H ) :   0.9388
B(  5-C ,  6-C ) :   0.8914 B(  5-C ,  7-C ) :   0.8793 B(  5-C , 16-H ) :   0.9115
B(  6-C ,  7-C ) :   0.8742 B(  6-C , 17-H ) :   0.9228 B(  6-C , 18-H ) :   0.9190
B(  7-C ,  8-O ) :   1.0076 B(  7-C , 19-H ) :   0.9654 B(  8-O , 20-H ) :   0.8068

MP2 TOTAL ENERGY:     -423.514251832 Eh
FINAL SINGLE POINT ENERGY      -423.514251832036

DIPOLE MOMENT
-------------
                                X             Y             Z
Electronic contribution:     -7.47322      -3.11937      -2.78737
Nuclear contribution   :      8.78227       3.31955       2.61313
                        -----------------------------------------
Total Dipole Moment    :      1.30905       0.20019      -0.17424
                        -----------------------------------------
Magnitude (a.u.)       :      1.33568
Magnitude (Debye)      :      3.39502

                             ****ORCA TERMINATED NORMALLY****
TOTAL RUN TIME: 0 days 0 hours 18 minutes 20 seconds 428 msec
