                         Program Version 3.0.3 - RELEASE   -
|  1> ! RI-MP2 RIJK def2-TZVP def2-TZVP/C def2-TZVP/JK TIGHTSCF
|  2> % maxcore 2000
|  3> % mp2 density relaxed end
|  4> *xyz 0 1
|  5>  N        0.0243651907     1.2550353484     0.5051866834
|  6>  C       -0.0176906514    -0.0121062971     0.0838023421
|  7>  N       -1.1675855003    -0.6076088913    -0.0864120638
|  8>  C       -1.2920115767    -1.9184826893    -0.3954665563
|  9>  N       -0.5356288960    -2.9498412359    -0.1464084093
| 10>  C        0.7111951684    -2.8236602036     0.3915310552
| 11>  N        1.5842116009    -1.8710130141     0.3327276355
| 12>  C        1.3356439075    -0.6198364299    -0.1962723575
| 13>  N        2.1940080508     0.1350175478    -0.7659307359
| 14>  H        0.8924848081     1.7556846362     0.3909312193
| 15>  H       -0.8396425109     1.7552857125     0.6410454672
| 16>  H       -2.2469140843    -2.1502834707    -0.8697899668
| 17>  H        1.0484966260    -3.7271170820     0.9022521831
| 18>  H        3.0777447873    -0.3698376509    -0.8654220163
| 19> *
| 20>
| 21>                          ****END OF INPUT****

CARTESIAN COORDINATES (ANGSTROEM)
---------------------------------
  N      0.024365    1.255035    0.505187
  C     -0.017691   -0.012106    0.083802
  N     -1.167586   -0.607609   -0.086412
  C     -1.292012   -1.918483   -0.395467
  N     -0.535629   -2.949841   -0.146408
  C      0.711195   -2.823660    0.391531
  N      1.584212   -1.871013    0.332728
  C      1.335644   -0.619836   -0.196272
  N      2.194008    0.135018   -0.765931
  H      0.892485    1.755685    0.390931
  H     -0.839643    1.755286    0.641045
  H     -2.246914   -2.150283   -0.869790
  H      1.048497   -3.727117    0.902252
  H      3.077745   -0.369838   -0.865422

 Total Charge           Charge          ....    0
 Multiplicity           Mult            ....    1
 Number of Electrons    NEL             ....   64
 Basis Dimension        Dim             ....  309

ORBITAL ENERGIES
----------------

  NO   OCC          E(Eh)            E(eV)
   0   2.0000     -15.613394      -424.8621
   1   2.0000     -15.567952      -423.6255
   2   2.0000     -15.567386      -423.6101
   3   2.0000     -15.559609      -423.3985
   4   2.0000     -15.559321      -423.3907
   5   2.0000     -11.375101      -309.5322
   6   2.0000     -11.343942      -308.6844
   7   2.0000     -11.338995      -308.5497
   8   2.0000     -11.335683      -308.4596
   9   2.0000      -1.344337       -36.5813
  10   2.0000      -1.282725       -34.9047
  11   2.0000      -1.259501       -34.2728
  12   2.0000      -1.193644       -32.4807
  13   2.0000      -1.160948       -31.5910
  14   2.0000      -0.954378       -25.9699
  15   2.0000      -0.938030       -25.5251
  16   2.0000      -0.830327       -22.5943
  17   2.0000      -0.802051       -21.8249
  18   2.0000      -0.734638       -19.9905
  19   2.0000      -0.716047       -19.4846
  20   2.0000      -0.680710       -18.5231
  21   2.0000      -0.657271       -17.8853
  22   2.0000      -0.636947       -17.3322
  23   2.0000      -0.580958       -15.8087
  24   2.0000      -0.542103       -14.7514
  25   2.0000      -0.513916       -13.9844
  26   2.0000      -0.499985       -13.6053
  27   2.0000      -0.457728       -12.4554
  28   2.0000      -0.449093       -12.2204
  29   2.0000      -0.419302       -11.4098
  30   2.0000      -0.399839       -10.8802
  31   2.0000      -0.358115        -9.7448
  32   0.0000       0.068622         1.8673
  33   0.0000       0.088429         2.4063
  34   0.0000       0.136145         3.7047
  35   0.0000       0.169629         4.6158
  36   0.0000       0.176392         4.7999

MULLIKEN ATOMIC CHARGES
-----------------------
   0 N :   -0.425145
   1 C :    0.301948
   2 N :   -0.292014
   3 C :    0.086687
   4 N :   -0.277483
   5 C :    0.078169
   6 N :   -0.253232
   7 C :    0.096932
   8 N :   -0.384961
   9 H :    0.292991
  10 H :    0.269707
  11 H :    0.139372
  12 H :    0.140977
  13 H :    0.226051
Sum of atomic charges:   -0.0000000

LOEWDIN ATOMIC CHARGES
----------------------
   0 N :    0.058664
   1 C :   -0.278059
   2 N :    0.118518
   3 C :   -0.281861
   4 N :    0.094347
   5 C :   -0.284714
   6 N :    0.137429
   7 C :   -0.351380
   8 N :   -0.037300
   9 H :    0.190700
  10 H :    0.183136
  11 H :    0.140540
  12 H :    0.140580
  13 H :    0.169400

  Mayer bond orders larger than 0.1
B(  0-N ,  1-C ) :   1.2798 B(  0-N ,  9-H ) :   0.8437 B(  0-N , 10-H ) :   0.8527
B(  1-C ,  2-N ) :   1.5523 B(  1-C ,  7-C ) :   0.8827 B(  2-N ,  3-C ) :   1.2353
B(  3-C ,  4-N ) :   1.5824 B(  3-C , 11-H ) :   0.9350 B(  4-N ,  5-C ) :   1.1717
B(  5-C ,  6-N ) :   1.6379 B(  5-C , 12-H ) :   0.9306 B(  6-N ,  7-C ) :   1.0849
B(  7-C ,  8-N ) :   1.9228 B(  8-N , 13-H ) :   0.8563

MP2 TOTAL ENERGY:     -428.341788001 Eh
FINAL SINGLE POINT ENERGY      -428.341788000519

DIPOLE MOMENT
-------------
                                X             Y             Z
Electronic contribution:     -0.40881      -1.27961       0.00884
Nuclear contribution   :      0.28337       2.15795       0.31806
                        -----------------------------------------
Total Dipole Moment    :     -0.12543       0.87833       0.32690
                        -----------------------------------------
Magnitude (a.u.)       :      0.94555
Magnitude (Debye)      :      2.40340

                             ****ORCA TERMINATED NORMALLY****
TOTAL RUN TIME: 0 days 0 hours 15 minutes 12 seconds 181 msec
