                         Program Version 3.0.3 - RELEASE   -
|  1> ! RI-MP2 RIJK def2-TZVP def2-TZVP/C def2-TZVP/JK TIGHTSCF
|  2> % maxcore 2000
|  3> % mp2 density relaxed end
|  4> *xyz 0 1
|  5>  C       -0.0414443535     1.4585368398     0.2111792784
|  6>  C        1.4591128755     1.6515535237    -0.1897086581
|  7>  C        1.4021857831     0.2561985177    -0.8052328469
|  8>  C        2.3372877872    -0.8889333733    -1.1925591275
|  9>  N        1.3364218023    -1.3900540018    -2.2064086322
| 10>  C        0.1567561025    -2.0614511874    -1.5495930049
| 11>  C       -0.5451814052    -0.7157097199    -1.2395270637
| 12>  C        0.1009662824    -0.0842686152     0.0010908721
| 13>  C        0.5898865272    -0.0691964899    -2.1001911064
| 14>  H       -0.3199303369     1.7781289656     1.2170214308
| 15>  H       -0.7330432650     1.9196419528    -0.4997650868
| 16>  H        1.7182955548     2.4917841545    -0.8409604431
| 17>  H        2.1041520894     1.6847328998     0.6951789710
| 18>  H        3.2460801095    -0.5723158181    -1.7178859410
| 19>  H        2.6148036992    -1.6097717400    -0.4145244100
| 20>  H       -0.3758169948    -2.6617460329    -2.2942891841
| 21>  H        0.4067770872    -2.7057988556    -0.6979055620
| 22>  H       -1.6201886473    -0.6255221800    -1.4106455721
| 23>  H        0.1353065880    -0.6654455833     0.9276137092
| 24>  H        0.4932552945     0.5619362337    -2.9845472128
| 25> *
| 26>
| 27>                          ****END OF INPUT****

CARTESIAN COORDINATES (ANGSTROEM)
---------------------------------
  C     -0.041444    1.458537    0.211179
  C      1.459113    1.651554   -0.189709
  C      1.402186    0.256199   -0.805233
  C      2.337288   -0.888933   -1.192559
  N      1.336422   -1.390054   -2.206409
  C      0.156756   -2.061451   -1.549593
  C     -0.545181   -0.715710   -1.239527
  C      0.100966   -0.084269    0.001091
  C      0.589887   -0.069196   -2.100191
  H     -0.319930    1.778129    1.217021
  H     -0.733043    1.919642   -0.499765
  H      1.718296    2.491784   -0.840960
  H      2.104152    1.684733    0.695179
  H      3.246080   -0.572316   -1.717886
  H      2.614804   -1.609772   -0.414524
  H     -0.375817   -2.661746   -2.294289
  H      0.406777   -2.705799   -0.697906
  H     -1.620189   -0.625522   -1.410646
  H      0.135307   -0.665446    0.927614
  H      0.493255    0.561936   -2.984547

 Total Charge           Charge          ....    0
 Multiplicity           Mult            ....    1
 Number of Electrons    NEL             ....   66
 Basis Dimension        Dim             ....  345

ORBITAL ENERGIES
----------------

  NO   OCC          E(Eh)            E(eV)
   0   2.0000     -15.540337      -422.8741
   1   2.0000     -11.252293      -306.1905
   2   2.0000     -11.247630      -306.0636
   3   2.0000     -11.246707      -306.0385
   4   2.0000     -11.231152      -305.6152
   5   2.0000     -11.228502      -305.5431
   6   2.0000     -11.227183      -305.5072
   7   2.0000     -11.226576      -305.4907
   8   2.0000     -11.225568      -305.4632
   9   2.0000      -1.272824       -34.6353
  10   2.0000      -1.124424       -30.5971
  11   2.0000      -1.022829       -27.8326
  12   2.0000      -0.954573       -25.9753
  13   2.0000      -0.891753       -24.2658
  14   2.0000      -0.874056       -23.7843
  15   2.0000      -0.802659       -21.8415
  16   2.0000      -0.762589       -20.7511
  17   2.0000      -0.694333       -18.8938
  18   2.0000      -0.662773       -18.0350
  19   2.0000      -0.642761       -17.4904
  20   2.0000      -0.641057       -17.4440
  21   2.0000      -0.589748       -16.0479
  22   2.0000      -0.574950       -15.6452
  23   2.0000      -0.550252       -14.9731
  24   2.0000      -0.528075       -14.3697
  25   2.0000      -0.512961       -13.9584
  26   2.0000      -0.478990       -13.0340
  27   2.0000      -0.455129       -12.3847
  28   2.0000      -0.452894       -12.3239
  29   2.0000      -0.430822       -11.7233
  30   2.0000      -0.420998       -11.4559
  31   2.0000      -0.384513       -10.4631
  32   2.0000      -0.337617        -9.1870
  33   0.0000       0.142500         3.8776
  34   0.0000       0.154324         4.1994
  35   0.0000       0.158263         4.3066
  36   0.0000       0.167942         4.5699
  37   0.0000       0.187621         5.1054

MULLIKEN ATOMIC CHARGES
-----------------------
   0 C :   -0.267676
   1 C :   -0.194352
   2 C :    0.007175
   3 C :   -0.139130
   4 N :   -0.203010
   5 C :   -0.169447
   6 C :   -0.107832
   7 C :   -0.114051
   8 C :   -0.069645
   9 H :    0.122643
  10 H :    0.121387
  11 H :    0.114925
  12 H :    0.110567
  13 H :    0.111793
  14 H :    0.106127
  15 H :    0.123133
  16 H :    0.108224
  17 H :    0.118938
  18 H :    0.099007
  19 H :    0.121222
Sum of atomic charges:   -0.0000000

LOEWDIN ATOMIC CHARGES
----------------------
   0 C :   -0.204025
   1 C :   -0.208857
   2 C :   -0.192692
   3 C :   -0.219945
   4 N :    0.090936
   5 C :   -0.224927
   6 C :   -0.184012
   7 C :   -0.149478
   8 C :   -0.124603
   9 H :    0.126606
  10 H :    0.135946
  11 H :    0.125731
  12 H :    0.137818
  13 H :    0.131096
  14 H :    0.121807
  15 H :    0.129120
  16 H :    0.121089
  17 H :    0.129204
  18 H :    0.133860
  19 H :    0.125327

  Mayer bond orders larger than 0.1
B(  0-C ,  1-C ) :   0.9503 B(  0-C ,  7-C ) :   0.9095 B(  0-C ,  9-H ) :   0.9253
B(  0-C , 10-H ) :   0.9159 B(  1-C ,  2-C ) :   0.8881 B(  1-C , 11-H ) :   0.9197
B(  1-C , 12-H ) :   0.9111 B(  2-C ,  3-C ) :   0.9544 B(  2-C ,  7-C ) :   0.8846
B(  2-C ,  8-C ) :   0.9229 B(  3-C ,  4-N ) :   0.9330 B(  3-C , 13-H ) :   0.9026
B(  3-C , 14-H ) :   0.9242 B(  4-N ,  5-C ) :   0.9011 B(  4-N ,  8-C ) :   0.9462
B(  5-C ,  6-C ) :   0.9129 B(  5-C , 15-H ) :   0.9270 B(  5-C , 16-H ) :   0.9250
B(  6-C ,  7-C ) :   0.8654 B(  6-C ,  8-C ) :   0.9131 B(  6-C , 17-H ) :   0.9053
B(  7-C , 18-H ) :   0.9037 B(  8-C , 19-H ) :   0.8870

MP2 TOTAL ENERGY:     -365.264392829 Eh
FINAL SINGLE POINT ENERGY      -365.264392828602

DIPOLE MOMENT
-------------
                                X             Y             Z
Electronic contribution:      0.39684      -1.44649      -2.25693
Nuclear contribution   :     -0.63816       1.77057       2.81036
                        -----------------------------------------
Total Dipole Moment    :     -0.24132       0.32408       0.55343
                        -----------------------------------------
Magnitude (a.u.)       :      0.68524
Magnitude (Debye)      :      1.74173

                             ****ORCA TERMINATED NORMALLY****
TOTAL RUN TIME: 0 days 0 hours 22 minutes 4 seconds 693 msec
