                         Program Version 3.0.3 - RELEASE   -
|  1> ! RI-MP2 RIJK def2-TZVP def2-TZVP/C def2-TZVP/JK TIGHTSCF
|  2> % maxcore 2000
|  3> % mp2 density relaxed end
|  4> *xyz 0 1
|  5>  C        0.5212682346     0.6746949506     1.3681611255
|  6>  C        0.0122000738     0.0009977080     0.1060002556
|  7>  O       -1.3194187089    -0.4275322568     0.3284125675
|  8>  C       -1.8954047040    -1.0654218703    -0.7847282499
|  9>  C       -3.3311044439    -1.4407578424    -0.4187874608
| 10>  C       -4.2077589007    -0.2354802236    -0.1152864850
| 11>  O       -3.8747355983    -2.1467390070    -1.5502056036
| 12>  C       -4.2717648258    -3.4212965729    -1.3858295483
| 13>  O       -4.7284387361    -4.0773587943    -2.2728691129
| 14>  H        1.5506352458     1.0168783573     1.2269201554
| 15>  H       -0.1001844443     1.5386487827     1.6201524848
| 16>  H        0.4993620334    -0.0216367697     2.2111673969
| 17>  H        0.0452584394     0.6975372686    -0.7480855425
| 18>  H        0.6460583686    -0.8620079283    -0.1571875419
| 19>  H       -1.9010973459    -0.4057718264    -1.6683642112
| 20>  H       -1.3368734012    -1.9759772619    -1.0571738679
| 21>  H       -3.3020085297    -2.1136362043     0.4486384936
| 22>  H       -3.7534137699     0.3518922474     0.6856300612
| 23>  H       -4.3030967177     0.3960002871    -1.0038167250
| 24>  H       -5.2083101964    -0.5492393175     0.1942461889
| 25>  H       -4.1296327828    -3.7843584265    -0.3484993301
| 26> *
| 27>
| 28>                          ****END OF INPUT****

CARTESIAN COORDINATES (ANGSTROEM)
---------------------------------
  C      0.521268    0.674695    1.368161
  C      0.012200    0.000998    0.106000
  O     -1.319419   -0.427532    0.328413
  C     -1.895405   -1.065422   -0.784728
  C     -3.331104   -1.440758   -0.418787
  C     -4.207759   -0.235480   -0.115286
  O     -3.874736   -2.146739   -1.550206
  C     -4.271765   -3.421297   -1.385830
  O     -4.728439   -4.077359   -2.272869
  H      1.550635    1.016878    1.226920
  H     -0.100184    1.538649    1.620152
  H      0.499362   -0.021637    2.211167
  H      0.045258    0.697537   -0.748086
  H      0.646058   -0.862008   -0.157188
  H     -1.901097   -0.405772   -1.668364
  H     -1.336873   -1.975977   -1.057174
  H     -3.302009   -2.113636    0.448638
  H     -3.753414    0.351892    0.685630
  H     -4.303097    0.396000   -1.003817
  H     -5.208310   -0.549239    0.194246
  H     -4.129633   -3.784358   -0.348499

 Total Charge           Charge          ....    0
 Multiplicity           Mult            ....    1
 Number of Electrons    NEL             ....   72
 Basis Dimension        Dim             ....  351

ORBITAL ENERGIES
----------------

  NO   OCC          E(Eh)            E(eV)
   0   2.0000     -20.607046      -560.7462
   1   2.0000     -20.569952      -559.7369
   2   2.0000     -20.548746      -559.1598
   3   2.0000     -11.382555      -309.7351
   4   2.0000     -11.309775      -307.7546
   5   2.0000     -11.290511      -307.2304
   6   2.0000     -11.287359      -307.1447
   7   2.0000     -11.227829      -305.5248
   8   2.0000     -11.224514      -305.4345
   9   2.0000      -1.461835       -39.7785
  10   2.0000      -1.394048       -37.9340
  11   2.0000      -1.371637       -37.3241
  12   2.0000      -1.078475       -29.3468
  13   2.0000      -1.021481       -27.7959
  14   2.0000      -0.940117       -25.5819
  15   2.0000      -0.866500       -23.5787
  16   2.0000      -0.841873       -22.9085
  17   2.0000      -0.832408       -22.6510
  18   2.0000      -0.728931       -19.8352
  19   2.0000      -0.692857       -18.8536
  20   2.0000      -0.680488       -18.5170
  21   2.0000      -0.668901       -18.2017
  22   2.0000      -0.651652       -17.7324
  23   2.0000      -0.624917       -17.0048
  24   2.0000      -0.596878       -16.2419
  25   2.0000      -0.571112       -15.5407
  26   2.0000      -0.565501       -15.3881
  27   2.0000      -0.551585       -15.0094
  28   2.0000      -0.544503       -14.8167
  29   2.0000      -0.526651       -14.3309
  30   2.0000      -0.511207       -13.9107
  31   2.0000      -0.499509       -13.5923
  32   2.0000      -0.491341       -13.3701
  33   2.0000      -0.457066       -12.4374
  34   2.0000      -0.451953       -12.2983
  35   2.0000      -0.436948       -11.8899
  36   0.0000       0.128463         3.4956
  37   0.0000       0.144333         3.9275
  38   0.0000       0.148544         4.0421
  39   0.0000       0.156417         4.2563
  40   0.0000       0.168209         4.5772

MULLIKEN ATOMIC CHARGES
-----------------------
   0 C :   -0.363779
   1 C :   -0.053700
   2 O :   -0.302876
   3 C :   -0.065150
   4 C :    0.084552
   5 C :   -0.387096
   6 O :   -0.210823
   7 C :    0.192840
   8 O :   -0.272408
   9 H :    0.126218
  10 H :    0.130674
  11 H :    0.130499
  12 H :    0.096871
  13 H :    0.096843
  14 H :    0.111509
  15 H :    0.106756
  16 H :    0.085520
  17 H :    0.150539
  18 H :    0.134141
  19 H :    0.136260
  20 H :    0.072610
Sum of atomic charges:   -0.0000000

LOEWDIN ATOMIC CHARGES
----------------------
   0 C :   -0.315873
   1 C :   -0.348758
   2 O :    0.161295
   3 C :   -0.312261
   4 C :   -0.324331
   5 C :   -0.288180
   6 O :    0.269525
   7 C :   -0.454930
   8 O :    0.118006
   9 H :    0.126075
  10 H :    0.124301
  11 H :    0.124421
  12 H :    0.118062
  13 H :    0.118138
  14 H :    0.126853
  15 H :    0.124556
  16 H :    0.139571
  17 H :    0.134818
  18 H :    0.130575
  19 H :    0.126555
  20 H :    0.101582

  Mayer bond orders larger than 0.1
B(  0-C ,  1-C ) :   0.9529 B(  0-C ,  9-H ) :   0.9323 B(  0-C , 10-H ) :   0.9361
B(  0-C , 11-H ) :   0.9358 B(  1-C ,  2-O ) :   0.9117 B(  1-C , 12-H ) :   0.9259
B(  1-C , 13-H ) :   0.9264 B(  2-O ,  3-C ) :   0.9459 B(  3-C ,  4-C ) :   0.9466
B(  3-C , 14-H ) :   0.9219 B(  3-C , 15-H ) :   0.9187 B(  4-C ,  5-C ) :   0.9358
B(  4-C ,  6-O ) :   0.8306 B(  4-C , 16-H ) :   0.9331 B(  5-C , 17-H ) :   0.9260
B(  5-C , 18-H ) :   0.9290 B(  5-C , 19-H ) :   0.9313 B(  6-O ,  7-C ) :   1.0784
B(  7-C ,  8-O ) :   2.0232 B(  7-C , 20-H ) :   0.9163

MP2 TOTAL ENERGY:     -460.643472773 Eh
FINAL SINGLE POINT ENERGY      -460.643472773044

DIPOLE MOMENT
-------------
                                X             Y             Z
Electronic contribution:     -7.87083      -8.94772      -6.19658
Nuclear contribution   :      8.81962       9.77318       7.18973
                        -----------------------------------------
Total Dipole Moment    :      0.94879       0.82546       0.99315
                        -----------------------------------------
Magnitude (a.u.)       :      1.60247
Magnitude (Debye)      :      4.07317

                             ****ORCA TERMINATED NORMALLY****
TOTAL RUN TIME: 0 days 0 hours 14 minutes 45 seconds 354 msec
