                         Program Version 3.0.3 - RELEASE   -
|  1> ! RI-MP2 RIJK def2-TZVP def2-TZVP/C def2-TZVP/JK TIGHTSCF
|  2> % maxcore 2000
|  3> % mp2 density relaxed end
|  4> *xyz 0 1
|  5>  N       -0.0478994644    -1.1393697516    -0.4842865212
|  6>  C       -0.0181378130    -0.0175655250    -0.2107815720
|  7>  C        0.0034717698     1.4309359130     0.0771211674
|  8>  N       -0.6501066171     1.7328483578     1.3604721345
|  9>  C        0.2740148659     1.9104342185     2.4958349697
| 10>  C        1.6582090894     2.3798410014     2.0317587521
| 11>  C        1.5372606998     3.3035635351     0.7923020323
| 12>  C        1.4573487492     1.9574147998     0.0328961844
| 13>  N        2.1819799718     1.2685313547     1.1537357666
| 14>  H       -0.5771344466     1.9166505259    -0.7158012315
| 15>  H       -1.2161231987     2.5610823209     1.2452175904
| 16>  H       -0.1779538467     2.6279422738     3.1879677576
| 17>  H        0.3990755160     0.9600439840     3.0271188852
| 18>  H        2.3009918536     2.6685030296     2.8665203151
| 19>  H        0.7021779722     4.0091070256     0.7265002492
| 20>  H        2.4732295048     3.8247148166     0.5786888478
| 21>  H        1.8957242392     1.8529152216    -0.9616253055
| 22>  H        3.1815582447     1.4038253883     1.0149772478
| 23> *
| 24>
| 25>                          ****END OF INPUT****

CARTESIAN COORDINATES (ANGSTROEM)
---------------------------------
  N     -0.047899   -1.139370   -0.484287
  C     -0.018138   -0.017566   -0.210782
  C      0.003472    1.430936    0.077121
  N     -0.650107    1.732848    1.360472
  C      0.274015    1.910434    2.495835
  C      1.658209    2.379841    2.031759
  C      1.537261    3.303564    0.792302
  C      1.457349    1.957415    0.032896
  N      2.181980    1.268531    1.153736
  H     -0.577134    1.916651   -0.715801
  H     -1.216123    2.561082    1.245218
  H     -0.177954    2.627942    3.187968
  H      0.399076    0.960044    3.027119
  H      2.300992    2.668503    2.866520
  H      0.702178    4.009107    0.726500
  H      2.473230    3.824715    0.578689
  H      1.895724    1.852915   -0.961625
  H      3.181558    1.403825    1.014977

 Total Charge           Charge          ....    0
 Multiplicity           Mult            ....    1
 Number of Electrons    NEL             ....   66
 Basis Dimension        Dim             ....  333

ORBITAL ENERGIES
----------------

  NO   OCC          E(Eh)            E(eV)
   0   2.0000     -15.567321      -423.6083
   1   2.0000     -15.558698      -423.3737
   2   2.0000     -15.555191      -423.2783
   3   2.0000     -11.311498      -307.8015
   4   2.0000     -11.286573      -307.1233
   5   2.0000     -11.276314      -306.8441
   6   2.0000     -11.263962      -306.5080
   7   2.0000     -11.257086      -306.3209
   8   2.0000     -11.248025      -306.0743
   9   2.0000      -1.286659       -35.0118
  10   2.0000      -1.210878       -32.9497
  11   2.0000      -1.193974       -32.4897
  12   2.0000      -1.047279       -28.4979
  13   2.0000      -0.994289       -27.0560
  14   2.0000      -0.920574       -25.0501
  15   2.0000      -0.867569       -23.6078
  16   2.0000      -0.769876       -20.9494
  17   2.0000      -0.737110       -20.0578
  18   2.0000      -0.689963       -18.7749
  19   2.0000      -0.660302       -17.9677
  20   2.0000      -0.642575       -17.4853
  21   2.0000      -0.604718       -16.4552
  22   2.0000      -0.589250       -16.0343
  23   2.0000      -0.573910       -15.6169
  24   2.0000      -0.552532       -15.0352
  25   2.0000      -0.539173       -14.6717
  26   2.0000      -0.515177       -14.0187
  27   2.0000      -0.498515       -13.5653
  28   2.0000      -0.466446       -12.6926
  29   2.0000      -0.450781       -12.2664
  30   2.0000      -0.439291       -11.9537
  31   2.0000      -0.414006       -11.2657
  32   2.0000      -0.377845       -10.2817
  33   0.0000       0.106371         2.8945
  34   0.0000       0.133668         3.6373
  35   0.0000       0.146976         3.9994
  36   0.0000       0.166320         4.5258
  37   0.0000       0.173215         4.7134

MULLIKEN ATOMIC CHARGES
-----------------------
   0 N :   -0.052245
   1 C :   -0.160663
   2 C :   -0.005286
   3 N :   -0.344092
   4 C :   -0.179546
   5 C :    0.064160
   6 C :   -0.359344
   7 C :    0.076324
   8 N :   -0.376672
   9 H :    0.137663
  10 H :    0.219357
  11 H :    0.128182
  12 H :    0.121808
  13 H :    0.130253
  14 H :    0.120180
  15 H :    0.132532
  16 H :    0.142350
  17 H :    0.205041
Sum of atomic charges:    0.0000000

LOEWDIN ATOMIC CHARGES
----------------------
   0 N :    0.062733
   1 C :   -0.160417
   2 C :   -0.271532
   3 N :    0.022520
   4 C :   -0.272283
   5 C :   -0.264785
   6 C :   -0.212876
   7 C :   -0.237172
   8 N :    0.013608
   9 H :    0.170151
  10 H :    0.170486
  11 H :    0.133883
  12 H :    0.140781
  13 H :    0.134416
  14 H :    0.125178
  15 H :    0.138314
  16 H :    0.140275
  17 H :    0.166719

  Mayer bond orders larger than 0.1
B(  0-N ,  1-C ) :   2.8902 B(  1-C ,  2-C ) :   0.9378 B(  2-C ,  3-N ) :   1.0172
B(  2-C ,  7-C ) :   0.8663 B(  2-C ,  8-N ) :   0.1001 B(  2-C ,  9-H ) :   0.9163
B(  3-N ,  4-C ) :   0.9712 B(  3-N , 10-H ) :   0.8831 B(  4-C ,  5-C ) :   0.8914
B(  4-C , 11-H ) :   0.9393 B(  4-C , 12-H ) :   0.9197 B(  5-C ,  6-C ) :   0.9069
B(  5-C ,  8-N ) :   0.9074 B(  5-C , 13-H ) :   0.9171 B(  6-C ,  7-C ) :   0.8828
B(  6-C , 14-H ) :   0.9304 B(  6-C , 15-H ) :   0.9194 B(  7-C ,  8-N ) :   0.9127
B(  7-C , 16-H ) :   0.9145 B(  8-N , 17-H ) :   0.8703

MP2 TOTAL ENERGY:     -397.422547442 Eh
FINAL SINGLE POINT ENERGY      -397.422547442483

DIPOLE MOMENT
-------------
                                X             Y             Z
Electronic contribution:     -1.77805      -5.68870      -2.98960
Nuclear contribution   :      2.33184       8.13643       3.28374
                        -----------------------------------------
Total Dipole Moment    :      0.55379       2.44773       0.29414
                        -----------------------------------------
Magnitude (a.u.)       :      2.52677
Magnitude (Debye)      :      6.42255

                             ****ORCA TERMINATED NORMALLY****
TOTAL RUN TIME: 0 days 0 hours 19 minutes 30 seconds 294 msec
