                         Program Version 3.0.3 - RELEASE   -
|  1> ! RI-MP2 RIJK def2-TZVP def2-TZVP/C def2-TZVP/JK TIGHTSCF
|  2> % maxcore 2000
|  3> % mp2 density relaxed end
|  4> *xyz 0 1
|  5>  C        0.1794238716     1.1827969709    -0.5264852992
|  6>  C        0.0130908597    -0.1658322569     0.2019083325
|  7>  C        0.5455463310    -0.1139538910     1.6361869482
|  8>  C       -1.4234108262    -0.6034696650     0.1593804907
|  9>  N       -2.2077017715    -0.7566226221     1.1466449947
| 10>  C       -3.5033732548    -1.1817093062     0.5989496318
| 11>  C       -3.2865109588    -1.2232117197    -0.9364533784
| 12>  O       -1.9032373912    -0.8448016253    -1.0976189589
| 13>  H        1.2362849206     1.4629962288    -0.5640943137
| 14>  H       -0.2018157806     1.1291575211    -1.5488086086
| 15>  H       -0.3618804292     1.9750709758     0.0015623920
| 16>  H        0.5774292198    -0.9179418101    -0.3663011625
| 17>  H       -0.0100887779     0.6176288826     2.2290048123
| 18>  H        0.4446887797    -1.0819634761     2.1324591051
| 19>  H        1.6023954011     0.1702242881     1.6342628531
| 20>  H       -3.7812119309    -2.1581774628     1.0103535590
| 21>  H       -4.2855988360    -0.4737445465     0.8928422837
| 22>  H       -3.4248097529    -2.2163366704    -1.3732581141
| 23>  H       -3.9063270335    -0.5078916451    -1.4851155977
| 24> *
| 25>
| 26>                          ****END OF INPUT****

CARTESIAN COORDINATES (ANGSTROEM)
---------------------------------
  C      0.179424    1.182797   -0.526485
  C      0.013091   -0.165832    0.201908
  C      0.545546   -0.113954    1.636187
  C     -1.423411   -0.603470    0.159380
  N     -2.207702   -0.756623    1.146645
  C     -3.503373   -1.181709    0.598950
  C     -3.286511   -1.223212   -0.936453
  O     -1.903237   -0.844802   -1.097619
  H      1.236285    1.462996   -0.564094
  H     -0.201816    1.129158   -1.548809
  H     -0.361880    1.975071    0.001562
  H      0.577429   -0.917942   -0.366301
  H     -0.010089    0.617629    2.229005
  H      0.444689   -1.081963    2.132459
  H      1.602395    0.170224    1.634263
  H     -3.781212   -2.158177    1.010354
  H     -4.285599   -0.473745    0.892842
  H     -3.424810   -2.216337   -1.373258
  H     -3.906327   -0.507892   -1.485116

 Total Charge           Charge          ....    0
 Multiplicity           Mult            ....    1
 Number of Electrons    NEL             ....   62
 Basis Dimension        Dim             ....  314

ORBITAL ENERGIES
----------------

  NO   OCC          E(Eh)            E(eV)
   0   2.0000     -20.585730      -560.1662
   1   2.0000     -15.535701      -422.7479
   2   2.0000     -11.323460      -308.1270
   3   2.0000     -11.287233      -307.1412
   4   2.0000     -11.255923      -306.2892
   5   2.0000     -11.242001      -305.9104
   6   2.0000     -11.219118      -305.2877
   7   2.0000     -11.210136      -305.0433
   8   2.0000      -1.428268       -38.8651
   9   2.0000      -1.204634       -32.7798
  10   2.0000      -1.088291       -29.6139
  11   2.0000      -1.002871       -27.2895
  12   2.0000      -0.931772       -25.3548
  13   2.0000      -0.855038       -23.2668
  14   2.0000      -0.846170       -23.0254
  15   2.0000      -0.734798       -19.9949
  16   2.0000      -0.688923       -18.7465
  17   2.0000      -0.677826       -18.4446
  18   2.0000      -0.629384       -17.1264
  19   2.0000      -0.600189       -16.3320
  20   2.0000      -0.585159       -15.9230
  21   2.0000      -0.564954       -15.3732
  22   2.0000      -0.554268       -15.0824
  23   2.0000      -0.536343       -14.5946
  24   2.0000      -0.517752       -14.0887
  25   2.0000      -0.512651       -13.9499
  26   2.0000      -0.490501       -13.3472
  27   2.0000      -0.481502       -13.1023
  28   2.0000      -0.473879       -12.8949
  29   2.0000      -0.426367       -11.6020
  30   2.0000      -0.371919       -10.1204
  31   0.0000       0.134941         3.6719
  32   0.0000       0.152379         4.1464
  33   0.0000       0.171411         4.6643
  34   0.0000       0.182317         4.9611
  35   0.0000       0.187731         5.1084

MULLIKEN ATOMIC CHARGES
-----------------------
   0 C :   -0.414637
   1 C :    0.005324
   2 C :   -0.368572
   3 C :    0.160582
   4 N :   -0.266614
   5 C :   -0.139521
   6 C :   -0.064275
   7 O :   -0.282817
   8 H :    0.132969
   9 H :    0.147624
  10 H :    0.128467
  11 H :    0.101056
  12 H :    0.131375
  13 H :    0.134970
  14 H :    0.127205
  15 H :    0.119793
  16 H :    0.120369
  17 H :    0.114624
  18 H :    0.112078
Sum of atomic charges:   -0.0000000

LOEWDIN ATOMIC CHARGES
----------------------
   0 C :   -0.281787
   1 C :   -0.268466
   2 C :   -0.283103
   3 C :   -0.354587
   4 N :    0.087205
   5 C :   -0.281908
   6 C :   -0.266573
   7 O :    0.226010
   8 H :    0.124224
   9 H :    0.126683
  10 H :    0.126141
  11 H :    0.163771
  12 H :    0.128759
  13 H :    0.127445
  14 H :    0.122064
  15 H :    0.129394
  16 H :    0.129550
  17 H :    0.122811
  18 H :    0.122367

  Mayer bond orders larger than 0.1
B(  0-C ,  1-C ) :   0.8967 B(  0-C ,  8-H ) :   0.9372 B(  0-C ,  9-H ) :   0.9346
B(  0-C , 10-H ) :   0.9326 B(  1-C ,  2-C ) :   0.9383 B(  1-C ,  3-C ) :   0.9276
B(  1-C , 11-H ) :   0.9201 B(  2-C , 12-H ) :   0.9269 B(  2-C , 13-H ) :   0.9360
B(  2-C , 14-H ) :   0.9355 B(  3-C ,  4-N ) :   1.8505 B(  3-C ,  7-O ) :   1.0736
B(  4-N ,  5-C ) :   0.9313 B(  5-C ,  6-C ) :   0.9419 B(  5-C , 15-H ) :   0.9277
B(  5-C , 16-H ) :   0.9247 B(  6-C ,  7-O ) :   0.8844 B(  6-C , 17-H ) :   0.9294
B(  6-C , 18-H ) :   0.9241

MP2 TOTAL ENERGY:     -364.468505384 Eh
FINAL SINGLE POINT ENERGY      -364.468505384410

DIPOLE MOMENT
-------------
                                X             Y             Z
Electronic contribution:     -3.80488      -2.90482      -1.48662
Nuclear contribution   :      3.52542       2.80456       1.05148
                        -----------------------------------------
Total Dipole Moment    :     -0.27946      -0.10025      -0.43514
                        -----------------------------------------
Magnitude (a.u.)       :      0.52678
Magnitude (Debye)      :      1.33896

                             ****ORCA TERMINATED NORMALLY****
TOTAL RUN TIME: 0 days 0 hours 13 minutes 38 seconds 30 msec
