                         Program Version 3.0.3 - RELEASE   -
|  1> ! RI-MP2 RIJK def2-TZVP def2-TZVP/C def2-TZVP/JK TIGHTSCF
|  2> % maxcore 2000
|  3> % mp2 density relaxed end
|  4> *xyz 0 1
|  5>  C        0.0475815330     1.4972265262     0.0096495464
|  6>  C        0.0146419084    -0.0237991008     0.0018099947
|  7>  O        0.6440558579    -0.4568375253    -1.1756703553
|  8>  C        0.8102428570    -1.8766350554    -1.2555466371
|  9>  C        1.5555932336    -2.3912159679    -0.0256672987
| 10>  C        0.8340384304    -1.8899174269     1.2237344653
| 11>  O        0.6664928403    -0.4693631962     1.1622848182
| 12>  C       -1.4091668576    -0.5132966449     0.0128564793
| 13>  N       -2.5025651247    -0.8871054610     0.0213428242
| 14>  H        1.0927490133     1.8120045142     0.0012629370
| 15>  H       -0.4585025479     1.8851457797    -0.8757619997
| 16>  H       -0.4413017643     1.8755736466     0.9087624147
| 17>  H       -0.1738421384    -2.3601264413    -1.3439450262
| 18>  H        1.3635251005    -2.0545437292    -2.1798332149
| 19>  H        1.5945186730    -3.4856105653    -0.0319031695
| 20>  H        2.5819136172    -2.0100164912    -0.0334772368
| 21>  H       -0.1482173866    -2.3744311407     1.3258221855
| 22>  H        1.4049432348    -2.0776597908     2.1352709531
| 23> *
| 24>
| 25>                          ****END OF INPUT****

CARTESIAN COORDINATES (ANGSTROEM)
---------------------------------
  C      0.047582    1.497227    0.009650
  C      0.014642   -0.023799    0.001810
  O      0.644056   -0.456838   -1.175670
  C      0.810243   -1.876635   -1.255547
  C      1.555593   -2.391216   -0.025667
  C      0.834038   -1.889917    1.223734
  O      0.666493   -0.469363    1.162285
  C     -1.409167   -0.513297    0.012856
  N     -2.502565   -0.887105    0.021343
  H      1.092749    1.812005    0.001263
  H     -0.458503    1.885146   -0.875762
  H     -0.441302    1.875574    0.908762
  H     -0.173842   -2.360126   -1.343945
  H      1.363525   -2.054544   -2.179833
  H      1.594519   -3.485611   -0.031903
  H      2.581914   -2.010016   -0.033477
  H     -0.148217   -2.374431    1.325822
  H      1.404943   -2.077660    2.135271

 Total Charge           Charge          ....    0
 Multiplicity           Mult            ....    1
 Number of Electrons    NEL             ....   68
 Basis Dimension        Dim             ....  333

ORBITAL ENERGIES
----------------

  NO   OCC          E(Eh)            E(eV)
   0   2.0000     -20.588638      -560.2453
   1   2.0000     -20.588619      -560.2448
   2   2.0000     -15.580340      -423.9626
   3   2.0000     -11.395848      -310.0968
   4   2.0000     -11.297051      -307.4084
   5   2.0000     -11.297046      -307.4082
   6   2.0000     -11.275362      -306.8182
   7   2.0000     -11.244294      -305.9728
   8   2.0000     -11.237507      -305.7881
   9   2.0000      -1.455550       -39.6075
  10   2.0000      -1.371956       -37.3328
  11   2.0000      -1.223788       -33.3010
  12   2.0000      -1.103200       -30.0196
  13   2.0000      -1.018071       -27.7031
  14   2.0000      -0.941089       -25.6083
  15   2.0000      -0.901589       -24.5335
  16   2.0000      -0.844492       -22.9798
  17   2.0000      -0.725627       -19.7453
  18   2.0000      -0.707671       -19.2567
  19   2.0000      -0.698448       -19.0057
  20   2.0000      -0.653267       -17.7763
  21   2.0000      -0.642128       -17.4732
  22   2.0000      -0.590453       -16.0671
  23   2.0000      -0.589273       -16.0349
  24   2.0000      -0.581274       -15.8173
  25   2.0000      -0.559407       -15.2222
  26   2.0000      -0.557390       -15.1673
  27   2.0000      -0.533296       -14.5117
  28   2.0000      -0.511779       -13.9262
  29   2.0000      -0.507807       -13.8181
  30   2.0000      -0.473532       -12.8855
  31   2.0000      -0.473217       -12.8769
  32   2.0000      -0.459798       -12.5117
  33   2.0000      -0.451555       -12.2874
  34   0.0000       0.134696         3.6653
  35   0.0000       0.148250         4.0341
  36   0.0000       0.164752         4.4831
  37   0.0000       0.172920         4.7054
  38   0.0000       0.174141         4.7386

MULLIKEN ATOMIC CHARGES
-----------------------
   0 C :   -0.389400
   1 C :    0.419016
   2 O :   -0.284676
   3 C :   -0.093894
   4 C :   -0.214736
   5 C :   -0.093895
   6 O :   -0.284675
   7 C :   -0.225308
   8 N :   -0.048906
   9 H :    0.147916
  10 H :    0.146944
  11 H :    0.146945
  12 H :    0.123577
  13 H :    0.142175
  14 H :    0.126566
  15 H :    0.116599
  16 H :    0.123577
  17 H :    0.142175
Sum of atomic charges:   -0.0000000

LOEWDIN ATOMIC CHARGES
----------------------
   0 C :   -0.238403
   1 C :   -0.488152
   2 O :    0.219474
   3 C :   -0.294631
   4 C :   -0.274098
   5 C :   -0.294631
   6 O :    0.219475
   7 C :   -0.150085
   8 N :    0.070271
   9 H :    0.137070
  10 H :    0.137603
  11 H :    0.137604
  12 H :    0.131206
  13 H :    0.133665
  14 H :    0.145596
  15 H :    0.143165
  16 H :    0.131206
  17 H :    0.133665

  Mayer bond orders larger than 0.1
B(  0-C ,  1-C ) :   0.8626 B(  0-C ,  9-H ) :   0.9396 B(  0-C , 10-H ) :   0.9334
B(  0-C , 11-H ) :   0.9334 B(  1-C ,  2-O ) :   1.0092 B(  1-C ,  6-O ) :   1.0092
B(  1-C ,  7-C ) :   0.9065 B(  2-O ,  3-C ) :   0.8860 B(  3-C ,  4-C ) :   0.9379
B(  3-C , 12-H ) :   0.9314 B(  3-C , 13-H ) :   0.9322 B(  4-C ,  5-C ) :   0.9379
B(  4-C , 14-H ) :   0.9180 B(  4-C , 15-H ) :   0.9115 B(  5-C ,  6-O ) :   0.8860
B(  5-C , 16-H ) :   0.9314 B(  5-C , 17-H ) :   0.9322 B(  7-C ,  8-N ) :   2.8485

MP2 TOTAL ENERGY:     -438.388372590 Eh
FINAL SINGLE POINT ENERGY      -438.388372589674

DIPOLE MOMENT
-------------
                                X             Y             Z
Electronic contribution:     -4.19445       1.30017       0.04722
Nuclear contribution   :      5.39706      -1.69407      -0.06087
                        -----------------------------------------
Total Dipole Moment    :      1.20261      -0.39390      -0.01365
                        -----------------------------------------
Magnitude (a.u.)       :      1.26555
Magnitude (Debye)      :      3.21677

                             ****ORCA TERMINATED NORMALLY****
TOTAL RUN TIME: 0 days 0 hours 18 minutes 27 seconds 626 msec
