                         Program Version 3.0.3 - RELEASE   -
|  1> ! RI-MP2 RIJK def2-TZVP def2-TZVP/C def2-TZVP/JK TIGHTSCF
|  2> % maxcore 2000
|  3> % mp2 density relaxed end
|  4> *xyz 0 1
|  5>  N        0.0306660428     1.4303090961     0.0829501634
|  6>  C       -0.0034415122     0.0254153796     0.0165397709
|  7>  C       -1.1547614361    -0.7407324678     0.0631185670
|  8>  N       -1.1502348129    -2.0826867668     0.0390565883
|  9>  C        0.0469542731    -2.6476626528    -0.0502993969
| 10>  N        1.2305827302    -2.0272180664    -0.0859009367
| 11>  C        1.2102805992    -0.6977799268    -0.0403604249
| 12>  N        2.4084126986    -0.0150023598    -0.0970022641
| 13>  H        0.6081129654     1.8370203511    -0.6459813580
| 14>  H       -0.8928704541     1.8445567652     0.0473941295
| 15>  H       -2.1287533734    -0.2554013021     0.1228522037
| 16>  H        0.0759573432    -3.7336667407    -0.0901343402
| 17>  H        3.2106517820    -0.6108872998     0.0535865523
| 18>  H        2.4309839543     0.8458920411     0.4331582457
| 19> *
| 20>
| 21>                          ****END OF INPUT****

CARTESIAN COORDINATES (ANGSTROEM)
---------------------------------
  N      0.030666    1.430309    0.082950
  C     -0.003442    0.025415    0.016540
  C     -1.154761   -0.740732    0.063119
  N     -1.150235   -2.082687    0.039057
  C      0.046954   -2.647663   -0.050299
  N      1.230583   -2.027218   -0.085901
  C      1.210281   -0.697780   -0.040360
  N      2.408413   -0.015002   -0.097002
  H      0.608113    1.837020   -0.645981
  H     -0.892870    1.844557    0.047394
  H     -2.128753   -0.255401    0.122852
  H      0.075957   -3.733667   -0.090134
  H      3.210652   -0.610887    0.053587
  H      2.430984    0.845892    0.433158

 Total Charge           Charge          ....    0
 Multiplicity           Mult            ....    1
 Number of Electrons    NEL             ....   58
 Basis Dimension        Dim             ....  284

ORBITAL ENERGIES
----------------

  NO   OCC          E(Eh)            E(eV)
   0   2.0000     -15.580821      -423.9757
   1   2.0000     -15.577277      -423.8793
   2   2.0000     -15.557591      -423.3436
   3   2.0000     -15.553254      -423.2256
   4   2.0000     -11.327365      -308.2333
   5   2.0000     -11.297743      -307.4272
   6   2.0000     -11.280707      -306.9636
   7   2.0000     -11.274513      -306.7951
   8   2.0000      -1.316830       -35.8328
   9   2.0000      -1.240285       -33.7499
  10   2.0000      -1.218592       -33.1596
  11   2.0000      -1.155553       -31.4442
  12   2.0000      -1.022470       -27.8228
  13   2.0000      -0.884250       -24.0617
  14   2.0000      -0.866526       -23.5794
  15   2.0000      -0.750613       -20.4252
  16   2.0000      -0.729328       -19.8460
  17   2.0000      -0.679757       -18.4971
  18   2.0000      -0.668368       -18.1872
  19   2.0000      -0.647358       -17.6155
  20   2.0000      -0.611296       -16.6342
  21   2.0000      -0.587467       -15.9858
  22   2.0000      -0.572354       -15.5745
  23   2.0000      -0.495920       -13.4947
  24   2.0000      -0.493439       -13.4271
  25   2.0000      -0.467063       -12.7094
  26   2.0000      -0.407437       -11.0869
  27   2.0000      -0.387626       -10.5478
  28   2.0000      -0.314026        -8.5451
  29   0.0000       0.114392         3.1128
  30   0.0000       0.123104         3.3498
  31   0.0000       0.138476         3.7681
  32   0.0000       0.149921         4.0796
  33   0.0000       0.175414         4.7732

MULLIKEN ATOMIC CHARGES
-----------------------
   0 N :   -0.561934
   1 C :    0.151027
   2 C :   -0.086659
   3 N :   -0.257676
   4 C :    0.059180
   5 N :   -0.285403
   6 C :    0.226896
   7 N :   -0.528819
   8 H :    0.265522
   9 H :    0.247067
  10 H :    0.116053
  11 H :    0.129329
  12 H :    0.259873
  13 H :    0.265544
Sum of atomic charges:   -0.0000000

LOEWDIN ATOMIC CHARGES
----------------------
   0 N :   -0.086659
   1 C :   -0.235158
   2 C :   -0.208877
   3 N :    0.108938
   4 C :   -0.311317
   5 N :    0.129287
   6 C :   -0.309616
   7 N :   -0.047632
   8 H :    0.172370
   9 H :    0.169688
  10 H :    0.138627
  11 H :    0.132097
  12 H :    0.175525
  13 H :    0.172726

  Mayer bond orders larger than 0.1
B(  0-N ,  1-C ) :   0.9721 B(  0-N ,  8-H ) :   0.8614 B(  0-N ,  9-H ) :   0.8815
B(  1-C ,  2-C ) :   1.3525 B(  1-C ,  6-C ) :   1.2415 B(  2-C ,  3-N ) :   1.3779
B(  2-C , 10-H ) :   0.9611 B(  3-N ,  4-C ) :   1.4142 B(  4-C ,  5-N ) :   1.3600
B(  4-C , 11-H ) :   0.9391 B(  5-N ,  6-C ) :   1.4225 B(  6-C ,  7-N ) :   1.0894
B(  7-N , 12-H ) :   0.8673 B(  7-N , 13-H ) :   0.8613

MP2 TOTAL ENERGY:     -374.326492702 Eh
FINAL SINGLE POINT ENERGY      -374.326492701632

DIPOLE MOMENT
-------------
                                X             Y             Z
Electronic contribution:     -0.69098      -2.90661      -0.01338
Nuclear contribution   :      1.07076       4.36075      -0.01992
                        -----------------------------------------
Total Dipole Moment    :      0.37977       1.45414      -0.03330
                        -----------------------------------------
Magnitude (a.u.)       :      1.50328
Magnitude (Debye)      :      3.82104

                             ****ORCA TERMINATED NORMALLY****
TOTAL RUN TIME: 0 days 0 hours 11 minutes 32 seconds 559 msec
