                         Program Version 3.0.3 - RELEASE   -
|  1> ! RI-MP2 RIJK def2-TZVP def2-TZVP/C def2-TZVP/JK TIGHTSCF
|  2> % maxcore 2000
|  3> % mp2 density relaxed end
|  4> *xyz 0 1
|  5>  C        0.5848350195     0.7890998435     0.9856255134
|  6>  O        0.1299956405    -0.5442517627     0.9191095318
|  7>  C       -1.2751561237    -0.7329457545     0.7766500563
|  8>  C       -2.0377822920    -0.1371594882     1.9540923747
|  9>  C       -1.7280075450    -0.4301539500    -0.6987785597
| 10>  C       -1.7411920376    -1.9481299653    -0.9768834396
| 11>  C       -1.4113811510    -2.2453474823     0.4666365424
| 12>  N       -2.6535101647    -2.6711945695    -0.1282034925
| 13>  C       -3.9904120440    -2.2144370683     0.2141791289
| 14>  H        1.6762161171     0.7498357964     0.9387110073
| 15>  H        0.2224034278     1.3979276181     0.1439539174
| 16>  H        0.2964774828     1.2886576801     1.9207048050
| 17>  H       -1.9797907228     0.9562260620     1.9595737063
| 18>  H       -3.0939034383    -0.4068781034     1.9272483426
| 19>  H       -1.6136541600    -0.5061734166     2.8937214149
| 20>  H       -2.6738440976     0.1011961164    -0.8434869534
| 21>  H       -0.9436657173     0.0891808380    -1.2518143316
| 22>  H       -1.3766141754    -2.4239721750    -1.8811224612
| 23>  H       -0.7475451834    -2.9893420687     0.8951637334
| 24>  H       -4.1362743870    -1.1264913740     0.1913066982
| 25>  H       -4.6942725821    -2.6571030019    -0.4984289946
| 26>  H       -4.2513739359    -2.5781809441     1.2127870301
| 27> *
| 28>
| 29>                          ****END OF INPUT****

CARTESIAN COORDINATES (ANGSTROEM)
---------------------------------
  C      0.584835    0.789100    0.985626
  O      0.129996   -0.544252    0.919110
  C     -1.275156   -0.732946    0.776650
  C     -2.037782   -0.137159    1.954092
  C     -1.728008   -0.430154   -0.698779
  C     -1.741192   -1.948130   -0.976883
  C     -1.411381   -2.245347    0.466637
  N     -2.653510   -2.671195   -0.128203
  C     -3.990412   -2.214437    0.214179
  H      1.676216    0.749836    0.938711
  H      0.222403    1.397928    0.143954
  H      0.296477    1.288658    1.920705
  H     -1.979791    0.956226    1.959574
  H     -3.093903   -0.406878    1.927248
  H     -1.613654   -0.506173    2.893721
  H     -2.673844    0.101196   -0.843487
  H     -0.943666    0.089181   -1.251814
  H     -1.376614   -2.423972   -1.881122
  H     -0.747545   -2.989342    0.895164
  H     -4.136274   -1.126491    0.191307
  H     -4.694273   -2.657103   -0.498429
  H     -4.251374   -2.578181    1.212787

 Total Charge           Charge          ....    0
 Multiplicity           Mult            ....    1
 Number of Electrons    NEL             ....   70
 Basis Dimension        Dim             ....  357

ORBITAL ENERGIES
----------------

  NO   OCC          E(Eh)            E(eV)
   0   2.0000     -20.553343      -559.2849
   1   2.0000     -15.556257      -423.3073
   2   2.0000     -11.291482      -307.2568
   3   2.0000     -11.270121      -306.6756
   4   2.0000     -11.253945      -306.2354
   5   2.0000     -11.250236      -306.1345
   6   2.0000     -11.244139      -305.9686
   7   2.0000     -11.226162      -305.4794
   8   2.0000     -11.216536      -305.2175
   9   2.0000      -1.375900       -37.4402
  10   2.0000      -1.284086       -34.9417
  11   2.0000      -1.065702       -28.9992
  12   2.0000      -0.994438       -27.0600
  13   2.0000      -0.945902       -25.7393
  14   2.0000      -0.934711       -25.4348
  15   2.0000      -0.844109       -22.9694
  16   2.0000      -0.778622       -21.1874
  17   2.0000      -0.732594       -19.9349
  18   2.0000      -0.697555       -18.9814
  19   2.0000      -0.653319       -17.7777
  20   2.0000      -0.648410       -17.6441
  21   2.0000      -0.617147       -16.7934
  22   2.0000      -0.606899       -16.5146
  23   2.0000      -0.588761       -16.0210
  24   2.0000      -0.580294       -15.7906
  25   2.0000      -0.569365       -15.4932
  26   2.0000      -0.541890       -14.7456
  27   2.0000      -0.537374       -14.6227
  28   2.0000      -0.500620       -13.6226
  29   2.0000      -0.479933       -13.0596
  30   2.0000      -0.453130       -12.3303
  31   2.0000      -0.443853       -12.0779
  32   2.0000      -0.424693       -11.5565
  33   2.0000      -0.390685       -10.6311
  34   2.0000      -0.368026       -10.0145
  35   0.0000       0.135902         3.6981
  36   0.0000       0.160587         4.3698
  37   0.0000       0.166643         4.5346
  38   0.0000       0.184422         5.0184
  39   0.0000       0.194484         5.2922

MULLIKEN ATOMIC CHARGES
-----------------------
   0 C :   -0.238716
   1 O :   -0.306545
   2 C :    0.262203
   3 C :   -0.442031
   4 C :   -0.293647
   5 C :   -0.087275
   6 C :   -0.077582
   7 N :   -0.194588
   8 C :   -0.305461
   9 H :    0.144847
  10 H :    0.108236
  11 H :    0.122580
  12 H :    0.134619
  13 H :    0.133495
  14 H :    0.142249
  15 H :    0.123009
  16 H :    0.122745
  17 H :    0.130483
  18 H :    0.128951
  19 H :    0.107530
  20 H :    0.143399
  21 H :    0.141499
Sum of atomic charges:   -0.0000000

LOEWDIN ATOMIC CHARGES
----------------------
   0 C :   -0.357992
   1 O :    0.182466
   2 C :   -0.336949
   3 C :   -0.279544
   4 C :   -0.195348
   5 C :   -0.212570
   6 C :   -0.182964
   7 N :    0.129328
   8 C :   -0.327474
   9 H :    0.114736
  10 H :    0.101506
  11 H :    0.102269
  12 H :    0.126291
  13 H :    0.127681
  14 H :    0.132354
  15 H :    0.126522
  16 H :    0.141186
  17 H :    0.130312
  18 H :    0.136563
  19 H :    0.102886
  20 H :    0.119083
  21 H :    0.119658

  Mayer bond orders larger than 0.1
B(  0-C ,  1-O ) :   0.9102 B(  0-C ,  9-H ) :   0.9412 B(  0-C , 10-H ) :   0.9284
B(  0-C , 11-H ) :   0.9366 B(  1-O ,  2-C ) :   0.9730 B(  2-C ,  3-C ) :   0.9033
B(  2-C ,  4-C ) :   0.9276 B(  2-C ,  6-C ) :   0.8320 B(  3-C , 12-H ) :   0.9275
B(  3-C , 13-H ) :   0.9260 B(  3-C , 14-H ) :   0.9417 B(  4-C ,  5-C ) :   0.9107
B(  4-C , 15-H ) :   0.9084 B(  4-C , 16-H ) :   0.9128 B(  5-C ,  6-C ) :   0.8608
B(  5-C ,  7-N ) :   0.9444 B(  5-C , 17-H ) :   0.9212 B(  6-C ,  7-N ) :   0.9518
B(  6-C , 18-H ) :   0.9254 B(  7-N ,  8-C ) :   0.8730 B(  8-C , 19-H ) :   0.9212
B(  8-C , 20-H ) :   0.9384 B(  8-C , 21-H ) :   0.9363

MP2 TOTAL ENERGY:     -403.589732538 Eh
FINAL SINGLE POINT ENERGY      -403.589732538473

DIPOLE MOMENT
-------------
                                X             Y             Z
Electronic contribution:      2.64313      -4.76494      -1.98448
Nuclear contribution   :     -2.87766       5.57058       2.03447
                        -----------------------------------------
Total Dipole Moment    :     -0.23453       0.80563       0.04999
                        -----------------------------------------
Magnitude (a.u.)       :      0.84056
Magnitude (Debye)      :      2.13654

                             ****ORCA TERMINATED NORMALLY****
TOTAL RUN TIME: 0 days 0 hours 19 minutes 37 seconds 967 msec
