                         Program Version 3.0.3 - RELEASE   -
|  1> ! RI-MP2 RIJK def2-TZVP def2-TZVP/C def2-TZVP/JK TIGHTSCF
|  2> % maxcore 2000
|  3> % mp2 density relaxed end
|  4> *xyz 0 1
|  5>  O       -0.0512550709     1.4303834448    -0.1573394413
|  6>  C        0.0106886574     0.0200371683     0.0478004576
|  7>  C       -1.4333617467    -0.4855519135     0.0538547043
|  8>  O       -2.0489655291    -0.0789411776    -1.1722049077
|  9>  C       -1.5251616901    -2.0255133522     0.1702281315
| 10>  C       -2.6611101913    -2.3255286172     1.1803613954
| 11>  C       -2.9010920403    -0.9902352531     1.8402419726
| 12>  C       -2.2321326930    -0.0024776345     1.2516461466
| 13>  H        0.8257223906     1.7505799227    -0.3841517553
| 14>  H        0.5593448902    -0.4727198087    -0.7681647047
| 15>  H        0.5029693292    -0.2223615531     1.0008500414
| 16>  H       -1.7895953195     0.8432804238    -1.2971717332
| 17>  H       -1.7001385247    -2.4557422856    -0.8175495970
| 18>  H       -0.5770286442    -2.4265568909     0.5438579045
| 19>  H       -3.5725960735    -2.6834075116     0.6839986613
| 20>  H       -2.3803310083    -3.1040548884     1.8992646648
| 21>  H       -3.5740828770    -0.8733485135     2.6836164208
| 22>  H       -2.2631513687     1.0455638103     1.5259705183
| 23> *
| 24>
| 25>                          ****END OF INPUT****

CARTESIAN COORDINATES (ANGSTROEM)
---------------------------------
  O     -0.051255    1.430383   -0.157339
  C      0.010689    0.020037    0.047800
  C     -1.433362   -0.485552    0.053855
  O     -2.048966   -0.078941   -1.172205
  C     -1.525162   -2.025513    0.170228
  C     -2.661110   -2.325529    1.180361
  C     -2.901092   -0.990235    1.840242
  C     -2.232133   -0.002478    1.251646
  H      0.825722    1.750580   -0.384152
  H      0.559345   -0.472720   -0.768165
  H      0.502969   -0.222362    1.000850
  H     -1.789595    0.843280   -1.297172
  H     -1.700139   -2.455742   -0.817550
  H     -0.577029   -2.426557    0.543858
  H     -3.572596   -2.683408    0.683999
  H     -2.380331   -3.104055    1.899265
  H     -3.574083   -0.873349    2.683616
  H     -2.263151    1.045564    1.525971

 Total Charge           Charge          ....    0
 Multiplicity           Mult            ....    1
 Number of Electrons    NEL             ....   62
 Basis Dimension        Dim             ....  308

ORBITAL ENERGIES
----------------

  NO   OCC          E(Eh)            E(eV)
   0   2.0000     -20.570157      -559.7424
   1   2.0000     -20.539503      -558.9083
   2   2.0000     -11.282060      -307.0005
   3   2.0000     -11.280632      -306.9616
   4   2.0000     -11.224409      -305.4317
   5   2.0000     -11.222936      -305.3916
   6   2.0000     -11.218750      -305.2777
   7   2.0000     -11.213864      -305.1447
   8   2.0000      -1.380720       -37.5713
   9   2.0000      -1.341775       -36.5116
  10   2.0000      -1.123105       -30.5612
  11   2.0000      -0.993332       -27.0299
  12   2.0000      -0.965556       -26.2741
  13   2.0000      -0.883085       -24.0300
  14   2.0000      -0.775959       -21.1149
  15   2.0000      -0.739939       -20.1348
  16   2.0000      -0.706895       -19.2356
  17   2.0000      -0.673150       -18.3173
  18   2.0000      -0.664012       -18.0687
  19   2.0000      -0.641582       -17.4583
  20   2.0000      -0.595408       -16.2019
  21   2.0000      -0.575075       -15.6486
  22   2.0000      -0.541552       -14.7364
  23   2.0000      -0.534508       -14.5447
  24   2.0000      -0.513049       -13.9608
  25   2.0000      -0.497957       -13.5501
  26   2.0000      -0.487711       -13.2713
  27   2.0000      -0.472328       -12.8527
  28   2.0000      -0.453559       -12.3420
  29   2.0000      -0.426562       -11.6073
  30   2.0000      -0.351129        -9.5547
  31   0.0000       0.127314         3.4644
  32   0.0000       0.150017         4.0822
  33   0.0000       0.160311         4.3623
  34   0.0000       0.170956         4.6520
  35   0.0000       0.194089         5.2814

MULLIKEN ATOMIC CHARGES
-----------------------
   0 O :   -0.497673
   1 C :   -0.145902
   2 C :    0.403963
   3 O :   -0.492319
   4 C :   -0.317867
   5 C :   -0.157913
   6 C :   -0.159241
   7 C :   -0.260531
   8 H :    0.324308
   9 H :    0.119611
  10 H :    0.105005
  11 H :    0.324557
  12 H :    0.133823
  13 H :    0.120322
  14 H :    0.120148
  15 H :    0.117472
  16 H :    0.126397
  17 H :    0.135839
Sum of atomic charges:    0.0000000

LOEWDIN ATOMIC CHARGES
----------------------
   0 O :   -0.053635
   1 C :   -0.312934
   2 C :   -0.365959
   3 O :    0.001114
   4 C :   -0.191517
   5 C :   -0.238821
   6 C :   -0.151164
   7 C :   -0.126946
   8 H :    0.175048
   9 H :    0.123510
  10 H :    0.123383
  11 H :    0.176516
  12 H :    0.143315
  13 H :    0.141665
  14 H :    0.142350
  15 H :    0.136244
  16 H :    0.136013
  17 H :    0.141817

  Mayer bond orders larger than 0.1
B(  0-O ,  1-C ) :   0.9781 B(  0-O ,  8-H ) :   0.8447 B(  1-C ,  2-C ) :   0.8957
B(  1-C ,  9-H ) :   0.9358 B(  1-C , 10-H ) :   0.9229 B(  2-C ,  3-O ) :   0.9295
B(  2-C ,  4-C ) :   0.8547 B(  2-C ,  7-C ) :   0.9173 B(  3-O , 11-H ) :   0.8241
B(  4-C ,  5-C ) :   0.9813 B(  4-C , 12-H ) :   0.9275 B(  4-C , 13-H ) :   0.9310
B(  5-C ,  6-C ) :   0.9340 B(  5-C , 14-H ) :   0.9071 B(  5-C , 15-H ) :   0.9291
B(  6-C ,  7-C ) :   1.7817 B(  6-C , 16-H ) :   0.9281 B(  7-C , 17-H ) :   0.9157

MP2 TOTAL ENERGY:     -384.318229669 Eh
FINAL SINGLE POINT ENERGY      -384.318229669416

DIPOLE MOMENT
-------------
                                X             Y             Z
Electronic contribution:     -0.53668       3.36019      -1.28063
Nuclear contribution   :      1.43335      -3.36220       1.56965
                        -----------------------------------------
Total Dipole Moment    :      0.89667      -0.00201       0.28902
                        -----------------------------------------
Magnitude (a.u.)       :      0.94210
Magnitude (Debye)      :      2.39463

                             ****ORCA TERMINATED NORMALLY****
TOTAL RUN TIME: 0 days 0 hours 12 minutes 29 seconds 967 msec
