                         Program Version 3.0.3 - RELEASE   -
|  1> ! RI-MP2 RIJK def2-TZVP def2-TZVP/C def2-TZVP/JK TIGHTSCF
|  2> % maxcore 2000
|  3> % mp2 density relaxed end
|  4> *xyz 0 1
|  5>  C        0.0256694512     1.4478037752     0.0072143259
|  6>  N        0.0319256208    -0.0055800625     0.0034669993
|  7>  C       -1.0799963117    -0.6485741677     0.0095087765
|  8>  C       -2.4277091278    -0.0428195987     0.0204683996
|  9>  N       -3.5598270248    -0.6457850849     0.0267878007
| 10>  O       -3.5240229488    -2.0494724457     0.0228171170
| 11>  C       -2.3338461398    -2.6970149266     0.0129051982
| 12>  O       -2.5082918598    -4.0226034191     0.0107026601
| 13>  C       -1.1336115496    -2.0908594531     0.0061666430
| 14>  H        1.0593818868     1.8026552726    -0.0014265378
| 15>  H       -0.4733894165     1.8767593327    -0.8747521263
| 16>  H       -0.4567891250     1.8718216099     0.9007259659
| 17>  H       -2.5387284488     1.0368896987     0.0241959429
| 18>  H       -3.4575270696    -4.2049504303     0.0166360995
| 19>  H       -0.2256686465    -2.6767577005    -0.0016334043
| 20> *
| 21>
| 22>                          ****END OF INPUT****

CARTESIAN COORDINATES (ANGSTROEM)
---------------------------------
  C      0.025669    1.447804    0.007214
  N      0.031926   -0.005580    0.003467
  C     -1.079996   -0.648574    0.009509
  C     -2.427709   -0.042820    0.020468
  N     -3.559827   -0.645785    0.026788
  O     -3.524023   -2.049472    0.022817
  C     -2.333846   -2.697015    0.012905
  O     -2.508292   -4.022603    0.010703
  C     -1.133612   -2.090859    0.006167
  H      1.059382    1.802655   -0.001427
  H     -0.473389    1.876759   -0.874752
  H     -0.456789    1.871822    0.900726
  H     -2.538728    1.036890    0.024196
  H     -3.457527   -4.204950    0.016636
  H     -0.225669   -2.676758   -0.001633

 Total Charge           Charge          ....    0
 Multiplicity           Mult            ....    1
 Number of Electrons    NEL             ....   66
 Basis Dimension        Dim             ....  315

ORBITAL ENERGIES
----------------

  NO   OCC          E(Eh)            E(eV)
   0   2.0000     -20.661009      -562.2146
   1   2.0000     -20.626988      -561.2889
   2   2.0000     -15.673260      -426.4911
   3   2.0000     -15.553248      -423.2254
   4   2.0000     -11.394544      -310.0613
   5   2.0000     -11.311425      -307.7995
   6   2.0000     -11.305001      -307.6247
   7   2.0000     -11.251715      -306.1747
   8   2.0000     -11.230891      -305.6081
   9   2.0000      -1.519791       -41.3556
  10   2.0000      -1.433195       -38.9992
  11   2.0000      -1.244529       -33.8653
  12   2.0000      -1.200852       -32.6768
  13   2.0000      -1.085111       -29.5274
  14   2.0000      -0.956574       -26.0297
  15   2.0000      -0.918150       -24.9841
  16   2.0000      -0.858473       -23.3602
  17   2.0000      -0.787950       -21.4412
  18   2.0000      -0.738734       -20.1020
  19   2.0000      -0.714153       -19.4331
  20   2.0000      -0.695467       -18.9246
  21   2.0000      -0.645860       -17.5747
  22   2.0000      -0.636970       -17.3328
  23   2.0000      -0.600117       -16.3300
  24   2.0000      -0.598436       -16.2843
  25   2.0000      -0.590829       -16.0773
  26   2.0000      -0.576609       -15.6903
  27   2.0000      -0.547857       -14.9079
  28   2.0000      -0.504694       -13.7334
  29   2.0000      -0.492191       -13.3932
  30   2.0000      -0.435948       -11.8627
  31   2.0000      -0.403510       -10.9801
  32   2.0000      -0.325377        -8.8540
  33   0.0000       0.071168         1.9366
  34   0.0000       0.133774         3.6402
  35   0.0000       0.139777         3.8035
  36   0.0000       0.148779         4.0485
  37   0.0000       0.183935         5.0051

MULLIKEN ATOMIC CHARGES
-----------------------
   0 C :   -0.327065
   1 N :   -0.184916
   2 C :    0.170355
   3 C :   -0.156169
   4 N :   -0.053838
   5 O :   -0.167737
   6 C :    0.408594
   7 O :   -0.396506
   8 C :   -0.364469
   9 H :    0.151081
  10 H :    0.133126
  11 H :    0.133350
  12 H :    0.160436
  13 H :    0.351317
  14 H :    0.142441
Sum of atomic charges:    0.0000000

LOEWDIN ATOMIC CHARGES
----------------------
   0 C :   -0.347091
   1 N :    0.086801
   2 C :   -0.290874
   3 C :   -0.193674
   4 N :    0.076085
   5 O :    0.223228
   6 C :   -0.404582
   7 O :    0.111199
   8 C :   -0.133462
   9 H :    0.117820
  10 H :    0.112455
  11 H :    0.112539
  12 H :    0.157685
  13 H :    0.207451
  14 H :    0.164420

  Mayer bond orders larger than 0.1
B(  0-C ,  1-N ) :   0.8815 B(  0-C ,  9-H ) :   0.9469 B(  0-C , 10-H ) :   0.9249
B(  0-C , 11-H ) :   0.9249 B(  1-N ,  2-C ) :   1.8399 B(  2-C ,  3-C ) :   0.9192
B(  2-C ,  8-C ) :   1.0834 B(  3-C ,  4-N ) :   1.7630 B(  3-C , 12-H ) :   0.9229
B(  4-N ,  5-O ) :   0.8145 B(  5-O ,  6-C ) :   1.0768 B(  6-C ,  7-O ) :   1.1211
B(  6-C ,  8-C ) :   1.5666 B(  7-O , 13-H ) :   0.8081 B(  8-C , 14-H ) :   0.9297

MP2 TOTAL ENERGY:     -453.162835853 Eh
FINAL SINGLE POINT ENERGY      -453.162835852975

DIPOLE MOMENT
-------------
                                X             Y             Z
Electronic contribution:     -5.31977      -6.59091       0.01981
Nuclear contribution   :      4.76421       6.59888      -0.01596
                        -----------------------------------------
Total Dipole Moment    :     -0.55556       0.00797       0.00384
                        -----------------------------------------
Magnitude (a.u.)       :      0.55563
Magnitude (Debye)      :      1.41229

                             ****ORCA TERMINATED NORMALLY****
TOTAL RUN TIME: 0 days 0 hours 15 minutes 34 seconds 484 msec
