                         Program Version 3.0.3 - RELEASE   -
|  1> ! RI-MP2 RIJK def2-TZVP def2-TZVP/C def2-TZVP/JK TIGHTSCF
|  2> % maxcore 2000
|  3> % mp2 density relaxed end
|  4> *xyz 0 1
|  5>  O       -0.3450911777     0.1009034636     0.4100230002
|  6>  C       -0.0902131814     1.2760617630     0.3655247377
|  7>  C        1.2359518937     1.8795742470    -0.0289310392
|  8>  N        2.3027572829     0.9877762535    -0.5250708668
|  9>  C        2.6098679217     1.9075994109    -1.6486967161
| 10>  C        1.9506434732     1.5385302205    -2.9972046181
| 11>  C        0.6701539295     0.8524551706    -2.7888580096
| 12>  N        0.6843388338     2.3301204355    -2.6410129538
| 13>  C        1.3509629218     2.7290330882    -1.3424603462
| 14>  H       -0.8487527900     2.0468466587     0.6408432007
| 15>  H        1.5363318377     2.5269816904     0.8137467506
| 16>  H        3.0572339592     0.7938727484     0.1197643240
| 17>  H        3.6114879970     2.3378586961    -1.6853562785
| 18>  H        2.4222989108     1.6512301443    -3.9683672010
| 19>  H        0.1153071689     0.5585427018    -3.6745450459
| 20>  H        0.5482352547     0.2047853825    -1.9290630583
| 21>  H        1.3362664543     3.8119767550    -1.2366146796
| 22> *
| 23>
| 24>                          ****END OF INPUT****

CARTESIAN COORDINATES (ANGSTROEM)
---------------------------------
  O     -0.345091    0.100903    0.410023
  C     -0.090213    1.276062    0.365525
  C      1.235952    1.879574   -0.028931
  N      2.302757    0.987776   -0.525071
  C      2.609868    1.907599   -1.648697
  C      1.950643    1.538530   -2.997205
  C      0.670154    0.852455   -2.788858
  N      0.684339    2.330120   -2.641013
  C      1.350963    2.729033   -1.342460
  H     -0.848753    2.046847    0.640843
  H      1.536332    2.526982    0.813747
  H      3.057234    0.793873    0.119764
  H      3.611488    2.337859   -1.685356
  H      2.422299    1.651230   -3.968367
  H      0.115307    0.558543   -3.674545
  H      0.548235    0.204785   -1.929063
  H      1.336266    3.811977   -1.236615

 Total Charge           Charge          ....    0
 Multiplicity           Mult            ....    1
 Number of Electrons    NEL             ....   66
 Basis Dimension        Dim             ....  327

ORBITAL ENERGIES
----------------

  NO   OCC          E(Eh)            E(eV)
   0   2.0000     -20.559012      -559.4392
   1   2.0000     -15.566090      -423.5749
   2   2.0000     -15.559672      -423.4002
   3   2.0000     -11.333915      -308.4115
   4   2.0000     -11.285418      -307.0918
   5   2.0000     -11.277826      -306.8852
   6   2.0000     -11.277027      -306.8635
   7   2.0000     -11.265303      -306.5445
   8   2.0000     -11.253082      -306.2119
   9   2.0000      -1.398398       -38.0523
  10   2.0000      -1.310306       -35.6553
  11   2.0000      -1.217617       -33.1331
  12   2.0000      -1.008038       -27.4301
  13   2.0000      -0.980660       -26.6851
  14   2.0000      -0.907110       -24.6837
  15   2.0000      -0.834454       -22.7066
  16   2.0000      -0.784516       -21.3478
  17   2.0000      -0.743686       -20.2367
  18   2.0000      -0.713779       -19.4229
  19   2.0000      -0.692201       -18.8357
  20   2.0000      -0.661835       -18.0094
  21   2.0000      -0.634421       -17.2635
  22   2.0000      -0.601315       -16.3626
  23   2.0000      -0.581753       -15.8303
  24   2.0000      -0.565017       -15.3749
  25   2.0000      -0.545058       -14.8318
  26   2.0000      -0.515156       -14.0181
  27   2.0000      -0.500078       -13.6078
  28   2.0000      -0.471132       -12.8201
  29   2.0000      -0.431539       -11.7428
  30   2.0000      -0.405597       -11.0368
  31   2.0000      -0.387098       -10.5335
  32   2.0000      -0.369196       -10.0463
  33   0.0000       0.122436         3.3316
  34   0.0000       0.126059         3.4302
  35   0.0000       0.148452         4.0396
  36   0.0000       0.165175         4.4946
  37   0.0000       0.178685         4.8623

MULLIKEN ATOMIC CHARGES
-----------------------
   0 O :   -0.256682
   1 C :    0.081808
   2 C :    0.027144
   3 N :   -0.390745
   4 C :    0.009979
   5 C :   -0.101796
   6 C :   -0.189877
   7 N :   -0.250292
   8 C :   -0.049214
   9 H :    0.077970
  10 H :    0.115470
  11 H :    0.213237
  12 H :    0.128341
  13 H :    0.135163
  14 H :    0.131070
  15 H :    0.185720
  16 H :    0.132703
Sum of atomic charges:    0.0000000

LOEWDIN ATOMIC CHARGES
----------------------
   0 O :    0.142345
   1 C :   -0.287577
   2 C :   -0.264681
   3 N :    0.031192
   4 C :   -0.217779
   5 C :   -0.189662
   6 C :   -0.240806
   7 N :    0.107233
   8 C :   -0.187840
   9 H :    0.114778
  10 H :    0.155416
  11 H :    0.161334
  12 H :    0.133485
  13 H :    0.131313
  14 H :    0.135049
  15 H :    0.138576
  16 H :    0.137621

  Mayer bond orders larger than 0.1
B(  0-O ,  1-C ) :   2.0076 B(  1-C ,  2-C ) :   0.8515 B(  1-C ,  9-H ) :   0.9358
B(  2-C ,  3-N ) :   0.9287 B(  2-C ,  8-C ) :   0.9090 B(  2-C , 10-H ) :   0.8919
B(  3-N ,  4-C ) :   1.0203 B(  3-N , 11-H ) :   0.8782 B(  4-C ,  5-C ) :   0.9008
B(  4-C ,  8-C ) :   0.9249 B(  4-C , 12-H ) :   0.9158 B(  5-C ,  6-C ) :   0.9362
B(  5-C ,  7-N ) :   0.8716 B(  5-C , 13-H ) :   0.9015 B(  6-C ,  7-N ) :   0.8651
B(  6-C , 14-H ) :   0.9323 B(  6-C , 15-H ) :   0.8940 B(  7-N ,  8-C ) :   0.9648
B(  8-C , 16-H ) :   0.9262

MP2 TOTAL ENERGY:     -417.206928842 Eh
FINAL SINGLE POINT ENERGY      -417.206928841850

DIPOLE MOMENT
-------------
                                X             Y             Z
Electronic contribution:     -1.43673      -1.06267       1.47313
Nuclear contribution   :      2.50740       1.90119      -1.14543
                        -----------------------------------------
Total Dipole Moment    :      1.07068       0.83852       0.32770
                        -----------------------------------------
Magnitude (a.u.)       :      1.39887
Magnitude (Debye)      :      3.55565

                             ****ORCA TERMINATED NORMALLY****
TOTAL RUN TIME: 0 days 0 hours 18 minutes 19 seconds 350 msec
