                         Program Version 3.0.3 - RELEASE   -
|  1> ! RI-MP2 RIJK def2-TZVP def2-TZVP/C def2-TZVP/JK TIGHTSCF
|  2> % maxcore 2000
|  3> % mp2 density relaxed end
|  4> *xyz 0 1
|  5>  C        0.8100632768     1.1805242590    -0.3467171373
|  6>  C        0.4402412062    -0.2776580252    -0.4539214932
|  7>  O        0.8371561125    -1.1340350786     0.3029117450
|  8>  C       -0.5228194411    -0.6473765017    -1.6133926129
|  9>  O       -0.9565812620     0.2332130646    -2.3206290908
| 10>  C       -0.8357907215    -2.1167295805    -1.8066355781
| 11>  C        0.1668891221    -2.7408880203    -2.7701678936
| 12>  C        1.5059210606    -3.2314842692    -2.2743169183
| 13>  C        0.4521033602    -4.2199146921    -2.7049846942
| 14>  H        1.3067275922     1.5072048360    -1.2662592989
| 15>  H       -0.0933493321     1.7915477163    -0.2583830392
| 16>  H        1.4632169450     1.3337723809     0.5123763936
| 17>  H       -0.7883294015    -2.6315720763    -0.8439667523
| 18>  H       -1.8485377172    -2.1932130659    -2.2141044445
| 19>  H        0.1516860537    -2.2949943745    -3.7606898186
| 20>  H        2.3710923748    -3.0917898766    -2.9130054952
| 21>  H        1.7095791108    -3.1355022729    -1.2138620119
| 22>  H       -0.0479358219    -4.7968525828    -1.9341059360
| 23>  H        0.5924068524    -4.7537029303    -3.6384173637
| 24> *
| 25>
| 26>                          ****END OF INPUT****

CARTESIAN COORDINATES (ANGSTROEM)
---------------------------------
  C      0.810063    1.180524   -0.346717
  C      0.440241   -0.277658   -0.453921
  O      0.837156   -1.134035    0.302912
  C     -0.522819   -0.647377   -1.613393
  O     -0.956581    0.233213   -2.320629
  C     -0.835791   -2.116730   -1.806636
  C      0.166889   -2.740888   -2.770168
  C      1.505921   -3.231484   -2.274317
  C      0.452103   -4.219915   -2.704985
  H      1.306728    1.507205   -1.266259
  H     -0.093349    1.791548   -0.258383
  H      1.463217    1.333772    0.512376
  H     -0.788329   -2.631572   -0.843967
  H     -1.848538   -2.193213   -2.214104
  H      0.151686   -2.294994   -3.760690
  H      2.371092   -3.091790   -2.913005
  H      1.709579   -3.135502   -1.213862
  H     -0.047936   -4.796853   -1.934106
  H      0.592407   -4.753703   -3.638417

 Total Charge           Charge          ....    0
 Multiplicity           Mult            ....    1
 Number of Electrons    NEL             ....   68
 Basis Dimension        Dim             ....  339

ORBITAL ENERGIES
----------------

  NO   OCC          E(Eh)            E(eV)
   0   2.0000     -20.576067      -559.9032
   1   2.0000     -20.574763      -559.8678
   2   2.0000     -11.350899      -308.8737
   3   2.0000     -11.347050      -308.7689
   4   2.0000     -11.245421      -306.0035
   5   2.0000     -11.243603      -305.9540
   6   2.0000     -11.240459      -305.8684
   7   2.0000     -11.231392      -305.6217
   8   2.0000     -11.228490      -305.5427
   9   2.0000      -1.423729       -38.7416
  10   2.0000      -1.405453       -38.2443
  11   2.0000      -1.154117       -31.4051
  12   2.0000      -1.031252       -28.0618
  13   2.0000      -1.017620       -27.6909
  14   2.0000      -0.877287       -23.8722
  15   2.0000      -0.827849       -22.5269
  16   2.0000      -0.794781       -21.6271
  17   2.0000      -0.726714       -19.7749
  18   2.0000      -0.704457       -19.1692
  19   2.0000      -0.670799       -18.2534
  20   2.0000      -0.655377       -17.8337
  21   2.0000      -0.640619       -17.4321
  22   2.0000      -0.615267       -16.7423
  23   2.0000      -0.607475       -16.5302
  24   2.0000      -0.580185       -15.7876
  25   2.0000      -0.557351       -15.1663
  26   2.0000      -0.540785       -14.7155
  27   2.0000      -0.522258       -14.2114
  28   2.0000      -0.511371       -13.9151
  29   2.0000      -0.508449       -13.8356
  30   2.0000      -0.494393       -13.4531
  31   2.0000      -0.434952       -11.8357
  32   2.0000      -0.422437       -11.4951
  33   2.0000      -0.393885       -10.7182
  34   0.0000       0.067558         1.8384
  35   0.0000       0.140551         3.8246
  36   0.0000       0.155206         4.2234
  37   0.0000       0.164554         4.4777
  38   0.0000       0.176466         4.8019

MULLIKEN ATOMIC CHARGES
-----------------------
   0 C :   -0.381920
   1 C :    0.191567
   2 O :   -0.283403
   3 C :    0.171461
   4 O :   -0.270503
   5 C :   -0.173680
   6 C :   -0.146115
   7 C :   -0.280533
   8 C :   -0.258895
   9 H :    0.152373
  10 H :    0.156053
  11 H :    0.154561
  12 H :    0.148888
  13 H :    0.137362
  14 H :    0.131441
  15 H :    0.131216
  16 H :    0.156029
  17 H :    0.130969
  18 H :    0.133129
Sum of atomic charges:   -0.0000000

LOEWDIN ATOMIC CHARGES
----------------------
   0 C :   -0.275493
   1 C :   -0.313134
   2 O :    0.169820
   3 C :   -0.285228
   4 O :    0.176613
   5 C :   -0.213631
   6 C :   -0.223753
   7 C :   -0.227674
   8 C :   -0.225878
   9 H :    0.144603
  10 H :    0.144880
  11 H :    0.133548
  12 H :    0.157018
  13 H :    0.153048
  14 H :    0.150508
  15 H :    0.131355
  16 H :    0.137737
  17 H :    0.133601
  18 H :    0.132061

  Mayer bond orders larger than 0.1
B(  0-C ,  1-C ) :   0.9328 B(  0-C ,  9-H ) :   0.9073 B(  0-C , 10-H ) :   0.9062
B(  0-C , 11-H ) :   0.9375 B(  1-C ,  2-O ) :   1.9052 B(  1-C ,  3-C ) :   0.8544
B(  3-C ,  4-O ) :   1.9500 B(  3-C ,  5-C ) :   0.9218 B(  5-C ,  6-C ) :   0.8880
B(  5-C , 12-H ) :   0.9175 B(  5-C , 13-H ) :   0.9153 B(  6-C ,  7-C ) :   0.8975
B(  6-C ,  8-C ) :   0.8787 B(  6-C , 14-H ) :   0.9278 B(  7-C ,  8-C ) :   0.9055
B(  7-C , 15-H ) :   0.9306 B(  7-C , 16-H ) :   0.9191 B(  8-C , 17-H ) :   0.9282
B(  8-C , 18-H ) :   0.9298

MP2 TOTAL ENERGY:     -422.328052056 Eh
FINAL SINGLE POINT ENERGY      -422.328052056082

DIPOLE MOMENT
-------------
                                X             Y             Z
Electronic contribution:     -2.38614       3.83063       1.92075
Nuclear contribution   :      2.49040      -3.90012      -2.02427
                        -----------------------------------------
Total Dipole Moment    :      0.10426      -0.06949      -0.10352
                        -----------------------------------------
Magnitude (a.u.)       :      0.16253
Magnitude (Debye)      :      0.41311

                             ****ORCA TERMINATED NORMALLY****
TOTAL RUN TIME: 0 days 0 hours 18 minutes 36 seconds 73 msec
