                         Program Version 3.0.3 - RELEASE   -
|  1> ! RI-MP2 RIJK def2-TZVP def2-TZVP/C def2-TZVP/JK TIGHTSCF
|  2> % maxcore 2000
|  3> % mp2 density relaxed end
|  4> *xyz 0 1
|  5>  C        0.0725996784     1.3981526602    -0.0466895561
|  6>  N       -0.0721514757    -0.0406685246     0.1147621364
|  7>  C        0.5900835637    -0.7091658882     1.0910336053
|  8>  N        0.7395221970    -2.0229661269     1.1439978075
|  9>  N        1.4064684003    -2.1596068593     2.3126961203
| 10>  C        1.7927272409    -3.4326642607     2.7999913192
| 11>  O        2.3862578177    -3.6044196186     3.8209935626
| 12>  N        1.6553869083    -0.9972948479     2.9298691848
| 13>  N        1.1536301951    -0.0720406386     2.1803932266
| 14>  H        1.0547285402     1.6889113436    -0.4429634587
| 15>  H       -0.7028073264     1.7515841501    -0.7292546247
| 16>  H       -0.0634732581     1.8871699364     0.9191084914
| 17>  H       -0.2642860224    -0.5832859661    -0.7120544167
| 18>  H        1.4600170510    -4.2097974595     2.0944968821
| 19> *
| 20>
| 21>                          ****END OF INPUT****

CARTESIAN COORDINATES (ANGSTROEM)
---------------------------------
  C      0.072600    1.398153   -0.046690
  N     -0.072151   -0.040669    0.114762
  C      0.590084   -0.709166    1.091034
  N      0.739522   -2.022966    1.143998
  N      1.406468   -2.159607    2.312696
  C      1.792727   -3.432664    2.799991
  O      2.386258   -3.604420    3.820994
  N      1.655387   -0.997295    2.929869
  N      1.153630   -0.072041    2.180393
  H      1.054729    1.688911   -0.442963
  H     -0.702807    1.751584   -0.729255
  H     -0.063473    1.887170    0.919108
  H     -0.264286   -0.583286   -0.712054
  H      1.460017   -4.209797    2.094497

 Total Charge           Charge          ....    0
 Multiplicity           Mult            ....    1
 Number of Electrons    NEL             ....   66
 Basis Dimension        Dim             ....  309

ORBITAL ENERGIES
----------------

  NO   OCC          E(Eh)            E(eV)
   0   2.0000     -20.582622      -560.0816
   1   2.0000     -15.705960      -427.3809
   2   2.0000     -15.696371      -427.1200
   3   2.0000     -15.627033      -425.2332
   4   2.0000     -15.618973      -425.0139
   5   2.0000     -15.598357      -424.4529
   6   2.0000     -11.396523      -310.1152
   7   2.0000     -11.358474      -309.0798
   8   2.0000     -11.276164      -306.8400
   9   2.0000      -1.514814       -41.2202
  10   2.0000      -1.432357       -38.9764
  11   2.0000      -1.286551       -35.0088
  12   2.0000      -1.281194       -34.8631
  13   2.0000      -1.165401       -31.7122
  14   2.0000      -0.987458       -26.8701
  15   2.0000      -0.964399       -26.2426
  16   2.0000      -0.874065       -23.7845
  17   2.0000      -0.816578       -22.2202
  18   2.0000      -0.753279       -20.4978
  19   2.0000      -0.733732       -19.9658
  20   2.0000      -0.709485       -19.3061
  21   2.0000      -0.673629       -18.3304
  22   2.0000      -0.639244       -17.3947
  23   2.0000      -0.623539       -16.9674
  24   2.0000      -0.598336       -16.2816
  25   2.0000      -0.571205       -15.5433
  26   2.0000      -0.568547       -15.4709
  27   2.0000      -0.509644       -13.8681
  28   2.0000      -0.498677       -13.5697
  29   2.0000      -0.490568       -13.3490
  30   2.0000      -0.466778       -12.7017
  31   2.0000      -0.461885       -12.5685
  32   2.0000      -0.355356        -9.6697
  33   0.0000       0.061327         1.6688
  34   0.0000       0.128161         3.4874
  35   0.0000       0.159755         4.3472
  36   0.0000       0.169204         4.6043
  37   0.0000       0.173186         4.7126

MULLIKEN ATOMIC CHARGES
-----------------------
   0 C :   -0.271004
   1 N :   -0.358151
   2 C :    0.233315
   3 N :   -0.270036
   4 N :    0.209369
   5 C :    0.141116
   6 O :   -0.223731
   7 N :   -0.151825
   8 N :   -0.140989
   9 H :    0.134422
  10 H :    0.142740
  11 H :    0.166586
  12 H :    0.249510
  13 H :    0.138677
Sum of atomic charges:    0.0000000

LOEWDIN ATOMIC CHARGES
----------------------
   0 C :   -0.311480
   1 N :    0.063537
   2 C :   -0.450285
   3 N :    0.050107
   4 N :    0.106264
   5 C :   -0.333340
   6 O :    0.171750
   7 N :   -0.004794
   8 N :    0.028000
   9 H :    0.112491
  10 H :    0.120424
  11 H :    0.128576
  12 H :    0.191066
  13 H :    0.127685

  Mayer bond orders larger than 0.1
B(  0-C ,  1-N ) :   0.8763 B(  0-C ,  9-H ) :   0.9348 B(  0-C , 10-H ) :   0.9328
B(  0-C , 11-H ) :   0.9311 B(  1-N ,  2-C ) :   1.1589 B(  1-N , 12-H ) :   0.8701
B(  2-C ,  3-N ) :   1.4913 B(  2-C ,  8-N ) :   1.2566 B(  3-N ,  4-N ) :   1.0135
B(  3-N ,  7-N ) :   0.1133 B(  4-N ,  5-C ) :   0.8883 B(  4-N ,  7-N ) :   1.0241
B(  5-C ,  6-O ) :   2.0205 B(  5-C , 13-H ) :   0.9186 B(  7-N ,  8-N ) :   1.2513

MP2 TOTAL ENERGY:     -465.423253532 Eh
FINAL SINGLE POINT ENERGY      -465.423253531644

DIPOLE MOMENT
-------------
                                X             Y             Z
Electronic contribution:      2.94200      -6.43195       5.68563
Nuclear contribution   :     -3.66785       6.53414      -7.40275
                        -----------------------------------------
Total Dipole Moment    :     -0.72585       0.10219      -1.71712
                        -----------------------------------------
Magnitude (a.u.)       :      1.86703
Magnitude (Debye)      :      4.74560

                             ****ORCA TERMINATED NORMALLY****
TOTAL RUN TIME: 0 days 0 hours 13 minutes 43 seconds 888 msec
