                         Program Version 3.0.3 - RELEASE   -
|  1> ! RI-MP2 RIJK def2-TZVP def2-TZVP/C def2-TZVP/JK TIGHTSCF
|  2> % maxcore 2000
|  3> % mp2 density relaxed end
|  4> *xyz 0 1
|  5>  C        0.0331038534     1.5055035668     0.1544820598
|  6>  C        0.0039794421    -0.0046991809     0.0314130810
|  7>  O        0.6980889500    -0.5472248418     1.1768980703
|  8>  C        0.7594715546    -1.8872976231     1.2254541483
|  9>  O        0.2872010990    -2.6321353907     0.4006546821
| 10>  N        1.4482696534    -2.2977615838     2.3675242780
| 11>  C        1.9980316204    -1.3440687553     3.3305499069
| 12>  C        1.6117569376    -3.6640285344     2.5878628050
| 13>  O        2.1902164570    -4.1225158131     3.5426223135
| 14>  H        1.0610919671     1.8781695373     0.1676609443
| 15>  H       -0.4844853490     1.9531920739    -0.6988433096
| 16>  H       -0.4656092448     1.8339889781     1.0705495608
| 17>  H       -1.0164907523    -0.3985833524     0.0213486030
| 18>  H        0.5019141923    -0.3543789668    -0.8777093617
| 19>  H        1.2049001521    -0.7281395074     3.7595359237
| 20>  H        2.4778448318    -1.9314615074     4.1123899196
| 21>  H        2.7301536443    -0.6906403519     2.8515389296
| 22>  H        1.1510445710    -4.2603628471     1.7890870055
| 23> *
| 24>
| 25>                          ****END OF INPUT****

CARTESIAN COORDINATES (ANGSTROEM)
---------------------------------
  C      0.033104    1.505504    0.154482
  C      0.003979   -0.004699    0.031413
  O      0.698089   -0.547225    1.176898
  C      0.759472   -1.887298    1.225454
  O      0.287201   -2.632135    0.400655
  N      1.448270   -2.297762    2.367524
  C      1.998032   -1.344069    3.330550
  C      1.611757   -3.664029    2.587863
  O      2.190216   -4.122516    3.542622
  H      1.061092    1.878170    0.167661
  H     -0.484485    1.953192   -0.698843
  H     -0.465609    1.833989    1.070550
  H     -1.016491   -0.398583    0.021349
  H      0.501914   -0.354379   -0.877709
  H      1.204900   -0.728140    3.759536
  H      2.477845   -1.931462    4.112390
  H      2.730154   -0.690640    2.851539
  H      1.151045   -4.260363    1.789087

 Total Charge           Charge          ....    0
 Multiplicity           Mult            ....    1
 Number of Electrons    NEL             ....   70
 Basis Dimension        Dim             ....  333

ORBITAL ENERGIES
----------------

  NO   OCC          E(Eh)            E(eV)
   0   2.0000     -20.620211      -561.1045
   1   2.0000     -20.549809      -559.1887
   2   2.0000     -20.547864      -559.1358
   3   2.0000     -15.623091      -425.1259
   4   2.0000     -11.426418      -310.9286
   5   2.0000     -11.363358      -309.2127
   6   2.0000     -11.304026      -307.5982
   7   2.0000     -11.271505      -306.7132
   8   2.0000     -11.237345      -305.7837
   9   2.0000      -1.488256       -40.4975
  10   2.0000      -1.406999       -38.2864
  11   2.0000      -1.379427       -37.5361
  12   2.0000      -1.267628       -34.4939
  13   2.0000      -1.054948       -28.7066
  14   2.0000      -0.981561       -26.7096
  15   2.0000      -0.920808       -25.0565
  16   2.0000      -0.843637       -22.9565
  17   2.0000      -0.775844       -21.1118
  18   2.0000      -0.766750       -20.8643
  19   2.0000      -0.710922       -19.3452
  20   2.0000      -0.703614       -19.1463
  21   2.0000      -0.654798       -17.8180
  22   2.0000      -0.649899       -17.6846
  23   2.0000      -0.634770       -17.2730
  24   2.0000      -0.592760       -16.1298
  25   2.0000      -0.591096       -16.0845
  26   2.0000      -0.572639       -15.5823
  27   2.0000      -0.562532       -15.3073
  28   2.0000      -0.553909       -15.0726
  29   2.0000      -0.528724       -14.3873
  30   2.0000      -0.527699       -14.3594
  31   2.0000      -0.485063       -13.1992
  32   2.0000      -0.480181       -13.0664
  33   2.0000      -0.445344       -12.1184
  34   2.0000      -0.416205       -11.3255
  35   0.0000       0.121160         3.2969
  36   0.0000       0.137886         3.7521
  37   0.0000       0.154948         4.2164
  38   0.0000       0.170898         4.6504
  39   0.0000       0.180143         4.9019

MULLIKEN ATOMIC CHARGES
-----------------------
   0 C :   -0.363735
   1 C :   -0.077040
   2 O :   -0.261004
   3 C :    0.390774
   4 O :   -0.366659
   5 N :   -0.113580
   6 C :   -0.319906
   7 C :    0.155633
   8 O :   -0.324277
   9 H :    0.135117
  10 H :    0.135135
  11 H :    0.135100
  12 H :    0.129478
  13 H :    0.129221
  14 H :    0.144723
  15 H :    0.180908
  16 H :    0.144734
  17 H :    0.145379
Sum of atomic charges:    0.0000000

LOEWDIN ATOMIC CHARGES
----------------------
   0 C :   -0.313838
   1 C :   -0.294309
   2 O :    0.252380
   3 C :   -0.541777
   4 O :    0.098093
   5 N :    0.175262
   6 C :   -0.273489
   7 C :   -0.352072
   8 O :    0.095180
   9 H :    0.125964
  10 H :    0.130604
  11 H :    0.125961
  12 H :    0.130834
  13 H :    0.130770
  14 H :    0.121772
  15 H :    0.134609
  16 H :    0.121778
  17 H :    0.132277

  Mayer bond orders larger than 0.1
B(  0-C ,  1-C ) :   0.9431 B(  0-C ,  9-H ) :   0.9332 B(  0-C , 10-H ) :   0.9327
B(  0-C , 11-H ) :   0.9332 B(  1-C ,  2-O ) :   0.8235 B(  1-C , 12-H ) :   0.9337
B(  1-C , 13-H ) :   0.9338 B(  2-O ,  3-C ) :   1.1175 B(  3-C ,  4-O ) :   1.8715
B(  3-C ,  5-N ) :   1.0775 B(  5-N ,  6-C ) :   0.8535 B(  5-N ,  7-C ) :   1.0245
B(  6-C , 14-H ) :   0.9336 B(  6-C , 15-H ) :   0.9148 B(  6-C , 16-H ) :   0.9336
B(  7-C ,  8-O ) :   1.9257 B(  7-C , 17-H ) :   0.9207

MP2 TOTAL ENERGY:     -475.537524363 Eh
FINAL SINGLE POINT ENERGY      -475.537524363310

DIPOLE MOMENT
-------------
                                X             Y             Z
Electronic contribution:      1.45441      -9.79544       2.02728
Nuclear contribution   :     -1.72745      11.37224      -2.42197
                        -----------------------------------------
Total Dipole Moment    :     -0.27304       1.57680      -0.39469
                        -----------------------------------------
Magnitude (a.u.)       :      1.64822
Magnitude (Debye)      :      4.18945

                             ****ORCA TERMINATED NORMALLY****
TOTAL RUN TIME: 0 days 0 hours 13 minutes 29 seconds 154 msec
