                         Program Version 3.0.3 - RELEASE   -
|  1> ! RI-MP2 RIJK def2-TZVP def2-TZVP/C def2-TZVP/JK TIGHTSCF
|  2> % maxcore 2000
|  3> % mp2 density relaxed end
|  4> *xyz 0 1
|  5>  O       -0.1949152197     1.4725686805     0.1148507488
|  6>  C        0.0389699162     0.0912090226    -0.0699227340
|  7>  C       -1.2675883925    -0.6876523072    -0.1151966286
|  8>  O       -2.0201019508    -0.1467558575    -1.1866865789
|  9>  C       -3.3814684532    -0.5639614191    -1.2447099267
| 10>  C       -4.1390670448     0.3435285148    -2.2386635237
| 11>  C       -5.0816701143    -0.5892966608    -3.0378113513
| 12>  C       -4.5076312877    -1.9607333514    -2.7764222361
| 13>  C       -3.5915255912    -1.9525979632    -1.8107847556
| 14>  H       -0.8815180380     1.7010968010    -0.5234286887
| 15>  H        0.6029634246    -0.1020044470    -0.9966668825
| 16>  H        0.6476402218    -0.2544607069     0.7722232835
| 17>  H       -1.0715387074    -1.7619279954    -0.2584964691
| 18>  H       -1.8130437442    -0.5603633683     0.8336756406
| 19>  H       -3.8009600862    -0.4964929395    -0.2259718303
| 20>  H       -4.6632060957     1.1635486505    -1.7432583118
| 21>  H       -3.3883443868     0.7813562112    -2.9029562831
| 22>  H       -6.1161938243    -0.5278355009    -2.6737807872
| 23>  H       -5.1199428771    -0.3421633790    -4.1048036430
| 24>  H       -4.8466293661    -2.8436950821    -3.3081789556
| 25>  H       -3.0715570727    -2.8231268921    -1.4276360467
| 26> *
| 27>
| 28>                          ****END OF INPUT****

CARTESIAN COORDINATES (ANGSTROEM)
---------------------------------
  O     -0.194915    1.472569    0.114851
  C      0.038970    0.091209   -0.069923
  C     -1.267588   -0.687652   -0.115197
  O     -2.020102   -0.146756   -1.186687
  C     -3.381468   -0.563961   -1.244710
  C     -4.139067    0.343529   -2.238664
  C     -5.081670   -0.589297   -3.037811
  C     -4.507631   -1.960733   -2.776422
  C     -3.591526   -1.952598   -1.810785
  H     -0.881518    1.701097   -0.523429
  H      0.602963   -0.102004   -0.996667
  H      0.647640   -0.254461    0.772223
  H     -1.071539   -1.761928   -0.258496
  H     -1.813044   -0.560363    0.833676
  H     -3.800960   -0.496493   -0.225972
  H     -4.663206    1.163549   -1.743258
  H     -3.388344    0.781356   -2.902956
  H     -6.116194   -0.527836   -2.673781
  H     -5.119943   -0.342163   -4.104804
  H     -4.846629   -2.843695   -3.308179
  H     -3.071557   -2.823127   -1.427636

 Total Charge           Charge          ....    0
 Multiplicity           Mult            ....    1
 Number of Electrons    NEL             ....   70
 Basis Dimension        Dim             ....  351

ORBITAL ENERGIES
----------------

  NO   OCC          E(Eh)            E(eV)
   0   2.0000     -20.561165      -559.4977
   1   2.0000     -20.545043      -559.0591
   2   2.0000     -11.287186      -307.1400
   3   2.0000     -11.277648      -306.8804
   4   2.0000     -11.270773      -306.6933
   5   2.0000     -11.234698      -305.7117
   6   2.0000     -11.231178      -305.6159
   7   2.0000     -11.225816      -305.4700
   8   2.0000     -11.224404      -305.4315
   9   2.0000      -1.386091       -37.7174
  10   2.0000      -1.347586       -36.6697
  11   2.0000      -1.134247       -30.8644
  12   2.0000      -1.010227       -27.4897
  13   2.0000      -0.973199       -26.4821
  14   2.0000      -0.937840       -25.5199
  15   2.0000      -0.835711       -22.7408
  16   2.0000      -0.797609       -21.7041
  17   2.0000      -0.743522       -20.2323
  18   2.0000      -0.698823       -19.0159
  19   2.0000      -0.683323       -18.5942
  20   2.0000      -0.673010       -18.3135
  21   2.0000      -0.649108       -17.6631
  22   2.0000      -0.611540       -16.6408
  23   2.0000      -0.596173       -16.2227
  24   2.0000      -0.576519       -15.6879
  25   2.0000      -0.547906       -14.9093
  26   2.0000      -0.538320       -14.6484
  27   2.0000      -0.512995       -13.9593
  28   2.0000      -0.499879       -13.6024
  29   2.0000      -0.496637       -13.5142
  30   2.0000      -0.486607       -13.2413
  31   2.0000      -0.472109       -12.8467
  32   2.0000      -0.436197       -11.8695
  33   2.0000      -0.426206       -11.5977
  34   2.0000      -0.359185        -9.7739
  35   0.0000       0.137347         3.7374
  36   0.0000       0.144201         3.9239
  37   0.0000       0.157450         4.2844
  38   0.0000       0.165379         4.5002
  39   0.0000       0.168145         4.5754

MULLIKEN ATOMIC CHARGES
-----------------------
   0 O :   -0.488643
   1 C :    0.010139
   2 C :   -0.095833
   3 O :   -0.329099
   4 C :    0.140107
   5 C :   -0.236434
   6 C :   -0.180670
   7 C :   -0.145504
   8 C :   -0.232786
   9 H :    0.325740
  10 H :    0.098094
  11 H :    0.106265
  12 H :    0.095921
  13 H :    0.101574
  14 H :    0.079825
  15 H :    0.126759
  16 H :    0.121665
  17 H :    0.117999
  18 H :    0.123555
  19 H :    0.131105
  20 H :    0.130223
Sum of atomic charges:    0.0000000

LOEWDIN ATOMIC CHARGES
----------------------
   0 O :   -0.050573
   1 C :   -0.354810
   2 C :   -0.339115
   3 O :    0.165416
   4 C :   -0.297863
   5 C :   -0.214434
   6 C :   -0.241541
   7 C :   -0.151144
   8 C :   -0.150363
   9 H :    0.175991
  10 H :    0.118921
  11 H :    0.128805
  12 H :    0.120781
  13 H :    0.121270
  14 H :    0.137085
  15 H :    0.133348
  16 H :    0.146000
  17 H :    0.140899
  18 H :    0.137124
  19 H :    0.137040
  20 H :    0.137162

  Mayer bond orders larger than 0.1
B(  0-O ,  1-C ) :   0.9362 B(  0-O ,  9-H ) :   0.8303 B(  1-C ,  2-C ) :   0.9609
B(  1-C , 10-H ) :   0.9338 B(  1-C , 11-H ) :   0.9236 B(  2-C ,  3-O ) :   0.9035
B(  2-C , 12-H ) :   0.9148 B(  2-C , 13-H ) :   0.9206 B(  3-O ,  4-C ) :   0.9218
B(  4-C ,  5-C ) :   0.9317 B(  4-C ,  8-C ) :   0.9103 B(  4-C , 14-H ) :   0.9341
B(  5-C ,  6-C ) :   0.9499 B(  5-C , 15-H ) :   0.9329 B(  5-C , 16-H ) :   0.9254
B(  6-C ,  7-C ) :   0.9290 B(  6-C , 17-H ) :   0.9103 B(  6-C , 18-H ) :   0.9301
B(  7-C ,  8-C ) :   1.7857 B(  7-C , 19-H ) :   0.9234 B(  8-C , 20-H ) :   0.9204

MP2 TOTAL ENERGY:     -423.516226484 Eh
FINAL SINGLE POINT ENERGY      -423.516226484391

DIPOLE MOMENT
-------------
                                X             Y             Z
Electronic contribution:      1.48515       0.67114       0.39011
Nuclear contribution   :     -2.18877      -1.37414      -0.62514
                        -----------------------------------------
Total Dipole Moment    :     -0.70362      -0.70300      -0.23503
                        -----------------------------------------
Magnitude (a.u.)       :      1.02202
Magnitude (Debye)      :      2.59778

                             ****ORCA TERMINATED NORMALLY****
TOTAL RUN TIME: 0 days 0 hours 15 minutes 31 seconds 138 msec
