                         Program Version 3.0.3 - RELEASE   -
|  1> ! RI-MP2 RIJK def2-TZVP def2-TZVP/C def2-TZVP/JK TIGHTSCF
|  2> % maxcore 2000
|  3> % mp2 density relaxed end
|  4> *xyz 0 1
|  5>  C        0.0758720153     1.5707180550    -0.1486520571
|  6>  C        0.0847202660     0.0646345327     0.0303915957
|  7>  N        1.0249702729    -0.7452050737    -0.8705072734
|  8>  C        1.2384479074    -1.6783423503     0.3296441642
|  9>  C        2.2620607248    -0.6893258100     0.8846177351
| 10>  C        2.3448995200    -0.1500388820    -0.4972663154
| 11>  O        3.1405892839     0.4166020456    -1.1772599677
| 12>  C        0.7403804687    -0.6215031736     1.2396127558
| 13>  C        0.2529657065    -0.7033498136     2.6557952854
| 14>  H        1.0558873876     2.0176444687     0.0393804472
| 15>  H       -0.2217785946     1.8263242303    -1.1703326141
| 16>  H       -0.6451363734     2.0250204396     0.5387030760
| 17>  H       -0.9221875320    -0.3421004792    -0.1146303429
| 18>  H        1.2536079843    -2.7570315536     0.2927046776
| 19>  H        3.0210616280    -0.8290553999     1.6427474321
| 20>  H        0.3310576257     0.2658790951     3.1593415627
| 21>  H       -0.7975057881    -1.0136905635     2.6811716929
| 22>  H        0.8293202470    -1.4300035875     3.2369715861
| 23> *
| 24>
| 25>                          ****END OF INPUT****

CARTESIAN COORDINATES (ANGSTROEM)
---------------------------------
  C      0.075872    1.570718   -0.148652
  C      0.084720    0.064635    0.030392
  N      1.024970   -0.745205   -0.870507
  C      1.238448   -1.678342    0.329644
  C      2.262061   -0.689326    0.884618
  C      2.344900   -0.150039   -0.497266
  O      3.140589    0.416602   -1.177260
  C      0.740380   -0.621503    1.239613
  C      0.252966   -0.703350    2.655795
  H      1.055887    2.017644    0.039380
  H     -0.221779    1.826324   -1.170333
  H     -0.645136    2.025020    0.538703
  H     -0.922188   -0.342100   -0.114630
  H      1.253608   -2.757032    0.292705
  H      3.021062   -0.829055    1.642747
  H      0.331058    0.265879    3.159342
  H     -0.797506   -1.013691    2.681172
  H      0.829320   -1.430004    3.236972

 Total Charge           Charge          ....    0
 Multiplicity           Mult            ....    1
 Number of Electrons    NEL             ....   66
 Basis Dimension        Dim             ....  333

ORBITAL ENERGIES
----------------

  NO   OCC          E(Eh)            E(eV)
   0   2.0000     -20.547054      -559.1138
   1   2.0000     -15.577339      -423.8809
   2   2.0000     -11.357570      -309.0552
   3   2.0000     -11.289331      -307.1983
   4   2.0000     -11.284351      -307.0628
   5   2.0000     -11.277194      -306.8681
   6   2.0000     -11.262835      -306.4773
   7   2.0000     -11.246342      -306.0285
   8   2.0000     -11.226659      -305.4929
   9   2.0000      -1.406795       -38.2808
  10   2.0000      -1.321100       -35.9490
  11   2.0000      -1.080086       -29.3906
  12   2.0000      -1.045571       -28.4514
  13   2.0000      -0.973765       -26.4975
  14   2.0000      -0.921672       -25.0800
  15   2.0000      -0.851503       -23.1706
  16   2.0000      -0.757355       -20.6087
  17   2.0000      -0.721969       -19.6458
  18   2.0000      -0.687003       -18.6943
  19   2.0000      -0.643660       -17.5149
  20   2.0000      -0.640198       -17.4207
  21   2.0000      -0.634644       -17.2696
  22   2.0000      -0.596114       -16.2211
  23   2.0000      -0.590266       -16.0620
  24   2.0000      -0.572001       -15.5649
  25   2.0000      -0.544633       -14.8202
  26   2.0000      -0.532410       -14.4876
  27   2.0000      -0.520228       -14.1561
  28   2.0000      -0.490552       -13.3486
  29   2.0000      -0.447974       -12.1900
  30   2.0000      -0.430493       -11.7143
  31   2.0000      -0.409686       -11.1481
  32   2.0000      -0.384420       -10.4606
  33   0.0000       0.121993         3.3196
  34   0.0000       0.152309         4.1445
  35   0.0000       0.159156         4.3309
  36   0.0000       0.163508         4.4493
  37   0.0000       0.173274         4.7150

MULLIKEN ATOMIC CHARGES
-----------------------
   0 C :   -0.419186
   1 C :    0.044578
   2 N :   -0.172521
   3 C :   -0.046563
   4 C :   -0.219041
   5 C :    0.193479
   6 O :   -0.241014
   7 C :   -0.011505
   8 C :   -0.426960
   9 H :    0.149553
  10 H :    0.151661
  11 H :    0.133190
  12 H :    0.106431
  13 H :    0.168869
  14 H :    0.154172
  15 H :    0.148753
  16 H :    0.144270
  17 H :    0.141833
Sum of atomic charges:   -0.0000000

LOEWDIN ATOMIC CHARGES
----------------------
   0 C :   -0.286372
   1 C :   -0.221579
   2 N :    0.157768
   3 C :   -0.121997
   4 C :   -0.107860
   5 C :   -0.372741
   6 O :    0.170382
   7 C :   -0.194065
   8 C :   -0.265236
   9 H :    0.132656
  10 H :    0.136225
  11 H :    0.130003
  12 H :    0.152956
  13 H :    0.140392
  14 H :    0.147028
  15 H :    0.133562
  16 H :    0.134180
  17 H :    0.134700

  Mayer bond orders larger than 0.1
B(  0-C ,  1-C ) :   0.9199 B(  0-C ,  9-H ) :   0.9301 B(  0-C , 10-H ) :   0.9306
B(  0-C , 11-H ) :   0.9280 B(  1-C ,  2-N ) :   0.9427 B(  1-C ,  7-C ) :   0.9546
B(  1-C , 12-H ) :   0.9047 B(  2-N ,  3-C ) :   0.9387 B(  2-N ,  5-C ) :   0.8899
B(  3-C ,  4-C ) :   0.7955 B(  3-C ,  7-C ) :   0.8925 B(  3-C , 13-H ) :   0.8913
B(  4-C ,  5-C ) :   0.9567 B(  4-C ,  7-C ) :   0.7814 B(  4-C , 14-H ) :   0.9038
B(  5-C ,  6-O ) :   2.0701 B(  7-C ,  8-C ) :   0.8787 B(  8-C , 15-H ) :   0.9392
B(  8-C , 16-H ) :   0.9399 B(  8-C , 17-H ) :   0.9272

MP2 TOTAL ENERGY:     -401.216688397 Eh
FINAL SINGLE POINT ENERGY      -401.216688396763

DIPOLE MOMENT
-------------
                                X             Y             Z
Electronic contribution:      5.91055      -2.26063      -5.77315
Nuclear contribution   :     -6.77300       1.87737       7.35542
                        -----------------------------------------
Total Dipole Moment    :     -0.86245      -0.38326       1.58227
                        -----------------------------------------
Magnitude (a.u.)       :      1.84236
Magnitude (Debye)      :      4.68291

                             ****ORCA TERMINATED NORMALLY****
TOTAL RUN TIME: 0 days 0 hours 19 minutes 32 seconds 830 msec
