                         Program Version 3.0.3 - RELEASE   -
|  1> ! RI-MP2 RIJK def2-TZVP def2-TZVP/C def2-TZVP/JK TIGHTSCF
|  2> % maxcore 2000
|  3> % mp2 density relaxed end
|  4> *xyz 0 1
|  5>  O        1.2316516489     1.5535584616    -0.3875659558
|  6>  C        0.4050278856     0.5442783248     0.1266615101
|  7>  C        0.1847689497    -0.5411833011    -0.8406621928
|  8>  C       -0.0039866729    -1.4096273955    -1.6487142632
|  9>  C        0.9935940340    -0.0128145138     1.4340003150
| 10>  N        2.1427065774     0.4145132910     1.7717147764
| 11>  N        0.2437923222    -0.9924973694     2.0665958812
| 12>  C       -1.1002729411    -0.7961521963     2.5804099787
| 13>  C        0.0541810209    -1.0546103331     3.5007130134
| 14>  H        2.0437768969     1.5008621487     0.1485085853
| 15>  H       -0.5774825477     0.9819935051     0.3692682515
| 16>  H       -0.1627034528    -2.1776216670    -2.3647296437
| 17>  H        2.4807429262     0.0002829229     2.6397142207
| 18>  H       -1.5092623580     0.2114399030     2.5722627875
| 19>  H       -1.8113104832    -1.5851860813     2.3552117441
| 20>  H        0.1815385885    -2.0325745007     3.9550670160
| 21>  H        0.4162495555    -0.2163955389     4.0929557955
| 22> *
| 23>
| 24>                          ****END OF INPUT****

CARTESIAN COORDINATES (ANGSTROEM)
---------------------------------
  O      1.231652    1.553558   -0.387566
  C      0.405028    0.544278    0.126662
  C      0.184769   -0.541183   -0.840662
  C     -0.003987   -1.409627   -1.648714
  C      0.993594   -0.012815    1.434000
  N      2.142707    0.414513    1.771715
  N      0.243792   -0.992497    2.066596
  C     -1.100273   -0.796152    2.580410
  C      0.054181   -1.054610    3.500713
  H      2.043777    1.500862    0.148509
  H     -0.577483    0.981994    0.369268
  H     -0.162703   -2.177622   -2.364730
  H      2.480743    0.000283    2.639714
  H     -1.509262    0.211440    2.572263
  H     -1.811310   -1.585186    2.355212
  H      0.181539   -2.032575    3.955067
  H      0.416250   -0.216396    4.092956

 Total Charge           Charge          ....    0
 Multiplicity           Mult            ....    1
 Number of Electrons    NEL             ....   66
 Basis Dimension        Dim             ....  327

ORBITAL ENERGIES
----------------

  NO   OCC          E(Eh)            E(eV)
   0   2.0000     -20.550235      -559.2003
   1   2.0000     -15.599037      -424.4714
   2   2.0000     -15.553171      -423.2233
   3   2.0000     -11.335121      -308.4443
   4   2.0000     -11.321276      -308.0676
   5   2.0000     -11.292280      -307.2786
   6   2.0000     -11.290150      -307.2206
   7   2.0000     -11.234071      -305.6946
   8   2.0000     -11.226269      -305.4823
   9   2.0000      -1.373430       -37.3729
  10   2.0000      -1.328305       -36.1450
  11   2.0000      -1.209988       -32.9254
  12   2.0000      -1.058289       -28.7975
  13   2.0000      -0.995444       -27.0874
  14   2.0000      -0.936808       -25.4919
  15   2.0000      -0.875999       -23.8372
  16   2.0000      -0.794794       -21.6274
  17   2.0000      -0.744678       -20.2637
  18   2.0000      -0.730494       -19.8778
  19   2.0000      -0.698960       -19.0197
  20   2.0000      -0.682909       -18.5829
  21   2.0000      -0.667460       -18.1625
  22   2.0000      -0.616097       -16.7648
  23   2.0000      -0.562339       -15.3020
  24   2.0000      -0.560964       -15.2646
  25   2.0000      -0.531635       -14.4665
  26   2.0000      -0.511192       -13.9102
  27   2.0000      -0.484643       -13.1878
  28   2.0000      -0.465834       -12.6760
  29   2.0000      -0.454439       -12.3659
  30   2.0000      -0.397180       -10.8078
  31   2.0000      -0.390338       -10.6216
  32   2.0000      -0.385255       -10.4833
  33   0.0000       0.127644         3.4734
  34   0.0000       0.140016         3.8100
  35   0.0000       0.147911         4.0249
  36   0.0000       0.164607         4.4792
  37   0.0000       0.168800         4.5933

MULLIKEN ATOMIC CHARGES
-----------------------
   0 O :   -0.462860
   1 C :   -0.034155
   2 C :    0.042397
   3 C :   -0.158460
   4 C :    0.160736
   5 N :   -0.438322
   6 N :   -0.187216
   7 C :   -0.162239
   8 C :   -0.206562
   9 H :    0.342241
  10 H :    0.115053
  11 H :    0.189833
  12 H :    0.217055
  13 H :    0.142051
  14 H :    0.147949
  15 H :    0.146396
  16 H :    0.146102
Sum of atomic charges:    0.0000000

LOEWDIN ATOMIC CHARGES
----------------------
   0 O :    0.006982
   1 C :   -0.314345
   2 C :   -0.076791
   3 C :   -0.085093
   4 C :   -0.337472
   5 N :   -0.050138
   6 N :    0.172089
   7 C :   -0.229646
   8 C :   -0.242682
   9 H :    0.183510
  10 H :    0.162185
  11 H :    0.127367
  12 H :    0.165524
  13 H :    0.129401
  14 H :    0.130919
  15 H :    0.130197
  16 H :    0.127992

  Mayer bond orders larger than 0.1
B(  0-O ,  1-C ) :   1.2142 B(  0-O ,  2-C ) :  -0.1140 B(  0-O ,  9-H ) :   0.7863
B(  1-C ,  2-C ) :   0.9408 B(  1-C ,  4-C ) :   0.9072 B(  1-C , 10-H ) :   0.9840
B(  2-C ,  3-C ) :   2.6944 B(  3-C , 11-H ) :   0.9034 B(  4-C ,  5-N ) :   1.8873
B(  4-C ,  6-N ) :   1.0253 B(  5-N , 12-H ) :   0.8624 B(  6-N ,  7-C ) :   0.8507
B(  6-N ,  8-C ) :   0.8680 B(  7-C ,  8-C ) :   0.9266 B(  7-C , 13-H ) :   0.9240
B(  7-C , 14-H ) :   0.9259 B(  8-C , 15-H ) :   0.9238 B(  8-C , 16-H ) :   0.9241

MP2 TOTAL ENERGY:     -417.221999515 Eh
FINAL SINGLE POINT ENERGY      -417.221999514755

DIPOLE MOMENT
-------------
                                X             Y             Z
Electronic contribution:      1.89730       0.75988      -4.02501
Nuclear contribution   :     -2.64958      -1.52342       5.45078
                        -----------------------------------------
Total Dipole Moment    :     -0.75228      -0.76354       1.42577
                        -----------------------------------------
Magnitude (a.u.)       :      1.78374
Magnitude (Debye)      :      4.53391

                             ****ORCA TERMINATED NORMALLY****
TOTAL RUN TIME: 0 days 0 hours 19 minutes 46 seconds 790 msec
