                         Program Version 3.0.3 - RELEASE   -
|  1> ! RI-MP2 RIJK def2-TZVP def2-TZVP/C def2-TZVP/JK TIGHTSCF
|  2> % maxcore 2000
|  3> % mp2 density relaxed end
|  4> *xyz 0 1
|  5>  O        0.0276629276     1.3831194471    -0.0077447626
|  6>  C       -0.0703896225     0.0439711976     0.0683413628
|  7>  C       -1.1758089907    -0.6576743595    -0.1758259118
|  8>  N       -1.1339226031    -2.0528422642    -0.0251315503
|  9>  C       -0.0293730955    -2.7729100774     0.3362129387
| 10>  O       -0.0232059373    -3.9777236274     0.4555380577
| 11>  C        1.2115771279    -1.9297763926     0.5810776425
| 12>  N        2.3042799481    -2.4637830708     0.9032140348
| 13>  O        1.1012764205    -0.5486095784     0.4440693858
| 14>  H        0.9575013049     1.6191189225     0.0919608378
| 15>  H       -2.1025924684    -0.2009845396    -0.4809124848
| 16>  H       -1.9659341459    -2.5978899376    -0.1923739330
| 17>  H        3.0316494245    -1.7582987897     1.0312155223
| 18> *
| 19>
| 20>                          ****END OF INPUT****

CARTESIAN COORDINATES (ANGSTROEM)
---------------------------------
  O      0.027663    1.383119   -0.007745
  C     -0.070390    0.043971    0.068341
  C     -1.175809   -0.657674   -0.175826
  N     -1.133923   -2.052842   -0.025132
  C     -0.029373   -2.772910    0.336213
  O     -0.023206   -3.977724    0.455538
  C      1.211577   -1.929776    0.581078
  N      2.304280   -2.463783    0.903214
  O      1.101276   -0.548610    0.444069
  H      0.957501    1.619119    0.091961
  H     -2.102592   -0.200985   -0.480912
  H     -1.965934   -2.597890   -0.192374
  H      3.031649   -1.758299    1.031216

 Total Charge           Charge          ....    0
 Multiplicity           Mult            ....    1
 Number of Electrons    NEL             ....   66
 Basis Dimension        Dim             ....  303

ORBITAL ENERGIES
----------------

  NO   OCC          E(Eh)            E(eV)
   0   2.0000     -20.651574      -561.9579
   1   2.0000     -20.623590      -561.1964
   2   2.0000     -20.540566      -558.9372
   3   2.0000     -15.621099      -425.0717
   4   2.0000     -15.576238      -423.8510
   5   2.0000     -11.383762      -309.7679
   6   2.0000     -11.382594      -309.7361
   7   2.0000     -11.376800      -309.5785
   8   2.0000     -11.282770      -307.0198
   9   2.0000      -1.508332       -41.0438
  10   2.0000      -1.426602       -38.8198
  11   2.0000      -1.404044       -38.2060
  12   2.0000      -1.273376       -34.6503
  13   2.0000      -1.234111       -33.5819
  14   2.0000      -1.046948       -28.4889
  15   2.0000      -0.948914       -25.8213
  16   2.0000      -0.894019       -24.3275
  17   2.0000      -0.815228       -22.1835
  18   2.0000      -0.780760       -21.2456
  19   2.0000      -0.705282       -19.1917
  20   2.0000      -0.704005       -19.1570
  21   2.0000      -0.697816       -18.9885
  22   2.0000      -0.678796       -18.4710
  23   2.0000      -0.635093       -17.2818
  24   2.0000      -0.622414       -16.9367
  25   2.0000      -0.609081       -16.5739
  26   2.0000      -0.589246       -16.0342
  27   2.0000      -0.585092       -15.9212
  28   2.0000      -0.497203       -13.5296
  29   2.0000      -0.479579       -13.0500
  30   2.0000      -0.451684       -12.2909
  31   2.0000      -0.441844       -12.0232
  32   2.0000      -0.321828        -8.7574
  33   0.0000       0.088359         2.4044
  34   0.0000       0.126417         3.4400
  35   0.0000       0.130865         3.5610
  36   0.0000       0.161765         4.4018
  37   0.0000       0.168919         4.5965

MULLIKEN ATOMIC CHARGES
-----------------------
   0 O :   -0.416515
   1 C :    0.287786
   2 C :   -0.129966
   3 N :   -0.244178
   4 C :    0.228784
   5 O :   -0.298665
   6 C :    0.117654
   7 N :   -0.287361
   8 O :   -0.256807
   9 H :    0.348941
  10 H :    0.166443
  11 H :    0.256280
  12 H :    0.227603
Sum of atomic charges:    0.0000000

LOEWDIN ATOMIC CHARGES
----------------------
   0 O :    0.089699
   1 C :   -0.420261
   2 C :   -0.240134
   3 N :    0.163675
   4 C :   -0.425297
   5 O :    0.128846
   6 C :   -0.327992
   7 N :    0.003489
   8 O :    0.295203
   9 H :    0.203958
  10 H :    0.152160
  11 H :    0.203998
  12 H :    0.172658

  Mayer bond orders larger than 0.1
B(  0-O ,  1-C ) :   1.1198 B(  0-O ,  9-H ) :   0.8132 B(  1-C ,  2-C ) :   1.7110
B(  1-C ,  8-O ) :   0.9983 B(  2-C ,  3-N ) :   0.9393 B(  2-C , 10-H ) :   0.8961
B(  3-N ,  4-C ) :   1.1804 B(  3-N , 11-H ) :   0.8569 B(  4-C ,  5-O ) :   1.9957
B(  4-C ,  6-C ) :   0.8850 B(  6-C ,  7-N ) :   2.0797 B(  6-C ,  8-O ) :   0.9676
B(  7-N , 12-H ) :   0.8497

MP2 TOTAL ENERGY:     -489.141544057 Eh
FINAL SINGLE POINT ENERGY      -489.141544056999

DIPOLE MOMENT
-------------
                                X             Y             Z
Electronic contribution:      0.59827      -0.82733       0.29283
Nuclear contribution   :     -1.03977       2.53470      -0.65244
                        -----------------------------------------
Total Dipole Moment    :     -0.44149       1.70736      -0.35962
                        -----------------------------------------
Magnitude (a.u.)       :      1.79981
Magnitude (Debye)      :      4.57476

                             ****ORCA TERMINATED NORMALLY****
TOTAL RUN TIME: 0 days 0 hours 13 minutes 1 seconds 314 msec
