                         Program Version 3.0.3 - RELEASE   -
|  1> ! RI-MP2 RIJK def2-TZVP def2-TZVP/C def2-TZVP/JK TIGHTSCF
|  2> % maxcore 2000
|  3> % mp2 density relaxed end
|  4> *xyz 0 1
|  5>  C       -0.0364868808     1.5231061369    -0.0257030175
|  6>  C        0.0390938474    -0.0058419280     0.0579711856
|  7>  C        0.7642382404    -0.5058354863     1.2812666924
|  8>  C        0.3902238000    -0.2607661645     2.7787605179
|  9>  C        1.6747112570    -1.1506277596     2.8167249503
| 10>  C        1.0212911536    -1.9936205432     1.6742750767
| 11>  C        2.2460101144    -0.2270915080     1.6924865534
| 12>  C        2.3630016098    -1.6369712105     3.9775346918
| 13>  C        2.9405212575    -2.0444814550     4.9513995610
| 14>  H        0.9636295129     1.9680768274    -0.0543990009
| 15>  H       -0.5696146608     1.8418915027    -0.9262758096
| 16>  H       -0.5617175839     1.9415919286     0.8392025018
| 17>  H       -0.9749733553    -0.4270565140     0.0507965342
| 18>  H        0.5394354033    -0.4007384956    -0.8361872472
| 19>  H        0.5016578689     0.7574782022     3.1608036993
| 20>  H       -0.5296859425    -0.7287177436     3.1405241069
| 21>  H        0.1476179950    -2.5887821753     1.9544714718
| 22>  H        1.7090843674    -2.5604190187     1.0404649451
| 23>  H        3.0240909453    -0.6642340754     1.0603615727
| 24>  H        2.4969949224     0.7936912571     1.9928198317
| 25>  H        3.4500391181    -2.4041534370     5.8105466027
| 26> *
| 27>
| 28>                          ****END OF INPUT****

CARTESIAN COORDINATES (ANGSTROEM)
---------------------------------
  C     -0.036487    1.523106   -0.025703
  C      0.039094   -0.005842    0.057971
  C      0.764238   -0.505835    1.281267
  C      0.390224   -0.260766    2.778761
  C      1.674711   -1.150628    2.816725
  C      1.021291   -1.993621    1.674275
  C      2.246010   -0.227092    1.692487
  C      2.363002   -1.636971    3.977535
  C      2.940521   -2.044481    4.951400
  H      0.963630    1.968077   -0.054399
  H     -0.569615    1.841892   -0.926276
  H     -0.561718    1.941592    0.839203
  H     -0.974973   -0.427057    0.050797
  H      0.539435   -0.400738   -0.836187
  H      0.501658    0.757478    3.160804
  H     -0.529686   -0.728718    3.140524
  H      0.147618   -2.588782    1.954471
  H      1.709084   -2.560419    1.040465
  H      3.024091   -0.664234    1.060362
  H      2.496995    0.793691    1.992820
  H      3.450039   -2.404153    5.810547

 Total Charge           Charge          ....    0
 Multiplicity           Mult            ....    1
 Number of Electrons    NEL             ....   66
 Basis Dimension        Dim             ....  351

ORBITAL ENERGIES
----------------

  NO   OCC          E(Eh)            E(eV)
   0   2.0000     -11.267123      -306.5940
   1   2.0000     -11.250513      -306.1420
   2   2.0000     -11.233241      -305.6720
   3   2.0000     -11.233227      -305.6716
   4   2.0000     -11.233050      -305.6668
   5   2.0000     -11.229040      -305.5577
   6   2.0000     -11.224259      -305.4276
   7   2.0000     -11.219467      -305.2972
   8   2.0000     -11.216672      -305.2212
   9   2.0000      -1.218555       -33.1586
  10   2.0000      -1.046173       -28.4678
  11   2.0000      -1.021618       -27.7996
  12   2.0000      -0.912818       -24.8390
  13   2.0000      -0.911184       -24.7946
  14   2.0000      -0.895733       -24.3741
  15   2.0000      -0.837312       -22.7844
  16   2.0000      -0.731577       -19.9072
  17   2.0000      -0.709382       -19.3033
  18   2.0000      -0.662250       -18.0207
  19   2.0000      -0.625609       -17.0237
  20   2.0000      -0.621061       -16.8999
  21   2.0000      -0.609064       -16.5735
  22   2.0000      -0.561662       -15.2836
  23   2.0000      -0.525729       -14.3058
  24   2.0000      -0.510033       -13.8787
  25   2.0000      -0.504037       -13.7155
  26   2.0000      -0.484613       -13.1870
  27   2.0000      -0.482373       -13.1260
  28   2.0000      -0.445688       -12.1278
  29   2.0000      -0.440198       -11.9784
  30   2.0000      -0.439767       -11.9667
  31   2.0000      -0.371754       -10.1159
  32   2.0000      -0.371680       -10.1139
  33   0.0000       0.131237         3.5711
  34   0.0000       0.146756         3.9934
  35   0.0000       0.156860         4.2684
  36   0.0000       0.165008         4.4901
  37   0.0000       0.168420         4.5829

MULLIKEN ATOMIC CHARGES
-----------------------
   0 C :   -0.406261
   1 C :   -0.203377
   2 C :   -0.043539
   3 C :   -0.167647
   4 C :   -0.306841
   5 C :   -0.127413
   6 C :   -0.167663
   7 C :    0.034658
   8 C :   -0.116177
   9 H :    0.129278
  10 H :    0.137075
  11 H :    0.129267
  12 H :    0.114183
  13 H :    0.114188
  14 H :    0.117738
  15 H :    0.114720
  16 H :    0.113450
  17 H :    0.113446
  18 H :    0.114723
  19 H :    0.117750
  20 H :    0.188443
Sum of atomic charges:    0.0000000

LOEWDIN ATOMIC CHARGES
----------------------
   0 C :   -0.311030
   1 C :   -0.262771
   2 C :   -0.214963
   3 C :   -0.137036
   4 C :   -0.205815
   5 C :   -0.135593
   6 C :   -0.137036
   7 C :   -0.073444
   8 C :   -0.090566
   9 H :    0.122166
  10 H :    0.121534
  11 H :    0.122166
  12 H :    0.143174
  13 H :    0.143172
  14 H :    0.131716
  15 H :    0.131623
  16 H :    0.131632
  17 H :    0.131632
  18 H :    0.131623
  19 H :    0.131718
  20 H :    0.126096

  Mayer bond orders larger than 0.1
B(  0-C ,  1-C ) :   0.9302 B(  0-C ,  9-H ) :   0.9380 B(  0-C , 10-H ) :   0.9411
B(  0-C , 11-H ) :   0.9380 B(  1-C ,  2-C ) :   0.8546 B(  1-C , 12-H ) :   0.9395
B(  1-C , 13-H ) :   0.9395 B(  2-C ,  3-C ) :   0.8970 B(  2-C ,  5-C ) :   0.8746
B(  2-C ,  6-C ) :   0.8970 B(  3-C ,  4-C ) :   0.8757 B(  3-C , 14-H ) :   0.9245
B(  3-C , 15-H ) :   0.9247 B(  4-C ,  5-C ) :   0.8732 B(  4-C ,  6-C ) :   0.8757
B(  4-C ,  7-C ) :   1.2576 B(  4-C ,  8-C ) :  -0.1784 B(  5-C , 16-H ) :   0.9254
B(  5-C , 17-H ) :   0.9253 B(  6-C , 18-H ) :   0.9247 B(  6-C , 19-H ) :   0.9245
B(  7-C ,  8-C ) :   2.6597 B(  8-C , 20-H ) :   0.8645

MP2 TOTAL ENERGY:     -349.230391657 Eh
FINAL SINGLE POINT ENERGY      -349.230391657420

DIPOLE MOMENT
-------------
                                X             Y             Z
Electronic contribution:      4.04673      -4.87919       6.76483
Nuclear contribution   :     -4.22464       5.00475      -7.06495
                        -----------------------------------------
Total Dipole Moment    :     -0.17791       0.12555      -0.30012
                        -----------------------------------------
Magnitude (a.u.)       :      0.37080
Magnitude (Debye)      :      0.94249

                             ****ORCA TERMINATED NORMALLY****
TOTAL RUN TIME: 0 days 0 hours 17 minutes 39 seconds 426 msec
