                         Program Version 3.0.3 - RELEASE   -
|  1> ! RI-MP2 RIJK def2-TZVP def2-TZVP/C def2-TZVP/JK TIGHTSCF
|  2> % maxcore 2000
|  3> % mp2 density relaxed end
|  4> *xyz 0 1
|  5>  C       -0.0660008251     1.5466577130    -0.0674610174
|  6>  C        0.0034383639     0.0187606741     0.0211466870
|  7>  C        0.7253481873    -0.5129811385     1.2698365564
|  8>  O        2.0775877823    -0.0411845918     1.3052692153
|  9>  C        0.0047297680    -0.1714455623     2.6124599996
| 10>  C        0.1531255691    -1.4257263786     3.4356959042
| 11>  C        0.6059715372    -2.4466369215     2.7117301904
| 12>  C        0.8479085204    -2.0603971241     1.2760630577
| 13>  H        0.9354335841     1.9882148770    -0.1139194227
| 14>  H       -0.5969392799     1.8615361754    -0.9705513684
| 15>  H       -0.5901511104     1.9813408170     0.7907955253
| 16>  H       -1.0112182961    -0.3979175040     0.0009507659
| 17>  H        0.5231399141    -0.3721709108    -0.8619143689
| 18>  H        2.0571196109     0.9058777404     1.4761063622
| 19>  H        0.4577323290     0.7076371959     3.0887211426
| 20>  H       -1.0547801606     0.0751001055     2.4557204425
| 21>  H       -0.1080584781    -1.4674238488     4.4874683780
| 22>  H        0.7708295734    -3.4527978446     3.0812695132
| 23>  H        0.1113029171    -2.5261297406     0.6076302536
| 24>  H        1.8389895232    -2.3466886928     0.9085339934
| 25> *
| 26>
| 27>                          ****END OF INPUT****

CARTESIAN COORDINATES (ANGSTROEM)
---------------------------------
  C     -0.066001    1.546658   -0.067461
  C      0.003438    0.018761    0.021147
  C      0.725348   -0.512981    1.269837
  O      2.077588   -0.041185    1.305269
  C      0.004730   -0.171446    2.612460
  C      0.153126   -1.425726    3.435696
  C      0.605972   -2.446637    2.711730
  C      0.847909   -2.060397    1.276063
  H      0.935434    1.988215   -0.113919
  H     -0.596939    1.861536   -0.970551
  H     -0.590151    1.981341    0.790796
  H     -1.011218   -0.397918    0.000951
  H      0.523140   -0.372171   -0.861914
  H      2.057120    0.905878    1.476106
  H      0.457732    0.707637    3.088721
  H     -1.054780    0.075100    2.455720
  H     -0.108058   -1.467424    4.487468
  H      0.770830   -3.452798    3.081270
  H      0.111303   -2.526130    0.607630
  H      1.838990   -2.346689    0.908534

 Total Charge           Charge          ....    0
 Multiplicity           Mult            ....    1
 Number of Electrons    NEL             ....   62
 Basis Dimension        Dim             ....  320

ORBITAL ENERGIES
----------------

  NO   OCC          E(Eh)            E(eV)
   0   2.0000     -20.547167      -559.1168
   1   2.0000     -11.283300      -307.0342
   2   2.0000     -11.224465      -305.4332
   3   2.0000     -11.221204      -305.3445
   4   2.0000     -11.220903      -305.3363
   5   2.0000     -11.219411      -305.2957
   6   2.0000     -11.219162      -305.2889
   7   2.0000     -11.217358      -305.2398
   8   2.0000      -1.356236       -36.9050
   9   2.0000      -1.123705       -30.5776
  10   2.0000      -1.041261       -28.3342
  11   2.0000      -0.963762       -26.2253
  12   2.0000      -0.942870       -25.6568
  13   2.0000      -0.848200       -23.0807
  14   2.0000      -0.763070       -20.7642
  15   2.0000      -0.736767       -20.0485
  16   2.0000      -0.677729       -18.4419
  17   2.0000      -0.659607       -17.9488
  18   2.0000      -0.619189       -16.8490
  19   2.0000      -0.604660       -16.4536
  20   2.0000      -0.572576       -15.5806
  21   2.0000      -0.544297       -14.8111
  22   2.0000      -0.541820       -14.7437
  23   2.0000      -0.531755       -14.4698
  24   2.0000      -0.521379       -14.1874
  25   2.0000      -0.500005       -13.6058
  26   2.0000      -0.490896       -13.3580
  27   2.0000      -0.487436       -13.2638
  28   2.0000      -0.443887       -12.0788
  29   2.0000      -0.424152       -11.5418
  30   2.0000      -0.344060        -9.3623
  31   0.0000       0.128928         3.5083
  32   0.0000       0.159040         4.3277
  33   0.0000       0.163930         4.4608
  34   0.0000       0.170739         4.6461
  35   0.0000       0.178725         4.8634

MULLIKEN ATOMIC CHARGES
-----------------------
   0 C :   -0.437418
   1 C :   -0.254483
   2 C :    0.291342
   3 O :   -0.481427
   4 C :   -0.257255
   5 C :   -0.149870
   6 C :   -0.208979
   7 C :   -0.162127
   8 H :    0.122199
   9 H :    0.140272
  10 H :    0.133940
  11 H :    0.109929
  12 H :    0.121088
  13 H :    0.310138
  14 H :    0.110406
  15 H :    0.115574
  16 H :    0.125190
  17 H :    0.123917
  18 H :    0.117465
  19 H :    0.130100
Sum of atomic charges:   -0.0000000

LOEWDIN ATOMIC CHARGES
----------------------
   0 C :   -0.323269
   1 C :   -0.265859
   2 C :   -0.340147
   3 O :    0.006650
   4 C :   -0.211349
   5 C :   -0.164563
   6 C :   -0.159285
   7 C :   -0.199768
   8 H :    0.118184
   9 H :    0.124173
  10 H :    0.121051
  11 H :    0.140620
  12 H :    0.142912
  13 H :    0.167749
  14 H :    0.137227
  15 H :    0.143628
  16 H :    0.134945
  17 H :    0.135630
  18 H :    0.144018
  19 H :    0.147453

  Mayer bond orders larger than 0.1
B(  0-C ,  1-C ) :   0.9033 B(  0-C ,  8-H ) :   0.9407 B(  0-C ,  9-H ) :   0.9409
B(  0-C , 10-H ) :   0.9374 B(  1-C ,  2-C ) :   0.9142 B(  1-C , 11-H ) :   0.9198
B(  1-C , 12-H ) :   0.9370 B(  2-C ,  3-O ) :   0.8858 B(  2-C ,  4-C ) :   0.9398
B(  2-C ,  7-C ) :   0.8798 B(  3-O , 13-H ) :   0.8429 B(  4-C ,  5-C ) :   0.9555
B(  4-C , 14-H ) :   0.9124 B(  4-C , 15-H ) :   0.9038 B(  5-C ,  6-C ) :   1.8033
B(  5-C , 16-H ) :   0.9289 B(  6-C ,  7-C ) :   0.9654 B(  6-C , 17-H ) :   0.9293
B(  7-C , 18-H ) :   0.9138 B(  7-C , 19-H ) :   0.9104

MP2 TOTAL ENERGY:     -348.415525534 Eh
FINAL SINGLE POINT ENERGY      -348.415525534138

DIPOLE MOMENT
-------------
                                X             Y             Z
Electronic contribution:      2.74577      -3.26847       3.13586
Nuclear contribution   :     -3.26557       3.61646      -3.15831
                        -----------------------------------------
Total Dipole Moment    :     -0.51980       0.34798      -0.02245
                        -----------------------------------------
Magnitude (a.u.)       :      0.62593
Magnitude (Debye)      :      1.59098

                             ****ORCA TERMINATED NORMALLY****
TOTAL RUN TIME: 0 days 0 hours 13 minutes 33 seconds 434 msec
