                         Program Version 3.0.3 - RELEASE   -
|  1> ! RI-MP2 RIJK def2-TZVP def2-TZVP/C def2-TZVP/JK TIGHTSCF
|  2> % maxcore 2000
|  3> % mp2 density relaxed end
|  4> *xyz 0 1
|  5>  C        0.1067984399     1.4443771576    -0.1090634160
|  6>  C       -0.0117563086    -0.0437689470    -0.0175738757
|  7>  C       -0.3129207181    -0.9091386927    -1.0196545392
|  8>  O       -0.6472652579    -0.6954938832    -2.3192879600
|  9>  C        0.2627223003    -1.0867139451    -3.2720542566
| 10>  O        0.0327927261    -0.9863518268    -4.4324031115
| 11>  O       -0.3497348824    -2.1981491816    -0.5961973267
| 12>  C       -0.0549218544    -2.1629171499     0.7364501493
| 13>  C        0.1552323521    -0.8860625555     1.1403689538
| 14>  H        1.1093473019     1.7851015418     0.1721752751
| 15>  H       -0.0948960023     1.7884252387    -1.1264345364
| 16>  H       -0.6037661948     1.9417833427     0.5600008274
| 17>  H        1.1891126522    -1.4809612019    -2.8204350309
| 18>  H       -0.0339468565    -3.1184141366     1.2325168685
| 19>  H        0.4021248524    -0.5631965705     2.1401728187
| 20> *
| 21>
| 22>                          ****END OF INPUT****

CARTESIAN COORDINATES (ANGSTROEM)
---------------------------------
  C      0.106798    1.444377   -0.109063
  C     -0.011756   -0.043769   -0.017574
  C     -0.312921   -0.909139   -1.019655
  O     -0.647265   -0.695494   -2.319288
  C      0.262722   -1.086714   -3.272054
  O      0.032793   -0.986352   -4.432403
  O     -0.349735   -2.198149   -0.596197
  C     -0.054922   -2.162917    0.736450
  C      0.155232   -0.886063    1.140369
  H      1.109347    1.785102    0.172175
  H     -0.094896    1.788425   -1.126435
  H     -0.603766    1.941783    0.560001
  H      1.189113   -1.480961   -2.820435
  H     -0.033947   -3.118414    1.232517
  H      0.402125   -0.563197    2.140173

 Total Charge           Charge          ....    0
 Multiplicity           Mult            ....    1
 Number of Electrons    NEL             ....   66
 Basis Dimension        Dim             ....  315

ORBITAL ENERGIES
----------------

  NO   OCC          E(Eh)            E(eV)
   0   2.0000     -20.641007      -561.6703
   1   2.0000     -20.637262      -561.5685
   2   2.0000     -20.572099      -559.7953
   3   2.0000     -11.401591      -310.2531
   4   2.0000     -11.358395      -309.0776
   5   2.0000     -11.302557      -307.5582
   6   2.0000     -11.253049      -306.2110
   7   2.0000     -11.245098      -305.9947
   8   2.0000     -11.240864      -305.8795
   9   2.0000      -1.511545       -41.1312
  10   2.0000      -1.462901       -39.8076
  11   2.0000      -1.397022       -38.0149
  12   2.0000      -1.120609       -30.4933
  13   2.0000      -1.028315       -27.9819
  14   2.0000      -0.966822       -26.3086
  15   2.0000      -0.889915       -24.2158
  16   2.0000      -0.828905       -22.5556
  17   2.0000      -0.810475       -22.0542
  18   2.0000      -0.744685       -20.2639
  19   2.0000      -0.698335       -19.0027
  20   2.0000      -0.686021       -18.6676
  21   2.0000      -0.662797       -18.0356
  22   2.0000      -0.645865       -17.5749
  23   2.0000      -0.602053       -16.3827
  24   2.0000      -0.599622       -16.3166
  25   2.0000      -0.583979       -15.8909
  26   2.0000      -0.582144       -15.8409
  27   2.0000      -0.562945       -15.3185
  28   2.0000      -0.531845       -14.4722
  29   2.0000      -0.499829       -13.6010
  30   2.0000      -0.480164       -13.0659
  31   2.0000      -0.405844       -11.0436
  32   2.0000      -0.328435        -8.9372
  33   0.0000       0.130572         3.5530
  34   0.0000       0.137146         3.7319
  35   0.0000       0.144754         3.9389
  36   0.0000       0.167615         4.5610
  37   0.0000       0.169835         4.6214

MULLIKEN ATOMIC CHARGES
-----------------------
   0 C :   -0.426539
   1 C :    0.037758
   2 C :    0.217533
   3 O :   -0.217311
   4 C :    0.200872
   5 O :   -0.237961
   6 O :   -0.203644
   7 C :    0.011841
   8 C :   -0.242118
   9 H :    0.146972
  10 H :    0.156218
  11 H :    0.149435
  12 H :    0.105128
  13 H :    0.157411
  14 H :    0.144407
Sum of atomic charges:   -0.0000000

LOEWDIN ATOMIC CHARGES
----------------------
   0 C :   -0.265096
   1 C :   -0.189719
   2 C :   -0.356061
   3 O :    0.301653
   4 C :   -0.401247
   5 O :    0.150843
   6 O :    0.353017
   7 C :   -0.234736
   8 C :   -0.157936
   9 H :    0.133209
  10 H :    0.136734
  11 H :    0.134633
  12 H :    0.113201
  13 H :    0.134449
  14 H :    0.147055

  Mayer bond orders larger than 0.1
B(  0-C ,  1-C ) :   0.8438 B(  0-C ,  9-H ) :   0.9324 B(  0-C , 10-H ) :   0.9522
B(  0-C , 11-H ) :   0.9365 B(  1-C ,  2-C ) :   1.5246 B(  1-C ,  8-C ) :   1.1375
B(  2-C ,  3-O ) :   1.0121 B(  2-C ,  6-O ) :   1.0705 B(  3-O ,  4-C ) :   0.9684
B(  4-C ,  5-O ) :   2.0608 B(  4-C , 12-H ) :   0.9149 B(  6-O ,  7-C ) :   1.0092
B(  7-C ,  8-C ) :   1.5749 B(  7-C , 13-H ) :   0.9330 B(  8-C , 14-H ) :   0.9208

MP2 TOTAL ENERGY:     -457.062343047 Eh
FINAL SINGLE POINT ENERGY      -457.062343046868

DIPOLE MOMENT
-------------
                                X             Y             Z
Electronic contribution:     -1.74955      -4.92304      -5.31480
Nuclear contribution   :      2.35837       5.01934       6.69438
                        -----------------------------------------
Total Dipole Moment    :      0.60881       0.09630       1.37959
                        -----------------------------------------
Magnitude (a.u.)       :      1.51102
Magnitude (Debye)      :      3.84071

                             ****ORCA TERMINATED NORMALLY****
TOTAL RUN TIME: 0 days 0 hours 13 minutes 18 seconds 724 msec
