                         Program Version 3.0.3 - RELEASE   -
|  1> ! RI-MP2 RIJK def2-TZVP def2-TZVP/C def2-TZVP/JK TIGHTSCF
|  2> % maxcore 2000
|  3> % mp2 density relaxed end
|  4> *xyz 0 1
|  5>  O        0.3208055457     0.5487125949     0.9068309076
|  6>  C       -0.1171524426     0.2758885117    -0.4126052496
|  7>  C       -1.4868390117    -0.4195124686    -0.4560591921
|  8>  O       -1.9159204039    -0.6125034706    -1.7874953198
|  9>  C       -1.4511341184    -1.7298319559     0.3580296016
| 10>  C       -2.7611386928    -2.3588110476     0.4867241858
| 11>  N       -3.8009382280    -2.8504646142     0.5955773391
| 12>  H       -0.1938470368     1.2872563437     1.2480040846
| 13>  H       -0.1677731471     1.1800532787    -1.0337753605
| 14>  H        0.6411488295    -0.3844037345    -0.8539980088
| 15>  H       -2.2359355985     0.2458915189    -0.0098593625
| 16>  H       -1.3025032589    -1.2139545943    -2.2252714789
| 17>  H       -0.7602850128    -2.4379025485    -0.1188846428
| 18>  H       -1.0443158936    -1.5141033837     1.3512288963
| 19> *
| 20>
| 21>                          ****END OF INPUT****

CARTESIAN COORDINATES (ANGSTROEM)
---------------------------------
  O      0.320806    0.548713    0.906831
  C     -0.117152    0.275889   -0.412605
  C     -1.486839   -0.419512   -0.456059
  O     -1.915920   -0.612503   -1.787495
  C     -1.451134   -1.729832    0.358030
  C     -2.761139   -2.358811    0.486724
  N     -3.800938   -2.850465    0.595577
  H     -0.193847    1.287256    1.248004
  H     -0.167773    1.180053   -1.033775
  H      0.641149   -0.384404   -0.853998
  H     -2.235936    0.245892   -0.009859
  H     -1.302503   -1.213955   -2.225271
  H     -0.760285   -2.437903   -0.118885
  H     -1.044316   -1.514103    1.351229

 Total Charge           Charge          ....    0
 Multiplicity           Mult            ....    1
 Number of Electrons    NEL             ....   54
 Basis Dimension        Dim             ....  259

ORBITAL ENERGIES
----------------

  NO   OCC          E(Eh)            E(eV)
   0   2.0000     -20.585883      -560.1703
   1   2.0000     -20.584931      -560.1444
   2   2.0000     -15.568159      -423.6311
   3   2.0000     -11.317035      -307.9522
   4   2.0000     -11.303352      -307.5798
   5   2.0000     -11.285937      -307.1060
   6   2.0000     -11.272951      -306.7526
   7   2.0000      -1.399678       -38.0872
   8   2.0000      -1.385472       -37.7006
   9   2.0000      -1.217533       -33.1308
  10   2.0000      -1.084123       -29.5005
  11   2.0000      -0.982829       -26.7441
  12   2.0000      -0.863999       -23.5106
  13   2.0000      -0.742545       -20.2057
  14   2.0000      -0.722336       -19.6558
  15   2.0000      -0.688806       -18.7434
  16   2.0000      -0.667773       -18.1710
  17   2.0000      -0.633572       -17.2404
  18   2.0000      -0.617724       -16.8091
  19   2.0000      -0.576703       -15.6929
  20   2.0000      -0.570536       -15.5251
  21   2.0000      -0.552297       -15.0288
  22   2.0000      -0.515401       -14.0248
  23   2.0000      -0.509561       -13.8659
  24   2.0000      -0.469984       -12.7889
  25   2.0000      -0.458145       -12.4667
  26   2.0000      -0.440539       -11.9877
  27   0.0000       0.111462         3.0330
  28   0.0000       0.117808         3.2057
  29   0.0000       0.158467         4.3121
  30   0.0000       0.167157         4.5486
  31   0.0000       0.177529         4.8308

MULLIKEN ATOMIC CHARGES
-----------------------
   0 O :   -0.477408
   1 C :   -0.032588
   2 C :    0.017185
   3 O :   -0.454860
   4 C :   -0.168786
   5 C :   -0.149594
   6 N :   -0.054493
   7 H :    0.324840
   8 H :    0.140630
   9 H :    0.101323
  10 H :    0.114372
  11 H :    0.316693
  12 H :    0.150597
  13 H :    0.172089
Sum of atomic charges:   -0.0000000

LOEWDIN ATOMIC CHARGES
----------------------
   0 O :   -0.038807
   1 C :   -0.337131
   2 C :   -0.356932
   3 O :    0.004108
   4 C :   -0.237929
   5 C :   -0.192803
   6 N :    0.059267
   7 H :    0.179122
   8 H :    0.126014
   9 H :    0.129573
  10 H :    0.150266
  11 H :    0.179908
  12 H :    0.163096
  13 H :    0.172248

  Mayer bond orders larger than 0.1
B(  0-O ,  1-C ) :   0.9246 B(  0-O ,  7-H ) :   0.8426 B(  1-C ,  2-C ) :   0.9304
B(  1-C ,  8-H ) :   0.9424 B(  1-C ,  9-H ) :   0.9064 B(  2-C ,  3-O ) :   0.9238
B(  2-C ,  4-C ) :   0.8974 B(  2-C , 10-H ) :   0.9249 B(  3-O , 11-H ) :   0.8376
B(  4-C ,  5-C ) :   0.9329 B(  4-C , 12-H ) :   0.8974 B(  4-C , 13-H ) :   0.8985
B(  5-C ,  6-N ) :   2.8762

MP2 TOTAL ENERGY:     -361.148999832 Eh
FINAL SINGLE POINT ENERGY      -361.148999831503

DIPOLE MOMENT
-------------
                                X             Y             Z
Electronic contribution:     -3.80995      -2.64171       0.83190
Nuclear contribution   :      5.24338       3.50179      -1.04856
                        -----------------------------------------
Total Dipole Moment    :      1.43343       0.86008      -0.21666
                        -----------------------------------------
Magnitude (a.u.)       :      1.68564
Magnitude (Debye)      :      4.28457

                             ****ORCA TERMINATED NORMALLY****
TOTAL RUN TIME: 0 days 0 hours 6 minutes 48 seconds 614 msec
