                         Program Version 3.0.3 - RELEASE   -
|  1> ! RI-MP2 RIJK def2-TZVP def2-TZVP/C def2-TZVP/JK TIGHTSCF
|  2> % maxcore 2000
|  3> % mp2 density relaxed end
|  4> *xyz 0 1
|  5>  O        0.0047181678     1.4277846123     0.0086077241
|  6>  C       -0.0007301689     0.0135613598     0.0034009968
|  7>  C       -1.4247387744    -0.4839930465     0.0140105563
|  8>  N       -1.5816222388    -1.8111081742     0.0119996014
|  9>  C       -2.8350353925    -2.2621812734     0.0211490120
| 10>  C       -3.9293136725    -1.4006130184     0.0322761483
| 11>  N       -3.7798159882    -0.0755506637     0.0343629584
| 12>  C       -2.5243244605     0.3783082800     0.0251898934
| 13>  H        0.9178046899     1.7265091991     0.0018168213
| 14>  H        0.5019478775    -0.3973347775    -0.8862258245
| 15>  H        0.5174307557    -0.4040074419     0.8809281257
| 16>  H       -2.9726456000    -3.3407114458     0.0196042861
| 17>  H       -4.9452704364    -1.7869708001     0.0396465634
| 18>  H       -2.3778217187     1.4520582602     0.0267050474
| 19> *
| 20>
| 21>                          ****END OF INPUT****

CARTESIAN COORDINATES (ANGSTROEM)
---------------------------------
  O      0.004718    1.427785    0.008608
  C     -0.000730    0.013561    0.003401
  C     -1.424739   -0.483993    0.014011
  N     -1.581622   -1.811108    0.012000
  C     -2.835035   -2.262181    0.021149
  C     -3.929314   -1.400613    0.032276
  N     -3.779816   -0.075551    0.034363
  C     -2.524324    0.378308    0.025190
  H      0.917805    1.726509    0.001817
  H      0.501948   -0.397335   -0.886226
  H      0.517431   -0.404007    0.880928
  H     -2.972646   -3.340711    0.019604
  H     -4.945270   -1.786971    0.039647
  H     -2.377822    1.452058    0.026705

 Total Charge           Charge          ....    0
 Multiplicity           Mult            ....    1
 Number of Electrons    NEL             ....   58
 Basis Dimension        Dim             ....  284

ORBITAL ENERGIES
----------------

  NO   OCC          E(Eh)            E(eV)
   0   2.0000     -20.573522      -559.8340
   1   2.0000     -15.585990      -424.1163
   2   2.0000     -15.585798      -424.1111
   3   2.0000     -11.295411      -307.3638
   4   2.0000     -11.284955      -307.0792
   5   2.0000     -11.279528      -306.9316
   6   2.0000     -11.274613      -306.7978
   7   2.0000     -11.271252      -306.7064
   8   2.0000      -1.381253       -37.5858
   9   2.0000      -1.303380       -35.4668
  10   2.0000      -1.215657       -33.0797
  11   2.0000      -1.064027       -28.9536
  12   2.0000      -0.958078       -26.0706
  13   2.0000      -0.895506       -24.3680
  14   2.0000      -0.847509       -23.0619
  15   2.0000      -0.731196       -19.8968
  16   2.0000      -0.711796       -19.3690
  17   2.0000      -0.678056       -18.4508
  18   2.0000      -0.655279       -17.8310
  19   2.0000      -0.652761       -17.7625
  20   2.0000      -0.607431       -16.5290
  21   2.0000      -0.565315       -15.3830
  22   2.0000      -0.549106       -14.9419
  23   2.0000      -0.527093       -14.3429
  24   2.0000      -0.493334       -13.4243
  25   2.0000      -0.474356       -12.9079
  26   2.0000      -0.426265       -11.5993
  27   2.0000      -0.404833       -11.0161
  28   2.0000      -0.346088        -9.4175
  29   0.0000       0.084065         2.2875
  30   0.0000       0.120077         3.2675
  31   0.0000       0.128025         3.4837
  32   0.0000       0.169795         4.6204
  33   0.0000       0.176007         4.7894

MULLIKEN ATOMIC CHARGES
-----------------------
   0 O :   -0.467054
   1 C :   -0.062879
   2 C :    0.146055
   3 N :   -0.271039
   4 C :   -0.034383
   5 C :   -0.011818
   6 N :   -0.239376
   7 C :   -0.053507
   8 H :    0.322791
   9 H :    0.118274
  10 H :    0.118309
  11 H :    0.134903
  12 H :    0.137343
  13 H :    0.162381
Sum of atomic charges:   -0.0000000

LOEWDIN ATOMIC CHARGES
----------------------
   0 O :   -0.037378
   1 C :   -0.306463
   2 C :   -0.227900
   3 N :    0.168302
   4 C :   -0.215372
   5 C :   -0.216769
   6 N :    0.141069
   7 C :   -0.174714
   8 H :    0.177795
   9 H :    0.129953
  10 H :    0.129955
  11 H :    0.141042
  12 H :    0.141056
  13 H :    0.149423

  Mayer bond orders larger than 0.1
B(  0-O ,  1-C ) :   1.0194 B(  0-O ,  8-H ) :   0.8444 B(  1-C ,  2-C ) :   0.9164
B(  1-C ,  9-H ) :   0.9277 B(  1-C , 10-H ) :   0.9278 B(  2-C ,  3-N ) :   1.3296
B(  2-C ,  7-C ) :   1.3216 B(  3-N ,  4-C ) :   1.4055 B(  4-C ,  5-C ) :   1.3096
B(  4-C , 11-H ) :   0.9302 B(  5-C ,  6-N ) :   1.3799 B(  5-C , 12-H ) :   0.9303
B(  6-N ,  7-C ) :   1.3801 B(  7-C , 13-H ) :   0.9186

MP2 TOTAL ENERGY:     -378.118738341 Eh
FINAL SINGLE POINT ENERGY      -378.118738341473

DIPOLE MOMENT
-------------
                                X             Y             Z
Electronic contribution:     -2.27949      -0.28572       0.01889
Nuclear contribution   :      3.02267       0.07277      -0.02616
                        -----------------------------------------
Total Dipole Moment    :      0.74318      -0.21295      -0.00728
                        -----------------------------------------
Magnitude (a.u.)       :      0.77312
Magnitude (Debye)      :      1.96511

                             ****ORCA TERMINATED NORMALLY****
TOTAL RUN TIME: 0 days 0 hours 10 minutes 57 seconds 465 msec
