                         Program Version 3.0.3 - RELEASE   -
|  1> ! RI-MP2 RIJK def2-TZVP def2-TZVP/C def2-TZVP/JK TIGHTSCF
|  2> % maxcore 2000
|  3> % mp2 density relaxed end
|  4> *xyz 0 1
|  5>  C       -0.0062686271    -1.1765139100    -0.0680958661
|  6>  C        0.0284692459     0.0229320589     0.0182920564
|  7>  C        0.0402433898     1.4497658380     0.1189507594
|  8>  N        0.3130777732     2.2738012268    -1.0956417005
|  9>  C        1.2901214051     2.2721642761    -0.0000391521
| 10>  C        1.1533209126     3.4476794466     0.9595191800
| 11>  N       -0.1548706698     3.3451123634     1.6471495432
| 12>  C       -1.3547318767     3.4997538185     0.8096445943
| 13>  C       -0.8481576080     2.1438510116     1.1386002814
| 14>  H       -0.0298828135    -2.2355821242    -0.1421536196
| 15>  H        0.6302142257     1.6570060052    -1.8409252356
| 16>  H        2.2584328034     1.8050804954    -0.1533592872
| 17>  H        1.9379957169     3.3876077557     1.7214357004
| 18>  H        1.2479802567     4.4118803959     0.4500756774
| 19>  H       -2.2164395228     3.8958275655     1.3405958287
| 20>  H       -1.2401460154     3.8298613740    -0.2173192295
| 21>  H       -1.3405461259     1.5035003424     1.8634710094
| 22> *
| 23>
| 24>                          ****END OF INPUT****

CARTESIAN COORDINATES (ANGSTROEM)
---------------------------------
  C     -0.006269   -1.176514   -0.068096
  C      0.028469    0.022932    0.018292
  C      0.040243    1.449766    0.118951
  N      0.313078    2.273801   -1.095642
  C      1.290121    2.272164   -0.000039
  C      1.153321    3.447679    0.959519
  N     -0.154871    3.345112    1.647150
  C     -1.354732    3.499754    0.809645
  C     -0.848158    2.143851    1.138600
  H     -0.029883   -2.235582   -0.142154
  H      0.630214    1.657006   -1.840925
  H      2.258433    1.805080   -0.153359
  H      1.937996    3.387608    1.721436
  H      1.247980    4.411880    0.450076
  H     -2.216440    3.895828    1.340596
  H     -1.240146    3.829861   -0.217319
  H     -1.340546    1.503500    1.863471

 Total Charge           Charge          ....    0
 Multiplicity           Mult            ....    1
 Number of Electrons    NEL             ....   64
 Basis Dimension        Dim             ....  327

ORBITAL ENERGIES
----------------

  NO   OCC          E(Eh)            E(eV)
   0   2.0000     -15.576714      -423.8640
   1   2.0000     -15.558102      -423.3575
   2   2.0000     -11.297430      -307.4187
   3   2.0000     -11.276617      -306.8524
   4   2.0000     -11.264058      -306.5106
   5   2.0000     -11.258141      -306.3496
   6   2.0000     -11.249422      -306.1123
   7   2.0000     -11.247693      -306.0653
   8   2.0000     -11.237860      -305.7977
   9   2.0000      -1.314194       -35.7610
  10   2.0000      -1.243484       -33.8369
  11   2.0000      -1.053644       -28.6711
  12   2.0000      -1.014609       -27.6089
  13   2.0000      -0.950226       -25.8570
  14   2.0000      -0.860860       -23.4252
  15   2.0000      -0.814192       -22.1553
  16   2.0000      -0.796786       -21.6816
  17   2.0000      -0.763267       -20.7695
  18   2.0000      -0.710095       -19.3227
  19   2.0000      -0.649657       -17.6781
  20   2.0000      -0.631264       -17.1776
  21   2.0000      -0.607599       -16.5336
  22   2.0000      -0.579318       -15.7641
  23   2.0000      -0.538085       -14.6420
  24   2.0000      -0.533638       -14.5210
  25   2.0000      -0.503035       -13.6883
  26   2.0000      -0.477809       -13.0019
  27   2.0000      -0.448149       -12.1948
  28   2.0000      -0.438281       -11.9262
  29   2.0000      -0.401062       -10.9135
  30   2.0000      -0.373358       -10.1596
  31   2.0000      -0.356197        -9.6926
  32   0.0000       0.138561         3.7704
  33   0.0000       0.152192         4.1414
  34   0.0000       0.158824         4.3218
  35   0.0000       0.168615         4.5882
  36   0.0000       0.173305         4.7159

MULLIKEN ATOMIC CHARGES
-----------------------
   0 C :   -0.100369
   1 C :    0.070097
   2 C :   -0.098311
   3 N :   -0.369527
   4 C :   -0.126646
   5 C :   -0.079987
   6 N :   -0.239606
   7 C :   -0.199866
   8 C :   -0.080433
   9 H :    0.196505
  10 H :    0.225170
  11 H :    0.137653
  12 H :    0.125821
  13 H :    0.117310
  14 H :    0.124871
  15 H :    0.156273
  16 H :    0.141044
Sum of atomic charges:    0.0000000

LOEWDIN ATOMIC CHARGES
----------------------
   0 C :   -0.078583
   1 C :   -0.075950
   2 C :   -0.244856
   3 N :    0.046903
   4 C :   -0.212059
   5 C :   -0.249660
   6 N :    0.111337
   7 C :   -0.233838
   8 C :   -0.191186
   9 H :    0.129116
  10 H :    0.175021
  11 H :    0.140746
  12 H :    0.139109
  13 H :    0.138122
  14 H :    0.125071
  15 H :    0.133644
  16 H :    0.147065

  Mayer bond orders larger than 0.1
B(  0-C ,  1-C ) :   2.6009 B(  0-C ,  2-C ) :  -0.1454 B(  0-C ,  9-H ) :   0.8755
B(  1-C ,  2-C ) :   1.0775 B(  2-C ,  3-N ) :   0.9105 B(  2-C ,  4-C ) :   0.8838
B(  2-C ,  8-C ) :   1.0117 B(  3-N ,  4-C ) :   0.9875 B(  3-N , 10-H ) :   0.8681
B(  4-C ,  5-C ) :   0.9530 B(  4-C , 11-H ) :   0.9057 B(  5-C ,  6-N ) :   0.9436
B(  5-C , 12-H ) :   0.9275 B(  5-C , 13-H ) :   0.9110 B(  6-N ,  7-C ) :   0.8815
B(  6-N ,  8-C ) :   0.9149 B(  7-C ,  8-C ) :   0.9400 B(  7-C , 14-H ) :   0.9260
B(  7-C , 15-H ) :   0.8990 B(  8-C , 16-H ) :   0.9131

MP2 TOTAL ENERGY:     -380.101589091 Eh
FINAL SINGLE POINT ENERGY      -380.101589091203

DIPOLE MOMENT
-------------
                                X             Y             Z
Electronic contribution:     -0.29253      -2.81014      -0.35380
Nuclear contribution   :      0.72639       2.32240      -0.07246
                        -----------------------------------------
Total Dipole Moment    :      0.43386      -0.48774      -0.42626
                        -----------------------------------------
Magnitude (a.u.)       :      0.77963
Magnitude (Debye)      :      1.98165

                             ****ORCA TERMINATED NORMALLY****
TOTAL RUN TIME: 0 days 0 hours 17 minutes 57 seconds 84 msec
