                         Program Version 3.0.3 - RELEASE   -
|  1> ! RI-MP2 RIJK def2-TZVP def2-TZVP/C def2-TZVP/JK TIGHTSCF
|  2> % maxcore 2000
|  3> % mp2 density relaxed end
|  4> *xyz 0 1
|  5>  C       -0.1693168496    -0.1938870111     0.7441984344
|  6>  C        0.8934340241     0.5364715721    -0.0902442252
|  7>  C        1.1770102686    -0.1380307701    -1.3990201977
|  8>  O        1.9002864781    -1.3808980122    -1.3566770797
|  9>  C        2.4197317785    -0.3160391706    -2.1690329549
| 10>  C        1.6736771616    -0.3650037433    -3.5024115437
| 11>  C        0.3218315716    -0.1676682391    -2.7066974384
| 12>  C       -0.6774490806    -1.3162122908    -2.8133987201
| 13>  C       -0.3243202735     1.1838677351    -3.0072989638
| 14>  H       -1.1359809966    -0.2179524624     0.2311011818
| 15>  H        0.1355860973    -1.2268933075     0.9346038028
| 16>  H       -0.3159597217     0.3026981769     1.7079515792
| 17>  H        0.5769025576     1.5696023536    -0.2779043370
| 18>  H        1.8315343865     0.5897541905     0.4739226864
| 19>  H        3.4330434815     0.0095150250    -1.9587191477
| 20>  H        1.8968640922     0.4774959809    -4.1623861698
| 21>  H        1.7824632142    -1.3016256323    -4.0555278635
| 22>  H       -0.2096932964    -2.2576742887    -2.5153769334
| 23>  H       -1.5522445448    -1.1474240259    -2.1750393795
| 24>  H       -1.0374160903    -1.4220335468    -3.8433762126
| 25>  H       -0.7205061231     1.2036162639    -4.0285533563
| 26>  H       -1.1571240952     1.3864340945    -2.3243968203
| 27>  H        0.3946097400     2.0053804183    -2.9128580510
| 28> *
| 29>
| 30>                          ****END OF INPUT****

CARTESIAN COORDINATES (ANGSTROEM)
---------------------------------
  C     -0.169317   -0.193887    0.744198
  C      0.893434    0.536472   -0.090244
  C      1.177010   -0.138031   -1.399020
  O      1.900286   -1.380898   -1.356677
  C      2.419732   -0.316039   -2.169033
  C      1.673677   -0.365004   -3.502412
  C      0.321832   -0.167668   -2.706697
  C     -0.677449   -1.316212   -2.813399
  C     -0.324320    1.183868   -3.007299
  H     -1.135981   -0.217952    0.231101
  H      0.135586   -1.226893    0.934604
  H     -0.315960    0.302698    1.707952
  H      0.576903    1.569602   -0.277904
  H      1.831534    0.589754    0.473923
  H      3.433043    0.009515   -1.958719
  H      1.896864    0.477496   -4.162386
  H      1.782463   -1.301626   -4.055528
  H     -0.209693   -2.257674   -2.515377
  H     -1.552245   -1.147424   -2.175039
  H     -1.037416   -1.422034   -3.843376
  H     -0.720506    1.203616   -4.028553
  H     -1.157124    1.386434   -2.324397
  H      0.394610    2.005380   -2.912858

 Total Charge           Charge          ....    0
 Multiplicity           Mult            ....    1
 Number of Electrons    NEL             ....   70
 Basis Dimension        Dim             ....  363

ORBITAL ENERGIES
----------------

  NO   OCC          E(Eh)            E(eV)
   0   2.0000     -20.555929      -559.3553
   1   2.0000     -11.278862      -306.9134
   2   2.0000     -11.276401      -306.8465
   3   2.0000     -11.241926      -305.9084
   4   2.0000     -11.229185      -305.5616
   5   2.0000     -11.224842      -305.4435
   6   2.0000     -11.219436      -305.2964
   7   2.0000     -11.215329      -305.1846
   8   2.0000     -11.207637      -304.9753
   9   2.0000      -1.407598       -38.3027
  10   2.0000      -1.107632       -30.1402
  11   2.0000      -1.044043       -28.4099
  12   2.0000      -0.981911       -26.7192
  13   2.0000      -0.933691       -25.4070
  14   2.0000      -0.899637       -24.4804
  15   2.0000      -0.823798       -22.4167
  16   2.0000      -0.820084       -22.3156
  17   2.0000      -0.700947       -19.0737
  18   2.0000      -0.673315       -18.3218
  19   2.0000      -0.648196       -17.6383
  20   2.0000      -0.614000       -16.7078
  21   2.0000      -0.600473       -16.3397
  22   2.0000      -0.581845       -15.8328
  23   2.0000      -0.566124       -15.4050
  24   2.0000      -0.558582       -15.1998
  25   2.0000      -0.540102       -14.6969
  26   2.0000      -0.528298       -14.3757
  27   2.0000      -0.520488       -14.1632
  28   2.0000      -0.504748       -13.7349
  29   2.0000      -0.494688       -13.4611
  30   2.0000      -0.479226       -13.0404
  31   2.0000      -0.467278       -12.7153
  32   2.0000      -0.444981       -12.1086
  33   2.0000      -0.413367       -11.2483
  34   2.0000      -0.382928       -10.4200
  35   0.0000       0.130825         3.5599
  36   0.0000       0.157173         4.2769
  37   0.0000       0.161666         4.3992
  38   0.0000       0.176582         4.8050
  39   0.0000       0.185291         5.0420

MULLIKEN ATOMIC CHARGES
-----------------------
   0 C :   -0.408912
   1 C :   -0.214194
   2 C :    0.198625
   3 O :   -0.342485
   4 C :   -0.118454
   5 C :   -0.184849
   6 C :    0.168164
   7 C :   -0.442050
   8 C :   -0.472715
   9 H :    0.121759
  10 H :    0.146455
  11 H :    0.134936
  12 H :    0.119859
  13 H :    0.121924
  14 H :    0.125741
  15 H :    0.119335
  16 H :    0.113163
  17 H :    0.154095
  18 H :    0.121155
  19 H :    0.128745
  20 H :    0.140441
  21 H :    0.131899
  22 H :    0.137363
Sum of atomic charges:    0.0000000

LOEWDIN ATOMIC CHARGES
----------------------
   0 C :   -0.306792
   1 C :   -0.254455
   2 C :   -0.247290
   3 O :    0.185797
   4 C :   -0.224420
   5 C :   -0.177563
   6 C :   -0.256024
   7 C :   -0.273406
   8 C :   -0.270012
   9 H :    0.119446
  10 H :    0.127998
  11 H :    0.121280
  12 H :    0.144617
  13 H :    0.148511
  14 H :    0.128232
  15 H :    0.137230
  16 H :    0.133729
  17 H :    0.132503
  18 H :    0.122832
  19 H :    0.125650
  20 H :    0.128414
  21 H :    0.125799
  22 H :    0.127923

  Mayer bond orders larger than 0.1
B(  0-C ,  1-C ) :   0.9214 B(  0-C ,  9-H ) :   0.9363 B(  0-C , 10-H ) :   0.9386
B(  0-C , 11-H ) :   0.9383 B(  1-C ,  2-C ) :   0.8886 B(  1-C , 12-H ) :   0.9351
B(  1-C , 13-H ) :   0.9299 B(  2-C ,  3-O ) :   0.8129 B(  2-C ,  4-C ) :   0.8708
B(  2-C ,  6-C ) :   0.9069 B(  3-O ,  4-C ) :   0.9423 B(  4-C ,  5-C ) :   0.9081
B(  4-C , 14-H ) :   0.9352 B(  5-C ,  6-C ) :   0.9475 B(  5-C , 15-H ) :   0.9033
B(  5-C , 16-H ) :   0.8944 B(  6-C ,  7-C ) :   0.8873 B(  6-C ,  8-C ) :   0.8741
B(  7-C , 17-H ) :   0.9377 B(  7-C , 18-H ) :   0.9342 B(  7-C , 19-H ) :   0.9350
B(  8-C , 20-H ) :   0.9359 B(  8-C , 21-H ) :   0.9379 B(  8-C , 22-H ) :   0.9349

MP2 TOTAL ENERGY:     -387.593757941 Eh
FINAL SINGLE POINT ENERGY      -387.593757940995

DIPOLE MOMENT
-------------
                                X             Y             Z
Electronic contribution:      6.38540      -2.53245      -0.37557
Nuclear contribution   :     -6.52314       3.22908       0.19270
                        -----------------------------------------
Total Dipole Moment    :     -0.13774       0.69662      -0.18287
                        -----------------------------------------
Magnitude (a.u.)       :      0.73328
Magnitude (Debye)      :      1.86384

                             ****ORCA TERMINATED NORMALLY****
TOTAL RUN TIME: 0 days 0 hours 21 minutes 26 seconds 77 msec
