                         Program Version 3.0.3 - RELEASE   -
|  1> ! RI-MP2 RIJK def2-TZVP def2-TZVP/C def2-TZVP/JK TIGHTSCF
|  2> % maxcore 2000
|  3> % mp2 density relaxed end
|  4> *xyz 0 1
|  5>  O        0.2229771531     1.4237924650    -0.2043432119
|  6>  C        0.0362550528     0.0281617398    -0.0398777564
|  7>  C        0.6039883909    -0.5452572948     1.2714410116
|  8>  C       -0.3045213619    -1.3059804537     1.9126569178
|  9>  C       -1.5184098691    -1.2580396873     1.1103767341
| 10>  C       -1.3881038045    -0.4812048463     0.0001135193
| 11>  C       -2.6449059870    -0.5428520786    -0.6704832811
| 12>  C       -3.4290385228    -1.3512177098     0.1054055033
| 13>  O       -2.7449861799    -1.8058244601     1.2090599461
| 14>  H       -0.2685537932     1.8603932135     0.5003105427
| 15>  H        0.5785523366    -0.4298106678    -0.8786543293
| 16>  H        1.6171683589    -0.3377724019     1.5888889237
| 17>  H       -0.1732643409    -1.8456594445     2.8406235500
| 18>  H       -2.9503580104    -0.0613571542    -1.5865564933
| 19>  H       -4.4494361626    -1.6873647192     0.0277799934
| 20> *
| 21>
| 22>                          ****END OF INPUT****

CARTESIAN COORDINATES (ANGSTROEM)
---------------------------------
  O      0.222977    1.423792   -0.204343
  C      0.036255    0.028162   -0.039878
  C      0.603988   -0.545257    1.271441
  C     -0.304521   -1.305980    1.912657
  C     -1.518410   -1.258040    1.110377
  C     -1.388104   -0.481205    0.000114
  C     -2.644906   -0.542852   -0.670483
  C     -3.429039   -1.351218    0.105406
  O     -2.744986   -1.805824    1.209060
  H     -0.268554    1.860393    0.500311
  H      0.578552   -0.429811   -0.878654
  H      1.617168   -0.337772    1.588889
  H     -0.173264   -1.845659    2.840624
  H     -2.950358   -0.061357   -1.586556
  H     -4.449436   -1.687365    0.027780

 Total Charge           Charge          ....    0
 Multiplicity           Mult            ....    1
 Number of Electrons    NEL             ....   64
 Basis Dimension        Dim             ....  315

ORBITAL ENERGIES
----------------

  NO   OCC          E(Eh)            E(eV)
   0   2.0000     -20.630069      -561.3727
   1   2.0000     -20.565508      -559.6159
   2   2.0000     -11.302806      -307.5650
   3   2.0000     -11.289894      -307.2136
   4   2.0000     -11.289164      -307.1938
   5   2.0000     -11.255226      -306.2703
   6   2.0000     -11.244075      -305.9668
   7   2.0000     -11.240097      -305.8586
   8   2.0000     -11.221124      -305.3423
   9   2.0000      -1.463910       -39.8350
  10   2.0000      -1.370768       -37.3005
  11   2.0000      -1.156127       -31.4598
  12   2.0000      -1.071078       -29.1455
  13   2.0000      -0.970285       -26.4028
  14   2.0000      -0.941418       -25.6173
  15   2.0000      -0.817131       -22.2353
  16   2.0000      -0.792335       -21.5605
  17   2.0000      -0.751932       -20.4611
  18   2.0000      -0.723467       -19.6865
  19   2.0000      -0.652363       -17.7517
  20   2.0000      -0.646994       -17.6056
  21   2.0000      -0.640482       -17.4284
  22   2.0000      -0.615369       -16.7450
  23   2.0000      -0.607955       -16.5433
  24   2.0000      -0.576543       -15.6885
  25   2.0000      -0.554001       -15.0751
  26   2.0000      -0.534220       -14.5369
  27   2.0000      -0.495446       -13.4818
  28   2.0000      -0.455650       -12.3989
  29   2.0000      -0.426913       -11.6169
  30   2.0000      -0.394282       -10.7290
  31   2.0000      -0.286025        -7.7831
  32   0.0000       0.090548         2.4639
  33   0.0000       0.151972         4.1354
  34   0.0000       0.169619         4.6156
  35   0.0000       0.171420         4.6646
  36   0.0000       0.177672         4.8347

MULLIKEN ATOMIC CHARGES
-----------------------
   0 O :   -0.461685
   1 C :    0.206047
   2 C :   -0.196755
   3 C :   -0.210836
   4 C :    0.204353
   5 C :   -0.060012
   6 C :   -0.317154
   7 C :    0.040042
   8 O :   -0.224527
   9 H :    0.319846
  10 H :    0.117446
  11 H :    0.140764
  12 H :    0.146160
  13 H :    0.146088
  14 H :    0.150224
Sum of atomic charges:    0.0000000

LOEWDIN ATOMIC CHARGES
----------------------
   0 O :   -0.012535
   1 C :   -0.274655
   2 C :   -0.124668
   3 C :   -0.111191
   4 C :   -0.226595
   5 C :   -0.131435
   6 C :   -0.161688
   7 C :   -0.223563
   8 O :    0.357409
   9 H :    0.182145
  10 H :    0.164285
  11 H :    0.138706
  12 H :    0.145271
  13 H :    0.146611
  14 H :    0.131903

  Mayer bond orders larger than 0.1
B(  0-O ,  1-C ) :   0.9210 B(  0-O ,  9-H ) :   0.8399 B(  1-C ,  2-C ) :   0.9490
B(  1-C ,  5-C ) :   0.9573 B(  1-C , 10-H ) :   0.8791 B(  2-C ,  3-C ) :   1.6823
B(  2-C , 11-H ) :   0.9338 B(  3-C ,  4-C ) :   1.0310 B(  3-C , 12-H ) :   0.9173
B(  4-C ,  5-C ) :   1.3785 B(  4-C ,  8-O ) :   1.0860 B(  5-C ,  6-C ) :   1.1924
B(  6-C ,  7-C ) :   1.5333 B(  6-C , 13-H ) :   0.9138 B(  7-C ,  8-O ) :   1.0093
B(  7-C , 14-H ) :   0.9369

MP2 TOTAL ENERGY:     -419.927373096 Eh
FINAL SINGLE POINT ENERGY      -419.927373095669

DIPOLE MOMENT
-------------
                                X             Y             Z
Electronic contribution:     -1.83922      -1.20590       0.82804
Nuclear contribution   :      1.61029       1.08416      -0.56148
                        -----------------------------------------
Total Dipole Moment    :     -0.22893      -0.12174       0.26656
                        -----------------------------------------
Magnitude (a.u.)       :      0.37186
Magnitude (Debye)      :      0.94520

                             ****ORCA TERMINATED NORMALLY****
TOTAL RUN TIME: 0 days 0 hours 16 minutes 18 seconds 856 msec
