                         Program Version 3.0.3 - RELEASE   -
|  1> ! RI-MP2 RIJK def2-TZVP def2-TZVP/C def2-TZVP/JK TIGHTSCF
|  2> % maxcore 2000
|  3> % mp2 density relaxed end
|  4> *xyz 0 1
|  5>  O       -0.0533306642     1.3984561815    -0.0393206193
|  6>  C        0.0396347762     0.0143430098    -0.0205651726
|  7>  C        1.0251382354    -0.5007394239    -0.9790567579
|  8>  N        1.8286824999    -0.8828032867    -1.7164517671
|  9>  C       -0.0406159124    -0.7122185936     1.3789692493
| 10>  O       -1.4456197592    -0.2593534039     1.4668526144
| 11>  C       -1.3539000257    -0.6817601353     0.0502723255
| 12>  C       -0.6565001677    -1.9388309841     0.6500811342
| 13>  O       -0.7334208823    -3.1172099259     0.6989378752
| 14>  H        0.8173403015     1.7772443867     0.1280001728
| 15>  H        0.5961265237    -0.6003608387     2.2532720716
| 16>  H       -2.2169222753    -0.5311527057    -0.5928252760
| 17> *
| 18>
| 19>                          ****END OF INPUT****

CARTESIAN COORDINATES (ANGSTROEM)
---------------------------------
  O     -0.053331    1.398456   -0.039321
  C      0.039635    0.014343   -0.020565
  C      1.025138   -0.500739   -0.979057
  N      1.828682   -0.882803   -1.716452
  C     -0.040616   -0.712219    1.378969
  O     -1.445620   -0.259353    1.466853
  C     -1.353900   -0.681760    0.050272
  C     -0.656500   -1.938831    0.650081
  O     -0.733421   -3.117210    0.698938
  H      0.817340    1.777244    0.128000
  H      0.596127   -0.600361    2.253272
  H     -2.216922   -0.531153   -0.592825

 Total Charge           Charge          ....    0
 Multiplicity           Mult            ....    1
 Number of Electrons    NEL             ....   64
 Basis Dimension        Dim             ....  297

ORBITAL ENERGIES
----------------

  NO   OCC          E(Eh)            E(eV)
   0   2.0000     -20.622839      -561.1760
   1   2.0000     -20.618004      -561.0444
   2   2.0000     -20.598385      -560.5106
   3   2.0000     -15.611795      -424.8185
   4   2.0000     -11.391166      -309.9694
   5   2.0000     -11.388217      -309.8891
   6   2.0000     -11.359001      -309.0941
   7   2.0000     -11.358378      -309.0772
   8   2.0000     -11.304885      -307.6216
   9   2.0000      -1.482191       -40.3325
  10   2.0000      -1.441860       -39.2350
  11   2.0000      -1.419256       -38.6199
  12   2.0000      -1.253285       -34.1036
  13   2.0000      -1.121161       -30.5083
  14   2.0000      -0.960519       -26.1370
  15   2.0000      -0.946123       -25.7453
  16   2.0000      -0.833455       -22.6795
  17   2.0000      -0.767671       -20.8894
  18   2.0000      -0.755775       -20.5657
  19   2.0000      -0.701371       -19.0853
  20   2.0000      -0.673532       -18.3277
  21   2.0000      -0.660347       -17.9690
  22   2.0000      -0.617934       -16.8148
  23   2.0000      -0.608510       -16.5584
  24   2.0000      -0.592738       -16.1292
  25   2.0000      -0.576850       -15.6969
  26   2.0000      -0.545608       -14.8467
  27   2.0000      -0.523895       -14.2559
  28   2.0000      -0.505635       -13.7590
  29   2.0000      -0.485808       -13.2195
  30   2.0000      -0.476765       -12.9734
  31   2.0000      -0.437171       -11.8960
  32   0.0000       0.095242         2.5917
  33   0.0000       0.107371         2.9217
  34   0.0000       0.128344         3.4924
  35   0.0000       0.151408         4.1200
  36   0.0000       0.167996         4.5714

MULLIKEN ATOMIC CHARGES
-----------------------
   0 O :   -0.428706
   1 C :    0.317078
   2 C :   -0.247509
   3 N :   -0.038105
   4 C :   -0.017828
   5 O :   -0.258697
   6 C :    0.001411
   7 C :    0.172670
   8 O :   -0.204141
   9 H :    0.342619
  10 H :    0.181223
  11 H :    0.179985
Sum of atomic charges:    0.0000000

LOEWDIN ATOMIC CHARGES
----------------------
   0 O :    0.074079
   1 C :   -0.337971
   2 C :   -0.147872
   3 N :    0.097449
   4 C :   -0.148703
   5 O :    0.191998
   6 C :   -0.135487
   7 C :   -0.276539
   8 O :    0.209477
   9 H :    0.196286
  10 H :    0.136626
  11 H :    0.140657

  Mayer bond orders larger than 0.1
B(  0-O ,  1-C ) :   1.0308 B(  0-O ,  9-H ) :   0.8242 B(  1-C ,  2-C ) :   0.8952
B(  1-C ,  4-C ) :   0.8884 B(  1-C ,  6-C ) :   0.8882 B(  2-C ,  3-N ) :   2.8188
B(  4-C ,  5-O ) :   0.8829 B(  4-C ,  7-C ) :   0.8670 B(  4-C , 10-H ) :   0.8666
B(  5-O ,  6-C ) :   0.8827 B(  6-C ,  7-C ) :   0.8783 B(  6-C , 11-H ) :   0.8722
B(  7-C ,  8-O ) :   2.0661

MP2 TOTAL ENERGY:     -471.797405793 Eh
FINAL SINGLE POINT ENERGY      -471.797405793122

DIPOLE MOMENT
-------------
                                X             Y             Z
Electronic contribution:      0.32890      -1.65433      -0.59754
Nuclear contribution   :     -0.25559       2.61517       1.13310
                        -----------------------------------------
Total Dipole Moment    :      0.07331       0.96084       0.53556
                        -----------------------------------------
Magnitude (a.u.)       :      1.10246
Magnitude (Debye)      :      2.80223

                             ****ORCA TERMINATED NORMALLY****
TOTAL RUN TIME: 0 days 0 hours 14 minutes 54 seconds 178 msec
