                         Program Version 3.0.3 - RELEASE   -
|  1> ! RI-MP2 RIJK def2-TZVP def2-TZVP/C def2-TZVP/JK TIGHTSCF
|  2> % maxcore 2000
|  3> % mp2 density relaxed end
|  4> *xyz 0 1
|  5>  N        0.1017998886    -1.0744192233    -0.0585448675
|  6>  C        0.0264370390     0.0811621406    -0.0373420251
|  7>  C       -0.0758604825     1.4955499302     0.0206222908
|  8>  C        0.1014311031     2.4312312169    -1.2130406849
|  9>  C        0.9946193414     2.5636655176    -0.0273364318
| 10>  N        0.0243042843     3.5473368644     0.6009389912
| 11>  C       -0.7612388858     3.6072109474    -0.7308403756
| 12>  C       -2.0138220751     3.0664885720    -0.0216491800
| 13>  C       -0.9700413082     2.4046182157     0.8894156550
| 14>  H        0.2990143443     2.0370812879    -2.2007659843
| 15>  H        2.0645273083     2.5167177486     0.1264672568
| 16>  H       -0.7481845146     4.5373935699    -1.2972511720
| 17>  H       -2.5462167173     3.8636910820     0.5031688867
| 18>  H       -2.7095218003     2.4343948396    -0.5767893182
| 19>  H       -1.1571032351     2.1194577206     1.9231456491
| 20> *
| 21>
| 22>                          ****END OF INPUT****

CARTESIAN COORDINATES (ANGSTROEM)
---------------------------------
  N      0.101800   -1.074419   -0.058545
  C      0.026437    0.081162   -0.037342
  C     -0.075860    1.495550    0.020622
  C      0.101431    2.431231   -1.213041
  C      0.994619    2.563666   -0.027336
  N      0.024304    3.547337    0.600939
  C     -0.761239    3.607211   -0.730840
  C     -2.013822    3.066489   -0.021649
  C     -0.970041    2.404618    0.889416
  H      0.299014    2.037081   -2.200766
  H      2.064527    2.516718    0.126467
  H     -0.748185    4.537394   -1.297251
  H     -2.546217    3.863691    0.503169
  H     -2.709522    2.434395   -0.576789
  H     -1.157103    2.119458    1.923146

 Total Charge           Charge          ....    0
 Multiplicity           Mult            ....    1
 Number of Electrons    NEL             ....   62
 Basis Dimension        Dim             ....  315

ORBITAL ENERGIES
----------------

  NO   OCC          E(Eh)            E(eV)
   0   2.0000     -15.581245      -423.9872
   1   2.0000     -15.574597      -423.8063
   2   2.0000     -11.299070      -307.4633
   3   2.0000     -11.296283      -307.3875
   4   2.0000     -11.294102      -307.3282
   5   2.0000     -11.291994      -307.2708
   6   2.0000     -11.280592      -306.9605
   7   2.0000     -11.277848      -306.8859
   8   2.0000     -11.249509      -306.1147
   9   2.0000      -1.352510       -36.8037
  10   2.0000      -1.220585       -33.2138
  11   2.0000      -1.099908       -29.9300
  12   2.0000      -1.022162       -27.8144
  13   2.0000      -0.992275       -27.0012
  14   2.0000      -0.861238       -23.4355
  15   2.0000      -0.834185       -22.6993
  16   2.0000      -0.752431       -20.4747
  17   2.0000      -0.745469       -20.2852
  18   2.0000      -0.670774       -18.2527
  19   2.0000      -0.659697       -17.9513
  20   2.0000      -0.633303       -17.2331
  21   2.0000      -0.568764       -15.4768
  22   2.0000      -0.555195       -15.1076
  23   2.0000      -0.540668       -14.7123
  24   2.0000      -0.521331       -14.1861
  25   2.0000      -0.492114       -13.3911
  26   2.0000      -0.473333       -12.8800
  27   2.0000      -0.465636       -12.6706
  28   2.0000      -0.459256       -12.4970
  29   2.0000      -0.407184       -11.0800
  30   2.0000      -0.376994       -10.2585
  31   0.0000       0.133054         3.6206
  32   0.0000       0.142437         3.8759
  33   0.0000       0.149827         4.0770
  34   0.0000       0.152584         4.1520
  35   0.0000       0.171225         4.6593

MULLIKEN ATOMIC CHARGES
-----------------------
   0 N :   -0.036704
   1 C :   -0.293180
   2 C :    0.108096
   3 C :   -0.135399
   4 C :   -0.070290
   5 N :   -0.178701
   6 C :   -0.052945
   7 C :   -0.258942
   8 C :    0.031051
   9 H :    0.157932
  10 H :    0.162460
  11 H :    0.144704
  12 H :    0.133831
  13 H :    0.136376
  14 H :    0.151712
Sum of atomic charges:   -0.0000000

LOEWDIN ATOMIC CHARGES
----------------------
   0 N :    0.071504
   1 C :   -0.163089
   2 C :   -0.163140
   3 C :   -0.104054
   4 C :   -0.124871
   5 N :    0.156232
   6 C :   -0.174403
   7 C :   -0.200942
   8 C :   -0.144964
   9 H :    0.146942
  10 H :    0.138492
  11 H :    0.137570
  12 H :    0.147932
  13 H :    0.135576
  14 H :    0.141214

  Mayer bond orders larger than 0.1
B(  0-N ,  1-C ) :   2.8855 B(  1-C ,  2-C ) :   0.8605 B(  2-C ,  3-C ) :   0.7843
B(  2-C ,  4-C ) :   0.8811 B(  2-C ,  8-C ) :   0.9159 B(  3-C ,  4-C ) :   0.9297
B(  3-C ,  6-C ) :   0.9200 B(  3-C ,  9-H ) :   0.9161 B(  4-C ,  5-N ) :   0.9829
B(  4-C , 10-H ) :   0.8925 B(  5-N ,  6-C ) :   0.9575 B(  5-N ,  8-C ) :   0.9454
B(  6-C ,  7-C ) :   0.9831 B(  6-C , 11-H ) :   0.8945 B(  7-C ,  8-C ) :   0.9515
B(  7-C , 12-H ) :   0.9126 B(  7-C , 13-H ) :   0.9130 B(  8-C , 14-H ) :   0.8913

MP2 TOTAL ENERGY:     -378.914821246 Eh
FINAL SINGLE POINT ENERGY      -378.914821245816

DIPOLE MOMENT
-------------
                                X             Y             Z
Electronic contribution:      2.46557      -3.78073       0.60293
Nuclear contribution   :     -2.80630       4.96974      -1.07208
                        -----------------------------------------
Total Dipole Moment    :     -0.34073       1.18900      -0.46914
                        -----------------------------------------
Magnitude (a.u.)       :      1.32284
Magnitude (Debye)      :      3.36240

                             ****ORCA TERMINATED NORMALLY****
TOTAL RUN TIME: 0 days 0 hours 17 minutes 0 seconds 177 msec
