                         Program Version 3.0.3 - RELEASE   -
|  1> ! RI-MP2 RIJK def2-TZVP def2-TZVP/C def2-TZVP/JK TIGHTSCF
|  2> % maxcore 2000
|  3> % mp2 density relaxed end
|  4> *xyz 0 1
|  5>  C        0.3458299845     1.4729111395    -0.3633835344
|  6>  C       -0.1460039018     0.0909077498     0.0886287495
|  7>  C        0.5735573610    -0.4482311781     1.3161337938
|  8>  N        1.9583246983    -0.9641607833     1.1370575680
|  9>  C        0.8489732839    -1.9045798014     1.4237576779
| 10>  C        0.8656959666    -2.5675563853     2.7967074910
| 11>  C       -0.0978659277    -1.8859711915     3.7880665591
| 12>  C       -0.0104224274    -0.3805079146     3.7146467954
| 13>  C        0.3197623850     0.2701516302     2.5993724728
| 14>  H        1.4203898079     1.4624353589    -0.5739174226
| 15>  H       -0.1719580767     1.7900188571    -1.2737007712
| 16>  H        0.1660579877     2.2359754839     0.3999349892
| 17>  H       -1.2231442023     0.1348201184     0.2937090691
| 18>  H       -0.0170554490    -0.6259491038    -0.7329845658
| 19>  H        2.1744088836    -0.9905765416     0.1409634626
| 20>  H        0.5086238944    -2.5235247878     0.5961573203
| 21>  H        0.6200886286    -3.6309933900     2.7065159911
| 22>  H        1.8847618510    -2.5022146901     3.1901971048
| 23>  H       -1.1329491760    -2.2014853211     3.5894255625
| 24>  H        0.1209422004    -2.2241324964     4.8069489789
| 25>  H       -0.2261445334     0.1788366033     4.6217044610
| 26>  H        0.3897262012     1.3546329740     2.5955621171
| 27> *
| 28>
| 29>                          ****END OF INPUT****

CARTESIAN COORDINATES (ANGSTROEM)
---------------------------------
  C      0.345830    1.472911   -0.363384
  C     -0.146004    0.090908    0.088629
  C      0.573557   -0.448231    1.316134
  N      1.958325   -0.964161    1.137058
  C      0.848973   -1.904580    1.423758
  C      0.865696   -2.567556    2.796707
  C     -0.097866   -1.885971    3.788067
  C     -0.010422   -0.380508    3.714647
  C      0.319762    0.270152    2.599372
  H      1.420390    1.462435   -0.573917
  H     -0.171958    1.790019   -1.273701
  H      0.166058    2.235975    0.399935
  H     -1.223144    0.134820    0.293709
  H     -0.017055   -0.625949   -0.732985
  H      2.174409   -0.990577    0.140963
  H      0.508624   -2.523525    0.596157
  H      0.620089   -3.630993    2.706516
  H      1.884762   -2.502215    3.190197
  H     -1.132949   -2.201485    3.589426
  H      0.120942   -2.224132    4.806949
  H     -0.226145    0.178837    4.621704
  H      0.389726    1.354633    2.595562

 Total Charge           Charge          ....    0
 Multiplicity           Mult            ....    1
 Number of Electrons    NEL             ....   68
 Basis Dimension        Dim             ....  357

ORBITAL ENERGIES
----------------

  NO   OCC          E(Eh)            E(eV)
   0   2.0000     -15.548460      -423.0951
   1   2.0000     -11.258669      -306.3639
   2   2.0000     -11.250935      -306.1535
   3   2.0000     -11.229484      -305.5698
   4   2.0000     -11.224791      -305.4421
   5   2.0000     -11.223987      -305.4202
   6   2.0000     -11.218797      -305.2790
   7   2.0000     -11.218297      -305.2654
   8   2.0000     -11.217245      -305.2368
   9   2.0000      -1.258870       -34.2556
  10   2.0000      -1.083972       -29.4964
  11   2.0000      -1.045822       -28.4583
  12   2.0000      -0.996641       -27.1200
  13   2.0000      -0.920233       -25.0408
  14   2.0000      -0.873228       -23.7617
  15   2.0000      -0.808704       -22.0060
  16   2.0000      -0.800254       -21.7760
  17   2.0000      -0.699338       -19.0300
  18   2.0000      -0.661211       -17.9925
  19   2.0000      -0.642059       -17.4713
  20   2.0000      -0.625212       -17.0129
  21   2.0000      -0.592678       -16.1276
  22   2.0000      -0.586682       -15.9644
  23   2.0000      -0.563647       -15.3376
  24   2.0000      -0.540154       -14.6983
  25   2.0000      -0.528410       -14.3788
  26   2.0000      -0.511709       -13.9243
  27   2.0000      -0.501382       -13.6433
  28   2.0000      -0.484304       -13.1786
  29   2.0000      -0.455679       -12.3997
  30   2.0000      -0.454209       -12.3596
  31   2.0000      -0.437151       -11.8955
  32   2.0000      -0.376144       -10.2354
  33   2.0000      -0.341715        -9.2985
  34   0.0000       0.131720         3.5843
  35   0.0000       0.145305         3.9540
  36   0.0000       0.160107         4.3567
  37   0.0000       0.160869         4.3775
  38   0.0000       0.177980         4.8431

MULLIKEN ATOMIC CHARGES
-----------------------
   0 C :   -0.405737
   1 C :   -0.202392
   2 C :    0.285873
   3 N :   -0.398004
   4 C :   -0.113281
   5 C :   -0.217133
   6 C :   -0.200354
   7 C :   -0.117818
   8 C :   -0.301875
   9 H :    0.130628
  10 H :    0.135575
  11 H :    0.129032
  12 H :    0.118523
  13 H :    0.106992
  14 H :    0.207882
  15 H :    0.122488
  16 H :    0.114928
  17 H :    0.125307
  18 H :    0.118524
  19 H :    0.123299
  20 H :    0.121368
  21 H :    0.116174
Sum of atomic charges:    0.0000000

LOEWDIN ATOMIC CHARGES
----------------------
   0 C :   -0.312023
   1 C :   -0.253931
   2 C :   -0.273743
   3 N :    0.023999
   4 C :   -0.226390
   5 C :   -0.235750
   6 C :   -0.247818
   7 C :   -0.152771
   8 C :   -0.128046
   9 H :    0.122367
  10 H :    0.121660
  11 H :    0.121005
  12 H :    0.144743
  13 H :    0.139859
  14 H :    0.163944
  15 H :    0.136403
  16 H :    0.136778
  17 H :    0.147922
  18 H :    0.144663
  19 H :    0.141156
  20 H :    0.140997
  21 H :    0.144976

  Mayer bond orders larger than 0.1
B(  0-C ,  1-C ) :   0.9233 B(  0-C ,  9-H ) :   0.9376 B(  0-C , 10-H ) :   0.9394
B(  0-C , 11-H ) :   0.9370 B(  1-C ,  2-C ) :   0.9181 B(  1-C , 12-H ) :   0.9200
B(  1-C , 13-H ) :   0.9274 B(  2-C ,  3-N ) :   0.8369 B(  2-C ,  4-C ) :   0.8981
B(  2-C ,  8-C ) :   0.9252 B(  3-N ,  4-C ) :   1.0132 B(  3-N , 14-H ) :   0.8688
B(  4-C ,  5-C ) :   0.8893 B(  4-C , 15-H ) :   0.9212 B(  5-C ,  6-C ) :   0.9463
B(  5-C , 16-H ) :   0.9338 B(  5-C , 17-H ) :   0.9224 B(  6-C ,  7-C ) :   0.9308
B(  6-C , 18-H ) :   0.9115 B(  6-C , 19-H ) :   0.9350 B(  7-C ,  8-C ) :   1.8254
B(  7-C , 20-H ) :   0.9272 B(  8-C , 21-H ) :   0.9271

MP2 TOTAL ENERGY:     -366.541163884 Eh
FINAL SINGLE POINT ENERGY      -366.541163883702

DIPOLE MOMENT
-------------
                                X             Y             Z
Electronic contribution:      1.57616      -1.55778       2.42592
Nuclear contribution   :     -2.13320       1.37704      -2.77878
                        -----------------------------------------
Total Dipole Moment    :     -0.55704      -0.18074      -0.35286
                        -----------------------------------------
Magnitude (a.u.)       :      0.68371
Magnitude (Debye)      :      1.73786

                             ****ORCA TERMINATED NORMALLY****
TOTAL RUN TIME: 0 days 0 hours 22 minutes 0 seconds 462 msec
