                         Program Version 3.0.3 - RELEASE   -
|  1> ! RI-MP2 RIJK def2-TZVP def2-TZVP/C def2-TZVP/JK TIGHTSCF
|  2> % maxcore 2000
|  3> % mp2 density relaxed end
|  4> *xyz 0 1
|  5>  N       -0.1703931472     1.4376045379    -0.1425887872
|  6>  C       -0.0795155462     0.0051362624    -0.0361435876
|  7>  C       -0.3361966922    -0.5951662847     1.3508787562
|  8>  C       -1.3665510617    -0.7715261898     0.2996707817
|  9>  C       -2.7723087165    -0.1985239833     0.1380911982
| 10>  C       -3.0106478695    -1.3914170134    -0.8281404963
| 11>  N       -1.7686702319    -2.0274889191    -0.3099646385
| 12>  C        0.8559113891    -0.6839191749    -0.8945894174
| 13>  N        1.5695514985    -1.2309837470    -1.6255973000
| 14>  H        0.6925706515     1.8778444303     0.1641953182
| 15>  H       -0.3264299474     1.7205852006    -1.1053760265
| 16>  H        0.2516293024    -1.4604613552     1.6374841331
| 17>  H       -0.5156769312     0.1334349841     2.1339914157
| 18>  H       -3.3642476969    -0.2554197557     1.0541213950
| 19>  H       -2.8375966425     0.8083080598    -0.2732333012
| 20>  H       -3.9105259949    -1.9913594664    -0.6670858067
| 21>  H       -2.9617917411    -1.0975045124    -1.8839850028
| 22>  H       -1.1312772923    -2.4105023229    -1.0025535637
| 23> *
| 24>
| 25>                          ****END OF INPUT****

CARTESIAN COORDINATES (ANGSTROEM)
---------------------------------
  N     -0.170393    1.437605   -0.142589
  C     -0.079516    0.005136   -0.036144
  C     -0.336197   -0.595166    1.350879
  C     -1.366551   -0.771526    0.299671
  C     -2.772309   -0.198524    0.138091
  C     -3.010648   -1.391417   -0.828140
  N     -1.768670   -2.027489   -0.309965
  C      0.855911   -0.683919   -0.894589
  N      1.569551   -1.230984   -1.625597
  H      0.692571    1.877844    0.164195
  H     -0.326430    1.720585   -1.105376
  H      0.251629   -1.460461    1.637484
  H     -0.515677    0.133435    2.133991
  H     -3.364248   -0.255420    1.054121
  H     -2.837597    0.808308   -0.273233
  H     -3.910526   -1.991359   -0.667086
  H     -2.961792   -1.097505   -1.883985
  H     -1.131277   -2.410502   -1.002554

 Total Charge           Charge          ....    0
 Multiplicity           Mult            ....    1
 Number of Electrons    NEL             ....   66
 Basis Dimension        Dim             ....  333

ORBITAL ENERGIES
----------------

  NO   OCC          E(Eh)            E(eV)
   0   2.0000     -15.575258      -423.8243
   1   2.0000     -15.571724      -423.7282
   2   2.0000     -15.556822      -423.3226
   3   2.0000     -11.309418      -307.7449
   4   2.0000     -11.292082      -307.2732
   5   2.0000     -11.274573      -306.7967
   6   2.0000     -11.263943      -306.5075
   7   2.0000     -11.249766      -306.1217
   8   2.0000     -11.239714      -305.8482
   9   2.0000      -1.275881       -34.7185
  10   2.0000      -1.228780       -33.4368
  11   2.0000      -1.205079       -32.7919
  12   2.0000      -1.103252       -30.0210
  13   2.0000      -0.990312       -26.9478
  14   2.0000      -0.895494       -24.3676
  15   2.0000      -0.869165       -23.6512
  16   2.0000      -0.768051       -20.8997
  17   2.0000      -0.735873       -20.0241
  18   2.0000      -0.704194       -19.1621
  19   2.0000      -0.677231       -18.4284
  20   2.0000      -0.652666       -17.7600
  21   2.0000      -0.601780       -16.3753
  22   2.0000      -0.579367       -15.7654
  23   2.0000      -0.560472       -15.2512
  24   2.0000      -0.535181       -14.5630
  25   2.0000      -0.531171       -14.4539
  26   2.0000      -0.523322       -14.2403
  27   2.0000      -0.497480       -13.5371
  28   2.0000      -0.490369       -13.3436
  29   2.0000      -0.457566       -12.4510
  30   2.0000      -0.436213       -11.8700
  31   2.0000      -0.413012       -11.2386
  32   2.0000      -0.362138        -9.8543
  33   0.0000       0.115716         3.1488
  34   0.0000       0.148193         4.0325
  35   0.0000       0.153020         4.1639
  36   0.0000       0.162408         4.4193
  37   0.0000       0.176058         4.7908

MULLIKEN ATOMIC CHARGES
-----------------------
   0 N :   -0.556447
   1 C :    0.227047
   2 C :   -0.255556
   3 C :    0.098294
   4 C :   -0.240768
   5 C :   -0.128149
   6 N :   -0.317550
   7 C :   -0.259695
   8 N :   -0.058647
   9 H :    0.246044
  10 H :    0.245011
  11 H :    0.147589
  12 H :    0.150876
  13 H :    0.122734
  14 H :    0.138431
  15 H :    0.113137
  16 H :    0.108150
  17 H :    0.219497
Sum of atomic charges:    0.0000000

LOEWDIN ATOMIC CHARGES
----------------------
   0 N :   -0.089713
   1 C :   -0.305082
   2 C :   -0.142546
   3 C :   -0.246285
   4 C :   -0.189955
   5 C :   -0.252314
   6 N :    0.038365
   7 C :   -0.175397
   8 N :    0.056691
   9 H :    0.166361
  10 H :    0.165730
  11 H :    0.148468
  12 H :    0.147402
  13 H :    0.139633
  14 H :    0.134335
  15 H :    0.119536
  16 H :    0.119356
  17 H :    0.165416

  Mayer bond orders larger than 0.1
B(  0-N ,  1-C ) :   0.9576 B(  0-N ,  9-H ) :   0.8854 B(  0-N , 10-H ) :   0.8867
B(  1-C ,  2-C ) :   0.8448 B(  1-C ,  3-C ) :   0.7746 B(  1-C ,  7-C ) :   0.9842
B(  2-C ,  3-C ) :   0.8888 B(  2-C , 11-H ) :   0.9099 B(  2-C , 12-H ) :   0.9215
B(  3-C ,  4-C ) :   0.8907 B(  3-C ,  6-N ) :   1.0674 B(  4-C ,  5-C ) :   0.9650
B(  4-C , 13-H ) :   0.9152 B(  4-C , 14-H ) :   0.9223 B(  5-C ,  6-N ) :   0.9699
B(  5-C , 15-H ) :   0.9200 B(  5-C , 16-H ) :   0.9170 B(  6-N , 17-H ) :   0.8694
B(  7-C ,  8-N ) :   2.8498

MP2 TOTAL ENERGY:     -397.406885896 Eh
FINAL SINGLE POINT ENERGY      -397.406885896145

DIPOLE MOMENT
-------------
                                X             Y             Z
Electronic contribution:      5.61675      -1.49499      -1.66839
Nuclear contribution   :     -6.36576       2.41697       2.01356
                        -----------------------------------------
Total Dipole Moment    :     -0.74900       0.92197       0.34517
                        -----------------------------------------
Magnitude (a.u.)       :      1.23701
Magnitude (Debye)      :      3.14422

                             ****ORCA TERMINATED NORMALLY****
TOTAL RUN TIME: 0 days 0 hours 18 minutes 1 seconds 275 msec
