                         Program Version 3.0.3 - RELEASE   -
|  1> ! RI-MP2 RIJK def2-TZVP def2-TZVP/C def2-TZVP/JK TIGHTSCF
|  2> % maxcore 2000
|  3> % mp2 density relaxed end
|  4> *xyz 0 1
|  5>  C        0.0684888528     1.5424849533     0.1515788834
|  6>  C       -0.0110077515     0.0049766826     0.0255196180
|  7>  C        0.6152721431    -0.5995633331     1.3016258030
|  8>  C       -1.5058222123    -0.3842779181     0.0113703782
|  9>  C        0.7313412639    -0.5065575021    -1.2804494294
| 10>  C        2.1378450232     0.1190393522    -1.4091773948
| 11>  C        0.9044239770    -2.0414380048    -1.2638267030
| 12>  C       -0.0593072972    -0.1409311201    -2.5560812385
| 13>  H        1.0886407463     1.8867275803     0.3422640532
| 14>  H       -0.2978484982     2.0531916404    -0.7441395074
| 15>  H       -0.5497751063     1.8780138112     0.9912937407
| 16>  H        0.1650133325    -0.1407375885     2.1885858309
| 17>  H        0.4445908161    -1.6772767499     1.3722124853
| 18>  H        1.6938442880    -0.4244671585     1.3591897432
| 19>  H       -2.0609898003     0.1460733299    -0.7671412526
| 20>  H       -1.6550546189    -1.4576758636    -0.1398213722
| 21>  H       -1.9653393469    -0.1255488750     0.9714932272
| 22>  H        2.7469109730    -0.0384991359    -0.5139622658
| 23>  H        2.6717804828    -0.3390276606    -2.2488368855
| 24>  H        2.0931313861     1.1945174441    -1.6013547489
| 25>  H       -0.0437797178    -2.5655225272    -1.1105511132
| 26>  H        1.3096556385    -2.3792096357    -2.2238514298
| 27>  H        1.5995424175    -2.3679314370    -0.4854999372
| 28>  H       -0.2834536135     0.9284415877    -2.6145358623
| 29>  H        0.5295233920    -0.3974451422    -3.4434449189
| 30>  H       -1.0038457596    -0.6874621794    -2.6245087236
| 31> *
| 32>
| 33>                          ****END OF INPUT****

CARTESIAN COORDINATES (ANGSTROEM)
---------------------------------
  C      0.068489    1.542485    0.151579
  C     -0.011008    0.004977    0.025520
  C      0.615272   -0.599563    1.301626
  C     -1.505822   -0.384278    0.011370
  C      0.731341   -0.506558   -1.280449
  C      2.137845    0.119039   -1.409177
  C      0.904424   -2.041438   -1.263827
  C     -0.059307   -0.140931   -2.556081
  H      1.088641    1.886728    0.342264
  H     -0.297848    2.053192   -0.744140
  H     -0.549775    1.878014    0.991294
  H      0.165013   -0.140738    2.188586
  H      0.444591   -1.677277    1.372212
  H      1.693844   -0.424467    1.359190
  H     -2.060990    0.146073   -0.767141
  H     -1.655055   -1.457676   -0.139821
  H     -1.965339   -0.125549    0.971493
  H      2.746911   -0.038499   -0.513962
  H      2.671780   -0.339028   -2.248837
  H      2.093131    1.194517   -1.601355
  H     -0.043780   -2.565523   -1.110551
  H      1.309656   -2.379210   -2.223851
  H      1.599542   -2.367931   -0.485500
  H     -0.283454    0.928442   -2.614536
  H      0.529523   -0.397445   -3.443445
  H     -1.003846   -0.687462   -2.624509

 Total Charge           Charge          ....    0
 Multiplicity           Mult            ....    1
 Number of Electrons    NEL             ....   66
 Basis Dimension        Dim             ....  356

ORBITAL ENERGIES
----------------

  NO   OCC          E(Eh)            E(eV)
   0   2.0000     -11.233020      -305.6660
   1   2.0000     -11.232523      -305.6525
   2   2.0000     -11.205765      -304.9244
   3   2.0000     -11.205764      -304.9243
   4   2.0000     -11.205754      -304.9241
   5   2.0000     -11.205752      -304.9240
   6   2.0000     -11.205739      -304.9237
   7   2.0000     -11.205728      -304.9234
   8   2.0000      -1.119855       -30.4728
   9   2.0000      -1.034717       -28.1561
  10   2.0000      -0.938175       -25.5290
  11   2.0000      -0.938166       -25.5288
  12   2.0000      -0.908894       -24.7323
  13   2.0000      -0.908888       -24.7321
  14   2.0000      -0.802654       -21.8413
  15   2.0000      -0.691546       -18.8179
  16   2.0000      -0.644354       -17.5338
  17   2.0000      -0.603092       -16.4110
  18   2.0000      -0.603089       -16.4109
  19   2.0000      -0.588474       -16.0132
  20   2.0000      -0.588457       -16.0127
  21   2.0000      -0.551300       -15.0016
  22   2.0000      -0.530721       -14.4416
  23   2.0000      -0.530704       -14.4412
  24   2.0000      -0.522218       -14.2103
  25   2.0000      -0.509190       -13.8558
  26   2.0000      -0.509183       -13.8556
  27   2.0000      -0.495858       -13.4930
  28   2.0000      -0.480739       -13.0816
  29   2.0000      -0.480728       -13.0813
  30   2.0000      -0.432147       -11.7593
  31   2.0000      -0.432139       -11.7591
  32   2.0000      -0.423246       -11.5171
  33   0.0000       0.129525         3.5246
  34   0.0000       0.162797         4.4299
  35   0.0000       0.173215         4.7134
  36   0.0000       0.173222         4.7136
  37   0.0000       0.192225         5.2307

MULLIKEN ATOMIC CHARGES
-----------------------
   0 C :   -0.443245
   1 C :    0.129120
   2 C :   -0.443327
   3 C :   -0.443275
   4 C :    0.129204
   5 C :   -0.443254
   6 C :   -0.443271
   7 C :   -0.443249
   8 H :    0.140138
   9 H :    0.128355
  10 H :    0.131716
  11 H :    0.131721
  12 H :    0.140142
  13 H :    0.128378
  14 H :    0.140143
  15 H :    0.128371
  16 H :    0.131711
  17 H :    0.128363
  18 H :    0.131709
  19 H :    0.140137
  20 H :    0.128360
  21 H :    0.131711
  22 H :    0.140136
  23 H :    0.128359
  24 H :    0.131714
  25 H :    0.140132
Sum of atomic charges:   -0.0000000

LOEWDIN ATOMIC CHARGES
----------------------
   0 C :   -0.273476
   1 C :   -0.298460
   2 C :   -0.273487
   3 C :   -0.273469
   4 C :   -0.298481
   5 C :   -0.273465
   6 C :   -0.273464
   7 C :   -0.273461
   8 H :    0.125139
   9 H :    0.121931
  10 H :    0.125893
  11 H :    0.125902
  12 H :    0.125129
  13 H :    0.121931
  14 H :    0.125137
  15 H :    0.121934
  16 H :    0.125890
  17 H :    0.121925
  18 H :    0.125893
  19 H :    0.125133
  20 H :    0.121931
  21 H :    0.125892
  22 H :    0.125142
  23 H :    0.121931
  24 H :    0.125896
  25 H :    0.125135

  Mayer bond orders larger than 0.1
B(  0-C ,  1-C ) :   0.8992 B(  0-C ,  8-H ) :   0.9372 B(  0-C ,  9-H ) :   0.9370
B(  0-C , 10-H ) :   0.9361 B(  1-C ,  2-C ) :   0.8992 B(  1-C ,  3-C ) :   0.8992
B(  1-C ,  4-C ) :   0.8477 B(  2-C , 11-H ) :   0.9361 B(  2-C , 12-H ) :   0.9372
B(  2-C , 13-H ) :   0.9370 B(  3-C , 14-H ) :   0.9372 B(  3-C , 15-H ) :   0.9370
B(  3-C , 16-H ) :   0.9361 B(  4-C ,  5-C ) :   0.8992 B(  4-C ,  6-C ) :   0.8992
B(  4-C ,  7-C ) :   0.8991 B(  5-C , 17-H ) :   0.9370 B(  5-C , 18-H ) :   0.9361
B(  5-C , 19-H ) :   0.9372 B(  6-C , 20-H ) :   0.9370 B(  6-C , 21-H ) :   0.9361
B(  6-C , 22-H ) :   0.9372 B(  7-C , 23-H ) :   0.9370 B(  7-C , 24-H ) :   0.9361
B(  7-C , 25-H ) :   0.9372

MP2 TOTAL ENERGY:     -314.917687858 Eh
FINAL SINGLE POINT ENERGY      -314.917687858337

DIPOLE MOMENT
-------------
                                X             Y             Z
Electronic contribution:      0.00016      -0.00018      -0.00082
Nuclear contribution   :     -0.00018       0.00021       0.00089
                        -----------------------------------------
Total Dipole Moment    :     -0.00002       0.00002       0.00008
                        -----------------------------------------
Magnitude (a.u.)       :      0.00008
Magnitude (Debye)      :      0.00021

                             ****ORCA TERMINATED NORMALLY****
TOTAL RUN TIME: 0 days 0 hours 19 minutes 57 seconds 190 msec
