                         Program Version 3.0.3 - RELEASE   -
|  1> ! RI-MP2 RIJK def2-TZVP def2-TZVP/C def2-TZVP/JK TIGHTSCF
|  2> % maxcore 2000
|  3> % mp2 density relaxed end
|  4> *xyz 0 1
|  5>  C        0.1103102757     1.5166428025    -0.2874988370
|  6>  C        0.0299492284     0.0297007753    -0.0024302444
|  7>  C        1.2637008871    -0.8301191349    -0.1192539648
|  8>  C        0.6809857453    -0.5212754475     1.2392834072
|  9>  N       -1.2019807047    -0.6007260316    -0.4125419017
| 10>  C       -2.3888926386    -0.4053595223     0.2270784408
| 11>  O       -2.5394951119     0.2349070539     1.2447980901
| 12>  H        1.0693995457     1.9242155095     0.0452772214
| 13>  H        0.0098974225     1.7185254938    -1.3599408667
| 14>  H       -0.6894660925     2.0415718904     0.2420985000
| 15>  H        1.1453992800    -1.8391299287    -0.4997865900
| 16>  H        2.1874550682    -0.3442349464    -0.4134076472
| 17>  H        1.2043403083     0.1777490990     1.8815477674
| 18>  H        0.1644198978    -1.3157159456     1.7630568555
| 19>  H       -1.2272193241    -1.0573641305    -1.3118205382
| 20>  H       -3.2216835871    -0.9223205670    -0.2935342824
| 21> *
| 22>
| 23>                          ****END OF INPUT****

CARTESIAN COORDINATES (ANGSTROEM)
---------------------------------
  C      0.110310    1.516643   -0.287499
  C      0.029949    0.029701   -0.002430
  C      1.263701   -0.830119   -0.119254
  C      0.680986   -0.521275    1.239283
  N     -1.201981   -0.600726   -0.412542
  C     -2.388893   -0.405360    0.227078
  O     -2.539495    0.234907    1.244798
  H      1.069400    1.924216    0.045277
  H      0.009897    1.718525   -1.359941
  H     -0.689466    2.041572    0.242098
  H      1.145399   -1.839130   -0.499787
  H      2.187455   -0.344235   -0.413408
  H      1.204340    0.177749    1.881548
  H      0.164420   -1.315716    1.763057
  H     -1.227219   -1.057364   -1.311821
  H     -3.221684   -0.922321   -0.293534

 Total Charge           Charge          ....    0
 Multiplicity           Mult            ....    1
 Number of Electrons    NEL             ....   54
 Basis Dimension        Dim             ....  271

ORBITAL ENERGIES
----------------

  NO   OCC          E(Eh)            E(eV)
   0   2.0000     -20.521891      -558.4290
   1   2.0000     -15.588902      -424.1956
   2   2.0000     -11.347198      -308.7730
   3   2.0000     -11.278955      -306.9160
   4   2.0000     -11.233859      -305.6888
   5   2.0000     -11.228200      -305.5349
   6   2.0000     -11.219066      -305.2863
   7   2.0000      -1.382194       -37.6114
   8   2.0000      -1.248664       -33.9779
   9   2.0000      -1.129291       -30.7296
  10   2.0000      -0.970844       -26.4180
  11   2.0000      -0.862822       -23.4786
  12   2.0000      -0.835790       -22.7430
  13   2.0000      -0.761618       -20.7247
  14   2.0000      -0.723639       -19.6912
  15   2.0000      -0.673244       -18.3199
  16   2.0000      -0.645070       -17.5533
  17   2.0000      -0.612359       -16.6631
  18   2.0000      -0.576405       -15.6848
  19   2.0000      -0.569791       -15.5048
  20   2.0000      -0.545449       -14.8424
  21   2.0000      -0.532445       -14.4886
  22   2.0000      -0.519776       -14.1438
  23   2.0000      -0.452539       -12.3142
  24   2.0000      -0.431017       -11.7286
  25   2.0000      -0.410696       -11.1756
  26   2.0000      -0.387580       -10.5466
  27   0.0000       0.127838         3.4787
  28   0.0000       0.153408         4.1744
  29   0.0000       0.171116         4.6563
  30   0.0000       0.179384         4.8813
  31   0.0000       0.183213         4.9855

MULLIKEN ATOMIC CHARGES
-----------------------
   0 C :   -0.406710
   1 C :    0.230297
   2 C :   -0.316982
   3 C :   -0.255456
   4 N :   -0.362542
   5 C :    0.200137
   6 O :   -0.357562
   7 H :    0.122485
   8 H :    0.119399
   9 H :    0.163370
  10 H :    0.135791
  11 H :    0.134025
  12 H :    0.136279
  13 H :    0.139364
  14 H :    0.239883
  15 H :    0.078222
Sum of atomic charges:   -0.0000000

LOEWDIN ATOMIC CHARGES
----------------------
   0 C :   -0.264826
   1 C :   -0.313295
   2 C :   -0.212559
   3 C :   -0.196452
   4 N :    0.123420
   5 C :   -0.431639
   6 O :    0.065765
   7 H :    0.129538
   8 H :    0.123953
   9 H :    0.135552
  10 H :    0.133361
  11 H :    0.134758
  12 H :    0.136415
  13 H :    0.139635
  14 H :    0.187889
  15 H :    0.108485

  Mayer bond orders larger than 0.1
B(  0-C ,  1-C ) :   0.9229 B(  0-C ,  7-H ) :   0.9277 B(  0-C ,  8-H ) :   0.9324
B(  0-C ,  9-H ) :   0.9359 B(  1-C ,  2-C ) :   0.8791 B(  1-C ,  3-C ) :   0.8755
B(  1-C ,  4-N ) :   0.7668 B(  2-C ,  3-C ) :   0.8930 B(  2-C , 10-H ) :   0.9258
B(  2-C , 11-H ) :   0.9275 B(  3-C , 12-H ) :   0.9308 B(  3-C , 13-H ) :   0.9289
B(  4-N ,  5-C ) :   1.1425 B(  4-N , 14-H ) :   0.8674 B(  5-C ,  6-O ) :   1.8975
B(  5-C , 15-H ) :   0.9281

MP2 TOTAL ENERGY:     -325.240986224 Eh
FINAL SINGLE POINT ENERGY      -325.240986224295

DIPOLE MOMENT
-------------
                                X             Y             Z
Electronic contribution:     -5.02835      -1.43385       1.11786
Nuclear contribution   :      5.72139       0.94008      -2.22941
                        -----------------------------------------
Total Dipole Moment    :      0.69304      -0.49376      -1.11155
                        -----------------------------------------
Magnitude (a.u.)       :      1.39988
Magnitude (Debye)      :      3.55820

                             ****ORCA TERMINATED NORMALLY****
TOTAL RUN TIME: 0 days 0 hours 8 minutes 35 seconds 237 msec
