                         Program Version 3.0.3 - RELEASE   -
|  1> ! RI-MP2 RIJK def2-TZVP def2-TZVP/C def2-TZVP/JK TIGHTSCF
|  2> % maxcore 2000
|  3> % mp2 density relaxed end
|  4> *xyz 0 1
|  5>  O        0.0580403483     1.3744517209    -0.1645972772
|  6>  C        0.1266135250    -0.0289458624    -0.0027077043
|  7>  C        0.4908964711    -0.3946759413     1.4358134480
|  8>  O        0.5871511294    -1.8132952288     1.6271807843
|  9>  C       -0.3357373499    -2.6496571978     1.0955329433
| 10>  O       -0.3212356677    -3.8151988854     1.3582217071
| 11>  C       -1.3727575146    -2.0577571028     0.0865897055
| 12>  O       -2.2218808756    -2.7885268644    -0.3451836865
| 13>  C       -1.2526580909    -0.5977456548    -0.3078972501
| 14>  H        0.9523377680     1.7311192578    -0.1620771324
| 15>  H        0.8726394444    -0.4751128449    -0.6787222832
| 16>  H        1.4730125284    -0.0018758372     1.7113714865
| 17>  H       -0.2519975369     0.0285909624     2.1235343905
| 18>  H       -1.9894677390    -0.0336440052     0.2817450676
| 19>  H       -1.5333694000    -0.4856730862    -1.3580641491
| 20> *
| 21>
| 22>                          ****END OF INPUT****

CARTESIAN COORDINATES (ANGSTROEM)
---------------------------------
  O      0.058040    1.374452   -0.164597
  C      0.126614   -0.028946   -0.002708
  C      0.490896   -0.394676    1.435813
  O      0.587151   -1.813295    1.627181
  C     -0.335737   -2.649657    1.095533
  O     -0.321236   -3.815199    1.358222
  C     -1.372758   -2.057757    0.086590
  O     -2.221881   -2.788527   -0.345184
  C     -1.252658   -0.597746   -0.307897
  H      0.952338    1.731119   -0.162077
  H      0.872639   -0.475113   -0.678722
  H      1.473013   -0.001876    1.711371
  H     -0.251998    0.028591    2.123534
  H     -1.989468   -0.033644    0.281745
  H     -1.533369   -0.485673   -1.358064

 Total Charge           Charge          ....    0
 Multiplicity           Mult            ....    1
 Number of Electrons    NEL             ....   68
 Basis Dimension        Dim             ....  315

ORBITAL ENERGIES
----------------

  NO   OCC          E(Eh)            E(eV)
   0   2.0000     -20.626324      -561.2708
   1   2.0000     -20.599482      -560.5404
   2   2.0000     -20.587435      -560.2126
   3   2.0000     -20.564261      -559.5820
   4   2.0000     -11.401138      -310.2407
   5   2.0000     -11.369267      -309.3735
   6   2.0000     -11.328089      -308.2530
   7   2.0000     -11.323386      -308.1250
   8   2.0000     -11.269155      -306.6493
   9   2.0000      -1.481847       -40.3231
  10   2.0000      -1.427704       -38.8498
  11   2.0000      -1.408193       -38.3189
  12   2.0000      -1.383193       -37.6386
  13   2.0000      -1.105628       -30.0857
  14   2.0000      -1.021269       -27.7901
  15   2.0000      -0.902974       -24.5712
  16   2.0000      -0.883023       -24.0283
  17   2.0000      -0.776917       -21.1410
  18   2.0000      -0.755376       -20.5548
  19   2.0000      -0.717041       -19.5117
  20   2.0000      -0.702091       -19.1049
  21   2.0000      -0.676380       -18.4052
  22   2.0000      -0.647797       -17.6275
  23   2.0000      -0.637874       -17.3574
  24   2.0000      -0.636623       -17.3234
  25   2.0000      -0.610573       -16.6145
  26   2.0000      -0.596318       -16.2267
  27   2.0000      -0.578947       -15.7540
  28   2.0000      -0.527881       -14.3644
  29   2.0000      -0.517584       -14.0842
  30   2.0000      -0.500272       -13.6131
  31   2.0000      -0.490429       -13.3452
  32   2.0000      -0.463844       -12.6218
  33   2.0000      -0.432722       -11.7750
  34   0.0000       0.060080         1.6349
  35   0.0000       0.105729         2.8770
  36   0.0000       0.136718         3.7203
  37   0.0000       0.152523         4.1504
  38   0.0000       0.164608         4.4792

MULLIKEN ATOMIC CHARGES
-----------------------
   0 O :   -0.447801
   1 C :    0.005711
   2 C :   -0.090078
   3 O :   -0.204193
   4 C :    0.237829
   5 O :   -0.236259
   6 C :    0.102377
   7 O :   -0.216882
   8 C :   -0.164486
   9 H :    0.325436
  10 H :    0.108104
  11 H :    0.135661
  12 H :    0.131923
  13 H :    0.151711
  14 H :    0.160947
Sum of atomic charges:   -0.0000000

LOEWDIN ATOMIC CHARGES
----------------------
   0 O :    0.001577
   1 C :   -0.363086
   2 C :   -0.268211
   3 O :    0.263878
   4 C :   -0.449764
   5 O :    0.182068
   6 C :   -0.289796
   7 O :    0.212190
   8 C :   -0.209891
   9 H :    0.181450
  10 H :    0.141903
  11 H :    0.135054
  12 H :    0.135004
  13 H :    0.168746
  14 H :    0.158878

  Mayer bond orders larger than 0.1
B(  0-O ,  1-C ) :   1.0166 B(  0-O ,  9-H ) :   0.8402 B(  1-C ,  2-C ) :   0.8993
B(  1-C ,  8-C ) :   0.8850 B(  1-C , 10-H ) :   0.9372 B(  2-C ,  3-O ) :   0.8553
B(  2-C , 11-H ) :   0.9296 B(  2-C , 12-H ) :   0.9201 B(  3-O ,  4-C ) :   1.1052
B(  4-C ,  5-O ) :   2.0372 B(  4-C ,  6-C ) :   0.8548 B(  6-C ,  7-O ) :   1.9787
B(  6-C ,  8-C ) :   0.8811 B(  8-C , 13-H ) :   0.8980 B(  8-C , 14-H ) :   0.9064

MP2 TOTAL ENERGY:     -494.171681389 Eh
FINAL SINGLE POINT ENERGY      -494.171681389422

DIPOLE MOMENT
-------------
                                X             Y             Z
Electronic contribution:     -1.21370      -6.54778       0.99279
Nuclear contribution   :      2.10396       8.51322      -1.19210
                        -----------------------------------------
Total Dipole Moment    :      0.89026       1.96544      -0.19931
                        -----------------------------------------
Magnitude (a.u.)       :      2.16685
Magnitude (Debye)      :      5.50770

                             ****ORCA TERMINATED NORMALLY****
TOTAL RUN TIME: 0 days 0 hours 14 minutes 13 seconds 206 msec
