                         Program Version 3.0.3 - RELEASE   -
|  1> ! RI-MP2 RIJK def2-TZVP def2-TZVP/C def2-TZVP/JK TIGHTSCF
|  2> % maxcore 2000
|  3> % mp2 density relaxed end
|  4> *xyz 0 1
|  5>  O       -0.0684427185    -0.0388657262     0.0214694910
|  6>  C        0.0000744104     1.1732696374     0.0226998834
|  7>  C        1.2414050345     1.9309232933    -0.0432863722
|  8>  C        1.3571465158     3.2713034216     0.0558945040
|  9>  C        2.7815333766     3.6564718267    -0.0157298561
| 10>  C        3.8124964544     2.8717650867     0.8561240167
| 11>  C        3.2553403934     1.5480465912     1.3567431324
| 12>  C        2.6264213822     1.3248772736    -0.0760579925
| 13>  C        3.5573723675     2.4833551430    -0.5745549843
| 14>  H       -0.9195011859     1.8002464086     0.0618903612
| 15>  H        0.5401180512     3.9704491781     0.1942768214
| 16>  H        3.0795611847     4.6690982312    -0.2591084849
| 17>  H        4.6428827185     3.4236105754     1.2798748369
| 18>  H        4.0707740048     0.8412179992     1.5269120636
| 19>  H        2.5727403619     1.5377037871     2.2121775390
| 20>  H        2.7009349103     0.3269706225    -0.4995655341
| 21>  H        4.1952471479     2.5151760307    -1.4492302654
| 22> *
| 23>
| 24>                          ****END OF INPUT****

CARTESIAN COORDINATES (ANGSTROEM)
---------------------------------
  O     -0.068443   -0.038866    0.021469
  C      0.000074    1.173270    0.022700
  C      1.241405    1.930923   -0.043286
  C      1.357147    3.271303    0.055895
  C      2.781533    3.656472   -0.015730
  C      3.812496    2.871765    0.856124
  C      3.255340    1.548047    1.356743
  C      2.626421    1.324877   -0.076058
  C      3.557372    2.483355   -0.574555
  H     -0.919501    1.800246    0.061890
  H      0.540118    3.970449    0.194277
  H      3.079561    4.669098   -0.259108
  H      4.642883    3.423611    1.279875
  H      4.070774    0.841218    1.526912
  H      2.572740    1.537704    2.212178
  H      2.700935    0.326971   -0.499566
  H      4.195247    2.515176   -1.449230

 Total Charge           Charge          ....    0
 Multiplicity           Mult            ....    1
 Number of Electrons    NEL             ....   64
 Basis Dimension        Dim             ....  327

ORBITAL ENERGIES
----------------

  NO   OCC          E(Eh)            E(eV)
   0   2.0000     -20.543111      -559.0065
   1   2.0000     -11.325262      -308.1760
   2   2.0000     -11.261298      -306.4355
   3   2.0000     -11.252073      -306.1845
   4   2.0000     -11.251490      -306.1686
   5   2.0000     -11.247293      -306.0544
   6   2.0000     -11.246134      -306.0229
   7   2.0000     -11.235592      -305.7360
   8   2.0000     -11.235526      -305.7342
   9   2.0000      -1.379249       -37.5313
  10   2.0000      -1.232468       -33.5372
  11   2.0000      -1.071658       -29.1613
  12   2.0000      -1.007995       -27.4290
  13   2.0000      -0.900866       -24.5138
  14   2.0000      -0.888531       -24.1782
  15   2.0000      -0.781146       -21.2561
  16   2.0000      -0.770943       -20.9784
  17   2.0000      -0.721241       -19.6260
  18   2.0000      -0.711786       -19.3687
  19   2.0000      -0.657853       -17.9011
  20   2.0000      -0.639200       -17.3935
  21   2.0000      -0.598965       -16.2987
  22   2.0000      -0.581460       -15.8223
  23   2.0000      -0.565581       -15.3902
  24   2.0000      -0.539483       -14.6801
  25   2.0000      -0.516639       -14.0585
  26   2.0000      -0.495763       -13.4904
  27   2.0000      -0.473896       -12.8954
  28   2.0000      -0.435516       -11.8510
  29   2.0000      -0.419528       -11.4159
  30   2.0000      -0.401016       -10.9122
  31   2.0000      -0.339847        -9.2477
  32   0.0000       0.083060         2.2602
  33   0.0000       0.145788         3.9671
  34   0.0000       0.161205         4.3866
  35   0.0000       0.164281         4.4703
  36   0.0000       0.172062         4.6821

MULLIKEN ATOMIC CHARGES
-----------------------
   0 O :   -0.290312
   1 C :    0.038145
   2 C :   -0.039621
   3 C :   -0.167504
   4 C :   -0.089412
   5 C :   -0.141864
   6 C :   -0.225898
   7 C :    0.039131
   8 C :   -0.160828
   9 H :    0.075173
  10 H :    0.141624
  11 H :    0.140387
  12 H :    0.135294
  13 H :    0.127744
  14 H :    0.118948
  15 H :    0.150058
  16 H :    0.148933
Sum of atomic charges:   -0.0000000

LOEWDIN ATOMIC CHARGES
----------------------
   0 O :    0.116064
   1 C :   -0.282319
   2 C :   -0.153592
   3 C :   -0.070447
   4 C :   -0.157024
   5 C :   -0.151939
   6 C :   -0.180348
   7 C :   -0.119417
   8 C :   -0.111946
   9 H :    0.116555
  10 H :    0.145482
  11 H :    0.151815
  12 H :    0.138089
  13 H :    0.144384
  14 H :    0.128762
  15 H :    0.149274
  16 H :    0.136607

  Mayer bond orders larger than 0.1
B(  0-O ,  1-C ) :   1.9716 B(  0-O ,  2-C ) :  -0.1114 B(  1-C ,  2-C ) :   0.8887
B(  1-C ,  9-H ) :   0.9825 B(  2-C ,  3-C ) :   1.6442 B(  2-C ,  7-C ) :   0.9130
B(  2-C ,  9-H ) :  -0.1093 B(  3-C ,  4-C ) :   0.9895 B(  3-C , 10-H ) :   0.9181
B(  4-C ,  5-C ) :   0.7997 B(  4-C ,  8-C ) :   0.8774 B(  4-C , 11-H ) :   0.9290
B(  5-C ,  6-C ) :   0.9873 B(  5-C ,  8-C ) :   0.8692 B(  5-C , 12-H ) :   0.9245
B(  6-C ,  7-C ) :   0.8697 B(  6-C , 13-H ) :   0.9222 B(  6-C , 14-H ) :   0.9194
B(  7-C ,  8-C ) :   0.8772 B(  7-C , 15-H ) :   0.9217 B(  8-C , 16-H ) :   0.9055

MP2 TOTAL ENERGY:     -383.991330615 Eh
FINAL SINGLE POINT ENERGY      -383.991330615259

DIPOLE MOMENT
-------------
                                X             Y             Z
Electronic contribution:     -3.54616      -1.83024      -1.43204
Nuclear contribution   :      4.33504       3.01169       1.47374
                        -----------------------------------------
Total Dipole Moment    :      0.78888       1.18146       0.04170
                        -----------------------------------------
Magnitude (a.u.)       :      1.42123
Magnitude (Debye)      :      3.61249

                             ****ORCA TERMINATED NORMALLY****
TOTAL RUN TIME: 0 days 0 hours 18 minutes 37 seconds 743 msec
