                         Program Version 3.0.3 - RELEASE   -
|  1> ! RI-MP2 RIJK def2-TZVP def2-TZVP/C def2-TZVP/JK TIGHTSCF
|  2> % maxcore 2000
|  3> % mp2 density relaxed end
|  4> *xyz 0 1
|  5>  C       -0.3327713831     1.5421321328    -0.1462046290
|  6>  C        0.0363730430     0.0637423881    -0.0012240762
|  7>  C        1.2597763112    -0.5794955780    -0.7164057021
|  8>  C        2.2193103165     0.0432090167     0.3590357150
|  9>  O        2.6133913381     1.3891100693     0.4220664060
| 10>  C        0.9755097222    -0.5237213445     1.1172408083
| 11>  C        0.7196799899    -0.6104507996     2.5941851901
| 12>  N        1.0314772685    -1.7529371931     0.2145782343
| 13>  C        2.0707410907    -2.7639292121     0.4000727885
| 14>  H        0.4374106686     2.1443156176    -0.6361666440
| 15>  H       -1.2282012691     1.6387285614    -0.7677214186
| 16>  H       -0.5730263191     2.0018129227     0.8202957788
| 17>  H       -0.8496392096    -0.5685255932    -0.0989197336
| 18>  H        1.4166341375    -0.7223941392    -1.7875229792
| 19>  H        3.1418054684    -0.5165844692     0.5035763203
| 20>  H        1.8413172641     1.9477185314     0.5334804172
| 21>  H        0.6926469657     0.3901524670     3.0390276807
| 22>  H       -0.2371291999    -1.1026050497     2.7959262909
| 23>  H        1.5109015058    -1.1744719809     3.0999753225
| 24>  H        1.8086794130    -3.3659894115     1.2766331464
| 25>  H        2.0509902623    -3.4290750689    -0.4696966166
| 26>  H        3.1067487452    -2.4189443173     0.5304366806
| 27> *
| 28>
| 29>                          ****END OF INPUT****

CARTESIAN COORDINATES (ANGSTROEM)
---------------------------------
  C     -0.332771    1.542132   -0.146205
  C      0.036373    0.063742   -0.001224
  C      1.259776   -0.579496   -0.716406
  C      2.219310    0.043209    0.359036
  O      2.613391    1.389110    0.422066
  C      0.975510   -0.523721    1.117241
  C      0.719680   -0.610451    2.594185
  N      1.031477   -1.752937    0.214578
  C      2.070741   -2.763929    0.400073
  H      0.437411    2.144316   -0.636167
  H     -1.228201    1.638729   -0.767721
  H     -0.573026    2.001813    0.820296
  H     -0.849639   -0.568526   -0.098920
  H      1.416634   -0.722394   -1.787523
  H      3.141805   -0.516584    0.503576
  H      1.841317    1.947719    0.533480
  H      0.692647    0.390152    3.039028
  H     -0.237129   -1.102605    2.795926
  H      1.510902   -1.174472    3.099975
  H      1.808679   -3.365989    1.276633
  H      2.050990   -3.429075   -0.469697
  H      3.106749   -2.418944    0.530437

 Total Charge           Charge          ....    0
 Multiplicity           Mult            ....    1
 Number of Electrons    NEL             ....   70
 Basis Dimension        Dim             ....  357

ORBITAL ENERGIES
----------------

  NO   OCC          E(Eh)            E(eV)
   0   2.0000     -20.557727      -559.4042
   1   2.0000     -15.551031      -423.1651
   2   2.0000     -11.282078      -307.0010
   3   2.0000     -11.273174      -306.7587
   4   2.0000     -11.265396      -306.5470
   5   2.0000     -11.238889      -305.8257
   6   2.0000     -11.236066      -305.7489
   7   2.0000     -11.227658      -305.5201
   8   2.0000     -11.222781      -305.3874
   9   2.0000      -1.370032       -37.2805
  10   2.0000      -1.276744       -34.7420
  11   2.0000      -1.060899       -28.8685
  12   2.0000      -0.999385       -27.1947
  13   2.0000      -0.981364       -26.7043
  14   2.0000      -0.898735       -24.4558
  15   2.0000      -0.835208       -22.7272
  16   2.0000      -0.824459       -22.4347
  17   2.0000      -0.756658       -20.5897
  18   2.0000      -0.649611       -17.6768
  19   2.0000      -0.645812       -17.5735
  20   2.0000      -0.634727       -17.2718
  21   2.0000      -0.611536       -16.6407
  22   2.0000      -0.588998       -16.0275
  23   2.0000      -0.571391       -15.5483
  24   2.0000      -0.569258       -15.4903
  25   2.0000      -0.563069       -15.3219
  26   2.0000      -0.553449       -15.0601
  27   2.0000      -0.550924       -14.9914
  28   2.0000      -0.539537       -14.6816
  29   2.0000      -0.474612       -12.9149
  30   2.0000      -0.453618       -12.3436
  31   2.0000      -0.446417       -12.1476
  32   2.0000      -0.426654       -11.6098
  33   2.0000      -0.405651       -11.0383
  34   2.0000      -0.358664        -9.7597
  35   0.0000       0.129199         3.5157
  36   0.0000       0.150935         4.1071
  37   0.0000       0.166470         4.5299
  38   0.0000       0.180353         4.9076
  39   0.0000       0.186393         5.0720

MULLIKEN ATOMIC CHARGES
-----------------------
   0 C :   -0.484397
   1 C :   -0.017346
   2 C :   -0.057698
   3 C :    0.032331
   4 O :   -0.445386
   5 C :    0.020849
   6 C :   -0.424604
   7 N :   -0.186272
   8 C :   -0.334790
   9 H :    0.135794
  10 H :    0.147549
  11 H :    0.152213
  12 H :    0.098190
  13 H :    0.133255
  14 H :    0.106184
  15 H :    0.320242
  16 H :    0.134358
  17 H :    0.146888
  18 H :    0.141518
  19 H :    0.139334
  20 H :    0.142874
  21 H :    0.098914
Sum of atomic charges:    0.0000000

LOEWDIN ATOMIC CHARGES
----------------------
   0 C :   -0.311412
   1 C :   -0.195962
   2 C :   -0.173702
   3 C :   -0.275650
   4 O :   -0.006881
   5 C :   -0.240586
   6 C :   -0.276619
   7 N :    0.127415
   8 C :   -0.341236
   9 H :    0.122075
  10 H :    0.130193
  11 H :    0.126402
  12 H :    0.150947
  13 H :    0.122556
  14 H :    0.134919
  15 H :    0.167759
  16 H :    0.132620
  17 H :    0.134122
  18 H :    0.132236
  19 H :    0.119255
  20 H :    0.120715
  21 H :    0.100833

  Mayer bond orders larger than 0.1
B(  0-C ,  1-C ) :   0.8610 B(  0-C ,  9-H ) :   0.9322 B(  0-C , 10-H ) :   0.9377
B(  0-C , 11-H ) :   0.9358 B(  1-C ,  2-C ) :   0.8822 B(  1-C ,  5-C ) :   0.8635
B(  1-C , 12-H ) :   0.8939 B(  2-C ,  3-C ) :   0.8348 B(  2-C ,  7-N ) :   0.8871
B(  2-C , 13-H ) :   0.8827 B(  3-C ,  4-O ) :   1.0416 B(  3-C ,  5-C ) :   0.8723
B(  3-C , 14-H ) :   0.9816 B(  4-O , 15-H ) :   0.8358 B(  5-C ,  6-C ) :   0.8341
B(  5-C ,  7-N ) :   0.8766 B(  6-C , 16-H ) :   0.9305 B(  6-C , 17-H ) :   0.9492
B(  6-C , 18-H ) :   0.9379 B(  7-N ,  8-C ) :   0.9053 B(  8-C , 19-H ) :   0.9394
B(  8-C , 20-H ) :   0.9390 B(  8-C , 21-H ) :   0.9163

MP2 TOTAL ENERGY:     -403.584488398 Eh
FINAL SINGLE POINT ENERGY      -403.584488397914

DIPOLE MOMENT
-------------
                                X             Y             Z
Electronic contribution:      1.97648       0.93753      -2.17585
Nuclear contribution   :     -2.33816      -0.85694       2.34615
                        -----------------------------------------
Total Dipole Moment    :     -0.36168       0.08059       0.17030
                        -----------------------------------------
Magnitude (a.u.)       :      0.40781
Magnitude (Debye)      :      1.03658

                             ****ORCA TERMINATED NORMALLY****
TOTAL RUN TIME: 0 days 0 hours 20 minutes 4 seconds 929 msec
