                         Program Version 3.0.3 - RELEASE   -
|  1> ! RI-MP2 RIJK def2-TZVP def2-TZVP/C def2-TZVP/JK TIGHTSCF
|  2> % maxcore 2000
|  3> % mp2 density relaxed end
|  4> *xyz 0 1
|  5>  C       -0.0405262621     1.5188920541    -0.1173132852
|  6>  C        1.5005209672     1.3529263726     0.0315501539
|  7>  C        1.2028963026     0.0642238223     0.8889025798
|  8>  C       -0.0196571216    -0.0025268950    -0.0246269181
|  9>  O       -1.0656976062    -0.9075138280    -0.2979706289
| 10>  C        0.0533518335    -0.8231488962    -1.2224993933
| 11>  C        0.0259439294    -0.0964137137    -2.5437937185
| 12>  C        1.2571533800     0.8849500587    -2.6090206754
| 13>  C        2.1648801024     1.0230394890    -1.3443712363
| 14>  H       -0.4839256027     1.9665841773     0.7770452679
| 15>  H       -0.4404483713     2.0083002398    -1.0047544252
| 16>  H        2.0351244220     2.1487142699     0.5530664292
| 17>  H        1.9191509348    -0.7603930769     0.8536697871
| 18>  H        0.9779087120     0.3275002500     1.9269987358
| 19>  H        0.6839078086    -1.7116127501    -1.1799511013
| 20>  H        0.0469699114    -0.7924414169    -3.3876522564
| 21>  H       -0.9086294048     0.4650654905    -2.6230831320
| 22>  H        1.9162993712     0.5784201382    -3.4278316387
| 23>  H        0.8953149672     1.8805274033    -2.8867552318
| 24>  H        2.8846644747     1.8149516606    -1.5792732751
| 25>  H        2.7638192917     0.1107148704    -1.2343546976
| 26> *
| 27>
| 28>                          ****END OF INPUT****

CARTESIAN COORDINATES (ANGSTROEM)
---------------------------------
  C     -0.040526    1.518892   -0.117313
  C      1.500521    1.352926    0.031550
  C      1.202896    0.064224    0.888903
  C     -0.019657   -0.002527   -0.024627
  O     -1.065698   -0.907514   -0.297971
  C      0.053352   -0.823149   -1.222499
  C      0.025944   -0.096414   -2.543794
  C      1.257153    0.884950   -2.609021
  C      2.164880    1.023039   -1.344371
  H     -0.483926    1.966584    0.777045
  H     -0.440448    2.008300   -1.004754
  H      2.035124    2.148714    0.553066
  H      1.919151   -0.760393    0.853670
  H      0.977909    0.327500    1.926999
  H      0.683908   -1.711613   -1.179951
  H      0.046970   -0.792441   -3.387652
  H     -0.908629    0.465065   -2.623083
  H      1.916299    0.578420   -3.427832
  H      0.895315    1.880527   -2.886755
  H      2.884664    1.814952   -1.579273
  H      2.763819    0.110715   -1.234355

 Total Charge           Charge          ....    0
 Multiplicity           Mult            ....    1
 Number of Electrons    NEL             ....   68
 Basis Dimension        Dim             ....  351

ORBITAL ENERGIES
----------------

  NO   OCC          E(Eh)            E(eV)
   0   2.0000     -20.562983      -559.5472
   1   2.0000     -11.281279      -306.9792
   2   2.0000     -11.270980      -306.6990
   3   2.0000     -11.242258      -305.9174
   4   2.0000     -11.231816      -305.6333
   5   2.0000     -11.231124      -305.6144
   6   2.0000     -11.230498      -305.5974
   7   2.0000     -11.228624      -305.5464
   8   2.0000     -11.225638      -305.4651
   9   2.0000      -1.402949       -38.1762
  10   2.0000      -1.151529       -31.3347
  11   2.0000      -1.058127       -28.7931
  12   2.0000      -0.981818       -26.7166
  13   2.0000      -0.914695       -24.8901
  14   2.0000      -0.875685       -23.8286
  15   2.0000      -0.851227       -23.1631
  16   2.0000      -0.753914       -20.5150
  17   2.0000      -0.735114       -20.0035
  18   2.0000      -0.682081       -18.5604
  19   2.0000      -0.657339       -17.8871
  20   2.0000      -0.635766       -17.3001
  21   2.0000      -0.615726       -16.7548
  22   2.0000      -0.591921       -16.1070
  23   2.0000      -0.564549       -15.3622
  24   2.0000      -0.549038       -14.9401
  25   2.0000      -0.524514       -14.2727
  26   2.0000      -0.514801       -14.0085
  27   2.0000      -0.490764       -13.3544
  28   2.0000      -0.467220       -12.7137
  29   2.0000      -0.459778       -12.5112
  30   2.0000      -0.448399       -12.2016
  31   2.0000      -0.440303       -11.9813
  32   2.0000      -0.425329       -11.5738
  33   2.0000      -0.395812       -10.7706
  34   0.0000       0.131546         3.5795
  35   0.0000       0.153539         4.1780
  36   0.0000       0.156129         4.2485
  37   0.0000       0.169943         4.6244
  38   0.0000       0.178587         4.8596

MULLIKEN ATOMIC CHARGES
-----------------------
   0 C :   -0.257307
   1 C :   -0.018663
   2 C :   -0.297007
   3 C :    0.254758
   4 O :   -0.322868
   5 C :   -0.056497
   6 C :   -0.226003
   7 C :   -0.285965
   8 C :   -0.267527
   9 H :    0.122766
  10 H :    0.124544
  11 H :    0.117483
  12 H :    0.122045
  13 H :    0.120485
  14 H :    0.106483
  15 H :    0.125740
  16 H :    0.136422
  17 H :    0.130238
  18 H :    0.126204
  19 H :    0.127570
  20 H :    0.117098
Sum of atomic charges:   -0.0000000

LOEWDIN ATOMIC CHARGES
----------------------
   0 C :   -0.174743
   1 C :   -0.198138
   2 C :   -0.176484
   3 C :   -0.325509
   4 O :    0.185904
   5 C :   -0.231526
   6 C :   -0.244834
   7 C :   -0.250594
   8 C :   -0.235202
   9 H :    0.142561
  10 H :    0.131639
  11 H :    0.137212
  12 H :    0.128312
  13 H :    0.137175
  14 H :    0.139870
  15 H :    0.135960
  16 H :    0.146087
  17 H :    0.137224
  18 H :    0.135297
  19 H :    0.140554
  20 H :    0.139237

  Mayer bond orders larger than 0.1
B(  0-C ,  1-C ) :   0.9050 B(  0-C ,  3-C ) :   0.9098 B(  0-C ,  9-H ) :   0.9196
B(  0-C , 10-H ) :   0.9236 B(  1-C ,  2-C ) :   0.8990 B(  1-C ,  8-C ) :   0.8880
B(  1-C , 11-H ) :   0.9265 B(  2-C ,  3-C ) :   0.8689 B(  2-C , 12-H ) :   0.9166
B(  2-C , 13-H ) :   0.9219 B(  3-C ,  4-O ) :   0.9546 B(  3-C ,  5-C ) :   0.9171
B(  4-O ,  5-C ) :   0.9535 B(  5-C ,  6-C ) :   0.8706 B(  5-C , 14-H ) :   0.9485
B(  6-C ,  7-C ) :   0.8831 B(  6-C , 15-H ) :   0.9300 B(  6-C , 16-H ) :   0.9292
B(  7-C ,  8-C ) :   0.9375 B(  7-C , 17-H ) :   0.9317 B(  7-C , 18-H ) :   0.9395
B(  8-C , 19-H ) :   0.9254 B(  8-C , 20-H ) :   0.9339

MP2 TOTAL ENERGY:     -386.377388369 Eh
FINAL SINGLE POINT ENERGY      -386.377388368644

DIPOLE MOMENT
-------------
                                X             Y             Z
Electronic contribution:     -4.42688      -3.36052       2.88238
Nuclear contribution   :      5.23822       3.83258      -3.19057
                        -----------------------------------------
Total Dipole Moment    :      0.81134       0.47206      -0.30818
                        -----------------------------------------
Magnitude (a.u.)       :      0.98797
Magnitude (Debye)      :      2.51123

                             ****ORCA TERMINATED NORMALLY****
TOTAL RUN TIME: 0 days 0 hours 22 minutes 28 seconds 249 msec
