                         Program Version 3.0.3 - RELEASE   -
|  1> ! RI-MP2 RIJK def2-TZVP def2-TZVP/C def2-TZVP/JK TIGHTSCF
|  2> % maxcore 2000
|  3> % mp2 density relaxed end
|  4> *xyz 0 1
|  5>  O        0.0034611193    -0.0100786676     0.0929742240
|  6>  C       -0.0134290372     1.1724168803     0.0421405599
|  7>  O       -1.1615641182     1.9427321856     0.0452822646
|  8>  C       -0.7952230645     3.2954215061    -0.0022277931
|  9>  C       -0.0349383210     3.8735133145     1.1597487679
| 10>  C        0.7084436138     3.3160051372    -0.0230357770
| 11>  C        0.7151891926     4.1872301242    -1.2880383438
| 12>  C       -0.8608036557     4.1656574647    -1.2662294592
| 13>  O        1.1128418454     1.9738663927     0.0138083384
| 14>  H       -0.0473058294     4.9459614756     1.3269594868
| 15>  H       -0.0142029741     3.2643577729     2.0556069351
| 16>  H        1.2119917849     5.1560439900    -1.1964408354
| 17>  H        1.1276424140     3.6546115938    -2.1458174427
| 18>  H       -1.2821015411     3.6216284084    -2.1124714442
| 19>  H       -1.3812078389     5.1205476017    -1.1605526914
| 20> *
| 21>
| 22>                          ****END OF INPUT****

CARTESIAN COORDINATES (ANGSTROEM)
---------------------------------
  O      0.003461   -0.010079    0.092974
  C     -0.013429    1.172417    0.042141
  O     -1.161564    1.942732    0.045282
  C     -0.795223    3.295422   -0.002228
  C     -0.034938    3.873513    1.159749
  C      0.708444    3.316005   -0.023036
  C      0.715189    4.187230   -1.288038
  C     -0.860804    4.165657   -1.266229
  O      1.112842    1.973866    0.013808
  H     -0.047306    4.945961    1.326959
  H     -0.014203    3.264358    2.055607
  H      1.211992    5.156044   -1.196441
  H      1.127642    3.654612   -2.145817
  H     -1.282102    3.621628   -2.112471
  H     -1.381208    5.120548   -1.160553

 Total Charge           Charge          ....    0
 Multiplicity           Mult            ....    1
 Number of Electrons    NEL             ....   66
 Basis Dimension        Dim             ....  315

ORBITAL ENERGIES
----------------

  NO   OCC          E(Eh)            E(eV)
   0   2.0000     -20.631856      -561.4213
   1   2.0000     -20.631824      -561.4205
   2   2.0000     -20.556930      -559.3825
   3   2.0000     -11.441882      -311.3494
   4   2.0000     -11.312821      -307.8375
   5   2.0000     -11.312056      -307.8167
   6   2.0000     -11.277004      -306.8629
   7   2.0000     -11.266946      -306.5892
   8   2.0000     -11.266448      -306.5756
   9   2.0000      -1.527476       -41.5647
  10   2.0000      -1.402771       -38.1713
  11   2.0000      -1.401894       -38.1475
  12   2.0000      -1.210994       -32.9528
  13   2.0000      -1.035085       -28.1661
  14   2.0000      -0.927735       -25.2450
  15   2.0000      -0.882625       -24.0174
  16   2.0000      -0.831723       -22.6323
  17   2.0000      -0.818834       -22.2816
  18   2.0000      -0.730064       -19.8661
  19   2.0000      -0.707331       -19.2475
  20   2.0000      -0.671370       -18.2689
  21   2.0000      -0.637841       -17.3565
  22   2.0000      -0.633365       -17.2347
  23   2.0000      -0.615286       -16.7428
  24   2.0000      -0.602303       -16.3895
  25   2.0000      -0.587080       -15.9753
  26   2.0000      -0.573240       -15.5987
  27   2.0000      -0.535257       -14.5651
  28   2.0000      -0.531410       -14.4604
  29   2.0000      -0.491662       -13.3788
  30   2.0000      -0.484277       -13.1778
  31   2.0000      -0.433191       -11.7877
  32   2.0000      -0.380802       -10.3622
  33   0.0000       0.123715         3.3665
  34   0.0000       0.152415         4.1474
  35   0.0000       0.158694         4.3183
  36   0.0000       0.168665         4.5896
  37   0.0000       0.185792         5.0557

MULLIKEN ATOMIC CHARGES
-----------------------
   0 O :   -0.254245
   1 C :    0.333260
   2 O :   -0.244743
   3 C :    0.170208
   4 C :   -0.307903
   5 C :    0.170208
   6 C :   -0.245757
   7 C :   -0.245757
   8 O :   -0.244743
   9 H :    0.146382
  10 H :    0.168755
  11 H :    0.137016
  12 H :    0.140151
  13 H :    0.140151
  14 H :    0.137016
Sum of atomic charges:   -0.0000000

LOEWDIN ATOMIC CHARGES
----------------------
   0 O :    0.158550
   1 C :   -0.549591
   2 O :    0.292417
   3 C :   -0.271746
   4 C :   -0.151295
   5 C :   -0.271746
   6 C :   -0.182851
   7 C :   -0.182850
   8 O :    0.292417
   9 H :    0.146532
  10 H :    0.158141
  11 H :    0.134114
  12 H :    0.146897
  13 H :    0.146897
  14 H :    0.134114

  Mayer bond orders larger than 0.1
B(  0-O ,  1-C ) :   2.0886 B(  1-C ,  2-O ) :   1.0526 B(  1-C ,  8-O ) :   1.0526
B(  2-O ,  3-C ) :   0.9384 B(  3-C ,  4-C ) :   0.9170 B(  3-C ,  5-C ) :   0.7483
B(  3-C ,  7-C ) :   0.9229 B(  4-C ,  5-C ) :   0.9170 B(  4-C ,  9-H ) :   0.9072
B(  4-C , 10-H ) :   0.9084 B(  5-C ,  6-C ) :   0.9229 B(  5-C ,  8-O ) :   0.9384
B(  6-C ,  7-C ) :   0.9561 B(  6-C , 11-H ) :   0.9201 B(  6-C , 12-H ) :   0.9079
B(  7-C , 13-H ) :   0.9079 B(  7-C , 14-H ) :   0.9201

MP2 TOTAL ENERGY:     -457.013308701 Eh
FINAL SINGLE POINT ENERGY      -457.013308701016

DIPOLE MOMENT
-------------
                                X             Y             Z
Electronic contribution:      0.13107      -7.56079       1.99210
Nuclear contribution   :     -0.16029       9.43567      -2.24906
                        -----------------------------------------
Total Dipole Moment    :     -0.02922       1.87488      -0.25696
                        -----------------------------------------
Magnitude (a.u.)       :      1.89263
Magnitude (Debye)      :      4.81069

                             ****ORCA TERMINATED NORMALLY****
TOTAL RUN TIME: 0 days 0 hours 15 minutes 10 seconds 848 msec
