                         Program Version 3.0.3 - RELEASE   -
|  1> ! RI-MP2 RIJK def2-TZVP def2-TZVP/C def2-TZVP/JK TIGHTSCF
|  2> % maxcore 2000
|  3> % mp2 density relaxed end
|  4> *xyz 0 1
|  5>  C       -0.2377125479     1.4033870012    -0.0404124086
|  6>  N        0.0866210133    -0.0134220754    -0.0012485031
|  7>  C        0.7113422221    -0.4901456774     1.2230667185
|  8>  C       -0.1716895905    -0.4608702726     2.4841611158
|  9>  C        1.2216530784    -1.9225922669     0.9680405062
| 10>  O        0.1060233202    -2.7275261927     0.6580803884
| 11>  C        0.3897704942    -4.1115563545     0.5470165524
| 12>  C        2.2278591886    -1.9485505070    -0.1188625683
| 13>  N        3.0397914435    -2.0169098094    -0.9380243386
| 14>  H        0.6813335940     1.9897661928     0.0723938529
| 15>  H       -0.6632868649     1.6452184283    -1.0185508151
| 16>  H       -0.9492988325     1.7455965589     0.7301489214
| 17>  H       -0.7245225726    -0.5836390832    -0.2111838510
| 18>  H        1.5991762782     0.1315749895     1.3977979163
| 19>  H        0.3892389299    -0.7782296989     3.3701016974
| 20>  H       -0.5388552370     0.5512395977     2.6723097259
| 21>  H       -1.0305869163    -1.1269816466     2.3660394311
| 22>  H        1.7198229644    -2.2969840572     1.8777038407
| 23>  H        0.8091470627    -4.5083203190     1.4832731789
| 24>  H       -0.5585698711    -4.6106724482     0.3396321911
| 25>  H        1.0928669132    -4.3153077095    -0.2708144424
| 26> *
| 27>
| 28>                          ****END OF INPUT****

CARTESIAN COORDINATES (ANGSTROEM)
---------------------------------
  C     -0.237713    1.403387   -0.040412
  N      0.086621   -0.013422   -0.001249
  C      0.711342   -0.490146    1.223067
  C     -0.171690   -0.460870    2.484161
  C      1.221653   -1.922592    0.968041
  O      0.106023   -2.727526    0.658080
  C      0.389770   -4.111556    0.547017
  C      2.227859   -1.948551   -0.118863
  N      3.039791   -2.016910   -0.938024
  H      0.681334    1.989766    0.072394
  H     -0.663287    1.645218   -1.018551
  H     -0.949299    1.745597    0.730149
  H     -0.724523   -0.583639   -0.211184
  H      1.599176    0.131575    1.397798
  H      0.389239   -0.778230    3.370102
  H     -0.538855    0.551240    2.672310
  H     -1.030587   -1.126982    2.366039
  H      1.719823   -2.296984    1.877704
  H      0.809147   -4.508320    1.483273
  H     -0.558570   -4.610672    0.339632
  H      1.092867   -4.315308   -0.270814

 Total Charge           Charge          ....    0
 Multiplicity           Mult            ....    1
 Number of Electrons    NEL             ....   70
 Basis Dimension        Dim             ....  351

ORBITAL ENERGIES
----------------

  NO   OCC          E(Eh)            E(eV)
   0   2.0000     -20.586121      -560.1768
   1   2.0000     -15.567665      -423.6177
   2   2.0000     -15.546224      -423.0343
   3   2.0000     -11.334713      -308.4332
   4   2.0000     -11.287459      -307.1474
   5   2.0000     -11.278777      -306.9111
   6   2.0000     -11.266798      -306.5852
   7   2.0000     -11.248115      -306.0768
   8   2.0000     -11.226284      -305.4827
   9   2.0000      -1.409475       -38.3538
  10   2.0000      -1.221451       -33.2374
  11   2.0000      -1.209617       -32.9154
  12   2.0000      -1.062853       -28.9217
  13   2.0000      -0.981793       -26.7160
  14   2.0000      -0.927167       -25.2295
  15   2.0000      -0.910640       -24.7798
  16   2.0000      -0.818039       -22.2600
  17   2.0000      -0.738209       -20.0877
  18   2.0000      -0.700772       -19.0690
  19   2.0000      -0.683829       -18.6079
  20   2.0000      -0.633699       -17.2438
  21   2.0000      -0.628599       -17.1050
  22   2.0000      -0.601621       -16.3710
  23   2.0000      -0.591874       -16.1057
  24   2.0000      -0.570707       -15.5297
  25   2.0000      -0.554108       -15.0780
  26   2.0000      -0.548165       -14.9163
  27   2.0000      -0.535938       -14.5836
  28   2.0000      -0.524975       -14.2853
  29   2.0000      -0.508170       -13.8280
  30   2.0000      -0.499006       -13.5786
  31   2.0000      -0.464248       -12.6328
  32   2.0000      -0.461989       -12.5714
  33   2.0000      -0.449169       -12.2225
  34   2.0000      -0.374428       -10.1887
  35   0.0000       0.122978         3.3464
  36   0.0000       0.147612         4.0167
  37   0.0000       0.152922         4.1612
  38   0.0000       0.165752         4.5103
  39   0.0000       0.176540         4.8039

MULLIKEN ATOMIC CHARGES
-----------------------
   0 C :   -0.308944
   1 N :   -0.348400
   2 C :    0.020327
   3 C :   -0.406948
   4 C :    0.185018
   5 O :   -0.313105
   6 C :   -0.236585
   7 C :   -0.186151
   8 N :   -0.044655
   9 H :    0.131494
  10 H :    0.142769
  11 H :    0.109115
  12 H :    0.214963
  13 H :    0.105809
  14 H :    0.123945
  15 H :    0.142979
  16 H :    0.142207
  17 H :    0.118913
  18 H :    0.116779
  19 H :    0.145359
  20 H :    0.145111
Sum of atomic charges:    0.0000000

LOEWDIN ATOMIC CHARGES
----------------------
   0 C :   -0.350032
   1 N :   -0.008976
   2 C :   -0.307400
   3 C :   -0.296503
   4 C :   -0.308852
   5 O :    0.173618
   6 C :   -0.337991
   7 C :   -0.168382
   8 N :    0.067005
   9 H :    0.117408
  10 H :    0.118663
  11 H :    0.097518
  12 H :    0.173187
  13 H :    0.158179
  14 H :    0.124616
  15 H :    0.124507
  16 H :    0.127170
  17 H :    0.160349
  18 H :    0.105637
  19 H :    0.116846
  20 H :    0.113433

  Mayer bond orders larger than 0.1
B(  0-C ,  1-N ) :   0.9297 B(  0-C ,  9-H ) :   0.9383 B(  0-C , 10-H ) :   0.9394
B(  0-C , 11-H ) :   0.9283 B(  1-N ,  2-C ) :   0.9993 B(  1-N , 12-H ) :   0.8704
B(  2-C ,  3-C ) :   0.9052 B(  2-C ,  4-C ) :   0.8728 B(  2-C , 13-H ) :   0.9195
B(  3-C , 14-H ) :   0.9302 B(  3-C , 15-H ) :   0.9401 B(  3-C , 16-H ) :   0.9296
B(  4-C ,  5-O ) :   0.9690 B(  4-C ,  7-C ) :   0.9084 B(  4-C , 17-H ) :   0.9332
B(  5-O ,  6-C ) :   0.8961 B(  6-C , 18-H ) :   0.9323 B(  6-C , 19-H ) :   0.9383
B(  6-C , 20-H ) :   0.9310 B(  7-C ,  8-N ) :   2.8787

MP2 TOTAL ENERGY:     -419.692420586 Eh
FINAL SINGLE POINT ENERGY      -419.692420585562

DIPOLE MOMENT
-------------
                                X             Y             Z
Electronic contribution:      5.81666      -4.00462      -4.52244
Nuclear contribution   :     -6.81318       3.92988       5.76262
                        -----------------------------------------
Total Dipole Moment    :     -0.99652      -0.07474       1.24019
                        -----------------------------------------
Magnitude (a.u.)       :      1.59270
Magnitude (Debye)      :      4.04833

                             ****ORCA TERMINATED NORMALLY****
TOTAL RUN TIME: 0 days 0 hours 18 minutes 54 seconds 701 msec
