                         Program Version 3.0.3 - RELEASE   -
|  1> ! RI-MP2 RIJK def2-TZVP def2-TZVP/C def2-TZVP/JK TIGHTSCF
|  2> % maxcore 2000
|  3> % mp2 density relaxed end
|  4> *xyz 0 1
|  5>  N       -0.1432081853    -1.1691065804     0.2736427810
|  6>  C       -0.0406587438    -0.0177764926     0.2300912519
|  7>  C        0.0239187401     1.4151579281     0.1406110993
|  8>  C        0.6720081300     2.2416936150     1.2430031749
|  9>  C        1.3363388224     2.1504942850    -0.0954765571
| 10>  C        2.6465760126     1.4164195920    -0.2590784039
| 11>  C        3.9325283542     2.1989329562     0.1034469267
| 12>  C        4.1687682896     1.0548266481     1.1085045865
| 13>  O        2.8986124543     0.4477211183     0.7809120946
| 14>  H       -0.8506177889     1.8467891572    -0.3356968557
| 15>  H        0.1689689433     3.1565659833     1.5327358428
| 16>  H        1.1321702333     1.6792839514     2.0461134976
| 17>  H        1.2479640561     3.0085502517    -0.7575328167
| 18>  H        2.6840735682     0.9393443130    -1.2480943814
| 19>  H        4.6694931724     2.3044332736    -0.6932856733
| 20>  H        3.7463932271     3.1731538497     0.5593303227
| 21>  H        5.0051030262     0.3874338066     0.8692782104
| 22>  H        4.2273343683     1.3352061538     2.1659962698
| 23> *
| 24>
| 25>                          ****END OF INPUT****

CARTESIAN COORDINATES (ANGSTROEM)
---------------------------------
  N     -0.143208   -1.169107    0.273643
  C     -0.040659   -0.017776    0.230091
  C      0.023919    1.415158    0.140611
  C      0.672008    2.241694    1.243003
  C      1.336339    2.150494   -0.095477
  C      2.646576    1.416420   -0.259078
  C      3.932528    2.198933    0.103447
  C      4.168768    1.054827    1.108505
  O      2.898612    0.447721    0.780912
  H     -0.850618    1.846789   -0.335697
  H      0.168969    3.156566    1.532736
  H      1.132170    1.679284    2.046113
  H      1.247964    3.008550   -0.757533
  H      2.684074    0.939344   -1.248094
  H      4.669493    2.304433   -0.693286
  H      3.746393    3.173154    0.559330
  H      5.005103    0.387434    0.869278
  H      4.227334    1.335206    2.165996

 Total Charge           Charge          ....    0
 Multiplicity           Mult            ....    1
 Number of Electrons    NEL             ....   66
 Basis Dimension        Dim             ....  333

ORBITAL ENERGIES
----------------

  NO   OCC          E(Eh)            E(eV)
   0   2.0000     -20.556519      -559.3713
   1   2.0000     -15.554312      -423.2544
   2   2.0000     -11.301191      -307.5210
   3   2.0000     -11.288338      -307.1713
   4   2.0000     -11.281917      -306.9966
   5   2.0000     -11.266397      -306.5742
   6   2.0000     -11.261715      -306.4468
   7   2.0000     -11.256346      -306.3007
   8   2.0000     -11.242362      -305.9202
   9   2.0000      -1.389845       -37.8196
  10   2.0000      -1.210805       -32.9477
  11   2.0000      -1.171319       -31.8732
  12   2.0000      -1.028268       -27.9806
  13   2.0000      -0.967973       -26.3399
  14   2.0000      -0.905973       -24.6528
  15   2.0000      -0.843696       -22.9581
  16   2.0000      -0.768642       -20.9158
  17   2.0000      -0.730752       -19.8848
  18   2.0000      -0.690452       -18.7881
  19   2.0000      -0.687582       -18.7101
  20   2.0000      -0.645513       -17.5653
  21   2.0000      -0.599653       -16.3174
  22   2.0000      -0.583429       -15.8759
  23   2.0000      -0.555680       -15.1208
  24   2.0000      -0.545453       -14.8425
  25   2.0000      -0.538777       -14.6609
  26   2.0000      -0.524902       -14.2833
  27   2.0000      -0.493903       -13.4398
  28   2.0000      -0.477773       -13.0009
  29   2.0000      -0.467606       -12.7242
  30   2.0000      -0.431135       -11.7318
  31   2.0000      -0.421325       -11.4648
  32   2.0000      -0.403234       -10.9725
  33   0.0000       0.126448         3.4408
  34   0.0000       0.138884         3.7792
  35   0.0000       0.147323         4.0089
  36   0.0000       0.158645         4.3170
  37   0.0000       0.180607         4.9146

MULLIKEN ATOMIC CHARGES
-----------------------
   0 N :   -0.056492
   1 C :   -0.200500
   2 C :   -0.011865
   3 C :   -0.270657
   4 C :   -0.135237
   5 C :    0.167100
   6 C :   -0.307578
   7 C :   -0.022866
   8 O :   -0.339918
   9 H :    0.155375
  10 H :    0.147423
  11 H :    0.165419
  12 H :    0.134291
  13 H :    0.102898
  14 H :    0.134915
  15 H :    0.126742
  16 H :    0.106230
  17 H :    0.104720
Sum of atomic charges:   -0.0000000

LOEWDIN ATOMIC CHARGES
----------------------
   0 N :    0.062509
   1 C :   -0.178303
   2 C :   -0.189631
   3 C :   -0.170846
   4 C :   -0.179549
   5 C :   -0.261438
   6 C :   -0.221311
   7 C :   -0.268065
   8 O :    0.146672
   9 H :    0.170416
  10 H :    0.135806
  11 H :    0.150327
  12 H :    0.158839
  13 H :    0.143469
  14 H :    0.130679
  15 H :    0.134843
  16 H :    0.119114
  17 H :    0.116468

  Mayer bond orders larger than 0.1
B(  0-N ,  1-C ) :   2.8582 B(  1-C ,  2-C ) :   0.9885 B(  2-C ,  3-C ) :   0.8432
B(  2-C ,  4-C ) :   0.8345 B(  2-C ,  9-H ) :   0.9162 B(  3-C ,  4-C ) :   0.8880
B(  3-C , 10-H ) :   0.9231 B(  3-C , 11-H ) :   0.9163 B(  4-C ,  5-C ) :   0.9602
B(  4-C , 12-H ) :   0.9165 B(  5-C ,  6-C ) :   0.8897 B(  5-C ,  8-O ) :   0.9079
B(  5-C , 13-H ) :   0.9128 B(  6-C ,  7-C ) :   0.9797 B(  6-C , 14-H ) :   0.9292
B(  6-C , 15-H ) :   0.9243 B(  7-C ,  8-O ) :   0.9257 B(  7-C , 16-H ) :   0.9188
B(  7-C , 17-H ) :   0.9218

MP2 TOTAL ENERGY:     -401.231070104 Eh
FINAL SINGLE POINT ENERGY      -401.231070103725

DIPOLE MOMENT
-------------
                                X             Y             Z
Electronic contribution:     -4.84228      -5.36600      -0.65926
Nuclear contribution   :      5.61951       7.49237       0.44744
                        -----------------------------------------
Total Dipole Moment    :      0.77723       2.12638      -0.21182
                        -----------------------------------------
Magnitude (a.u.)       :      2.27386
Magnitude (Debye)      :      5.77969

                             ****ORCA TERMINATED NORMALLY****
TOTAL RUN TIME: 0 days 0 hours 17 minutes 38 seconds 915 msec
