                         Program Version 3.0.3 - RELEASE   -
|  1> ! RI-MP2 RIJK def2-TZVP def2-TZVP/C def2-TZVP/JK TIGHTSCF
|  2> % maxcore 2000
|  3> % mp2 density relaxed end
|  4> *xyz 0 1
|  5>  N       -0.1117696771     1.2431186767    -0.0787416430
|  6>  C       -0.0066403115    -0.0177926360     0.0155960360
|  7>  C       -1.2350294759    -0.9647586142     0.0253835968
|  8>  C       -0.5418453926    -2.2783823615    -0.0643954341
|  9>  C        0.8032736141    -2.1561834463    -0.0123084566
| 10>  N        1.1630836935    -0.8015340333     0.1247767154
| 11>  C        1.3485881782    -3.4739053992     0.0015016968
| 12>  C        0.2518113409    -4.2918056806    -0.0476163854
| 13>  O       -0.9146872198    -3.5800044109    -0.0735007338
| 14>  H        0.8017754971     1.7006392459    -0.0683044534
| 15>  H       -1.8047931399    -0.8217924956     0.9515103968
| 16>  H       -1.9013829408    -0.7156897867    -0.8061188251
| 17>  H        2.0324435337    -0.4338397740    -0.2296055073
| 18>  H        2.3783210082    -3.7917906786     0.0325947527
| 19>  H        0.1412640820    -5.3626107657    -0.0820419758
| 20> *
| 21>
| 22>                          ****END OF INPUT****

CARTESIAN COORDINATES (ANGSTROEM)
---------------------------------
  N     -0.111770    1.243119   -0.078742
  C     -0.006640   -0.017793    0.015596
  C     -1.235029   -0.964759    0.025384
  C     -0.541845   -2.278382   -0.064395
  C      0.803274   -2.156183   -0.012308
  N      1.163084   -0.801534    0.124777
  C      1.348588   -3.473905    0.001502
  C      0.251811   -4.291806   -0.047616
  O     -0.914687   -3.580004   -0.073501
  H      0.801775    1.700639   -0.068304
  H     -1.804793   -0.821792    0.951510
  H     -1.901383   -0.715690   -0.806119
  H      2.032444   -0.433840   -0.229606
  H      2.378321   -3.791791    0.032595
  H      0.141264   -5.362611   -0.082042

 Total Charge           Charge          ....    0
 Multiplicity           Mult            ....    1
 Number of Electrons    NEL             ....   64
 Basis Dimension        Dim             ....  315

ORBITAL ENERGIES
----------------

  NO   OCC          E(Eh)            E(eV)
   0   2.0000     -20.631890      -561.4223
   1   2.0000     -15.595125      -424.3649
   2   2.0000     -15.531380      -422.6303
   3   2.0000     -11.328011      -308.2509
   4   2.0000     -11.300404      -307.4996
   5   2.0000     -11.276544      -306.8504
   6   2.0000     -11.267231      -306.5969
   7   2.0000     -11.255876      -306.2880
   8   2.0000     -11.246578      -306.0349
   9   2.0000      -1.465731       -39.8846
  10   2.0000      -1.295415       -35.2500
  11   2.0000      -1.178082       -32.0572
  12   2.0000      -1.076746       -29.2998
  13   2.0000      -1.058957       -28.8157
  14   2.0000      -0.950184       -25.8558
  15   2.0000      -0.830639       -22.6028
  16   2.0000      -0.793457       -21.5911
  17   2.0000      -0.768420       -20.9098
  18   2.0000      -0.735433       -20.0122
  19   2.0000      -0.681230       -18.5372
  20   2.0000      -0.663979       -18.0678
  21   2.0000      -0.636224       -17.3125
  22   2.0000      -0.607102       -16.5201
  23   2.0000      -0.595794       -16.2124
  24   2.0000      -0.576421       -15.6852
  25   2.0000      -0.554564       -15.0905
  26   2.0000      -0.534723       -14.5506
  27   2.0000      -0.520453       -14.1622
  28   2.0000      -0.430227       -11.7071
  29   2.0000      -0.428625       -11.6635
  30   2.0000      -0.371317       -10.1041
  31   2.0000      -0.292672        -7.9640
  32   0.0000       0.123765         3.3678
  33   0.0000       0.129576         3.5259
  34   0.0000       0.161647         4.3986
  35   0.0000       0.166811         4.5391
  36   0.0000       0.177263         4.8236

MULLIKEN ATOMIC CHARGES
-----------------------
   0 N :   -0.353756
   1 C :    0.038304
   2 C :   -0.101490
   3 C :    0.050703
   4 C :    0.159340
   5 N :   -0.326111
   6 C :   -0.298305
   7 C :    0.022022
   8 O :   -0.224217
   9 H :    0.204075
  10 H :    0.146920
  11 H :    0.146830
  12 H :    0.239582
  13 H :    0.144721
  14 H :    0.151383
Sum of atomic charges:    0.0000000

LOEWDIN ATOMIC CHARGES
----------------------
   0 N :   -0.072739
   1 C :   -0.322209
   2 C :   -0.165587
   3 C :   -0.243939
   4 C :   -0.215525
   5 N :    0.126753
   6 C :   -0.167079
   7 C :   -0.234219
   8 O :    0.357218
   9 H :    0.159789
  10 H :    0.159247
  11 H :    0.157469
  12 H :    0.183345
  13 H :    0.144796
  14 H :    0.132680

  Mayer bond orders larger than 0.1
B(  0-N ,  1-C ) :   2.0949 B(  0-N ,  9-H ) :   0.8578 B(  1-C ,  2-C ) :   0.9079
B(  1-C ,  5-N ) :   1.0674 B(  2-C ,  3-C ) :   0.9921 B(  2-C , 10-H ) :   0.9021
B(  2-C , 11-H ) :   0.9035 B(  3-C ,  4-C ) :   1.4566 B(  3-C ,  8-O ) :   1.0533
B(  4-C ,  5-N ) :   0.9759 B(  4-C ,  6-C ) :   1.2062 B(  5-N , 12-H ) :   0.8623
B(  6-C ,  7-C ) :   1.5393 B(  6-C , 13-H ) :   0.9127 B(  7-C ,  8-O ) :   1.0401
B(  7-C , 14-H ) :   0.9354

MP2 TOTAL ENERGY:     -416.115120114 Eh
FINAL SINGLE POINT ENERGY      -416.115120113720

DIPOLE MOMENT
-------------
                                X             Y             Z
Electronic contribution:     -0.17779      -1.82176      -0.01119
Nuclear contribution   :      1.11198       1.24427      -0.11078
                        -----------------------------------------
Total Dipole Moment    :      0.93419      -0.57749      -0.12197
                        -----------------------------------------
Magnitude (a.u.)       :      1.10503
Magnitude (Debye)      :      2.80876

                             ****ORCA TERMINATED NORMALLY****
TOTAL RUN TIME: 0 days 0 hours 15 minutes 7 seconds 767 msec
