                         Program Version 3.0.3 - RELEASE   -
|  1> ! RI-MP2 RIJK def2-TZVP def2-TZVP/C def2-TZVP/JK TIGHTSCF
|  2> % maxcore 2000
|  3> % mp2 density relaxed end
|  4> *xyz 0 1
|  5>  O        0.0416147208     1.4351250948     0.1873794721
|  6>  C        0.0100266226     0.0327141425    -0.0032473498
|  7>  C       -1.4032094491    -0.4504104289    -0.0247935142
|  8>  C       -2.5051613183     0.2970368314     0.0794272682
|  9>  C       -3.7649444674    -0.5158312706    -0.0127013292
| 10>  C       -4.3853239264    -0.6296065609    -1.4272671618
| 11>  O       -3.6951809291    -1.8741495170    -1.6675787843
| 12>  C       -3.2448575632    -1.9511280403    -0.2947336601
| 13>  C       -1.7160741377    -1.9275474424    -0.1646226101
| 14>  H        0.9598438967     1.7185293556     0.1706353883
| 15>  H        0.5014704926    -0.2568258187    -0.9494599432
| 16>  H        0.5590087092    -0.4955840171     0.7976445887
| 17>  H       -2.4984923740     1.3737687725     0.1930238726
| 18>  H       -4.4701394073    -0.3532690650     0.8061569657
| 19>  H       -5.4758037345    -0.7625388398    -1.4367274128
| 20>  H       -4.1073911163     0.1444501819    -2.1517447889
| 21>  H       -3.7209897486    -2.7863029215     0.2307526128
| 22>  H       -1.2603185873    -2.3802801129    -1.0542839613
| 23>  H       -1.3624500828    -2.5016978438     0.7032823475
| 24> *
| 25>
| 26>                          ****END OF INPUT****

CARTESIAN COORDINATES (ANGSTROEM)
---------------------------------
  O      0.041615    1.435125    0.187379
  C      0.010027    0.032714   -0.003247
  C     -1.403209   -0.450410   -0.024794
  C     -2.505161    0.297037    0.079427
  C     -3.764944   -0.515831   -0.012701
  C     -4.385324   -0.629607   -1.427267
  O     -3.695181   -1.874150   -1.667579
  C     -3.244858   -1.951128   -0.294734
  C     -1.716074   -1.927547   -0.164623
  H      0.959844    1.718529    0.170635
  H      0.501470   -0.256826   -0.949460
  H      0.559009   -0.495584    0.797645
  H     -2.498492    1.373769    0.193024
  H     -4.470139   -0.353269    0.806157
  H     -5.475804   -0.762539   -1.436727
  H     -4.107391    0.144450   -2.151745
  H     -3.720990   -2.786303    0.230753
  H     -1.260319   -2.380280   -1.054284
  H     -1.362450   -2.501698    0.703282

 Total Charge           Charge          ....    0
 Multiplicity           Mult            ....    1
 Number of Electrons    NEL             ....   68
 Basis Dimension        Dim             ....  339

ORBITAL ENERGIES
----------------

  NO   OCC          E(Eh)            E(eV)
   0   2.0000     -20.561631      -559.5104
   1   2.0000     -20.540848      -558.9449
   2   2.0000     -11.286333      -307.1167
   3   2.0000     -11.278001      -306.8900
   4   2.0000     -11.271794      -306.7211
   5   2.0000     -11.230996      -305.6109
   6   2.0000     -11.230839      -305.6067
   7   2.0000     -11.226567      -305.4904
   8   2.0000     -11.215963      -305.2019
   9   2.0000      -1.372530       -37.3484
  10   2.0000      -1.367288       -37.2058
  11   2.0000      -1.124996       -30.6127
  12   2.0000      -1.006390       -27.3853
  13   2.0000      -0.976983       -26.5851
  14   2.0000      -0.907264       -24.6879
  15   2.0000      -0.871989       -23.7280
  16   2.0000      -0.749750       -20.4017
  17   2.0000      -0.721648       -19.6370
  18   2.0000      -0.695665       -18.9300
  19   2.0000      -0.686992       -18.6940
  20   2.0000      -0.648554       -17.6480
  21   2.0000      -0.634428       -17.2637
  22   2.0000      -0.616746       -16.7825
  23   2.0000      -0.599243       -16.3062
  24   2.0000      -0.552339       -15.0299
  25   2.0000      -0.542125       -14.7520
  26   2.0000      -0.528636       -14.3849
  27   2.0000      -0.511404       -13.9160
  28   2.0000      -0.482752       -13.1363
  29   2.0000      -0.468085       -12.7373
  30   2.0000      -0.456168       -12.4130
  31   2.0000      -0.440158       -11.9773
  32   2.0000      -0.410248       -11.1634
  33   2.0000      -0.338112        -9.2005
  34   0.0000       0.131173         3.5694
  35   0.0000       0.150361         4.0915
  36   0.0000       0.153052         4.1648
  37   0.0000       0.166710         4.5364
  38   0.0000       0.184478         5.0199

MULLIKEN ATOMIC CHARGES
-----------------------
   0 O :   -0.462245
   1 C :   -0.105980
   2 C :   -0.035004
   3 C :   -0.221984
   4 C :   -0.023791
   5 C :   -0.034390
   6 O :   -0.343561
   7 C :    0.091997
   8 C :   -0.196955
   9 H :    0.315220
  10 H :    0.113060
  11 H :    0.105244
  12 H :    0.146576
  13 H :    0.122636
  14 H :    0.091043
  15 H :    0.101765
  16 H :    0.091910
  17 H :    0.128858
  18 H :    0.115601
Sum of atomic charges:    0.0000000

LOEWDIN ATOMIC CHARGES
----------------------
   0 O :   -0.036980
   1 C :   -0.314945
   2 C :   -0.164636
   3 C :   -0.114303
   4 C :   -0.197432
   5 C :   -0.247969
   6 O :    0.131911
   7 C :   -0.229704
   8 C :   -0.196577
   9 H :    0.174150
  10 H :    0.127395
  11 H :    0.125815
  12 H :    0.145977
  13 H :    0.143114
  14 H :    0.115218
  15 H :    0.118364
  16 H :    0.130317
  17 H :    0.149343
  18 H :    0.140943

  Mayer bond orders larger than 0.1
B(  0-O ,  1-C ) :   1.0490 B(  0-O ,  2-C ) :  -0.1149 B(  0-O ,  9-H ) :   0.8475
B(  1-C ,  2-C ) :   0.9085 B(  1-C , 10-H ) :   0.9407 B(  1-C , 11-H ) :   0.9232
B(  2-C ,  3-C ) :   1.7611 B(  2-C ,  8-C ) :   0.9651 B(  3-C ,  4-C ) :   0.8921
B(  3-C , 12-H ) :   0.9260 B(  4-C ,  5-C ) :   0.9480 B(  4-C ,  7-C ) :   0.9380
B(  4-C , 13-H ) :   0.9121 B(  5-C ,  6-O ) :   0.9455 B(  5-C , 14-H ) :   0.9165
B(  5-C , 15-H ) :   0.9065 B(  6-O ,  7-C ) :   0.9773 B(  7-C ,  8-C ) :   0.8987
B(  7-C , 16-H ) :   0.9314 B(  8-C , 17-H ) :   0.9054 B(  8-C , 18-H ) :   0.8998

MP2 TOTAL ENERGY:     -422.304781394 Eh
FINAL SINGLE POINT ENERGY      -422.304781393603

DIPOLE MOMENT
-------------
                                X             Y             Z
Electronic contribution:     -0.92575       0.42303      -0.59342
Nuclear contribution   :      1.53297      -0.30913       1.07859
                        -----------------------------------------
Total Dipole Moment    :      0.60722       0.11390       0.48517
                        -----------------------------------------
Magnitude (a.u.)       :      0.78555
Magnitude (Debye)      :      1.99670

                             ****ORCA TERMINATED NORMALLY****
TOTAL RUN TIME: 0 days 0 hours 17 minutes 19 seconds 469 msec
