                         Program Version 3.0.3 - RELEASE   -
|  1> ! RI-MP2 RIJK def2-TZVP def2-TZVP/C def2-TZVP/JK TIGHTSCF
|  2> % maxcore 2000
|  3> % mp2 density relaxed end
|  4> *xyz 0 1
|  5>  C       -0.0341685128     1.5712135071     0.0074616007
|  6>  C        0.0531334056     0.0339329933    -0.0167645446
|  7>  C        0.7455981970    -0.4919500715    -1.2871204810
|  8>  O       -0.0523903707    -0.0867134489    -2.3831023966
|  9>  C        0.7451762972    -0.4793536164     1.1679693763
| 10>  N        1.3047222573    -0.8807079445     2.0961744754
| 11>  H        0.9657181316     2.0140276609     0.0377395095
| 12>  H       -0.5420116608     1.9124995571    -0.8958161989
| 13>  H       -0.5881494193     1.9168314854     0.8831818681
| 14>  H       -0.9629656412    -0.3801371650    -0.0116849501
| 15>  H        1.7627063660    -0.0755433713    -1.3437915237
| 16>  H        0.8323473104    -1.5864412424    -1.2292022806
| 17>  H        0.3872303296    -0.3539519239    -3.1953101944
| 18> *
| 19>
| 20>                          ****END OF INPUT****

CARTESIAN COORDINATES (ANGSTROEM)
---------------------------------
  C     -0.034169    1.571214    0.007462
  C      0.053133    0.033933   -0.016765
  C      0.745598   -0.491950   -1.287120
  O     -0.052390   -0.086713   -2.383102
  C      0.745176   -0.479354    1.167969
  N      1.304722   -0.880708    2.096174
  H      0.965718    2.014028    0.037740
  H     -0.542012    1.912500   -0.895816
  H     -0.588149    1.916831    0.883182
  H     -0.962966   -0.380137   -0.011685
  H      1.762706   -0.075543   -1.343792
  H      0.832347   -1.586441   -1.229202
  H      0.387230   -0.353952   -3.195310

 Total Charge           Charge          ....    0
 Multiplicity           Mult            ....    1
 Number of Electrons    NEL             ....   46
 Basis Dimension        Dim             ....  228

ORBITAL ENERGIES
----------------

  NO   OCC          E(Eh)            E(eV)
   0   2.0000     -20.580723      -560.0299
   1   2.0000     -15.569396      -423.6648
   2   2.0000     -11.306658      -307.6698
   3   2.0000     -11.286455      -307.1200
   4   2.0000     -11.271544      -306.7143
   5   2.0000     -11.238923      -305.8266
   6   2.0000      -1.387600       -37.7585
   7   2.0000      -1.219845       -33.1937
   8   2.0000      -1.100254       -29.9394
   9   2.0000      -0.950604       -25.8672
  10   2.0000      -0.868933       -23.6449
  11   2.0000      -0.747812       -20.3490
  12   2.0000      -0.681064       -18.5327
  13   2.0000      -0.655999       -17.8506
  14   2.0000      -0.626362       -17.0442
  15   2.0000      -0.584968       -15.9178
  16   2.0000      -0.563327       -15.3289
  17   2.0000      -0.550453       -14.9786
  18   2.0000      -0.533947       -14.5294
  19   2.0000      -0.517257       -14.0753
  20   2.0000      -0.472792       -12.8653
  21   2.0000      -0.455116       -12.3843
  22   2.0000      -0.454862       -12.3774
  23   0.0000       0.117462         3.1963
  24   0.0000       0.141647         3.8544
  25   0.0000       0.161183         4.3860
  26   0.0000       0.168152         4.5756
  27   0.0000       0.183178         4.9845

MULLIKEN ATOMIC CHARGES
-----------------------
   0 C :   -0.396885
   1 C :    0.078105
   2 C :   -0.072588
   3 O :   -0.465825
   4 C :   -0.214747
   5 N :   -0.060538
   6 H :    0.131299
   7 H :    0.164252
   8 H :    0.147734
   9 H :    0.130017
  10 H :    0.112103
  11 H :    0.122091
  12 H :    0.324982
Sum of atomic charges:   -0.0000000

LOEWDIN ATOMIC CHARGES
----------------------
   0 C :   -0.266612
   1 C :   -0.269450
   2 C :   -0.314337
   3 O :   -0.037451
   4 C :   -0.172365
   5 N :    0.060394
   6 H :    0.129410
   7 H :    0.133498
   8 H :    0.130112
   9 H :    0.178570
  10 H :    0.124176
  11 H :    0.125396
  12 H :    0.178659

  Mayer bond orders larger than 0.1
B(  0-C ,  1-C ) :   0.9099 B(  0-C ,  6-H ) :   0.9261 B(  0-C ,  7-H ) :   0.9312
B(  0-C ,  8-H ) :   0.9339 B(  1-C ,  2-C ) :   0.9109 B(  1-C ,  4-C ) :   0.9018
B(  1-C ,  9-H ) :   0.9055 B(  2-C ,  3-O ) :   1.0056 B(  2-C , 10-H ) :   0.9188
B(  2-C , 11-H ) :   0.9287 B(  3-O , 12-H ) :   0.8431 B(  4-C ,  5-N ) :   2.8740

MP2 TOTAL ENERGY:     -286.032254322 Eh
FINAL SINGLE POINT ENERGY      -286.032254321897

DIPOLE MOMENT
-------------
                                X             Y             Z
Electronic contribution:      0.97026      -3.14960       2.76131
Nuclear contribution   :     -1.15141       3.43202      -4.17583
                        -----------------------------------------
Total Dipole Moment    :     -0.18115       0.28242      -1.41452
                        -----------------------------------------
Magnitude (a.u.)       :      1.45377
Magnitude (Debye)      :      3.69519

                             ****ORCA TERMINATED NORMALLY****
TOTAL RUN TIME: 0 days 0 hours 4 minutes 28 seconds 656 msec
