                         Program Version 3.0.3 - RELEASE   -
|  1> ! RI-MP2 RIJK def2-TZVP def2-TZVP/C def2-TZVP/JK TIGHTSCF
|  2> % maxcore 2000
|  3> % mp2 density relaxed end
|  4> *xyz 0 1
|  5>  C        0.1139150464     1.3858298279     0.6794961702
|  6>  C        0.1590093793    -0.0081623272     0.0952382570
|  7>  O        1.2566094087    -0.1522962251    -0.7688175218
|  8>  C        1.5257289409    -1.5533727434    -0.7971848952
|  9>  C        2.8980596805    -1.8055403569    -1.3945059539
| 10>  C        1.2920470632    -1.9519001131     0.6759401008
| 11>  C        2.5032475618    -1.8491390267     1.6036367572
| 12>  O        2.1042935846    -1.9815019596     2.9524646756
| 13>  O        0.3227698410    -0.9896506951     1.1217119290
| 14>  H        1.0493854432     1.5997650299     1.2024134456
| 15>  H       -0.0283580513     2.1211246924    -0.1168812963
| 16>  H       -0.7180472902     1.4662628739     1.3835899102
| 17>  H       -0.7757663401    -0.2402498761    -0.4477359483
| 18>  H        0.7611268772    -2.0528815094    -1.4153069859
| 19>  H        3.6803901637    -1.2926146348    -0.8303005636
| 20>  H        3.1174411200    -2.8774851897    -1.4064545084
| 21>  H        2.9265749439    -1.4417531894    -2.4248832542
| 22>  H        0.8507709516    -2.9516402294     0.7642467993
| 23>  H        3.2141557541    -2.6568208931     1.3988231485
| 24>  H        3.0153752789    -0.8899873914     1.4272165974
| 25>  H        1.3550376826    -1.3817288339     3.0579165867
| 26> *
| 27>
| 28>                          ****END OF INPUT****

CARTESIAN COORDINATES (ANGSTROEM)
---------------------------------
  C      0.113915    1.385830    0.679496
  C      0.159009   -0.008162    0.095238
  O      1.256609   -0.152296   -0.768818
  C      1.525729   -1.553373   -0.797185
  C      2.898060   -1.805540   -1.394506
  C      1.292047   -1.951900    0.675940
  C      2.503248   -1.849139    1.603637
  O      2.104294   -1.981502    2.952465
  O      0.322770   -0.989651    1.121712
  H      1.049385    1.599765    1.202413
  H     -0.028358    2.121125   -0.116881
  H     -0.718047    1.466263    1.383590
  H     -0.775766   -0.240250   -0.447736
  H      0.761127   -2.052882   -1.415307
  H      3.680390   -1.292615   -0.830301
  H      3.117441   -2.877485   -1.406455
  H      2.926575   -1.441753   -2.424883
  H      0.850771   -2.951640    0.764247
  H      3.214156   -2.656821    1.398823
  H      3.015375   -0.889987    1.427217
  H      1.355038   -1.381729    3.057917

 Total Charge           Charge          ....    0
 Multiplicity           Mult            ....    1
 Number of Electrons    NEL             ....   72
 Basis Dimension        Dim             ....  351

ORBITAL ENERGIES
----------------

  NO   OCC          E(Eh)            E(eV)
   0   2.0000     -20.570633      -559.7554
   1   2.0000     -20.566358      -559.6390
   2   2.0000     -20.548489      -559.1528
   3   2.0000     -11.337833      -308.5181
   4   2.0000     -11.296137      -307.3835
   5   2.0000     -11.287265      -307.1421
   6   2.0000     -11.273842      -306.7768
   7   2.0000     -11.230362      -305.5937
   8   2.0000     -11.222129      -305.3696
   9   2.0000      -1.445870       -39.3441
  10   2.0000      -1.360410       -37.0186
  11   2.0000      -1.332875       -36.2694
  12   2.0000      -1.085942       -29.5500
  13   2.0000      -0.997767       -27.1506
  14   2.0000      -0.972708       -26.4687
  15   2.0000      -0.882387       -24.0110
  16   2.0000      -0.835535       -22.7361
  17   2.0000      -0.801235       -21.8027
  18   2.0000      -0.728953       -19.8358
  19   2.0000      -0.688745       -18.7417
  20   2.0000      -0.669337       -18.2136
  21   2.0000      -0.660947       -17.9853
  22   2.0000      -0.620575       -16.8867
  23   2.0000      -0.607732       -16.5372
  24   2.0000      -0.585859       -15.9420
  25   2.0000      -0.571111       -15.5407
  26   2.0000      -0.558462       -15.1965
  27   2.0000      -0.550729       -14.9861
  28   2.0000      -0.534892       -14.5551
  29   2.0000      -0.523555       -14.2467
  30   2.0000      -0.516056       -14.0426
  31   2.0000      -0.507346       -13.8056
  32   2.0000      -0.483799       -13.1648
  33   2.0000      -0.466846       -12.7035
  34   2.0000      -0.432823       -11.7777
  35   2.0000      -0.417619       -11.3640
  36   0.0000       0.134293         3.6543
  37   0.0000       0.146909         3.9976
  38   0.0000       0.152631         4.1533
  39   0.0000       0.176119         4.7924
  40   0.0000       0.195194         5.3115

MULLIKEN ATOMIC CHARGES
-----------------------
   0 C :   -0.371735
   1 C :    0.213460
   2 O :   -0.299798
   3 C :    0.004805
   4 C :   -0.387371
   5 C :    0.118915
   6 C :   -0.069205
   7 O :   -0.476382
   8 O :   -0.358451
   9 H :    0.130195
  10 H :    0.136575
  11 H :    0.135869
  12 H :    0.067766
  13 H :    0.086235
  14 H :    0.137367
  15 H :    0.137423
  16 H :    0.148294
  17 H :    0.097882
  18 H :    0.109964
  19 H :    0.111092
  20 H :    0.327099
Sum of atomic charges:    0.0000000

LOEWDIN ATOMIC CHARGES
----------------------
   0 C :   -0.288777
   1 C :   -0.416186
   2 O :    0.201877
   3 C :   -0.317502
   4 C :   -0.284957
   5 C :   -0.297325
   6 C :   -0.336292
   7 O :   -0.043928
   8 O :    0.167610
   9 H :    0.127980
  10 H :    0.130857
  11 H :    0.130569
  12 H :    0.124258
  13 H :    0.140034
  14 H :    0.129056
  15 H :    0.131453
  16 H :    0.131294
  17 H :    0.142965
  18 H :    0.129655
  19 H :    0.120127
  20 H :    0.177232

  Mayer bond orders larger than 0.1
B(  0-C ,  1-C ) :   0.9186 B(  0-C ,  9-H ) :   0.9327 B(  0-C , 10-H ) :   0.9330
B(  0-C , 11-H ) :   0.9325 B(  1-C ,  2-O ) :   0.9808 B(  1-C ,  8-O ) :   0.9266
B(  1-C , 12-H ) :   0.9284 B(  2-O ,  3-C ) :   0.9288 B(  3-C ,  4-C ) :   0.9081
B(  3-C ,  5-C ) :   0.9113 B(  3-C , 13-H ) :   0.9369 B(  4-C , 14-H ) :   0.9301
B(  4-C , 15-H ) :   0.9364 B(  4-C , 16-H ) :   0.9340 B(  5-C ,  6-C ) :   0.9106
B(  5-C ,  8-O ) :   0.8778 B(  5-C , 17-H ) :   0.9048 B(  6-C ,  7-O ) :   0.9364
B(  6-C , 18-H ) :   0.9232 B(  6-C , 19-H ) :   0.9233 B(  7-O , 20-H ) :   0.8274

MP2 TOTAL ENERGY:     -460.645614452 Eh
FINAL SINGLE POINT ENERGY      -460.645614451822

DIPOLE MOMENT
-------------
                                X             Y             Z
Electronic contribution:     -2.19708      -1.06860       2.34154
Nuclear contribution   :      2.00845       1.13790      -3.15095
                        -----------------------------------------
Total Dipole Moment    :     -0.18864       0.06930      -0.80941
                        -----------------------------------------
Magnitude (a.u.)       :      0.83399
Magnitude (Debye)      :      2.11983

                             ****ORCA TERMINATED NORMALLY****
TOTAL RUN TIME: 0 days 0 hours 28 minutes 38 seconds 739 msec
