                         Program Version 3.0.3 - RELEASE   -
|  1> ! RI-MP2 RIJK def2-TZVP def2-TZVP/C def2-TZVP/JK TIGHTSCF
|  2> % maxcore 2000
|  3> % mp2 density relaxed end
|  4> *xyz 0 1
|  5>  C       -0.0343816327     1.5989180241     0.1850625316
|  6>  C        1.4709315556     1.4322801620    -0.1128215582
|  7>  C        2.3874026034     1.3331985434     1.1203291032
|  8>  C        2.4142957871    -0.0687140364     1.7718605260
|  9>  C        1.0846312618    -0.7336142727     2.0559201257
| 10>  C        0.0070436027    -0.7111740664     1.2694401907
| 11>  C       -0.0651280990     0.0618059192    -0.0182773205
| 12>  O        1.2212461468     0.1245147240    -0.6939429114
| 13>  H       -0.3266216720     1.9797376662     1.1644919413
| 14>  H       -0.5582859440     2.1414079645    -0.6046925504
| 15>  H        1.8893620720     2.1174862182    -0.8571450126
| 16>  H        3.4153415642     1.5877585687     0.8376288559
| 17>  H        2.0736656527     2.0867004855     1.8532048813
| 18>  H        2.9910473261    -0.7340784239     1.1177432609
| 19>  H        2.9831550310     0.0016057618     2.7054788894
| 20>  H        1.0369472349    -1.3152519461     2.9740268373
| 21>  H       -0.8931065337    -1.2413922941     1.5714746265
| 22>  H       -0.8404005468    -0.3328685781    -0.6825740968
| 23> *
| 24>
| 25>                          ****END OF INPUT****

CARTESIAN COORDINATES (ANGSTROEM)
---------------------------------
  C     -0.034382    1.598918    0.185063
  C      1.470932    1.432280   -0.112822
  C      2.387403    1.333199    1.120329
  C      2.414296   -0.068714    1.771861
  C      1.084631   -0.733614    2.055920
  C      0.007044   -0.711174    1.269440
  C     -0.065128    0.061806   -0.018277
  O      1.221246    0.124515   -0.693943
  H     -0.326622    1.979738    1.164492
  H     -0.558286    2.141408   -0.604693
  H      1.889362    2.117486   -0.857145
  H      3.415342    1.587759    0.837629
  H      2.073666    2.086700    1.853205
  H      2.991047   -0.734078    1.117743
  H      2.983155    0.001606    2.705479
  H      1.036947   -1.315252    2.974027
  H     -0.893107   -1.241392    1.571475
  H     -0.840401   -0.332869   -0.682574

 Total Charge           Charge          ....    0
 Multiplicity           Mult            ....    1
 Number of Electrons    NEL             ....   60
 Basis Dimension        Dim             ....  308

ORBITAL ENERGIES
----------------

  NO   OCC          E(Eh)            E(eV)
   0   2.0000     -20.540793      -558.9434
   1   2.0000     -11.283346      -307.0355
   2   2.0000     -11.280495      -306.9579
   3   2.0000     -11.228733      -305.5494
   4   2.0000     -11.225709      -305.4671
   5   2.0000     -11.225541      -305.4625
   6   2.0000     -11.224413      -305.4318
   7   2.0000     -11.220979      -305.3384
   8   2.0000      -1.374499       -37.4020
   9   2.0000      -1.086123       -29.5549
  10   2.0000      -1.033450       -28.1216
  11   2.0000      -1.007643       -27.4194
  12   2.0000      -0.890741       -24.2383
  13   2.0000      -0.878085       -23.8939
  14   2.0000      -0.742217       -20.1968
  15   2.0000      -0.709770       -19.3138
  16   2.0000      -0.704114       -19.1599
  17   2.0000      -0.646892       -17.6028
  18   2.0000      -0.619067       -16.8457
  19   2.0000      -0.603967       -16.4348
  20   2.0000      -0.582049       -15.8384
  21   2.0000      -0.571259       -15.5447
  22   2.0000      -0.534942       -14.5565
  23   2.0000      -0.511949       -13.9308
  24   2.0000      -0.491593       -13.3769
  25   2.0000      -0.468463       -12.7475
  26   2.0000      -0.465986       -12.6801
  27   2.0000      -0.444594       -12.0980
  28   2.0000      -0.407593       -11.0912
  29   2.0000      -0.345938        -9.4135
  30   0.0000       0.131805         3.5866
  31   0.0000       0.145663         3.9637
  32   0.0000       0.164457         4.4751
  33   0.0000       0.169487         4.6120
  34   0.0000       0.180459         4.9105

MULLIKEN ATOMIC CHARGES
-----------------------
   0 C :   -0.295152
   1 C :    0.115639
   2 C :   -0.258222
   3 C :   -0.187950
   4 C :   -0.142946
   5 C :   -0.290814
   6 C :    0.223246
   7 O :   -0.350132
   8 H :    0.123104
   9 H :    0.121487
  10 H :    0.106531
  11 H :    0.122196
  12 H :    0.111550
  13 H :    0.124970
  14 H :    0.123956
  15 H :    0.120865
  16 H :    0.114175
  17 H :    0.117495
Sum of atomic charges:    0.0000000

LOEWDIN ATOMIC CHARGES
----------------------
   0 C :   -0.199712
   1 C :   -0.272275
   2 C :   -0.242411
   3 C :   -0.251014
   4 C :   -0.160995
   5 C :   -0.164526
   6 C :   -0.263253
   7 O :    0.157938
   8 H :    0.130284
   9 H :    0.134134
  10 H :    0.132313
  11 H :    0.139246
  12 H :    0.140958
  13 H :    0.154367
  14 H :    0.141279
  15 H :    0.143572
  16 H :    0.143955
  17 H :    0.136142

  Mayer bond orders larger than 0.1
B(  0-C ,  1-C ) :   0.9559 B(  0-C ,  6-C ) :   0.9030 B(  0-C ,  8-H ) :   0.9218
B(  0-C ,  9-H ) :   0.9209 B(  1-C ,  2-C ) :   0.9041 B(  1-C ,  7-O ) :   0.9439
B(  1-C , 10-H ) :   0.9257 B(  2-C ,  3-C ) :   0.9470 B(  2-C , 11-H ) :   0.9278
B(  2-C , 12-H ) :   0.9188 B(  3-C ,  4-C ) :   0.9443 B(  3-C , 13-H ) :   0.9036
B(  3-C , 14-H ) :   0.9327 B(  4-C ,  5-C ) :   1.8294 B(  4-C , 15-H ) :   0.9289
B(  5-C ,  6-C ) :   0.9231 B(  5-C , 16-H ) :   0.9246 B(  6-C ,  7-O ) :   0.8912
B(  6-C , 17-H ) :   0.9197

MP2 TOTAL ENERGY:     -347.182290248 Eh
FINAL SINGLE POINT ENERGY      -347.182290248209

DIPOLE MOMENT
-------------
                                X             Y             Z
Electronic contribution:     -1.13166      -1.75589      -2.65846
Nuclear contribution   :      0.93935       2.20889       3.10101
                        -----------------------------------------
Total Dipole Moment    :     -0.19232       0.45299       0.44255
                        -----------------------------------------
Magnitude (a.u.)       :      0.66184
Magnitude (Debye)      :      1.68227

                             ****ORCA TERMINATED NORMALLY****
TOTAL RUN TIME: 0 days 0 hours 16 minutes 4 seconds 108 msec
