                         Program Version 3.0.3 - RELEASE   -
|  1> ! RI-MP2 RIJK def2-TZVP def2-TZVP/C def2-TZVP/JK TIGHTSCF
|  2> % maxcore 2000
|  3> % mp2 density relaxed end
|  4> *xyz 0 1
|  5>  C        0.1396246423     1.4110559420    -0.0825481819
|  6>  O        0.0310930993    -0.0101427602    -0.0538161233
|  7>  C        0.5819774025    -0.6821888934    -1.0712345389
|  8>  C        0.6246968950    -2.0251501192    -1.2890257155
|  9>  C        1.3379159824    -2.1719834435    -2.5289762683
| 10>  O        1.6363633783    -3.3340583497    -3.1662255752
| 11>  C        1.6797518582    -0.9354910746    -2.9825886009
| 12>  N        2.3608229707    -0.4988618678    -4.1046792098
| 13>  O        1.1924755946     0.0089225641    -2.0449072793
| 14>  H        1.1871463413     1.7292136560    -0.0725678441
| 15>  H       -0.3491884248     1.8284296951    -0.9688166149
| 16>  H       -0.3633643540     1.7629601833     0.8186085747
| 17>  H        0.2097025636    -2.7951252519    -0.6594052018
| 18>  H        1.2877190626    -4.0631203904    -2.6457894046
| 19>  H        3.2300184232    -0.0170121257    -3.9019206304
| 20>  H        1.8047344746     0.0714980059    -4.7325768858
| 21> *
| 22>
| 23>                          ****END OF INPUT****

CARTESIAN COORDINATES (ANGSTROEM)
---------------------------------
  C      0.139625    1.411056   -0.082548
  O      0.031093   -0.010143   -0.053816
  C      0.581977   -0.682189   -1.071235
  C      0.624697   -2.025150   -1.289026
  C      1.337916   -2.171983   -2.528976
  O      1.636363   -3.334058   -3.166226
  C      1.679752   -0.935491   -2.982589
  N      2.360823   -0.498862   -4.104679
  O      1.192476    0.008923   -2.044907
  H      1.187146    1.729214   -0.072568
  H     -0.349188    1.828430   -0.968817
  H     -0.363364    1.762960    0.818609
  H      0.209703   -2.795125   -0.659405
  H      1.287719   -4.063120   -2.645789
  H      3.230018   -0.017012   -3.901921
  H      1.804734    0.071498   -4.732577

 Total Charge           Charge          ....    0
 Multiplicity           Mult            ....    1
 Number of Electrons    NEL             ....   68
 Basis Dimension        Dim             ....  321

ORBITAL ENERGIES
----------------

  NO   OCC          E(Eh)            E(eV)
   0   2.0000     -20.614433      -560.9472
   1   2.0000     -20.601815      -560.6039
   2   2.0000     -20.583311      -560.1004
   3   2.0000     -15.554686      -423.2645
   4   2.0000     -11.357143      -309.0436
   5   2.0000     -11.291229      -307.2500
   6   2.0000     -11.289936      -307.2148
   7   2.0000     -11.284099      -307.0559
   8   2.0000     -11.212873      -305.1178
   9   2.0000      -1.478316       -40.2270
  10   2.0000      -1.406568       -38.2747
  11   2.0000      -1.394514       -37.9467
  12   2.0000      -1.191528       -32.4231
  13   2.0000      -1.076068       -29.2813
  14   2.0000      -0.992100       -26.9964
  15   2.0000      -0.925219       -25.1765
  16   2.0000      -0.822161       -22.3721
  17   2.0000      -0.770816       -20.9750
  18   2.0000      -0.742022       -20.1914
  19   2.0000      -0.697433       -18.9781
  20   2.0000      -0.693690       -18.8763
  21   2.0000      -0.672071       -18.2880
  22   2.0000      -0.664623       -18.0853
  23   2.0000      -0.621581       -16.9141
  24   2.0000      -0.606415       -16.5014
  25   2.0000      -0.600615       -16.3436
  26   2.0000      -0.568125       -15.4595
  27   2.0000      -0.567264       -15.4360
  28   2.0000      -0.531022       -14.4498
  29   2.0000      -0.519676       -14.1411
  30   2.0000      -0.504340       -13.7238
  31   2.0000      -0.423802       -11.5322
  32   2.0000      -0.371453       -10.1078
  33   2.0000      -0.283222        -7.7069
  34   0.0000       0.133457         3.6315
  35   0.0000       0.143674         3.9096
  36   0.0000       0.157130         4.2757
  37   0.0000       0.175254         4.7689
  38   0.0000       0.194458         5.2915

MULLIKEN ATOMIC CHARGES
-----------------------
   0 C :   -0.213065
   1 O :   -0.278874
   2 C :    0.304269
   3 C :   -0.283040
   4 C :    0.151364
   5 O :   -0.426956
   6 C :    0.090630
   7 N :   -0.511676
   8 O :   -0.217678
   9 H :    0.132959
  10 H :    0.132999
  11 H :    0.148206
  12 H :    0.142955
  13 H :    0.333385
  14 H :    0.247258
  15 H :    0.247263
Sum of atomic charges:    0.0000000

LOEWDIN ATOMIC CHARGES
----------------------
   0 C :   -0.315488
   1 O :    0.233225
   2 C :   -0.392030
   3 C :   -0.181746
   4 C :   -0.305357
   5 O :    0.072725
   6 C :   -0.350095
   7 N :   -0.094327
   8 O :    0.328658
   9 H :    0.110421
  10 H :    0.110421
  11 H :    0.116463
  12 H :    0.142894
  13 H :    0.193030
  14 H :    0.165601
  15 H :    0.165604

  Mayer bond orders larger than 0.1
B(  0-C ,  1-O ) :   0.8515 B(  0-C ,  9-H ) :   0.9355 B(  0-C , 10-H ) :   0.9355
B(  0-C , 11-H ) :   0.9365 B(  1-O ,  2-C ) :   1.0997 B(  2-C ,  3-C ) :   1.5213
B(  2-C ,  8-O ) :   1.0622 B(  3-C ,  4-C ) :   1.1541 B(  3-C , 12-H ) :   0.9079
B(  4-C ,  5-O ) :   1.1053 B(  4-C ,  6-C ) :   1.5724 B(  5-O , 13-H ) :   0.8355
B(  6-C ,  7-N ) :   1.2121 B(  6-C ,  8-O ) :   0.9490 B(  7-N , 14-H ) :   0.8825
B(  7-N , 15-H ) :   0.8825

MP2 TOTAL ENERGY:     -474.269078311 Eh
FINAL SINGLE POINT ENERGY      -474.269078310701

DIPOLE MOMENT
-------------
                                X             Y             Z
Electronic contribution:      0.26948      -3.80007      -0.88134
Nuclear contribution   :     -0.45909       4.43672       1.27723
                        -----------------------------------------
Total Dipole Moment    :     -0.18961       0.63665       0.39589
                        -----------------------------------------
Magnitude (a.u.)       :      0.77331
Magnitude (Debye)      :      1.96559

                             ****ORCA TERMINATED NORMALLY****
TOTAL RUN TIME: 0 days 0 hours 14 minutes 36 seconds 428 msec
