                         Program Version 3.0.3 - RELEASE   -
|  1> ! RI-MP2 RIJK def2-TZVP def2-TZVP/C def2-TZVP/JK TIGHTSCF
|  2> % maxcore 2000
|  3> % mp2 density relaxed end
|  4> *xyz 0 1
|  5>  O       -0.3289915174     1.4486176351     0.3293162152
|  6>  C       -0.0580338451     0.0687321933     0.1368663807
|  7>  C       -1.3950225901    -0.6466916896    -0.0221852692
|  8>  C       -1.2886405463    -2.1679840113    -0.1698070307
|  9>  O       -0.5451917741    -2.5348244876    -1.3212782274
| 10>  C       -0.9343969481    -2.9204887166     1.1563028624
| 11>  C       -2.4434321094    -3.2351386508     1.3405943908
| 12>  C       -2.6693721835    -2.8700035027    -0.1512328772
| 13>  H        0.5097311895     1.9126974173     0.4062452896
| 14>  H        0.5594155919    -0.0840596892    -0.7641350436
| 15>  H        0.4982440571    -0.3490200460     0.9921072950
| 16>  H       -2.0148481885    -0.4047919200     0.8491692425
| 17>  H       -1.9056949464    -0.2419007420    -0.9034001137
| 18>  H        0.3557213192    -2.2096876438    -1.2237106377
| 19>  H       -0.3546248848    -3.8190389597     0.9299966591
| 20>  H       -0.4314991483    -2.3591792147     1.9484905882
| 21>  H       -2.7036371613    -4.2498847727     1.6472658757
| 22>  H       -2.9340563741    -2.5346871776     2.0212217319
| 23>  H       -3.5404778347    -2.2614998108    -0.4071495586
| 24>  H       -2.6427725253    -3.7488400406    -0.7995559430
| 25> *
| 26>
| 27>                          ****END OF INPUT****

CARTESIAN COORDINATES (ANGSTROEM)
---------------------------------
  O     -0.328992    1.448618    0.329316
  C     -0.058034    0.068732    0.136866
  C     -1.395023   -0.646692   -0.022185
  C     -1.288641   -2.167984   -0.169807
  O     -0.545192   -2.534824   -1.321278
  C     -0.934397   -2.920489    1.156303
  C     -2.443432   -3.235139    1.340594
  C     -2.669372   -2.870004   -0.151233
  H      0.509731    1.912697    0.406245
  H      0.559416   -0.084060   -0.764135
  H      0.498244   -0.349020    0.992107
  H     -2.014848   -0.404792    0.849169
  H     -1.905695   -0.241901   -0.903400
  H      0.355721   -2.209688   -1.223711
  H     -0.354625   -3.819039    0.929997
  H     -0.431499   -2.359179    1.948491
  H     -2.703637   -4.249885    1.647266
  H     -2.934056   -2.534687    2.021222
  H     -3.540478   -2.261500   -0.407150
  H     -2.642773   -3.748840   -0.799556

 Total Charge           Charge          ....    0
 Multiplicity           Mult            ....    1
 Number of Electrons    NEL             ....   64
 Basis Dimension        Dim             ....  320

ORBITAL ENERGIES
----------------

  NO   OCC          E(Eh)            E(eV)
   0   2.0000     -20.560012      -559.4664
   1   2.0000     -20.553248      -559.2823
   2   2.0000     -11.283285      -307.0338
   3   2.0000     -11.281693      -306.9905
   4   2.0000     -11.221294      -305.3469
   5   2.0000     -11.219598      -305.3008
   6   2.0000     -11.219571      -305.3001
   7   2.0000     -11.214965      -305.1747
   8   2.0000      -1.365267       -37.1508
   9   2.0000      -1.360824       -37.0299
  10   2.0000      -1.123502       -30.5720
  11   2.0000      -1.022646       -27.8276
  12   2.0000      -0.907466       -24.6934
  13   2.0000      -0.886239       -24.1158
  14   2.0000      -0.825351       -22.4589
  15   2.0000      -0.739818       -20.1315
  16   2.0000      -0.713187       -19.4068
  17   2.0000      -0.676255       -18.4018
  18   2.0000      -0.653210       -17.7747
  19   2.0000      -0.635841       -17.3021
  20   2.0000      -0.622103       -16.9283
  21   2.0000      -0.578102       -15.7309
  22   2.0000      -0.566083       -15.4039
  23   2.0000      -0.543804       -14.7977
  24   2.0000      -0.527367       -14.3504
  25   2.0000      -0.502794       -13.6817
  26   2.0000      -0.491177       -13.3656
  27   2.0000      -0.472974       -12.8703
  28   2.0000      -0.463000       -12.5989
  29   2.0000      -0.449268       -12.2252
  30   2.0000      -0.427966       -11.6455
  31   2.0000      -0.410747       -11.1770
  32   0.0000       0.129818         3.5325
  33   0.0000       0.145334         3.9547
  34   0.0000       0.149103         4.0573
  35   0.0000       0.175453         4.7743
  36   0.0000       0.176715         4.8087

MULLIKEN ATOMIC CHARGES
-----------------------
   0 O :   -0.461324
   1 C :   -0.109958
   2 C :   -0.230891
   3 C :    0.256997
   4 O :   -0.466945
   5 C :   -0.265438
   6 C :   -0.254399
   7 C :   -0.226906
   8 H :    0.314682
   9 H :    0.083589
  10 H :    0.100698
  11 H :    0.116692
  12 H :    0.124090
  13 H :    0.309238
  14 H :    0.117041
  15 H :    0.112005
  16 H :    0.117354
  17 H :    0.121833
  18 H :    0.118147
  19 H :    0.123496
Sum of atomic charges:    0.0000000

LOEWDIN ATOMIC CHARGES
----------------------
   0 O :   -0.047453
   1 C :   -0.355028
   2 C :   -0.235181
   3 C :   -0.360558
   4 O :    0.005759
   5 C :   -0.213686
   6 C :   -0.243443
   7 C :   -0.199092
   8 H :    0.172207
   9 H :    0.109910
  10 H :    0.114029
  11 H :    0.150801
  12 H :    0.147805
  13 H :    0.169439
  14 H :    0.137170
  15 H :    0.122830
  16 H :    0.123878
  17 H :    0.130971
  18 H :    0.127804
  19 H :    0.141837

  Mayer bond orders larger than 0.1
B(  0-O ,  1-C ) :   1.0278 B(  0-O ,  8-H ) :   0.8484 B(  1-C ,  2-C ) :   0.9118
B(  1-C ,  9-H ) :   0.9360 B(  1-C , 10-H ) :   0.9277 B(  2-C ,  3-C ) :   0.9197
B(  2-C , 11-H ) :   0.9094 B(  2-C , 12-H ) :   0.9228 B(  3-C ,  4-O ) :   0.9575
B(  3-C ,  5-C ) :   0.9001 B(  3-C ,  7-C ) :   0.8580 B(  4-O , 13-H ) :   0.8442
B(  5-C ,  6-C ) :   0.9492 B(  5-C , 14-H ) :   0.9170 B(  5-C , 15-H ) :   0.9253
B(  6-C ,  7-C ) :   0.9427 B(  6-C , 16-H ) :   0.9286 B(  6-C , 17-H ) :   0.9274
B(  7-C , 18-H ) :   0.9307 B(  7-C , 19-H ) :   0.9214

MP2 TOTAL ENERGY:     -385.496937649 Eh
FINAL SINGLE POINT ENERGY      -385.496937649284

DIPOLE MOMENT
-------------
                                X             Y             Z
Electronic contribution:      1.42896       1.77728      -2.36161
Nuclear contribution   :     -0.66693      -1.68662       2.80026
                        -----------------------------------------
Total Dipole Moment    :      0.76203       0.09066       0.43865
                        -----------------------------------------
Magnitude (a.u.)       :      0.88393
Magnitude (Debye)      :      2.24677

                             ****ORCA TERMINATED NORMALLY****
TOTAL RUN TIME: 0 days 0 hours 13 minutes 6 seconds 313 msec
