                         Program Version 3.0.3 - RELEASE   -
|  1> ! RI-MP2 RIJK def2-TZVP def2-TZVP/C def2-TZVP/JK TIGHTSCF
|  2> % maxcore 2000
|  3> % mp2 density relaxed end
|  4> *xyz 0 1
|  5>  C       -0.0616558580     1.5422116360     0.0931705048
|  6>  C        0.0012024994     0.0152967276     0.0022847439
|  7>  C        0.7213999697    -0.4778739002    -1.2568203776
|  8>  C        0.7827120866    -2.0012106128    -1.3450255104
|  9>  C        1.4863492786    -2.5140302622    -2.5749449349
| 10>  O        1.9694828810    -1.8092760010    -3.4337754260
| 11>  C        1.5718783133    -4.0564333679    -2.7042713129
| 12>  N        2.2145569687    -4.4366106352    -3.8299217548
| 13>  O        1.0994612089    -4.7969673064    -1.8628971268
| 14>  H        0.9429706696     1.9791069485     0.1085442429
| 15>  H       -0.5926383595     1.9679130817    -0.7654468373
| 16>  H       -0.5803543189     1.8670841440     1.0003680575
| 17>  H        0.5067179564    -0.3851853060     0.8911178422
| 18>  H       -1.0166757240    -0.3962928356     0.0240958718
| 19>  H        0.2221907023    -0.0839097189    -2.1503344346
| 20>  H        1.7401548363    -0.0728359228    -1.2863963958
| 21>  H        1.2834527634    -2.4445818075    -0.4733652075
| 22>  H       -0.2175379336    -2.4554541638    -1.3276215911
| 23>  H        2.5630098167    -3.7248776617    -4.4516750484
| 24>  H        2.3393856032    -5.4130830860    -4.0350124950
| 25> *
| 26>
| 27>                          ****END OF INPUT****

CARTESIAN COORDINATES (ANGSTROEM)
---------------------------------
  C     -0.061656    1.542212    0.093171
  C      0.001202    0.015297    0.002285
  C      0.721400   -0.477874   -1.256820
  C      0.782712   -2.001211   -1.345026
  C      1.486349   -2.514030   -2.574945
  O      1.969483   -1.809276   -3.433775
  C      1.571878   -4.056433   -2.704271
  N      2.214557   -4.436611   -3.829922
  O      1.099461   -4.796967   -1.862897
  H      0.942971    1.979107    0.108544
  H     -0.592638    1.967913   -0.765447
  H     -0.580354    1.867084    1.000368
  H      0.506718   -0.385185    0.891118
  H     -1.016676   -0.396293    0.024096
  H      0.222191   -0.083910   -2.150334
  H      1.740155   -0.072836   -1.286396
  H      1.283453   -2.444582   -0.473365
  H     -0.217538   -2.455454   -1.327622
  H      2.563010   -3.724878   -4.451675
  H      2.339386   -5.413083   -4.035012

 Total Charge           Charge          ....    0
 Multiplicity           Mult            ....    1
 Number of Electrons    NEL             ....   70
 Basis Dimension        Dim             ....  345

ORBITAL ENERGIES
----------------

  NO   OCC          E(Eh)            E(eV)
   0   2.0000     -20.577606      -559.9451
   1   2.0000     -20.541027      -558.9498
   2   2.0000     -15.594614      -424.3510
   3   2.0000     -11.367889      -309.3360
   4   2.0000     -11.353238      -308.9373
   5   2.0000     -11.242076      -305.9125
   6   2.0000     -11.226284      -305.4827
   7   2.0000     -11.224567      -305.4360
   8   2.0000     -11.215234      -305.1820
   9   2.0000      -1.424463       -38.7616
  10   2.0000      -1.394378       -37.9429
  11   2.0000      -1.226546       -33.3760
  12   2.0000      -1.089593       -29.6493
  13   2.0000      -1.020132       -27.7592
  14   2.0000      -0.932203       -25.3665
  15   2.0000      -0.868414       -23.6308
  16   2.0000      -0.802949       -21.8494
  17   2.0000      -0.765857       -20.8400
  18   2.0000      -0.737943       -20.0805
  19   2.0000      -0.688276       -18.7289
  20   2.0000      -0.657926       -17.9031
  21   2.0000      -0.646708       -17.5978
  22   2.0000      -0.624412       -16.9911
  23   2.0000      -0.614311       -16.7163
  24   2.0000      -0.584983       -15.9182
  25   2.0000      -0.577000       -15.7010
  26   2.0000      -0.537281       -14.6202
  27   2.0000      -0.528537       -14.3822
  28   2.0000      -0.509344       -13.8599
  29   2.0000      -0.500155       -13.6099
  30   2.0000      -0.482551       -13.1309
  31   2.0000      -0.478692       -13.0259
  32   2.0000      -0.470958       -12.8154
  33   2.0000      -0.427326       -11.6281
  34   2.0000      -0.412066       -11.2129
  35   0.0000       0.083635         2.2758
  36   0.0000       0.129466         3.5229
  37   0.0000       0.140467         3.8223
  38   0.0000       0.157813         4.2943
  39   0.0000       0.179064         4.8726

MULLIKEN ATOMIC CHARGES
-----------------------
   0 C :   -0.384852
   1 C :   -0.180777
   2 C :   -0.199244
   3 C :   -0.256840
   4 C :    0.214965
   5 O :   -0.308467
   6 C :    0.229822
   7 N :   -0.450244
   8 O :   -0.337984
   9 H :    0.123319
  10 H :    0.123320
  11 H :    0.134484
  12 H :    0.106448
  13 H :    0.106445
  14 H :    0.115443
  15 H :    0.115431
  16 H :    0.151034
  17 H :    0.150973
  18 H :    0.284169
  19 H :    0.262557
Sum of atomic charges:   -0.0000000

LOEWDIN ATOMIC CHARGES
----------------------
   0 C :   -0.320397
   1 C :   -0.296614
   2 C :   -0.263246
   3 C :   -0.238943
   4 C :   -0.281936
   5 O :    0.157417
   6 C :   -0.463413
   7 N :    0.009785
   8 O :    0.095491
   9 H :    0.120734
  10 H :    0.120734
  11 H :    0.120680
  12 H :    0.134774
  13 H :    0.134773
  14 H :    0.141914
  15 H :    0.141912
  16 H :    0.164014
  17 H :    0.164017
  18 H :    0.182510
  19 H :    0.175795

  Mayer bond orders larger than 0.1
B(  0-C ,  1-C ) :   0.9274 B(  0-C ,  9-H ) :   0.9392 B(  0-C , 10-H ) :   0.9392
B(  0-C , 11-H ) :   0.9436 B(  1-C ,  2-C ) :   0.9317 B(  1-C , 12-H ) :   0.9317
B(  1-C , 13-H ) :   0.9317 B(  2-C ,  3-C ) :   0.9297 B(  2-C , 14-H ) :   0.9272
B(  2-C , 15-H ) :   0.9273 B(  3-C ,  4-C ) :   0.9501 B(  3-C , 16-H ) :   0.8960
B(  3-C , 17-H ) :   0.8960 B(  4-C ,  5-O ) :   1.8788 B(  4-C ,  6-C ) :   0.8829
B(  6-C ,  7-N ) :   1.2390 B(  6-C ,  8-O ) :   1.9564 B(  7-N , 18-H ) :   0.8450
B(  7-N , 19-H ) :   0.8581

MP2 TOTAL ENERGY:     -439.621550508 Eh
FINAL SINGLE POINT ENERGY      -439.621550507881

DIPOLE MOMENT
-------------
                                X             Y             Z
Electronic contribution:      4.75487     -12.60011      -8.19105
Nuclear contribution   :     -4.53590      12.69304       7.80499
                        -----------------------------------------
Total Dipole Moment    :      0.21897       0.09294      -0.38606
                        -----------------------------------------
Magnitude (a.u.)       :      0.45347
Magnitude (Debye)      :      1.15262

                             ****ORCA TERMINATED NORMALLY****
TOTAL RUN TIME: 0 days 0 hours 14 minutes 18 seconds 571 msec
