                         Program Version 3.0.3 - RELEASE   -
|  1> ! RI-MP2 RIJK def2-TZVP def2-TZVP/C def2-TZVP/JK TIGHTSCF
|  2> % maxcore 2000
|  3> % mp2 density relaxed end
|  4> *xyz 0 1
|  5>  C        0.0450800798     1.4983780626    -0.0005856511
|  6>  C        0.0092967053     0.0046774017    -0.0061971943
|  7>  C        0.1600250825    -0.8513756978    -1.0670696563
|  8>  N        0.0455401296    -2.1260808545    -0.5471686171
|  9>  C        0.1168524267    -3.3803634464    -1.2808286308
| 10>  C        1.4163857357    -3.6201168638    -1.9049810321
| 11>  C        2.4760390000    -3.8193371229    -2.4330568225
| 12>  C       -0.1652221692    -1.9780554698     0.7924208619
| 13>  N       -0.1953635472    -0.7178507358     1.1529337499
| 14>  H        0.8419653081     1.8698390791     0.6526449102
| 15>  H        0.2161261184     1.8924826343    -1.0060840544
| 16>  H       -0.8967219373     1.9134234278     0.3743187140
| 17>  H        0.3454946888    -0.6856969653    -2.1155815750
| 18>  H       -0.1139735160    -4.1846712655    -0.5743953959
| 19>  H       -0.6685737228    -3.4004420302    -2.0468512162
| 20>  H        3.4175754336    -3.9953051329    -2.8923282212
| 21>  H       -0.2907332060    -2.8317000605     1.4434435509
| 22> *
| 23>
| 24>                          ****END OF INPUT****

CARTESIAN COORDINATES (ANGSTROEM)
---------------------------------
  C      0.045080    1.498378   -0.000586
  C      0.009297    0.004677   -0.006197
  C      0.160025   -0.851376   -1.067070
  N      0.045540   -2.126081   -0.547169
  C      0.116852   -3.380363   -1.280829
  C      1.416386   -3.620117   -1.904981
  C      2.476039   -3.819337   -2.433057
  C     -0.165222   -1.978055    0.792421
  N     -0.195364   -0.717851    1.152934
  H      0.841965    1.869839    0.652645
  H      0.216126    1.892483   -1.006084
  H     -0.896722    1.913423    0.374319
  H      0.345495   -0.685697   -2.115582
  H     -0.113974   -4.184671   -0.574395
  H     -0.668574   -3.400442   -2.046851
  H      3.417575   -3.995305   -2.892328
  H     -0.290733   -2.831700    1.443444

 Total Charge           Charge          ....    0
 Multiplicity           Mult            ....    1
 Number of Electrons    NEL             ....   64
 Basis Dimension        Dim             ....  327

ORBITAL ENERGIES
----------------

  NO   OCC          E(Eh)            E(eV)
   0   2.0000     -15.620427      -425.0534
   1   2.0000     -15.537122      -422.7866
   2   2.0000     -11.319719      -308.0252
   3   2.0000     -11.292987      -307.2978
   4   2.0000     -11.251361      -306.1651
   5   2.0000     -11.248130      -306.0772
   6   2.0000     -11.245714      -306.0114
   7   2.0000     -11.243170      -305.9422
   8   2.0000     -11.214738      -305.1685
   9   2.0000      -1.344404       -36.5831
  10   2.0000      -1.191839       -32.4316
  11   2.0000      -1.067147       -29.0385
  12   2.0000      -1.031524       -28.0692
  13   2.0000      -0.984970       -26.8024
  14   2.0000      -0.927487       -25.2382
  15   2.0000      -0.797088       -21.6899
  16   2.0000      -0.777602       -21.1596
  17   2.0000      -0.748510       -20.3680
  18   2.0000      -0.709784       -19.3142
  19   2.0000      -0.678263       -18.4565
  20   2.0000      -0.635711       -17.2986
  21   2.0000      -0.612757       -16.6740
  22   2.0000      -0.587824       -15.9955
  23   2.0000      -0.583334       -15.8733
  24   2.0000      -0.540375       -14.7044
  25   2.0000      -0.538357       -14.6494
  26   2.0000      -0.525772       -14.3070
  27   2.0000      -0.433552       -11.7976
  28   2.0000      -0.414612       -11.2822
  29   2.0000      -0.407945       -11.1008
  30   2.0000      -0.381169       -10.3721
  31   2.0000      -0.310761        -8.4562
  32   0.0000       0.124002         3.3743
  33   0.0000       0.151355         4.1186
  34   0.0000       0.152079         4.1383
  35   0.0000       0.160066         4.3556
  36   0.0000       0.162709         4.4275

MULLIKEN ATOMIC CHARGES
-----------------------
   0 C :   -0.429192
   1 C :    0.088562
   2 C :   -0.148134
   3 N :    0.003311
   4 C :   -0.312880
   5 C :   -0.015110
   6 C :   -0.130180
   7 C :   -0.008027
   8 N :   -0.297976
   9 H :    0.142717
  10 H :    0.128194
  11 H :    0.141871
  12 H :    0.148706
  13 H :    0.169140
  14 H :    0.173814
  15 H :    0.199207
  16 H :    0.145976
Sum of atomic charges:   -0.0000000

LOEWDIN ATOMIC CHARGES
----------------------
   0 C :   -0.275733
   1 C :   -0.284588
   2 C :   -0.197662
   3 N :    0.248680
   4 C :   -0.225634
   5 C :   -0.107433
   6 C :   -0.077795
   7 C :   -0.304683
   8 N :    0.107299
   9 H :    0.132387
  10 H :    0.128029
  11 H :    0.132070
  12 H :    0.140312
  13 H :    0.162896
  14 H :    0.159481
  15 H :    0.130461
  16 H :    0.131912

  Mayer bond orders larger than 0.1
B(  0-C ,  1-C ) :   0.8765 B(  0-C ,  9-H ) :   0.9358 B(  0-C , 10-H ) :   0.9532
B(  0-C , 11-H ) :   0.9366 B(  1-C ,  2-C ) :   1.5207 B(  1-C ,  8-N ) :   1.2593
B(  2-C ,  3-N ) :   1.1030 B(  2-C , 12-H ) :   0.9089 B(  3-N ,  4-C ) :   0.8921
B(  3-N ,  7-C ) :   1.1617 B(  4-C ,  5-C ) :   1.0090 B(  4-C , 13-H ) :   0.9263
B(  4-C , 14-H ) :   0.9439 B(  5-C ,  6-C ) :   2.6559 B(  6-C , 15-H ) :   0.9005
B(  7-C ,  8-N ) :   1.5702 B(  7-C , 16-H ) :   0.9208

MP2 TOTAL ENERGY:     -380.183229926 Eh
FINAL SINGLE POINT ENERGY      -380.183229926013

DIPOLE MOMENT
-------------
                                X             Y             Z
Electronic contribution:      0.54809      -4.22670       0.39283
Nuclear contribution   :     -0.42381       3.35699      -1.48916
                        -----------------------------------------
Total Dipole Moment    :      0.12428      -0.86971      -1.09633
                        -----------------------------------------
Magnitude (a.u.)       :      1.40492
Magnitude (Debye)      :      3.57101

                             ****ORCA TERMINATED NORMALLY****
TOTAL RUN TIME: 0 days 0 hours 15 minutes 8 seconds 312 msec
