                         Program Version 3.0.3 - RELEASE   -
|  1> ! RI-MP2 RIJK def2-TZVP def2-TZVP/C def2-TZVP/JK TIGHTSCF
|  2> % maxcore 2000
|  3> % mp2 density relaxed end
|  4> *xyz 0 1
|  5>  C       -0.4888699685     1.4279776937     0.0023484452
|  6>  C       -0.0238927715    -0.0435727835    -0.0105844298
|  7>  C        0.7178181471    -0.3838201438    -1.3075547173
|  8>  O        1.9642550781     0.2729881111    -1.4595423725
|  9>  C        3.0500015523    -0.3953394200    -0.8427316998
| 10>  C        3.2093723521    -0.0460315163     0.6340998982
| 11>  O        3.5766763570     1.3272365907     0.7852788525
| 12>  C        2.0313259291    -0.3701712781     1.5310202922
| 13>  C        0.7224255819    -0.3602566773     1.2663594007
| 14>  H        0.3678044158     2.1011242579    -0.0955191589
| 15>  H       -1.1730232247     1.6265485220    -0.8294934300
| 16>  H       -1.0056726410     1.6733701648     0.9347068101
| 17>  H       -0.9281219763    -0.6698302049    -0.0194193778
| 18>  H        0.8613498073    -1.4727451208    -1.3783162749
| 19>  H        0.1033654797    -0.0715482421    -2.1602508580
| 20>  H        2.9544245526    -1.4849173239    -0.9670626373
| 21>  H        3.9525704641    -0.0622579929    -1.3657591373
| 22>  H        4.0803137066    -0.6056881924     0.9981209233
| 23>  H        2.8725723814     1.8380527923     0.3681980470
| 24>  H        2.3184268596    -0.5522160231     2.5647798049
| 25>  H        0.0607783874    -0.5383133033     2.1139623295
| 26> *
| 27>
| 28>                          ****END OF INPUT****

CARTESIAN COORDINATES (ANGSTROEM)
---------------------------------
  C     -0.488870    1.427978    0.002348
  C     -0.023893   -0.043573   -0.010584
  C      0.717818   -0.383820   -1.307555
  O      1.964255    0.272988   -1.459542
  C      3.050002   -0.395339   -0.842732
  C      3.209372   -0.046032    0.634100
  O      3.576676    1.327237    0.785279
  C      2.031326   -0.370171    1.531020
  C      0.722426   -0.360257    1.266359
  H      0.367804    2.101124   -0.095519
  H     -1.173023    1.626549   -0.829493
  H     -1.005673    1.673370    0.934707
  H     -0.928122   -0.669830   -0.019419
  H      0.861350   -1.472745   -1.378316
  H      0.103365   -0.071548   -2.160251
  H      2.954425   -1.484917   -0.967063
  H      3.952570   -0.062258   -1.365759
  H      4.080314   -0.605688    0.998121
  H      2.872572    1.838053    0.368198
  H      2.318427   -0.552216    2.564780
  H      0.060778   -0.538313    2.113962

 Total Charge           Charge          ....    0
 Multiplicity           Mult            ....    1
 Number of Electrons    NEL             ....   70
 Basis Dimension        Dim             ....  351

ORBITAL ENERGIES
----------------

  NO   OCC          E(Eh)            E(eV)
   0   2.0000     -20.560409      -559.4772
   1   2.0000     -20.550495      -559.2074
   2   2.0000     -11.283789      -307.0475
   3   2.0000     -11.279482      -306.9303
   4   2.0000     -11.276106      -306.8385
   5   2.0000     -11.241752      -305.9036
   6   2.0000     -11.236919      -305.7721
   7   2.0000     -11.229416      -305.5679
   8   2.0000     -11.222571      -305.3817
   9   2.0000      -1.384873       -37.6843
  10   2.0000      -1.352269       -36.7971
  11   2.0000      -1.101732       -29.9797
  12   2.0000      -1.050744       -28.5922
  13   2.0000      -0.970800       -26.4168
  14   2.0000      -0.925112       -25.1736
  15   2.0000      -0.883740       -24.0478
  16   2.0000      -0.795534       -21.6476
  17   2.0000      -0.731279       -19.8991
  18   2.0000      -0.703642       -19.1471
  19   2.0000      -0.679322       -18.4853
  20   2.0000      -0.654485       -17.8095
  21   2.0000      -0.638790       -17.3824
  22   2.0000      -0.611006       -16.6263
  23   2.0000      -0.591671       -16.1002
  24   2.0000      -0.583444       -15.8763
  25   2.0000      -0.566699       -15.4207
  26   2.0000      -0.545413       -14.8414
  27   2.0000      -0.529770       -14.4158
  28   2.0000      -0.514073       -13.9886
  29   2.0000      -0.496488       -13.5101
  30   2.0000      -0.478478       -13.0200
  31   2.0000      -0.470708       -12.8086
  32   2.0000      -0.442823       -12.0498
  33   2.0000      -0.414534       -11.2800
  34   2.0000      -0.361517        -9.8374
  35   0.0000       0.130490         3.5508
  36   0.0000       0.143834         3.9139
  37   0.0000       0.156531         4.2594
  38   0.0000       0.160471         4.3666
  39   0.0000       0.172406         4.6914

MULLIKEN ATOMIC CHARGES
-----------------------
   0 C :   -0.401744
   1 C :    0.040994
   2 C :   -0.076125
   3 O :   -0.333389
   4 C :   -0.089157
   5 C :    0.153642
   6 O :   -0.462864
   7 C :   -0.230637
   8 C :   -0.193499
   9 H :    0.120917
  10 H :    0.129980
  11 H :    0.134932
  12 H :    0.091140
  13 H :    0.108253
  14 H :    0.121310
  15 H :    0.098093
  16 H :    0.130127
  17 H :    0.093967
  18 H :    0.319259
  19 H :    0.119883
  20 H :    0.124919
Sum of atomic charges:   -0.0000000

LOEWDIN ATOMIC CHARGES
----------------------
   0 C :   -0.282743
   1 C :   -0.280180
   2 C :   -0.295686
   3 O :    0.155874
   4 C :   -0.308123
   5 C :   -0.344721
   6 O :   -0.019189
   7 C :   -0.157344
   8 C :   -0.147160
   9 H :    0.121775
  10 H :    0.123205
  11 H :    0.125410
  12 H :    0.161976
  13 H :    0.125557
  14 H :    0.133248
  15 H :    0.125812
  16 H :    0.135989
  17 H :    0.152907
  18 H :    0.174855
  19 H :    0.148713
  20 H :    0.149824

  Mayer bond orders larger than 0.1
B(  0-C ,  1-C ) :   0.8833 B(  0-C ,  9-H ) :   0.9332 B(  0-C , 10-H ) :   0.9347
B(  0-C , 11-H ) :   0.9375 B(  1-C ,  2-C ) :   0.9168 B(  1-C ,  8-C ) :   0.9202
B(  1-C , 12-H ) :   0.9198 B(  2-C ,  3-O ) :   0.9114 B(  2-C , 13-H ) :   0.9364
B(  2-C , 14-H ) :   0.9327 B(  3-O ,  4-C ) :   0.9037 B(  4-C ,  5-C ) :   0.9296
B(  4-C , 15-H ) :   0.9306 B(  4-C , 16-H ) :   0.9313 B(  5-C ,  6-O ) :   0.9000
B(  5-C ,  7-C ) :   0.9374 B(  5-C , 17-H ) :   0.9220 B(  6-O , 18-H ) :   0.8370
B(  7-C ,  8-C ) :   1.8084 B(  7-C , 19-H ) :   0.9247 B(  8-C , 20-H ) :   0.9213

MP2 TOTAL ENERGY:     -423.517041761 Eh
FINAL SINGLE POINT ENERGY      -423.517041761043

DIPOLE MOMENT
-------------
                                X             Y             Z
Electronic contribution:      4.45980      -0.05890       0.19618
Nuclear contribution   :     -5.18952      -0.53665      -0.26719
                        -----------------------------------------
Total Dipole Moment    :     -0.72972      -0.59555      -0.07101
                        -----------------------------------------
Magnitude (a.u.)       :      0.94457
Magnitude (Debye)      :      2.40090

                             ****ORCA TERMINATED NORMALLY****
TOTAL RUN TIME: 0 days 0 hours 18 minutes 33 seconds 575 msec
