                         Program Version 3.0.3 - RELEASE   -
|  1> ! RI-MP2 RIJK def2-TZVP def2-TZVP/C def2-TZVP/JK TIGHTSCF
|  2> % maxcore 2000
|  3> % mp2 density relaxed end
|  4> *xyz 0 1
|  5>  O        0.1206785427     1.3175613772     0.2215708710
|  6>  C        0.0812956369    -0.0209765673    -0.0014776896
|  7>  C        0.0740370731    -0.7853179381    -1.1493504998
|  8>  C        0.0230185915    -2.1399484349    -0.6947838624
|  9>  C        0.0022509107    -2.1372962811     0.6630144849
| 10>  C       -0.0511393974    -3.5141777050     1.2281472977
| 11>  O       -0.0601488524    -4.3362453196     0.0537567967
| 12>  C       -0.0159076572    -3.5589978457    -1.1617316943
| 13>  N        0.0382056639    -0.8337700314     1.1058343441
| 14>  H        0.1546118832     1.7645700081    -0.6293340832
| 15>  H        0.1015018082    -0.4103416933    -2.1606479765
| 16>  H        0.8185900713    -3.7779258210     1.8517923252
| 17>  H       -0.9546277766    -3.7202384349     1.8249362471
| 18>  H       -0.9014353653    -3.8012397401    -1.7682117930
| 19>  H        0.8704425803    -3.8588677374    -1.7406444934
| 20>  H        0.0343288672    -0.4944360555     2.0517672156
| 21> *
| 22>
| 23>                          ****END OF INPUT****

CARTESIAN COORDINATES (ANGSTROEM)
---------------------------------
  O      0.120679    1.317561    0.221571
  C      0.081296   -0.020977   -0.001478
  C      0.074037   -0.785318   -1.149350
  C      0.023019   -2.139948   -0.694784
  C      0.002251   -2.137296    0.663014
  C     -0.051139   -3.514178    1.228147
  O     -0.060149   -4.336245    0.053757
  C     -0.015908   -3.558998   -1.161732
  N      0.038206   -0.833770    1.105834
  H      0.154612    1.764570   -0.629334
  H      0.101502   -0.410342   -2.160648
  H      0.818590   -3.777926    1.851792
  H     -0.954628   -3.720238    1.824936
  H     -0.901435   -3.801240   -1.768212
  H      0.870443   -3.858868   -1.740644
  H      0.034329   -0.494436    2.051767

 Total Charge           Charge          ....    0
 Multiplicity           Mult            ....    1
 Number of Electrons    NEL             ....   66
 Basis Dimension        Dim             ....  321

ORBITAL ENERGIES
----------------

  NO   OCC          E(Eh)            E(eV)
   0   2.0000     -20.604708      -560.6826
   1   2.0000     -20.546567      -559.1005
   2   2.0000     -15.609034      -424.7434
   3   2.0000     -11.330123      -308.3083
   4   2.0000     -11.285093      -307.0830
   5   2.0000     -11.276135      -306.8392
   6   2.0000     -11.243285      -305.9453
   7   2.0000     -11.213752      -305.1417
   8   2.0000     -11.210605      -305.0561
   9   2.0000      -1.426720       -38.8230
  10   2.0000      -1.365070       -37.1455
  11   2.0000      -1.286685       -35.0125
  12   2.0000      -1.066660       -29.0253
  13   2.0000      -1.006885       -27.3987
  14   2.0000      -0.968998       -26.3678
  15   2.0000      -0.853368       -23.2213
  16   2.0000      -0.812969       -22.1220
  17   2.0000      -0.764532       -20.8040
  18   2.0000      -0.728334       -19.8190
  19   2.0000      -0.685779       -18.6610
  20   2.0000      -0.665379       -18.1059
  21   2.0000      -0.631771       -17.1914
  22   2.0000      -0.621132       -16.9019
  23   2.0000      -0.603106       -16.4113
  24   2.0000      -0.568222       -15.4621
  25   2.0000      -0.567992       -15.4558
  26   2.0000      -0.537764       -14.6333
  27   2.0000      -0.528342       -14.3769
  28   2.0000      -0.518366       -14.1055
  29   2.0000      -0.479460       -13.0468
  30   2.0000      -0.420420       -11.4402
  31   2.0000      -0.353595        -9.6218
  32   2.0000      -0.278080        -7.5669
  33   0.0000       0.126750         3.4490
  34   0.0000       0.141731         3.8567
  35   0.0000       0.162865         4.4318
  36   0.0000       0.178609         4.8602
  37   0.0000       0.187536         5.1031

MULLIKEN ATOMIC CHARGES
-----------------------
   0 O :   -0.439041
   1 C :    0.295782
   2 C :   -0.341743
   3 C :   -0.034846
   4 C :   -0.001915
   5 C :   -0.004076
   6 O :   -0.327992
   7 C :   -0.004564
   8 N :   -0.297790
   9 H :    0.344699
  10 H :    0.138041
  11 H :    0.104835
  12 H :    0.104848
  13 H :    0.105509
  14 H :    0.105481
  15 H :    0.252771
Sum of atomic charges:    0.0000000

LOEWDIN ATOMIC CHARGES
----------------------
   0 O :    0.057990
   1 C :   -0.353988
   2 C :   -0.186803
   3 C :   -0.168902
   4 C :   -0.215448
   5 C :   -0.265083
   6 O :    0.138285
   7 C :   -0.247680
   8 N :    0.209443
   9 H :    0.200805
  10 H :    0.137461
  11 H :    0.124201
  12 H :    0.124209
  13 H :    0.125114
  14 H :    0.125104
  15 H :    0.195292

  Mayer bond orders larger than 0.1
B(  0-O ,  1-C ) :   1.0951 B(  0-O ,  9-H ) :   0.8294 B(  1-C ,  2-C ) :   1.5020
B(  1-C ,  8-N ) :   1.1187 B(  2-C ,  3-C ) :   1.1785 B(  2-C , 10-H ) :   0.8993
B(  3-C ,  4-C ) :   1.4934 B(  3-C ,  7-C ) :   0.9577 B(  4-C ,  5-C ) :   0.9667
B(  4-C ,  8-N ) :   1.0753 B(  5-C ,  6-O ) :   0.9576 B(  5-C , 11-H ) :   0.9153
B(  5-C , 12-H ) :   0.9152 B(  6-O ,  7-C ) :   0.9348 B(  7-C , 13-H ) :   0.9159
B(  7-C , 14-H ) :   0.9159 B(  8-N , 15-H ) :   0.8661

MP2 TOTAL ENERGY:     -437.179103555 Eh
FINAL SINGLE POINT ENERGY      -437.179103555385

DIPOLE MOMENT
-------------
                                X             Y             Z
Electronic contribution:      0.07514       2.82209       0.96354
Nuclear contribution   :     -0.04098      -1.83425      -0.83692
                        -----------------------------------------
Total Dipole Moment    :      0.03416       0.98785       0.12662
                        -----------------------------------------
Magnitude (a.u.)       :      0.99651
Magnitude (Debye)      :      2.53294

                             ****ORCA TERMINATED NORMALLY****
TOTAL RUN TIME: 0 days 0 hours 15 minutes 59 seconds 978 msec
