                         Program Version 3.0.3 - RELEASE   -
|  1> ! RI-MP2 RIJK def2-TZVP def2-TZVP/C def2-TZVP/JK TIGHTSCF
|  2> % maxcore 2000
|  3> % mp2 density relaxed end
|  4> *xyz 0 1
|  5>  C       -0.1134811585     1.5773049748    -0.0957404473
|  6>  C       -0.0059873205     0.0712944637     0.0035382955
|  7>  C        1.3071385363    -0.6363195048    -0.2319467888
|  8>  C        0.6907782360    -0.6349105504     1.1507320307
|  9>  C        1.3339391950     0.1058441248     2.2815836247
| 10>  C        0.7286782741     0.0994118294     3.6712049160
| 11>  C        2.0564819883    -0.5830420445     3.4266685764
| 12>  C        2.1203338714    -2.0974719682     3.4937108029
| 13>  C        3.3031853102     0.0989276551     3.9605997412
| 14>  H        0.8023932767     2.0766822745     0.2331296235
| 15>  H       -0.2959055825     1.8845173447    -1.1316558945
| 16>  H       -0.9377313260     1.9619770681     0.5154796067
| 17>  H       -0.8841914999    -0.4486147844    -0.3723508419
| 18>  H        1.3206216550    -1.5585562814    -0.8030956756
| 19>  H        2.1841567446    -0.0125841359    -0.3808196279
| 20>  H        0.2205172817    -1.5683876839     1.4456960989
| 21>  H        1.7862414499     1.0486170064     1.9851703141
| 22>  H        0.7116871480     1.0250800040     4.2379455560
| 23>  H       -0.1408238466    -0.5315470004     3.8312572906
| 24>  H        1.1939640949    -2.5704260580     3.1587323211
| 25>  H        2.9367101825    -2.4878878127     2.8743090782
| 26>  H        2.3016448925    -2.4273943843     4.5236456076
| 27>  H        3.4756580686    -0.1610634697     5.0122811027
| 28>  H        4.1933232504    -0.2035314334     3.3956811846
| 29>  H        3.2227450878     1.1888502466     3.8974015048
| 30> *
| 31>
| 32>                          ****END OF INPUT****

CARTESIAN COORDINATES (ANGSTROEM)
---------------------------------
  C     -0.113481    1.577305   -0.095740
  C     -0.005987    0.071294    0.003538
  C      1.307139   -0.636320   -0.231947
  C      0.690778   -0.634911    1.150732
  C      1.333939    0.105844    2.281584
  C      0.728678    0.099412    3.671205
  C      2.056482   -0.583042    3.426669
  C      2.120334   -2.097472    3.493711
  C      3.303185    0.098928    3.960600
  H      0.802393    2.076682    0.233130
  H     -0.295906    1.884517   -1.131656
  H     -0.937731    1.961977    0.515480
  H     -0.884191   -0.448615   -0.372351
  H      1.320622   -1.558556   -0.803096
  H      2.184157   -0.012584   -0.380820
  H      0.220517   -1.568388    1.445696
  H      1.786241    1.048617    1.985170
  H      0.711687    1.025080    4.237946
  H     -0.140824   -0.531547    3.831257
  H      1.193964   -2.570426    3.158732
  H      2.936710   -2.487888    2.874309
  H      2.301645   -2.427394    4.523646
  H      3.475658   -0.161063    5.012281
  H      4.193323   -0.203531    3.395681
  H      3.222745    1.188850    3.897402

 Total Charge           Charge          ....    0
 Multiplicity           Mult            ....    1
 Number of Electrons    NEL             ....   70
 Basis Dimension        Dim             ....  375

ORBITAL ENERGIES
----------------

  NO   OCC          E(Eh)            E(eV)
   0   2.0000     -11.230920      -305.6089
   1   2.0000     -11.225022      -305.4484
   2   2.0000     -11.224356      -305.4303
   3   2.0000     -11.223124      -305.3967
   4   2.0000     -11.214817      -305.1707
   5   2.0000     -11.212933      -305.1194
   6   2.0000     -11.212629      -305.1112
   7   2.0000     -11.211770      -305.0878
   8   2.0000     -11.211354      -305.0765
   9   2.0000      -1.163383       -31.6573
  10   2.0000      -1.123506       -30.5722
  11   2.0000      -0.978435       -26.6246
  12   2.0000      -0.957615       -26.0580
  13   2.0000      -0.931548       -25.3487
  14   2.0000      -0.854627       -23.2556
  15   2.0000      -0.795101       -21.6358
  16   2.0000      -0.757651       -20.6167
  17   2.0000      -0.720291       -19.6001
  18   2.0000      -0.663717       -18.0607
  19   2.0000      -0.634626       -17.2690
  20   2.0000      -0.610611       -16.6156
  21   2.0000      -0.583798       -15.8860
  22   2.0000      -0.568031       -15.4569
  23   2.0000      -0.559722       -15.2308
  24   2.0000      -0.547479       -14.8977
  25   2.0000      -0.541837       -14.7441
  26   2.0000      -0.530752       -14.4425
  27   2.0000      -0.520692       -14.1688
  28   2.0000      -0.497472       -13.5369
  29   2.0000      -0.482677       -13.1343
  30   2.0000      -0.462381       -12.5820
  31   2.0000      -0.451760       -12.2930
  32   2.0000      -0.414530       -11.2799
  33   2.0000      -0.377811       -10.2808
  34   2.0000      -0.353649        -9.6233
  35   0.0000       0.138731         3.7751
  36   0.0000       0.152978         4.1628
  37   0.0000       0.155596         4.2340
  38   0.0000       0.173577         4.7233
  39   0.0000       0.188979         5.1424

MULLIKEN ATOMIC CHARGES
-----------------------
   0 C :   -0.398572
   1 C :   -0.069018
   2 C :   -0.282971
   3 C :   -0.092339
   4 C :   -0.143467
   5 C :   -0.301174
   6 C :    0.125461
   7 C :   -0.390988
   8 C :   -0.403680
   9 H :    0.117912
  10 H :    0.134297
  11 H :    0.129787
  12 H :    0.111122
  13 H :    0.127348
  14 H :    0.117521
  15 H :    0.110613
  16 H :    0.104769
  17 H :    0.125314
  18 H :    0.118910
  19 H :    0.120664
  20 H :    0.128005
  21 H :    0.131490
  22 H :    0.126306
  23 H :    0.127737
  24 H :    0.124952
Sum of atomic charges:    0.0000000

LOEWDIN ATOMIC CHARGES
----------------------
   0 C :   -0.296306
   1 C :   -0.231945
   2 C :   -0.209415
   3 C :   -0.192674
   4 C :   -0.174792
   5 C :   -0.189333
   6 C :   -0.276759
   7 C :   -0.266701
   8 C :   -0.268837
   9 H :    0.122603
  10 H :    0.125138
  11 H :    0.125449
  12 H :    0.145679
  13 H :    0.128534
  14 H :    0.134363
  15 H :    0.150522
  16 H :    0.152577
  17 H :    0.131252
  18 H :    0.135040
  19 H :    0.124127
  20 H :    0.127399
  21 H :    0.127081
  22 H :    0.125027
  23 H :    0.125840
  24 H :    0.126132

  Mayer bond orders larger than 0.1
B(  0-C ,  1-C ) :   0.9151 B(  0-C ,  9-H ) :   0.9363 B(  0-C , 10-H ) :   0.9381
B(  0-C , 11-H ) :   0.9402 B(  1-C ,  2-C ) :   0.9081 B(  1-C ,  3-C ) :   0.8811
B(  1-C , 12-H ) :   0.9274 B(  2-C ,  3-C ) :   0.8728 B(  2-C , 13-H ) :   0.9253
B(  2-C , 14-H ) :   0.9246 B(  3-C ,  4-C ) :   0.9118 B(  3-C , 15-H ) :   0.9133
B(  4-C ,  5-C ) :   0.8851 B(  4-C ,  6-C ) :   0.8680 B(  4-C , 16-H ) :   0.9126
B(  5-C ,  6-C ) :   0.9029 B(  5-C , 17-H ) :   0.9228 B(  5-C , 18-H ) :   0.9194
B(  6-C ,  7-C ) :   0.9245 B(  6-C ,  8-C ) :   0.8924 B(  7-C , 19-H ) :   0.9317
B(  7-C , 20-H ) :   0.9387 B(  7-C , 21-H ) :   0.9369 B(  8-C , 22-H ) :   0.9382
B(  8-C , 23-H ) :   0.9399 B(  8-C , 24-H ) :   0.9321

MP2 TOTAL ENERGY:     -351.686765523 Eh
FINAL SINGLE POINT ENERGY      -351.686765522857

DIPOLE MOMENT
-------------
                                X             Y             Z
Electronic contribution:     -1.46594      -0.64473      -0.84627
Nuclear contribution   :      1.45878       0.62815       0.83811
                        -----------------------------------------
Total Dipole Moment    :     -0.00717      -0.01658      -0.00815
                        -----------------------------------------
Magnitude (a.u.)       :      0.01981
Magnitude (Debye)      :      0.05036

                             ****ORCA TERMINATED NORMALLY****
TOTAL RUN TIME: 0 days 0 hours 20 minutes 48 seconds 95 msec
