                         Program Version 3.0.3 - RELEASE   -
|  1> ! RI-MP2 RIJK def2-TZVP def2-TZVP/C def2-TZVP/JK TIGHTSCF
|  2> % maxcore 2000
|  3> % mp2 density relaxed end
|  4> *xyz 0 1
|  5>  C        0.3024428918     1.4391915989     0.0091280947
|  6>  N        0.3496462476    -0.0151773877     0.0696254758
|  7>  C        0.5225373607    -0.6625388864    -0.9869288991
|  8>  O        0.6814486133    -0.2203670557    -2.2980327475
|  9>  C        0.7469345567    -1.6013164480    -2.7994135641
| 10>  C       -0.2202955309    -1.8396189223    -3.9240042762
| 11>  C        2.2184757995    -2.0788100325    -2.8776378143
| 12>  C        2.1183676479    -2.6129185821    -1.4150512351
| 13>  C        0.6391469552    -2.1233673751    -1.3314033633
| 14>  H        1.1311031484     1.8509546550     0.5966638289
| 15>  H        0.3575903578     1.8480964857    -1.0066343942
| 16>  H       -0.6237870163     1.7868811781     0.4796567588
| 17>  H        0.0582553259    -1.2426793628    -4.7995046994
| 18>  H       -0.2164677408    -2.8940572770    -4.2169152332
| 19>  H       -1.2365861159    -1.5615760910    -3.6299376097
| 20>  H        2.3838440792    -2.8635592944    -3.6201679375
| 21>  H        2.9296021451    -1.2696376623    -3.0536812356
| 22>  H        2.1997342887    -3.6996825553    -1.3523785567
| 23>  H        2.7947185766    -2.1708099072    -0.6816115990
| 24>  H       -0.1227861501    -2.8023450377    -0.9529547033
| 25> *
| 26>
| 27>                          ****END OF INPUT****

CARTESIAN COORDINATES (ANGSTROEM)
---------------------------------
  C      0.302443    1.439192    0.009128
  N      0.349646   -0.015177    0.069625
  C      0.522537   -0.662539   -0.986929
  O      0.681449   -0.220367   -2.298033
  C      0.746935   -1.601316   -2.799414
  C     -0.220296   -1.839619   -3.924004
  C      2.218476   -2.078810   -2.877638
  C      2.118368   -2.612919   -1.415051
  C      0.639147   -2.123367   -1.331403
  H      1.131103    1.850955    0.596664
  H      0.357590    1.848096   -1.006634
  H     -0.623787    1.786881    0.479657
  H      0.058255   -1.242679   -4.799505
  H     -0.216468   -2.894057   -4.216915
  H     -1.236586   -1.561576   -3.629938
  H      2.383844   -2.863559   -3.620168
  H      2.929602   -1.269638   -3.053681
  H      2.199734   -3.699683   -1.352379
  H      2.794719   -2.170810   -0.681612
  H     -0.122786   -2.802345   -0.952955

 Total Charge           Charge          ....    0
 Multiplicity           Mult            ....    1
 Number of Electrons    NEL             ....   68
 Basis Dimension        Dim             ....  345

ORBITAL ENERGIES
----------------

  NO   OCC          E(Eh)            E(eV)
   0   2.0000     -20.578115      -559.9590
   1   2.0000     -15.533732      -422.6943
   2   2.0000     -11.324400      -308.1526
   3   2.0000     -11.303091      -307.5727
   4   2.0000     -11.245061      -305.9937
   5   2.0000     -11.240028      -305.8567
   6   2.0000     -11.235341      -305.7292
   7   2.0000     -11.234110      -305.6957
   8   2.0000     -11.230340      -305.5931
   9   2.0000      -1.421618       -38.6842
  10   2.0000      -1.207817       -32.8664
  11   2.0000      -1.127627       -30.6843
  12   2.0000      -1.010412       -27.4947
  13   2.0000      -0.964529       -26.2462
  14   2.0000      -0.912057       -24.8183
  15   2.0000      -0.864294       -23.5186
  16   2.0000      -0.774158       -21.0659
  17   2.0000      -0.710789       -19.3415
  18   2.0000      -0.683063       -18.5871
  19   2.0000      -0.664254       -18.0753
  20   2.0000      -0.650470       -17.7002
  21   2.0000      -0.599030       -16.3004
  22   2.0000      -0.591543       -16.0967
  23   2.0000      -0.579134       -15.7590
  24   2.0000      -0.572794       -15.5865
  25   2.0000      -0.554712       -15.0945
  26   2.0000      -0.534730       -14.5507
  27   2.0000      -0.528616       -14.3844
  28   2.0000      -0.484905       -13.1949
  29   2.0000      -0.476820       -12.9749
  30   2.0000      -0.461086       -12.5468
  31   2.0000      -0.432143       -11.7592
  32   2.0000      -0.401051       -10.9132
  33   2.0000      -0.372304       -10.1309
  34   0.0000       0.129458         3.5227
  35   0.0000       0.149564         4.0699
  36   0.0000       0.167688         4.5630
  37   0.0000       0.169798         4.6204
  38   0.0000       0.184108         5.0098

MULLIKEN ATOMIC CHARGES
-----------------------
   0 C :   -0.267248
   1 N :   -0.241101
   2 C :    0.083800
   3 O :   -0.299055
   4 C :    0.226219
   5 C :   -0.405462
   6 C :   -0.256157
   7 C :   -0.243801
   8 C :   -0.043647
   9 H :    0.133658
  10 H :    0.128425
  11 H :    0.134830
  12 H :    0.142405
  13 H :    0.131746
  14 H :    0.141058
  15 H :    0.119632
  16 H :    0.123850
  17 H :    0.124931
  18 H :    0.133995
  19 H :    0.131922
Sum of atomic charges:   -0.0000000

LOEWDIN ATOMIC CHARGES
----------------------
   0 C :   -0.328380
   1 N :    0.074155
   2 C :   -0.345914
   3 O :    0.239153
   4 C :   -0.272362
   5 C :   -0.271252
   6 C :   -0.194552
   7 C :   -0.203369
   8 C :   -0.130858
   9 H :    0.118291
  10 H :    0.109928
  11 H :    0.117674
  12 H :    0.135255
  13 H :    0.132509
  14 H :    0.133455
  15 H :    0.135140
  16 H :    0.136766
  17 H :    0.134140
  18 H :    0.134250
  19 H :    0.145971

  Mayer bond orders larger than 0.1
B(  0-C ,  1-N ) :   0.8458 B(  0-C ,  9-H ) :   0.9342 B(  0-C , 10-H ) :   0.9289
B(  0-C , 11-H ) :   0.9372 B(  1-N ,  2-C ) :   2.0303 B(  2-C ,  3-O ) :   1.0290
B(  2-C ,  8-C ) :   0.9154 B(  3-O ,  4-C ) :   0.8699 B(  4-C ,  5-C ) :   0.9126
B(  4-C ,  6-C ) :   0.9218 B(  4-C ,  8-C ) :   0.8849 B(  5-C , 12-H ) :   0.9348
B(  5-C , 13-H ) :   0.9319 B(  5-C , 14-H ) :   0.9334 B(  6-C ,  7-C ) :   0.9707
B(  6-C , 15-H ) :   0.9126 B(  6-C , 16-H ) :   0.9018 B(  7-C ,  8-C ) :   0.8848
B(  7-C , 17-H ) :   0.9215 B(  7-C , 18-H ) :   0.9242 B(  8-C , 19-H ) :   0.9128

MP2 TOTAL ENERGY:     -402.438725911 Eh
FINAL SINGLE POINT ENERGY      -402.438725910621

DIPOLE MOMENT
-------------
                                X             Y             Z
Electronic contribution:     -0.54174       0.80003       2.12706
Nuclear contribution   :      0.68275      -1.41848      -2.86633
                        -----------------------------------------
Total Dipole Moment    :      0.14101      -0.61844      -0.73927
                        -----------------------------------------
Magnitude (a.u.)       :      0.97411
Magnitude (Debye)      :      2.47598

                             ****ORCA TERMINATED NORMALLY****
TOTAL RUN TIME: 0 days 0 hours 18 minutes 27 seconds 836 msec
