                         Program Version 3.0.3 - RELEASE   -
|  1> ! RI-MP2 RIJK def2-TZVP def2-TZVP/C def2-TZVP/JK TIGHTSCF
|  2> % maxcore 2000
|  3> % mp2 density relaxed end
|  4> *xyz 0 1
|  5>  N       -0.2171567203     1.1436306167     0.4463110212
|  6>  C       -0.0803525126     0.0043758496    -0.0726725866
|  7>  O        1.0530370114    -0.7437431852     0.0120552600
|  8>  C        1.2727943691    -1.7393613972    -0.9982338814
|  9>  C        0.1110944941    -2.7064508333    -1.0494388571
| 10>  O       -0.0552753876    -3.4577013529     0.1688680059
| 11>  C       -1.2613544856    -2.7379353351     0.5161210081
| 12>  C       -1.2131722585    -1.9550886299    -0.8135287232
| 13>  O       -1.1118181352    -0.5414773822    -0.7660323831
| 14>  H        0.6700843727     1.4437425644     0.8459985507
| 15>  H        1.4106898102    -1.2605496786    -1.9768580434
| 16>  H        2.1972792341    -2.2456466474    -0.7135009405
| 17>  H        0.1755325074    -3.3557871122    -1.9304140686
| 18>  H       -2.1179763806    -3.4080083223     0.6445618585
| 19>  H       -1.1371915270    -2.1209660593     1.4131514466
| 20>  H       -2.0237949116    -2.1601924452    -1.5104483869
| 21> *
| 22>
| 23>                          ****END OF INPUT****

CARTESIAN COORDINATES (ANGSTROEM)
---------------------------------
  N     -0.217157    1.143631    0.446311
  C     -0.080353    0.004376   -0.072673
  O      1.053037   -0.743743    0.012055
  C      1.272794   -1.739361   -0.998234
  C      0.111094   -2.706451   -1.049439
  O     -0.055275   -3.457701    0.168868
  C     -1.261354   -2.737935    0.516121
  C     -1.213172   -1.955089   -0.813529
  O     -1.111818   -0.541477   -0.766032
  H      0.670084    1.443743    0.845999
  H      1.410690   -1.260550   -1.976858
  H      2.197279   -2.245647   -0.713501
  H      0.175533   -3.355787   -1.930414
  H     -2.117976   -3.408008    0.644562
  H     -1.137192   -2.120966    1.413151
  H     -2.023795   -2.160192   -1.510448

 Total Charge           Charge          ....    0
 Multiplicity           Mult            ....    1
 Number of Electrons    NEL             ....   68
 Basis Dimension        Dim             ....  321

ORBITAL ENERGIES
----------------

  NO   OCC          E(Eh)            E(eV)
   0   2.0000     -20.611578      -560.8695
   1   2.0000     -20.611082      -560.8561
   2   2.0000     -20.572662      -559.8106
   3   2.0000     -15.529059      -422.5672
   4   2.0000     -11.395494      -310.0872
   5   2.0000     -11.319466      -308.0183
   6   2.0000     -11.313119      -307.8456
   7   2.0000     -11.310746      -307.7811
   8   2.0000     -11.299572      -307.4770
   9   2.0000      -1.488425       -40.5021
  10   2.0000      -1.403594       -38.1937
  11   2.0000      -1.396264       -37.9943
  12   2.0000      -1.200717       -32.6732
  13   2.0000      -1.051603       -28.6156
  14   2.0000      -1.013566       -27.5805
  15   2.0000      -0.913925       -24.8692
  16   2.0000      -0.872072       -23.7303
  17   2.0000      -0.756962       -20.5980
  18   2.0000      -0.747394       -20.3376
  19   2.0000      -0.734179       -19.9780
  20   2.0000      -0.704870       -19.1805
  21   2.0000      -0.657337       -17.8870
  22   2.0000      -0.651050       -17.7160
  23   2.0000      -0.624204       -16.9854
  24   2.0000      -0.621863       -16.9218
  25   2.0000      -0.600741       -16.3470
  26   2.0000      -0.592287       -16.1169
  27   2.0000      -0.542928       -14.7738
  28   2.0000      -0.526038       -14.3142
  29   2.0000      -0.485141       -13.2014
  30   2.0000      -0.469719       -12.7817
  31   2.0000      -0.447300       -12.1717
  32   2.0000      -0.439247       -11.9525
  33   2.0000      -0.393982       -10.7208
  34   0.0000       0.131312         3.5732
  35   0.0000       0.151743         4.1291
  36   0.0000       0.162098         4.4109
  37   0.0000       0.170964         4.6522
  38   0.0000       0.186392         5.0720

MULLIKEN ATOMIC CHARGES
-----------------------
   0 N :   -0.367890
   1 C :    0.253718
   2 O :   -0.274457
   3 C :   -0.059503
   4 C :    0.035480
   5 O :   -0.328978
   6 C :   -0.050621
   7 C :    0.049550
   8 O :   -0.252819
   9 H :    0.231750
  10 H :    0.129744
  11 H :    0.140895
  12 H :    0.114930
  13 H :    0.114113
  14 H :    0.124994
  15 H :    0.139094
Sum of atomic charges:    0.0000000

LOEWDIN ATOMIC CHARGES
----------------------
   0 N :   -0.067343
   1 C :   -0.548406
   2 O :    0.236388
   3 C :   -0.258634
   4 C :   -0.281241
   5 O :    0.143033
   6 C :   -0.239751
   7 C :   -0.255292
   8 O :    0.277495
   9 H :    0.173176
  10 H :    0.136868
  11 H :    0.142982
  12 H :    0.142300
  13 H :    0.121946
  14 H :    0.130586
  15 H :    0.145893

  Mayer bond orders larger than 0.1
B(  0-N ,  1-C ) :   2.0222 B(  0-N ,  9-H ) :   0.8486 B(  1-C ,  2-O ) :   1.0871
B(  1-C ,  8-O ) :   1.0547 B(  2-O ,  3-C ) :   0.8388 B(  3-C ,  4-C ) :   0.9460
B(  3-C , 10-H ) :   0.9263 B(  3-C , 11-H ) :   0.9168 B(  4-C ,  5-O ) :   0.9502
B(  4-C ,  7-C ) :   0.9334 B(  4-C , 12-H ) :   0.9133 B(  5-O ,  6-C ) :   0.9442
B(  6-C ,  7-C ) :   0.9680 B(  6-C , 13-H ) :   0.9191 B(  6-C , 14-H ) :   0.8918
B(  7-C ,  8-O ) :   0.9109 B(  7-C , 15-H ) :   0.9273

MP2 TOTAL ENERGY:     -474.257913254 Eh
FINAL SINGLE POINT ENERGY      -474.257913253557

DIPOLE MOMENT
-------------
                                X             Y             Z
Electronic contribution:      0.05495       1.98610       0.45929
Nuclear contribution   :      0.23563      -2.99300      -1.21979
                        -----------------------------------------
Total Dipole Moment    :      0.29058      -1.00690      -0.76050
                        -----------------------------------------
Magnitude (a.u.)       :      1.29486
Magnitude (Debye)      :      3.29126

                             ****ORCA TERMINATED NORMALLY****
TOTAL RUN TIME: 0 days 0 hours 15 minutes 39 seconds 152 msec
