                         Program Version 3.0.3 - RELEASE   -
|  1> ! RI-MP2 RIJK def2-TZVP def2-TZVP/C def2-TZVP/JK TIGHTSCF
|  2> % maxcore 2000
|  3> % mp2 density relaxed end
|  4> *xyz 0 1
|  5>  C        0.2674010314     1.4724175534    -0.1117273765
|  6>  C       -0.0680369738    -0.0057876013     0.1508346734
|  7>  C        0.6070233543    -0.5541125379     1.3602073171
|  8>  N        0.0632157156    -1.0058151134     2.4522786634
|  9>  C        1.1350769514    -1.3750437682     3.2398599340
| 10>  O        0.9595429823    -1.8996620992     4.4718508513
| 11>  C        2.3065331741    -1.1332749751     2.5997702732
| 12>  C        3.7397334532    -1.3130282527     2.9268148054
| 13>  O        1.9567039360    -0.5965288023     1.3703628742
| 14>  H        1.3438775222     1.6096367481    -0.2445388542
| 15>  H       -0.2364652675     1.8232071276    -1.0168446423
| 16>  H       -0.0544166174     2.1007471487     0.7240077895
| 17>  H       -1.1426599641    -0.1387205673     0.2968583964
| 18>  H        0.2191255149    -0.6045446976    -0.7225538771
| 19>  H        0.0075023892    -1.9340378045     4.6214994199
| 20>  H        4.2417339634    -1.9881592061     2.2234134372
| 21>  H        4.2862413223    -0.3623321279     2.9186735462
| 22>  H        3.8231678625    -1.7432809345     3.9277130489
| 23> *
| 24>
| 25>                          ****END OF INPUT****

CARTESIAN COORDINATES (ANGSTROEM)
---------------------------------
  C      0.267401    1.472418   -0.111727
  C     -0.068037   -0.005788    0.150835
  C      0.607023   -0.554113    1.360207
  N      0.063216   -1.005815    2.452279
  C      1.135077   -1.375044    3.239860
  O      0.959543   -1.899662    4.471851
  C      2.306533   -1.133275    2.599770
  C      3.739733   -1.313028    2.926815
  O      1.956704   -0.596529    1.370363
  H      1.343878    1.609637   -0.244539
  H     -0.236465    1.823207   -1.016845
  H     -0.054417    2.100747    0.724008
  H     -1.142660   -0.138721    0.296858
  H      0.219126   -0.604545   -0.722554
  H      0.007502   -1.934038    4.621499
  H      4.241734   -1.988159    2.223413
  H      4.286241   -0.362332    2.918674
  H      3.823168   -1.743281    3.927713

 Total Charge           Charge          ....    0
 Multiplicity           Mult            ....    1
 Number of Electrons    NEL             ....   68
 Basis Dimension        Dim             ....  333

ORBITAL ENERGIES
----------------

  NO   OCC          E(Eh)            E(eV)
   0   2.0000     -20.623726      -561.2001
   1   2.0000     -20.588176      -560.2328
   2   2.0000     -15.558417      -423.3660
   3   2.0000     -11.337721      -308.5151
   4   2.0000     -11.310033      -307.7616
   5   2.0000     -11.272314      -306.7353
   6   2.0000     -11.248341      -306.0829
   7   2.0000     -11.230612      -305.6005
   8   2.0000     -11.229716      -305.5761
   9   2.0000      -1.476695       -40.1829
  10   2.0000      -1.408989       -38.3405
  11   2.0000      -1.223822       -33.3019
  12   2.0000      -1.086493       -29.5650
  13   2.0000      -1.030282       -28.0354
  14   2.0000      -0.941008       -25.6061
  15   2.0000      -0.881241       -23.9798
  16   2.0000      -0.815705       -22.1965
  17   2.0000      -0.788433       -21.4543
  18   2.0000      -0.732392       -19.9294
  19   2.0000      -0.673987       -18.3401
  20   2.0000      -0.656039       -17.8517
  21   2.0000      -0.623281       -16.9603
  22   2.0000      -0.605303       -16.4711
  23   2.0000      -0.590365       -16.0647
  24   2.0000      -0.576574       -15.6894
  25   2.0000      -0.565838       -15.3972
  26   2.0000      -0.556543       -15.1443
  27   2.0000      -0.547893       -14.9089
  28   2.0000      -0.527918       -14.3654
  29   2.0000      -0.517301       -14.0765
  30   2.0000      -0.506102       -13.7717
  31   2.0000      -0.461299       -12.5526
  32   2.0000      -0.433335       -11.7917
  33   2.0000      -0.303874        -8.2688
  34   0.0000       0.129819         3.5326
  35   0.0000       0.147436         4.0119
  36   0.0000       0.160153         4.3580
  37   0.0000       0.165467         4.5026
  38   0.0000       0.178142         4.8475

MULLIKEN ATOMIC CHARGES
-----------------------
   0 C :   -0.395630
   1 C :   -0.220575
   2 C :    0.250893
   3 N :   -0.308323
   4 C :    0.178412
   5 O :   -0.445330
   6 C :    0.097292
   7 C :   -0.413837
   8 O :   -0.220741
   9 H :    0.137570
  10 H :    0.134194
  11 H :    0.134456
  12 H :    0.143389
  13 H :    0.127741
  14 H :    0.343877
  15 H :    0.146774
  16 H :    0.146402
  17 H :    0.163437
Sum of atomic charges:    0.0000000

LOEWDIN ATOMIC CHARGES
----------------------
   0 C :   -0.305826
   1 C :   -0.254976
   2 C :   -0.346997
   3 N :    0.120395
   4 C :   -0.387623
   5 O :    0.066191
   6 C :   -0.265131
   7 C :   -0.277749
   8 O :    0.363116
   9 H :    0.124448
  10 H :    0.122373
  11 H :    0.124672
  12 H :    0.154169
  13 H :    0.149654
  14 H :    0.200569
  15 H :    0.133787
  16 H :    0.133735
  17 H :    0.145195

  Mayer bond orders larger than 0.1
B(  0-C ,  1-C ) :   0.9117 B(  0-C ,  9-H ) :   0.9356 B(  0-C , 10-H ) :   0.9362
B(  0-C , 11-H ) :   0.9357 B(  1-C ,  2-C ) :   0.8960 B(  1-C , 12-H ) :   0.9467
B(  1-C , 13-H ) :   0.9282 B(  2-C ,  3-N ) :   1.6519 B(  2-C ,  8-O ) :   1.1011
B(  3-N ,  4-C ) :   1.1978 B(  4-C ,  5-O ) :   1.1024 B(  4-C ,  6-C ) :   1.5807
B(  5-O , 14-H ) :   0.8198 B(  6-C ,  7-C ) :   0.8670 B(  6-C ,  8-O ) :   0.9836
B(  7-C , 15-H ) :   0.9324 B(  7-C , 16-H ) :   0.9321 B(  7-C , 17-H ) :   0.9447

MP2 TOTAL ENERGY:     -438.412000271 Eh
FINAL SINGLE POINT ENERGY      -438.412000270708

DIPOLE MOMENT
-------------
                                X             Y             Z
Electronic contribution:     -1.28542      -4.62366       5.13018
Nuclear contribution   :      1.35175       4.81234      -5.48052
                        -----------------------------------------
Total Dipole Moment    :      0.06633       0.18869      -0.35034
                        -----------------------------------------
Magnitude (a.u.)       :      0.40341
Magnitude (Debye)      :      1.02539

                             ****ORCA TERMINATED NORMALLY****
TOTAL RUN TIME: 0 days 0 hours 15 minutes 33 seconds 427 msec
