                         Program Version 3.0.3 - RELEASE   -
|  1> ! RI-MP2 RIJK def2-TZVP def2-TZVP/C def2-TZVP/JK TIGHTSCF
|  2> % maxcore 2000
|  3> % mp2 density relaxed end
|  4> *xyz 0 1
|  5>  O       -0.0298483216     1.4338719888    -0.0638968188
|  6>  C        1.2588148694     0.8285206723    -0.0099119114
|  7>  C        0.0396372120     0.0030183154     0.0023255781
|  8>  C       -0.0340259650    -0.7063322485    -1.3783307001
|  9>  C       -0.8470946866     0.1545883169    -2.3235449746
| 10>  C       -0.0295706808     0.9958575212    -2.9545860438
| 11>  C        1.3876585303     0.6210253442    -2.6856933281
| 12>  C        1.9831992866     0.5360207574    -1.2982879988
| 13>  N        1.3720354106    -0.6542093315    -1.9397755482
| 14>  H        1.8478714008     1.0616476080     0.8739408375
| 15>  H       -0.3994138660    -0.4461460194     0.8896048229
| 16>  H       -0.3634059894    -1.7424058568    -1.2730741408
| 17>  H       -1.9288357419     0.1984644511    -2.3028904021
| 18>  H       -0.3118658946     1.8088906652    -3.6104476258
| 19>  H        2.0979820799     0.6844170188    -3.5088978051
| 20>  H        3.0685167963     0.5141372971    -1.2251410607
| 21> *
| 22>
| 23>                          ****END OF INPUT****

CARTESIAN COORDINATES (ANGSTROEM)
---------------------------------
  O     -0.029848    1.433872   -0.063897
  C      1.258815    0.828521   -0.009912
  C      0.039637    0.003018    0.002326
  C     -0.034026   -0.706332   -1.378331
  C     -0.847095    0.154588   -2.323545
  C     -0.029571    0.995858   -2.954586
  C      1.387659    0.621025   -2.685693
  C      1.983199    0.536021   -1.298288
  N      1.372035   -0.654209   -1.939776
  H      1.847871    1.061648    0.873941
  H     -0.399414   -0.446146    0.889605
  H     -0.363406   -1.742406   -1.273074
  H     -1.928836    0.198464   -2.302890
  H     -0.311866    1.808891   -3.610448
  H      2.097982    0.684417   -3.508898
  H      3.068517    0.514137   -1.225141

 Total Charge           Charge          ....    0
 Multiplicity           Mult            ....    1
 Number of Electrons    NEL             ....   64
 Basis Dimension        Dim             ....  321

ORBITAL ENERGIES
----------------

  NO   OCC          E(Eh)            E(eV)
   0   2.0000     -20.573373      -559.8300
   1   2.0000     -15.561802      -423.4582
   2   2.0000     -11.296000      -307.3798
   3   2.0000     -11.292543      -307.2857
   4   2.0000     -11.273084      -306.7562
   5   2.0000     -11.271777      -306.7207
   6   2.0000     -11.271125      -306.7029
   7   2.0000     -11.233443      -305.6775
   8   2.0000     -11.230530      -305.5983
   9   2.0000      -1.424036       -38.7500
  10   2.0000      -1.290776       -35.1238
  11   2.0000      -1.073494       -29.2112
  12   2.0000      -1.014171       -27.5970
  13   2.0000      -0.959472       -26.1086
  14   2.0000      -0.866214       -23.5709
  15   2.0000      -0.815053       -22.1787
  16   2.0000      -0.780770       -21.2458
  17   2.0000      -0.750189       -20.4137
  18   2.0000      -0.728963       -19.8361
  19   2.0000      -0.672872       -18.3098
  20   2.0000      -0.627619       -17.0784
  21   2.0000      -0.604137       -16.4394
  22   2.0000      -0.568794       -15.4777
  23   2.0000      -0.568383       -15.4665
  24   2.0000      -0.526649       -14.3309
  25   2.0000      -0.522735       -14.2243
  26   2.0000      -0.500011       -13.6060
  27   2.0000      -0.489692       -13.3252
  28   2.0000      -0.449471       -12.2307
  29   2.0000      -0.426053       -11.5935
  30   2.0000      -0.388961       -10.5842
  31   2.0000      -0.331990        -9.0339
  32   0.0000       0.138515         3.7692
  33   0.0000       0.150095         4.0843
  34   0.0000       0.166678         4.5355
  35   0.0000       0.171478         4.6661
  36   0.0000       0.189389         5.1535

MULLIKEN ATOMIC CHARGES
-----------------------
   0 O :   -0.300618
   1 C :   -0.025062
   2 C :   -0.053319
   3 C :    0.164788
   4 C :   -0.236579
   5 C :   -0.157576
   6 C :   -0.022535
   7 C :   -0.057215
   8 N :   -0.243565
   9 H :    0.130638
  10 H :    0.136115
  11 H :    0.139555
  12 H :    0.131854
  13 H :    0.134273
  14 H :    0.129102
  15 H :    0.130143
Sum of atomic charges:    0.0000000

LOEWDIN ATOMIC CHARGES
----------------------
   0 O :    0.188852
   1 C :   -0.248370
   2 C :   -0.215204
   3 C :   -0.207801
   4 C :   -0.129381
   5 C :   -0.135687
   6 C :   -0.202227
   7 C :   -0.199256
   8 N :    0.154275
   9 H :    0.139397
  10 H :    0.134054
  11 H :    0.147339
  12 H :    0.140419
  13 H :    0.142022
  14 H :    0.144818
  15 H :    0.146750

  Mayer bond orders larger than 0.1
B(  0-O ,  1-C ) :   0.9481 B(  0-O ,  2-C ) :   0.9143 B(  1-C ,  2-C ) :   0.9865
B(  1-C ,  7-C ) :   0.9013 B(  1-C ,  9-H ) :   0.9316 B(  2-C ,  3-C ) :   0.8613
B(  2-C , 10-H ) :   0.9133 B(  3-C ,  4-C ) :   0.9063 B(  3-C ,  8-N ) :   0.9404
B(  3-C , 11-H ) :   0.9094 B(  4-C ,  5-C ) :   1.8182 B(  4-C , 12-H ) :   0.9138
B(  5-C ,  6-C ) :   0.9438 B(  5-C , 13-H ) :   0.9209 B(  6-C ,  7-C ) :   0.9475
B(  6-C ,  8-N ) :   0.9336 B(  6-C , 14-H ) :   0.9056 B(  7-C ,  8-N ) :   0.8831
B(  7-C , 15-H ) :   0.9047

MP2 TOTAL ENERGY:     -400.000874365 Eh
FINAL SINGLE POINT ENERGY      -400.000874364616

DIPOLE MOMENT
-------------
                                X             Y             Z
Electronic contribution:     -0.02443       0.48789       0.71705
Nuclear contribution   :      0.07606      -0.48401      -0.49589
                        -----------------------------------------
Total Dipole Moment    :      0.05163       0.00388       0.22116
                        -----------------------------------------
Magnitude (a.u.)       :      0.22714
Magnitude (Debye)      :      0.57734

                             ****ORCA TERMINATED NORMALLY****
TOTAL RUN TIME: 0 days 0 hours 18 minutes 14 seconds 273 msec
