                         Program Version 3.0.3 - RELEASE   -
|  1> ! RI-MP2 RIJK def2-TZVP def2-TZVP/C def2-TZVP/JK TIGHTSCF
|  2> % maxcore 2000
|  3> % mp2 density relaxed end
|  4> *xyz 0 1
|  5>  O        0.0599936909     1.4164310371     0.1097287625
|  6>  C        0.0091538875     0.0066207709     0.0500297546
|  7>  C       -1.3952714417    -0.5106272009    -0.1854254012
|  8>  C       -1.3181355172    -1.9378641352    -0.8045659073
|  9>  O       -2.5361644433    -1.6961530851    -1.5872535195
| 10>  C       -1.7419355365    -0.4700449193    -1.7036698963
| 11>  C       -0.4203441029    -1.2992983730    -1.9158086012
| 12>  C        0.6717752371    -0.5186700981    -1.2464014813
| 13>  O        1.7789998581    -0.2377599831    -1.6281017172
| 14>  H        0.9643980245     1.6711132163    -0.1135698526
| 15>  H        0.4761570049    -0.4546019457     0.9357995788
| 16>  H       -2.1909453313    -0.3031434202     0.5261676130
| 17>  H       -1.2009286788    -2.9065710045    -0.3190599627
| 18>  H       -2.1276315493     0.3438712224    -2.3153374685
| 19>  H       -0.2507077118    -1.8175014416    -2.8553419910
| 20> *
| 21>
| 22>                          ****END OF INPUT****

CARTESIAN COORDINATES (ANGSTROEM)
---------------------------------
  O      0.059994    1.416431    0.109729
  C      0.009154    0.006621    0.050030
  C     -1.395271   -0.510627   -0.185425
  C     -1.318136   -1.937864   -0.804566
  O     -2.536164   -1.696153   -1.587254
  C     -1.741936   -0.470045   -1.703670
  C     -0.420344   -1.299298   -1.915809
  C      0.671775   -0.518670   -1.246401
  O      1.779000   -0.237760   -1.628102
  H      0.964398    1.671113   -0.113570
  H      0.476157   -0.454602    0.935800
  H     -2.190945   -0.303143    0.526168
  H     -1.200929   -2.906571   -0.319060
  H     -2.127632    0.343871   -2.315337
  H     -0.250708   -1.817501   -2.855342

 Total Charge           Charge          ....    0
 Multiplicity           Mult            ....    1
 Number of Electrons    NEL             ....   66
 Basis Dimension        Dim             ....  315

ORBITAL ENERGIES
----------------

  NO   OCC          E(Eh)            E(eV)
   0   2.0000     -20.580528      -560.0246
   1   2.0000     -20.573077      -559.8219
   2   2.0000     -20.570571      -559.7537
   3   2.0000     -11.348287      -308.8026
   4   2.0000     -11.332296      -308.3674
   5   2.0000     -11.330862      -308.3284
   6   2.0000     -11.310139      -307.7645
   7   2.0000     -11.270075      -306.6743
   8   2.0000     -11.267831      -306.6133
   9   2.0000      -1.430334       -38.9214
  10   2.0000      -1.413933       -38.4751
  11   2.0000      -1.382252       -37.6130
  12   2.0000      -1.162556       -31.6347
  13   2.0000      -0.985493       -26.8166
  14   2.0000      -0.945254       -25.7217
  15   2.0000      -0.911768       -24.8105
  16   2.0000      -0.785222       -21.3670
  17   2.0000      -0.774015       -21.0620
  18   2.0000      -0.731205       -19.8971
  19   2.0000      -0.705944       -19.2097
  20   2.0000      -0.687336       -18.7034
  21   2.0000      -0.654829       -17.8188
  22   2.0000      -0.628054       -17.0902
  23   2.0000      -0.593224       -16.1424
  24   2.0000      -0.569783       -15.5046
  25   2.0000      -0.559306       -15.2195
  26   2.0000      -0.545801       -14.8520
  27   2.0000      -0.542416       -14.7599
  28   2.0000      -0.488468       -13.2919
  29   2.0000      -0.473311       -12.8795
  30   2.0000      -0.469594       -12.7783
  31   2.0000      -0.438941       -11.9442
  32   2.0000      -0.404784       -11.0147
  33   0.0000       0.113152         3.0790
  34   0.0000       0.138010         3.7554
  35   0.0000       0.157255         4.2791
  36   0.0000       0.166614         4.5338
  37   0.0000       0.170607         4.6425

MULLIKEN ATOMIC CHARGES
-----------------------
   0 O :   -0.473282
   1 C :    0.099125
   2 C :   -0.036041
   3 C :   -0.040687
   4 O :   -0.311149
   5 C :   -0.028763
   6 C :   -0.024493
   7 C :    0.044729
   8 O :   -0.268432
   9 H :    0.332239
  10 H :    0.107828
  11 H :    0.146521
  12 H :    0.146462
  13 H :    0.152189
  14 H :    0.153753
Sum of atomic charges:   -0.0000000

LOEWDIN ATOMIC CHARGES
----------------------
   0 O :   -0.004751
   1 C :   -0.296287
   2 C :   -0.139097
   3 C :   -0.176050
   4 O :    0.140133
   5 C :   -0.167538
   6 C :   -0.121612
   7 C :   -0.290226
   8 O :    0.158552
   9 H :    0.186446
  10 H :    0.143938
  11 H :    0.150488
  12 H :    0.131169
  13 H :    0.133788
  14 H :    0.151047

  Mayer bond orders larger than 0.1
B(  0-O ,  1-C ) :   0.9874 B(  0-O ,  9-H ) :   0.8280 B(  1-C ,  2-C ) :   0.8567
B(  1-C ,  7-C ) :   0.8574 B(  1-C , 10-H ) :   0.9240 B(  2-C ,  3-C ) :   0.8892
B(  2-C ,  5-C ) :   0.8948 B(  2-C , 11-H ) :   0.9094 B(  3-C ,  4-O ) :   0.9136
B(  3-C ,  6-C ) :   0.8555 B(  3-C , 12-H ) :   0.8879 B(  4-O ,  5-C ) :   0.9145
B(  5-C ,  6-C ) :   0.8735 B(  5-C , 13-H ) :   0.8844 B(  6-C ,  7-C ) :   0.8657
B(  6-C , 14-H ) :   0.9128 B(  7-C ,  8-O ) :   2.0095

MP2 TOTAL ENERGY:     -456.975543561 Eh
FINAL SINGLE POINT ENERGY      -456.975543561310

DIPOLE MOMENT
-------------
                                X             Y             Z
Electronic contribution:      1.15574      -0.07772      -1.26000
Nuclear contribution   :     -1.10754      -0.17471       1.62901
                        -----------------------------------------
Total Dipole Moment    :      0.04819      -0.25243       0.36901
                        -----------------------------------------
Magnitude (a.u.)       :      0.44968
Magnitude (Debye)      :      1.14301

                             ****ORCA TERMINATED NORMALLY****
TOTAL RUN TIME: 0 days 0 hours 16 minutes 20 seconds 464 msec
