                         Program Version 3.0.3 - RELEASE   -
|  1> ! RI-MP2 RIJK def2-TZVP def2-TZVP/C def2-TZVP/JK TIGHTSCF
|  2> % maxcore 2000
|  3> % mp2 density relaxed end
|  4> *xyz 0 1
|  5>  O        0.2882500132     1.1564666529    -0.6980132498
|  6>  C        0.1152203247    -0.0940173833    -0.0799238826
|  7>  C        0.1368652580     0.0029317410     1.4606100409
|  8>  N       -1.1715497007    -0.7095130152     1.5440909639
|  9>  C       -2.2824939164     0.0185036438     2.1886459609
| 10>  C       -2.8011476350     1.0526104013     1.1678805945
| 11>  C       -2.3930877531     0.4724908688    -0.1887049616
| 12>  O       -2.7826940672     0.8107603615    -1.2772351051
| 13>  C       -1.3491786178    -0.6135113893     0.0755428164
| 14>  H       -0.0586942856     1.1039510448    -1.5963356882
| 15>  H        0.7926045920    -0.8510628217    -0.4934224981
| 16>  H        0.9474531600    -0.5169077761     1.9788754298
| 17>  H        0.1121041219     1.0492845540     1.7893629934
| 18>  H       -3.0735513963    -0.6977770640     2.4399690839
| 19>  H       -1.9384947029     0.4662356238     3.1244904864
| 20>  H       -3.8752952675     1.2450104542     1.2083893993
| 21>  H       -2.2915522567     2.0193692328     1.2664499741
| 22>  H       -1.6107871806    -1.5417431693    -0.4431606280
| 23> *
| 24>
| 25>                          ****END OF INPUT****

CARTESIAN COORDINATES (ANGSTROEM)
---------------------------------
  O      0.288250    1.156467   -0.698013
  C      0.115220   -0.094017   -0.079924
  C      0.136865    0.002932    1.460610
  N     -1.171550   -0.709513    1.544091
  C     -2.282494    0.018504    2.188646
  C     -2.801148    1.052610    1.167881
  C     -2.393088    0.472491   -0.188705
  O     -2.782694    0.810760   -1.277235
  C     -1.349179   -0.613511    0.075543
  H     -0.058694    1.103951   -1.596336
  H      0.792605   -0.851063   -0.493422
  H      0.947453   -0.516908    1.978875
  H      0.112104    1.049285    1.789363
  H     -3.073551   -0.697777    2.439969
  H     -1.938495    0.466236    3.124490
  H     -3.875295    1.245010    1.208389
  H     -2.291552    2.019369    1.266450
  H     -1.610787   -1.541743   -0.443161

 Total Charge           Charge          ....    0
 Multiplicity           Mult            ....    1
 Number of Electrons    NEL             ....   68
 Basis Dimension        Dim             ....  333

ORBITAL ENERGIES
----------------

  NO   OCC          E(Eh)            E(eV)
   0   2.0000     -20.570667      -559.7563
   1   2.0000     -20.554007      -559.3030
   2   2.0000     -15.560423      -423.4206
   3   2.0000     -11.336453      -308.4806
   4   2.0000     -11.301027      -307.5166
   5   2.0000     -11.268199      -306.6233
   6   2.0000     -11.265759      -306.5569
   7   2.0000     -11.261898      -306.4518
   8   2.0000     -11.241426      -305.8948
   9   2.0000      -1.399866       -38.0923
  10   2.0000      -1.379900       -37.5490
  11   2.0000      -1.267160       -34.4812
  12   2.0000      -1.065670       -28.9983
  13   2.0000      -0.996394       -27.1133
  14   2.0000      -0.948259       -25.8034
  15   2.0000      -0.863625       -23.5004
  16   2.0000      -0.792039       -21.5525
  17   2.0000      -0.747695       -20.3458
  18   2.0000      -0.706927       -19.2365
  19   2.0000      -0.688655       -18.7393
  20   2.0000      -0.660211       -17.9652
  21   2.0000      -0.655307       -17.8318
  22   2.0000      -0.608117       -16.5477
  23   2.0000      -0.602619       -16.3981
  24   2.0000      -0.585722       -15.9383
  25   2.0000      -0.574422       -15.6308
  26   2.0000      -0.546124       -14.8608
  27   2.0000      -0.527638       -14.3578
  28   2.0000      -0.509519       -13.8647
  29   2.0000      -0.495253       -13.4765
  30   2.0000      -0.462651       -12.5894
  31   2.0000      -0.457790       -12.4571
  32   2.0000      -0.411589       -11.1999
  33   2.0000      -0.371122       -10.0987
  34   0.0000       0.115220         3.1353
  35   0.0000       0.135980         3.7002
  36   0.0000       0.152565         4.1515
  37   0.0000       0.170504         4.6396
  38   0.0000       0.173701         4.7266

MULLIKEN ATOMIC CHARGES
-----------------------
   0 O :   -0.457370
   1 C :    0.036622
   2 C :   -0.181351
   3 N :   -0.139432
   4 C :   -0.208738
   5 C :   -0.218384
   6 C :    0.097505
   7 O :   -0.278490
   8 C :   -0.008889
   9 H :    0.331761
  10 H :    0.103785
  11 H :    0.121465
  12 H :    0.120754
  13 H :    0.129621
  14 H :    0.134582
  15 H :    0.146729
  16 H :    0.139886
  17 H :    0.129944
Sum of atomic charges:    0.0000000

LOEWDIN ATOMIC CHARGES
----------------------
   0 O :   -0.005090
   1 C :   -0.303325
   2 C :   -0.221016
   3 N :    0.101806
   4 C :   -0.275500
   5 C :   -0.231282
   6 C :   -0.299504
   7 O :    0.152286
   8 C :   -0.207078
   9 H :    0.184781
  10 H :    0.130761
  11 H :    0.123453
  12 H :    0.131430
  13 H :    0.133247
  14 H :    0.132531
  15 H :    0.147733
  16 H :    0.156814
  17 H :    0.147953

  Mayer bond orders larger than 0.1
B(  0-O ,  1-C ) :   1.0543 B(  0-O ,  9-H ) :   0.8320 B(  1-C ,  2-C ) :   0.8905
B(  1-C ,  8-C ) :   0.9277 B(  1-C , 10-H ) :   0.9584 B(  2-C ,  3-N ) :   0.9164
B(  2-C , 11-H ) :   0.9162 B(  2-C , 12-H ) :   0.9265 B(  3-N ,  4-C ) :   0.9025
B(  3-N ,  8-C ) :   0.9746 B(  4-C ,  5-C ) :   0.9247 B(  4-C , 13-H ) :   0.9340
B(  4-C , 14-H ) :   0.9363 B(  5-C ,  6-C ) :   0.9027 B(  5-C , 15-H ) :   0.9113
B(  5-C , 16-H ) :   0.9027 B(  6-C ,  7-O ) :   2.0099 B(  6-C ,  8-C ) :   0.8677
B(  8-C , 17-H ) :   0.8869

MP2 TOTAL ENERGY:     -438.360995862 Eh
FINAL SINGLE POINT ENERGY      -438.360995862329

DIPOLE MOMENT
-------------
                                X             Y             Z
Electronic contribution:     -0.87552      -0.10492      -4.52680
Nuclear contribution   :      1.00244      -0.10034       5.01849
                        -----------------------------------------
Total Dipole Moment    :      0.12692      -0.20526       0.49169
                        -----------------------------------------
Magnitude (a.u.)       :      0.54772
Magnitude (Debye)      :      1.39220

                             ****ORCA TERMINATED NORMALLY****
TOTAL RUN TIME: 0 days 0 hours 16 minutes 47 seconds 219 msec
