                         Program Version 3.0.3 - RELEASE   -
|  1> ! RI-MP2 RIJK def2-TZVP def2-TZVP/C def2-TZVP/JK TIGHTSCF
|  2> % maxcore 2000
|  3> % mp2 density relaxed end
|  4> *xyz 0 1
|  5>  C       -0.3940707650     1.4168555588    -0.0329624920
|  6>  C        0.0112522007    -0.0498895230    -0.0485620479
|  7>  C        1.2836124023    -0.4327643441    -0.8018306407
|  8>  O        1.7327200613    -0.2874669513    -1.8929594961
|  9>  O        1.8674690637    -1.0653981420     0.2650372093
| 10>  C        0.7428521562    -0.7104689045     1.1709812621
| 11>  C        1.2439914522     0.2016698668     2.2822342709
| 12>  C        0.0994001063    -1.9065843564     1.6887729754
| 13>  C       -0.4543999349    -2.8787180161     2.1267581551
| 14>  H        0.4281266028     2.0719432991     0.2650697964
| 15>  H       -0.7077599853     1.7158649384    -1.0370583717
| 16>  H       -1.2341187078     1.5840122686     0.6476976737
| 17>  H       -0.8240520937    -0.6731493348    -0.3786168153
| 18>  H        1.7747581559     1.0606107700     1.8659478924
| 19>  H        0.4064657932     0.5571189580     2.8887187096
| 20>  H        1.9292262648    -0.3500530356     2.9300455229
| 21>  H       -0.9361302025    -3.7449592819     2.5094491959
| 22> *
| 23>
| 24>                          ****END OF INPUT****

CARTESIAN COORDINATES (ANGSTROEM)
---------------------------------
  C     -0.394071    1.416856   -0.032962
  C      0.011252   -0.049890   -0.048562
  C      1.283612   -0.432764   -0.801831
  O      1.732720   -0.287467   -1.892959
  O      1.867469   -1.065398    0.265037
  C      0.742852   -0.710469    1.170981
  C      1.243991    0.201670    2.282234
  C      0.099400   -1.906584    1.688773
  C     -0.454400   -2.878718    2.126758
  H      0.428127    2.071943    0.265070
  H     -0.707760    1.715865   -1.037058
  H     -1.234119    1.584012    0.647698
  H     -0.824052   -0.673149   -0.378617
  H      1.774758    1.060611    1.865948
  H      0.406466    0.557119    2.888719
  H      1.929226   -0.350053    2.930046
  H     -0.936130   -3.744959    2.509449

 Total Charge           Charge          ....    0
 Multiplicity           Mult            ....    1
 Number of Electrons    NEL             ....   66
 Basis Dimension        Dim             ....  327

ORBITAL ENERGIES
----------------

  NO   OCC          E(Eh)            E(eV)
   0   2.0000     -20.605262      -560.6977
   1   2.0000     -20.553877      -559.2994
   2   2.0000     -11.383841      -309.7701
   3   2.0000     -11.347050      -308.7689
   4   2.0000     -11.275493      -306.8218
   5   2.0000     -11.252998      -306.2096
   6   2.0000     -11.248770      -306.0946
   7   2.0000     -11.247931      -306.0718
   8   2.0000     -11.246627      -306.0363
   9   2.0000      -1.466632       -39.9091
  10   2.0000      -1.381518       -37.5930
  11   2.0000      -1.115031       -30.3415
  12   2.0000      -1.061562       -28.8866
  13   2.0000      -1.014410       -27.6035
  14   2.0000      -0.937403       -25.5080
  15   2.0000      -0.879888       -23.9430
  16   2.0000      -0.759519       -20.6676
  17   2.0000      -0.737042       -20.0559
  18   2.0000      -0.712823       -19.3969
  19   2.0000      -0.694715       -18.9041
  20   2.0000      -0.671428       -18.2705
  21   2.0000      -0.623334       -16.9618
  22   2.0000      -0.609722       -16.5914
  23   2.0000      -0.582437       -15.8489
  24   2.0000      -0.571576       -15.5534
  25   2.0000      -0.568482       -15.4692
  26   2.0000      -0.544823       -14.8254
  27   2.0000      -0.535776       -14.5792
  28   2.0000      -0.500694       -13.6246
  29   2.0000      -0.470768       -12.8102
  30   2.0000      -0.445136       -12.1128
  31   2.0000      -0.415923       -11.3179
  32   2.0000      -0.405529       -11.0350
  33   0.0000       0.116384         3.1670
  34   0.0000       0.143028         3.8920
  35   0.0000       0.150346         4.0911
  36   0.0000       0.158015         4.2998
  37   0.0000       0.162244         4.4149

MULLIKEN ATOMIC CHARGES
-----------------------
   0 C :   -0.412706
   1 C :   -0.112745
   2 C :    0.228990
   3 O :   -0.259174
   4 O :   -0.232182
   5 C :    0.093090
   6 C :   -0.390049
   7 C :   -0.053164
   8 C :   -0.094321
   9 H :    0.134803
  10 H :    0.159731
  11 H :    0.143482
  12 H :    0.148318
  13 H :    0.144515
  14 H :    0.142641
  15 H :    0.157303
  16 H :    0.201467
Sum of atomic charges:   -0.0000000

LOEWDIN ATOMIC CHARGES
----------------------
   0 C :   -0.278189
   1 C :   -0.177668
   2 C :   -0.440683
   3 O :    0.157021
   4 O :    0.277223
   5 C :   -0.274356
   6 C :   -0.243550
   7 C :   -0.064987
   8 C :   -0.063350
   9 H :    0.128407
  10 H :    0.137985
  11 H :    0.130219
  12 H :    0.171141
  13 H :    0.132324
  14 H :    0.137565
  15 H :    0.139721
  16 H :    0.131177

  Mayer bond orders larger than 0.1
B(  0-C ,  1-C ) :   0.9110 B(  0-C ,  9-H ) :   0.9317 B(  0-C , 10-H ) :   0.9292
B(  0-C , 11-H ) :   0.9353 B(  1-C ,  2-C ) :   0.9271 B(  1-C ,  5-C ) :   0.8482
B(  1-C , 12-H ) :   0.9038 B(  2-C ,  3-O ) :   2.0697 B(  2-C ,  4-O ) :   1.0942
B(  4-O ,  5-C ) :   0.8989 B(  5-C ,  6-C ) :   0.9355 B(  5-C ,  7-C ) :   1.1884
B(  5-C ,  8-C ) :  -0.1179 B(  6-C , 13-H ) :   0.9322 B(  6-C , 14-H ) :   0.9227
B(  6-C , 15-H ) :   0.9270 B(  7-C ,  8-C ) :   2.5750 B(  8-C , 16-H ) :   0.8803

MP2 TOTAL ENERGY:     -421.110867473 Eh
FINAL SINGLE POINT ENERGY      -421.110867473348

DIPOLE MOMENT
-------------
                                X             Y             Z
Electronic contribution:      3.41781      -6.05214      -4.19886
Nuclear contribution   :     -4.55571       6.42047       5.40074
                        -----------------------------------------
Total Dipole Moment    :     -1.13790       0.36833       1.20188
                        -----------------------------------------
Magnitude (a.u.)       :      1.69558
Magnitude (Debye)      :      4.30983

                             ****ORCA TERMINATED NORMALLY****
TOTAL RUN TIME: 0 days 0 hours 17 minutes 40 seconds 990 msec
