                         Program Version 3.0.3 - RELEASE   -
|  1> ! RI-MP2 RIJK def2-TZVP def2-TZVP/C def2-TZVP/JK TIGHTSCF
|  2> % maxcore 2000
|  3> % mp2 density relaxed end
|  4> *xyz 0 1
|  5>  C        0.0638544436     1.5335539392     0.0149582054
|  6>  C       -0.0052651720     0.0336697959     0.0721360996
|  7>  C        1.1563037383    -0.8582588061    -0.2754846517
|  8>  C        0.5513853413    -0.9677730422     1.1013017963
|  9>  C        1.3451742636    -0.7349554333     2.3457261257
| 10>  O        2.1117868612    -1.9049089386     2.6209878995
| 11>  C       -0.7338071903    -1.8003682085     1.0134408013
| 12>  C       -1.3033736046    -0.7832275775    -0.0286524559
| 13>  H        1.0537941731     1.9021897935     0.3032997795
| 14>  H       -0.1359438115     1.8967899287    -1.0010409495
| 15>  H       -0.6743633005     1.9971917598     0.6800163812
| 16>  H        1.0444650773    -1.6716126856    -0.9900402939
| 17>  H        2.1243500043    -0.3670123015    -0.3144836470
| 18>  H        1.9982515032     0.1432384509     2.2100219304
| 19>  H        0.6663819509    -0.5096127868     3.1849952428
| 20>  H        2.5410216707    -1.7840317330     3.4735602101
| 21>  H       -0.6105027653    -2.8354365203     0.6799316108
| 22>  H       -1.3045467189    -1.8027804660     1.9459968338
| 23>  H       -2.1739931004    -0.2431841834     0.3536013996
| 24>  H       -1.5477542239    -1.1732203351    -1.0227651780
| 25> *
| 26>
| 27>                          ****END OF INPUT****

CARTESIAN COORDINATES (ANGSTROEM)
---------------------------------
  C      0.063854    1.533554    0.014958
  C     -0.005265    0.033670    0.072136
  C      1.156304   -0.858259   -0.275485
  C      0.551385   -0.967773    1.101302
  C      1.345174   -0.734955    2.345726
  O      2.111787   -1.904909    2.620988
  C     -0.733807   -1.800368    1.013441
  C     -1.303374   -0.783228   -0.028652
  H      1.053794    1.902190    0.303300
  H     -0.135944    1.896790   -1.001041
  H     -0.674363    1.997192    0.680016
  H      1.044465   -1.671613   -0.990040
  H      2.124350   -0.367012   -0.314484
  H      1.998252    0.143238    2.210022
  H      0.666382   -0.509613    3.184995
  H      2.541022   -1.784032    3.473560
  H     -0.610503   -2.835437    0.679932
  H     -1.304547   -1.802780    1.945997
  H     -2.173993   -0.243184    0.353601
  H     -1.547754   -1.173220   -1.022765

 Total Charge           Charge          ....    0
 Multiplicity           Mult            ....    1
 Number of Electrons    NEL             ....   62
 Basis Dimension        Dim             ....  320

ORBITAL ENERGIES
----------------

  NO   OCC          E(Eh)            E(eV)
   0   2.0000     -20.551278      -559.2287
   1   2.0000     -11.275379      -306.8187
   2   2.0000     -11.233108      -305.6684
   3   2.0000     -11.226208      -305.4807
   4   2.0000     -11.218339      -305.2665
   5   2.0000     -11.217682      -305.2487
   6   2.0000     -11.216783      -305.2242
   7   2.0000     -11.216084      -305.2052
   8   2.0000      -1.353804       -36.8389
   9   2.0000      -1.188269       -32.3344
  10   2.0000      -0.989008       -26.9123
  11   2.0000      -0.980591       -26.6833
  12   2.0000      -0.934651       -25.4331
  13   2.0000      -0.847344       -23.0574
  14   2.0000      -0.776989       -21.1429
  15   2.0000      -0.703457       -19.1420
  16   2.0000      -0.668557       -18.1924
  17   2.0000      -0.652157       -17.7461
  18   2.0000      -0.635937       -17.3047
  19   2.0000      -0.605119       -16.4661
  20   2.0000      -0.588570       -16.0158
  21   2.0000      -0.559178       -15.2160
  22   2.0000      -0.549443       -14.9511
  23   2.0000      -0.527247       -14.3471
  24   2.0000      -0.524976       -14.2853
  25   2.0000      -0.505072       -13.7437
  26   2.0000      -0.460628       -12.5343
  27   2.0000      -0.450454       -12.2575
  28   2.0000      -0.435606       -11.8534
  29   2.0000      -0.389175       -10.5900
  30   2.0000      -0.361309        -9.8317
  31   0.0000       0.131074         3.5667
  32   0.0000       0.146242         3.9795
  33   0.0000       0.167915         4.5692
  34   0.0000       0.181761         4.9460
  35   0.0000       0.183879         5.0036

MULLIKEN ATOMIC CHARGES
-----------------------
   0 C :   -0.407814
   1 C :    0.028366
   2 C :   -0.263411
   3 C :    0.087107
   4 C :   -0.120148
   5 O :   -0.458759
   6 C :   -0.218206
   7 C :   -0.219893
   8 H :    0.125780
   9 H :    0.136027
  10 H :    0.127084
  11 H :    0.121799
  12 H :    0.123119
  13 H :    0.093279
  14 H :    0.095532
  15 H :    0.310395
  16 H :    0.115314
  17 H :    0.106518
  18 H :    0.107147
  19 H :    0.110764
Sum of atomic charges:   -0.0000000

LOEWDIN ATOMIC CHARGES
----------------------
   0 C :   -0.277483
   1 C :   -0.211834
   2 C :   -0.163214
   3 C :   -0.198394
   4 C :   -0.315442
   5 O :   -0.048103
   6 C :   -0.187090
   7 C :   -0.190869
   8 H :    0.127615
   9 H :    0.129718
  10 H :    0.125854
  11 H :    0.133696
  12 H :    0.142545
  13 H :    0.121269
  14 H :    0.120432
  15 H :    0.169325
  16 H :    0.128905
  17 H :    0.133842
  18 H :    0.133146
  19 H :    0.126081

  Mayer bond orders larger than 0.1
B(  0-C ,  1-C ) :   0.8850 B(  0-C ,  8-H ) :   0.9374 B(  0-C ,  9-H ) :   0.9382
B(  0-C , 10-H ) :   0.9402 B(  1-C ,  2-C ) :   0.9003 B(  1-C ,  3-C ) :   0.7829
B(  1-C ,  7-C ) :   0.9447 B(  2-C ,  3-C ) :   0.8613 B(  2-C , 11-H ) :   0.9106
B(  2-C , 12-H ) :   0.9292 B(  3-C ,  4-C ) :   0.9229 B(  3-C ,  5-O ) :  -0.1385
B(  3-C ,  6-C ) :   0.9342 B(  4-C ,  5-O ) :   1.0820 B(  4-C , 13-H ) :   0.9263
B(  4-C , 14-H ) :   0.9254 B(  5-O , 15-H ) :   0.8490 B(  6-C ,  7-C ) :   0.9910
B(  6-C , 16-H ) :   0.9146 B(  6-C , 17-H ) :   0.9159 B(  7-C , 18-H ) :   0.9162
B(  7-C , 19-H ) :   0.9165

MP2 TOTAL ENERGY:     -348.372954843 Eh
FINAL SINGLE POINT ENERGY      -348.372954842893

DIPOLE MOMENT
-------------
                                X             Y             Z
Electronic contribution:      2.11924      -3.05960       1.74225
Nuclear contribution   :     -2.16605       3.63074      -1.34456
                        -----------------------------------------
Total Dipole Moment    :     -0.04681       0.57114       0.39769
                        -----------------------------------------
Magnitude (a.u.)       :      0.69753
Magnitude (Debye)      :      1.77298

                             ****ORCA TERMINATED NORMALLY****
TOTAL RUN TIME: 0 days 0 hours 13 minutes 37 seconds 43 msec
