                         Program Version 3.0.3 - RELEASE   -
|  1> ! RI-MP2 RIJK def2-TZVP def2-TZVP/C def2-TZVP/JK TIGHTSCF
|  2> % maxcore 2000
|  3> % mp2 density relaxed end
|  4> *xyz 0 1
|  5>  C       -0.5996503031     1.0055651506     0.7735862140
|  6>  C        0.0310979265    -0.3691765035     0.7410603179
|  7>  C        0.6205759547    -1.0330687328    -0.4367270702
|  8>  C        1.3937764930    -0.0631964383    -1.3295563626
|  9>  C        2.2825533220     0.2252674109    -0.0873675272
| 10>  C        2.5652761391     1.6199169746     0.4006963441
| 11>  C        3.6895495092     1.8323972480     1.3469892291
| 12>  N        3.7973111999     2.3039406050    -0.0430430272
| 13>  N        1.4747929023    -0.7073095926     0.7928991157
| 14>  H       -0.2797398591     1.6526166887    -0.0449391462
| 15>  H       -1.6873027315     0.8989330383     0.6978582298
| 16>  H       -0.3833839533     1.5156234214     1.7181088562
| 17>  H       -0.4817652854    -1.0639561580     1.4051795788
| 18>  H        0.3891285258    -2.0594174832    -0.7047811619
| 19>  H        1.9373549020    -0.5471482330    -2.1423976962
| 20>  H        0.8213654635     0.7708079946    -1.7469420328
| 21>  H        3.2514281131    -0.2740288957    -0.2119221447
| 22>  H        1.7195399604     2.2958763769     0.4668008842
| 23>  H        3.6296322736     2.6180935153     2.0943677148
| 24>  H        4.2620356115     0.9598585953     1.6516092982
| 25>  H        4.3732465757     1.6562627174    -0.5777155239
| 26> *
| 27>
| 28>                          ****END OF INPUT****

CARTESIAN COORDINATES (ANGSTROEM)
---------------------------------
  C     -0.599650    1.005565    0.773586
  C      0.031098   -0.369177    0.741060
  C      0.620576   -1.033069   -0.436727
  C      1.393776   -0.063196   -1.329556
  C      2.282553    0.225267   -0.087368
  C      2.565276    1.619917    0.400696
  C      3.689550    1.832397    1.346989
  N      3.797311    2.303941   -0.043043
  N      1.474793   -0.707310    0.792899
  H     -0.279740    1.652617   -0.044939
  H     -1.687303    0.898933    0.697858
  H     -0.383384    1.515623    1.718109
  H     -0.481765   -1.063956    1.405180
  H      0.389129   -2.059417   -0.704781
  H      1.937355   -0.547148   -2.142398
  H      0.821365    0.770808   -1.746942
  H      3.251428   -0.274029   -0.211922
  H      1.719540    2.295876    0.466801
  H      3.629632    2.618094    2.094368
  H      4.262036    0.959859    1.651609
  H      4.373247    1.656263   -0.577716

 Total Charge           Charge          ....    0
 Multiplicity           Mult            ....    1
 Number of Electrons    NEL             ....   68
 Basis Dimension        Dim             ....  351

ORBITAL ENERGIES
----------------

  NO   OCC          E(Eh)            E(eV)
   0   2.0000     -15.557327      -423.3364
   1   2.0000     -15.557100      -423.3302
   2   2.0000     -11.267289      -306.5985
   3   2.0000     -11.263386      -306.4923
   4   2.0000     -11.261434      -306.4392
   5   2.0000     -11.256085      -306.2936
   6   2.0000     -11.252257      -306.1895
   7   2.0000     -11.234399      -305.7035
   8   2.0000     -11.226571      -305.4905
   9   2.0000      -1.286830       -35.0164
  10   2.0000      -1.255767       -34.1711
  11   2.0000      -1.034992       -28.1636
  12   2.0000      -0.980681       -26.6857
  13   2.0000      -0.950048       -25.8521
  14   2.0000      -0.882752       -24.0209
  15   2.0000      -0.835021       -22.7221
  16   2.0000      -0.769570       -20.9411
  17   2.0000      -0.760377       -20.6909
  18   2.0000      -0.689592       -18.7647
  19   2.0000      -0.664019       -18.0689
  20   2.0000      -0.640963       -17.4415
  21   2.0000      -0.604802       -16.4575
  22   2.0000      -0.586282       -15.9535
  23   2.0000      -0.574328       -15.6283
  24   2.0000      -0.561649       -15.2832
  25   2.0000      -0.530133       -14.4256
  26   2.0000      -0.515251       -14.0207
  27   2.0000      -0.494804       -13.4643
  28   2.0000      -0.486175       -13.2295
  29   2.0000      -0.462679       -12.5901
  30   2.0000      -0.442287       -12.0352
  31   2.0000      -0.415560       -11.3080
  32   2.0000      -0.386365       -10.5135
  33   2.0000      -0.362685        -9.8692
  34   0.0000       0.137640         3.7454
  35   0.0000       0.143394         3.9020
  36   0.0000       0.162646         4.4258
  37   0.0000       0.165819         4.5122
  38   0.0000       0.183078         4.9818

MULLIKEN ATOMIC CHARGES
-----------------------
   0 C :   -0.399528
   1 C :   -0.028906
   2 C :   -0.045229
   3 C :   -0.264361
   4 C :   -0.011926
   5 C :   -0.056794
   6 C :   -0.181604
   7 N :   -0.357202
   8 N :   -0.257797
   9 H :    0.131504
  10 H :    0.141310
  11 H :    0.143707
  12 H :    0.113556
  13 H :    0.129771
  14 H :    0.129369
  15 H :    0.127275
  16 H :    0.089414
  17 H :    0.124976
  18 H :    0.123671
  19 H :    0.133106
  20 H :    0.215687
Sum of atomic charges:    0.0000000

LOEWDIN ATOMIC CHARGES
----------------------
   0 C :   -0.295773
   1 C :   -0.275591
   2 C :   -0.196376
   3 C :   -0.209861
   4 C :   -0.248813
   5 C :   -0.266081
   6 C :   -0.262050
   7 N :   -0.017743
   8 N :    0.127854
   9 H :    0.122304
  10 H :    0.131678
  11 H :    0.129467
  12 H :    0.153798
  13 H :    0.130939
  14 H :    0.136003
  15 H :    0.131604
  16 H :    0.152422
  17 H :    0.143553
  18 H :    0.124708
  19 H :    0.124874
  20 H :    0.163083

  Mayer bond orders larger than 0.1
B(  0-C ,  1-C ) :   0.8873 B(  0-C ,  9-H ) :   0.9382 B(  0-C , 10-H ) :   0.9236
B(  0-C , 11-H ) :   0.9373 B(  1-C ,  2-C ) :   0.9429 B(  1-C ,  8-N ) :   0.9109
B(  1-C , 12-H ) :   0.9343 B(  2-C ,  3-C ) :   0.9376 B(  2-C ,  8-N ) :   0.8328
B(  2-C , 13-H ) :   0.8996 B(  3-C ,  4-C ) :   0.9483 B(  3-C , 14-H ) :   0.9285
B(  3-C , 15-H ) :   0.9203 B(  4-C ,  5-C ) :   0.9634 B(  4-C ,  8-N ) :   0.9068
B(  4-C , 16-H ) :   0.8932 B(  5-C ,  6-C ) :   0.9459 B(  5-C ,  7-N ) :   0.9450
B(  5-C , 17-H ) :   0.8954 B(  6-C ,  7-N ) :   0.9277 B(  6-C , 18-H ) :   0.9224
B(  6-C , 19-H ) :   0.9158 B(  7-N , 20-H ) :   0.8745

MP2 TOTAL ENERGY:     -382.512516051 Eh
FINAL SINGLE POINT ENERGY      -382.512516051482

DIPOLE MOMENT
-------------
                                X             Y             Z
Electronic contribution:      2.29723      -1.89907      -0.01241
Nuclear contribution   :     -2.69185       1.60463      -0.27845
                        -----------------------------------------
Total Dipole Moment    :     -0.39462      -0.29444      -0.29086
                        -----------------------------------------
Magnitude (a.u.)       :      0.57185
Magnitude (Debye)      :      1.45354

                             ****ORCA TERMINATED NORMALLY****
TOTAL RUN TIME: 0 days 0 hours 19 minutes 23 seconds 240 msec
