                         Program Version 3.0.3 - RELEASE   -
|  1> ! RI-MP2 RIJK def2-TZVP def2-TZVP/C def2-TZVP/JK TIGHTSCF
|  2> % maxcore 2000
|  3> % mp2 density relaxed end
|  4> *xyz 0 1
|  5>  C        0.8108155499     1.4335249005    -0.2792228318
|  6>  C        0.0832825174     0.1179695480     0.0372286908
|  7>  C        0.1432531477    -0.8925845547    -1.1473542834
|  8>  C        1.2263407634    -1.8879158076    -0.7838758476
|  9>  N        2.4859933676    -1.2539029549    -0.3412256627
| 10>  C        1.5266286680    -1.7703550464     0.6621267861
| 11>  C        0.6527336900    -0.6817821903     1.2715066042
| 12>  C        1.4047763228     0.1653548015     2.2738523220
| 13>  O        1.0061009521     0.4280699357     3.3816167404
| 14>  H        1.8576300358     1.2572471064    -0.5345247358
| 15>  H        0.3285394255     1.9241479764    -1.1313642473
| 16>  H        0.7676447458     2.1309531669     0.5642842191
| 17>  H       -0.9594469923     0.3650008741     0.2565884184
| 18>  H       -0.8065903470    -1.4298996603    -1.2510579269
| 19>  H        0.3384791289    -0.3845060714    -2.0973416716
| 20>  H        1.2780525258    -2.8438793916    -1.2954258251
| 21>  H        3.2515407252    -1.9152690172    -0.4426460813
| 22>  H        1.8092864562    -2.6267625500     1.2659758802
| 23>  H       -0.1757942931    -1.1530737336     1.8107068063
| 24>  H        2.3932286004     0.5275123382     1.9183720462
| 25> *
| 26>
| 27>                          ****END OF INPUT****

CARTESIAN COORDINATES (ANGSTROEM)
---------------------------------
  C      0.810816    1.433525   -0.279223
  C      0.083283    0.117970    0.037229
  C      0.143253   -0.892585   -1.147354
  C      1.226341   -1.887916   -0.783876
  N      2.485993   -1.253903   -0.341226
  C      1.526629   -1.770355    0.662127
  C      0.652734   -0.681782    1.271507
  C      1.404776    0.165355    2.273852
  O      1.006101    0.428070    3.381617
  H      1.857630    1.257247   -0.534525
  H      0.328539    1.924148   -1.131364
  H      0.767645    2.130953    0.564284
  H     -0.959447    0.365001    0.256588
  H     -0.806590   -1.429900   -1.251058
  H      0.338479   -0.384506   -2.097342
  H      1.278053   -2.843879   -1.295426
  H      3.251541   -1.915269   -0.442646
  H      1.809286   -2.626763    1.265976
  H     -0.175794   -1.153074    1.810707
  H      2.393229    0.527512    1.918372

 Total Charge           Charge          ....    0
 Multiplicity           Mult            ....    1
 Number of Electrons    NEL             ....   68
 Basis Dimension        Dim             ....  345

ORBITAL ENERGIES
----------------

  NO   OCC          E(Eh)            E(eV)
   0   2.0000     -20.549164      -559.1712
   1   2.0000     -15.568464      -423.6394
   2   2.0000     -11.321795      -308.0817
   3   2.0000     -11.270734      -306.6923
   4   2.0000     -11.268935      -306.6433
   5   2.0000     -11.244186      -305.9699
   6   2.0000     -11.242015      -305.9108
   7   2.0000     -11.232180      -305.6432
   8   2.0000     -11.213208      -305.1269
   9   2.0000      -1.386989       -37.7419
  10   2.0000      -1.282326       -34.8939
  11   2.0000      -1.098065       -29.8799
  12   2.0000      -1.005548       -27.3623
  13   2.0000      -0.969188       -26.3730
  14   2.0000      -0.870363       -23.6838
  15   2.0000      -0.835399       -22.7324
  16   2.0000      -0.781859       -21.2755
  17   2.0000      -0.752186       -20.4680
  18   2.0000      -0.732492       -19.9321
  19   2.0000      -0.659114       -17.9354
  20   2.0000      -0.634987       -17.2789
  21   2.0000      -0.615554       -16.7501
  22   2.0000      -0.597191       -16.2504
  23   2.0000      -0.567979       -15.4555
  24   2.0000      -0.561331       -15.2746
  25   2.0000      -0.537570       -14.6280
  26   2.0000      -0.528248       -14.3744
  27   2.0000      -0.513395       -13.9702
  28   2.0000      -0.483062       -13.1448
  29   2.0000      -0.475216       -12.9313
  30   2.0000      -0.459672       -12.5083
  31   2.0000      -0.452892       -12.3238
  32   2.0000      -0.416841       -11.3428
  33   2.0000      -0.380693       -10.3592
  34   0.0000       0.125191         3.4066
  35   0.0000       0.135597         3.6898
  36   0.0000       0.152530         4.1506
  37   0.0000       0.158543         4.3142
  38   0.0000       0.169584         4.6146

MULLIKEN ATOMIC CHARGES
-----------------------
   0 C :   -0.484852
   1 C :   -0.024315
   2 C :   -0.188633
   3 C :   -0.083295
   4 N :   -0.403431
   5 C :   -0.104510
   6 C :    0.044596
   7 C :    0.031074
   8 O :   -0.264960
   9 H :    0.164869
  10 H :    0.130160
  11 H :    0.139940
  12 H :    0.112503
  13 H :    0.117989
  14 H :    0.117148
  15 H :    0.131658
  16 H :    0.218543
  17 H :    0.139872
  18 H :    0.102715
  19 H :    0.102928
Sum of atomic charges:   -0.0000000

LOEWDIN ATOMIC CHARGES
----------------------
   0 C :   -0.298277
   1 C :   -0.216605
   2 C :   -0.210328
   3 C :   -0.248003
   4 N :    0.005888
   5 C :   -0.225765
   6 C :   -0.202831
   7 C :   -0.271600
   8 O :    0.127523
   9 H :    0.128244
  10 H :    0.123634
  11 H :    0.124890
  12 H :    0.151697
  13 H :    0.142698
  14 H :    0.142943
  15 H :    0.135727
  16 H :    0.168978
  17 H :    0.138216
  18 H :    0.163436
  19 H :    0.119537

  Mayer bond orders larger than 0.1
B(  0-C ,  1-C ) :   0.8925 B(  0-C ,  9-H ) :   0.9351 B(  0-C , 10-H ) :   0.9344
B(  0-C , 11-H ) :   0.9340 B(  1-C ,  2-C ) :   0.9021 B(  1-C ,  6-C ) :   0.8756
B(  1-C , 12-H ) :   0.9333 B(  2-C ,  3-C ) :   0.9583 B(  2-C , 13-H ) :   0.9210
B(  2-C , 14-H ) :   0.9152 B(  3-C ,  4-N ) :   0.9385 B(  3-C ,  5-C ) :   0.8809
B(  3-C , 15-H ) :   0.9252 B(  4-N ,  5-C ) :   0.9077 B(  4-N , 16-H ) :   0.8685
B(  5-C ,  6-C ) :   0.8921 B(  5-C , 17-H ) :   0.9191 B(  6-C ,  7-C ) :   0.8231
B(  6-C , 18-H ) :   0.9114 B(  7-C ,  8-O ) :   1.9827 B(  7-C , 19-H ) :   0.9464

MP2 TOTAL ENERGY:     -402.456697582 Eh
FINAL SINGLE POINT ENERGY      -402.456697582236

DIPOLE MOMENT
-------------
                                X             Y             Z
Electronic contribution:      1.38623      -1.76183       5.76827
Nuclear contribution   :     -1.36035       0.82637      -6.84537
                        -----------------------------------------
Total Dipole Moment    :      0.02588      -0.93546      -1.07710
                        -----------------------------------------
Magnitude (a.u.)       :      1.42685
Magnitude (Debye)      :      3.62676

                             ****ORCA TERMINATED NORMALLY****
TOTAL RUN TIME: 0 days 0 hours 19 minutes 21 seconds 945 msec
