                         Program Version 3.0.3 - RELEASE   -
|  1> ! RI-MP2 RIJK def2-TZVP def2-TZVP/C def2-TZVP/JK TIGHTSCF
|  2> % maxcore 2000
|  3> % mp2 density relaxed end
|  4> *xyz 0 1
|  5>  C        0.0563625314    -1.1663011340    -0.0376701709
|  6>  C        0.0184993569     0.0379945087    -0.0124069974
|  7>  C       -0.0383426272     1.4468096885     0.0299365022
|  8>  C       -0.9170066699     2.4545767286     0.8439604483
|  9>  C       -0.8261800022     3.4614229099    -0.2904993897
| 10>  C        0.2132768108     3.4699150563     0.8209049238
| 11>  C        1.0956429651     2.4870580563    -0.0030139506
| 12>  C        0.0622660279     2.4785437370    -1.1078308775
| 13>  H        0.0931093715    -2.2267406539    -0.0627096799
| 14>  H       -1.6973443734     2.2953844658     1.5749909090
| 15>  H       -1.5286881637     4.2263960235    -0.5901860600
| 16>  H        0.4594877697     4.2426354850     1.5356061763
| 17>  H        2.1603309546     2.3021212077    -0.0419002131
| 18>  H        0.1735693684     2.2857457308    -2.1659972906
| 19> *
| 20>
| 21>                          ****END OF INPUT****

CARTESIAN COORDINATES (ANGSTROEM)
---------------------------------
  C      0.056363   -1.166301   -0.037670
  C      0.018499    0.037995   -0.012407
  C     -0.038343    1.446810    0.029937
  C     -0.917007    2.454577    0.843960
  C     -0.826180    3.461423   -0.290499
  C      0.213277    3.469915    0.820905
  C      1.095643    2.487058   -0.003014
  C      0.062266    2.478544   -1.107831
  H      0.093109   -2.226741   -0.062710
  H     -1.697344    2.295384    1.574991
  H     -1.528688    4.226396   -0.590186
  H      0.459488    4.242635    1.535606
  H      2.160331    2.302121   -0.041900
  H      0.173569    2.285746   -2.165997

 Total Charge           Charge          ....    0
 Multiplicity           Mult            ....    1
 Number of Electrons    NEL             ....   54
 Basis Dimension        Dim             ....  284

ORBITAL ENERGIES
----------------

  NO   OCC          E(Eh)            E(eV)
   0   2.0000     -11.261538      -306.4420
   1   2.0000     -11.250250      -306.1349
   2   2.0000     -11.249608      -306.1174
   3   2.0000     -11.246000      -306.0192
   4   2.0000     -11.244141      -305.9686
   5   2.0000     -11.243626      -305.9546
   6   2.0000     -11.234399      -305.7035
   7   2.0000     -11.220592      -305.3278
   8   2.0000      -1.278733       -34.7961
   9   2.0000      -1.050225       -28.5781
  10   2.0000      -1.000497       -27.2249
  11   2.0000      -0.900547       -24.5051
  12   2.0000      -0.885891       -24.1063
  13   2.0000      -0.782569       -21.2948
  14   2.0000      -0.725837       -19.7510
  15   2.0000      -0.725091       -19.7307
  16   2.0000      -0.694825       -18.9071
  17   2.0000      -0.608753       -16.5650
  18   2.0000      -0.599600       -16.3160
  19   2.0000      -0.574867       -15.6429
  20   2.0000      -0.562051       -15.2942
  21   2.0000      -0.458461       -12.4754
  22   2.0000      -0.452790       -12.3210
  23   2.0000      -0.400578       -10.9003
  24   2.0000      -0.382127       -10.3982
  25   2.0000      -0.356021        -9.6878
  26   2.0000      -0.325609        -8.8603
  27   0.0000       0.152550         4.1511
  28   0.0000       0.161657         4.3989
  29   0.0000       0.162304         4.4165
  30   0.0000       0.164028         4.4634
  31   0.0000       0.175474         4.7749

MULLIKEN ATOMIC CHARGES
-----------------------
   0 C :   -0.126838
   1 C :   -0.006140
   2 C :   -0.149574
   3 C :   -0.138019
   4 C :   -0.143892
   5 C :   -0.143901
   6 C :   -0.107163
   7 C :   -0.107157
   8 H :    0.189891
   9 H :    0.146170
  10 H :    0.144448
  11 H :    0.144451
  12 H :    0.148861
  13 H :    0.148864
Sum of atomic charges:    0.0000000

LOEWDIN ATOMIC CHARGES
----------------------
   0 C :   -0.089094
   1 C :   -0.081826
   2 C :   -0.132109
   3 C :   -0.090445
   4 C :   -0.123360
   5 C :   -0.123356
   6 C :   -0.084905
   7 C :   -0.084917
   8 H :    0.126324
   9 H :    0.137583
  10 H :    0.134476
  11 H :    0.134478
  12 H :    0.138575
  13 H :    0.138576

  Mayer bond orders larger than 0.1
B(  0-C ,  1-C ) :   2.6001 B(  0-C ,  2-C ) :  -0.1651 B(  0-C ,  8-H ) :   0.8690
B(  1-C ,  2-C ) :   1.2592 B(  2-C ,  3-C ) :   0.8741 B(  2-C ,  6-C ) :   0.8290
B(  2-C ,  7-C ) :   0.8290 B(  3-C ,  4-C ) :   0.8742 B(  3-C ,  5-C ) :   0.8742
B(  3-C ,  9-H ) :   0.9270 B(  4-C ,  5-C ) :   0.8662 B(  4-C ,  7-C ) :   0.9265
B(  4-C , 10-H ) :   0.9296 B(  5-C ,  6-C ) :   0.9265 B(  5-C , 11-H ) :   0.9296
B(  6-C ,  7-C ) :   0.9169 B(  6-C , 12-H ) :   0.9236 B(  7-C , 13-H ) :   0.9236

MP2 TOTAL ENERGY:     -307.524535919 Eh
FINAL SINGLE POINT ENERGY      -307.524535918716

DIPOLE MOMENT
-------------
                                X             Y             Z
Electronic contribution:      0.08371      -1.53494      -0.06725
Nuclear contribution   :     -0.07760       1.87383       0.05937
                        -----------------------------------------
Total Dipole Moment    :      0.00610       0.33889      -0.00788
                        -----------------------------------------
Magnitude (a.u.)       :      0.33903
Magnitude (Debye)      :      0.86176

                             ****ORCA TERMINATED NORMALLY****
TOTAL RUN TIME: 0 days 0 hours 11 minutes 51 seconds 567 msec
