                         Program Version 3.0.3 - RELEASE   -
|  1> ! RI-MP2 RIJK def2-TZVP def2-TZVP/C def2-TZVP/JK TIGHTSCF
|  2> % maxcore 2000
|  3> % mp2 density relaxed end
|  4> *xyz 0 1
|  5>  O       -0.0772562753     1.3962633775     0.0542213083
|  6>  C        0.0010072930     0.0161929189     0.0254996031
|  7>  C       -0.2607040994    -0.7978296357    -1.2111317519
|  8>  C       -1.1459489206    -0.9581766344     0.0141120704
|  9>  C       -0.4820478826    -1.7545054388     1.1750107458
| 10>  C        0.9176729400    -2.2320344286     0.8906918401
| 11>  C        0.6798793940    -0.7761883951     1.1893282232
| 12>  H        0.7129497945     1.7503898763    -0.3703045213
| 13>  H       -0.7399738769    -0.2164282154    -1.9935959343
| 14>  H        0.3939066568    -1.5789758250    -1.5831298220
| 15>  H       -2.2084963452    -0.7593943429    -0.0300968157
| 16>  H       -1.0507185102    -2.1221180046     2.0192647139
| 17>  H        1.3717476311    -2.7842599005     1.7091379009
| 18>  H        1.2310892251    -2.5867667693    -0.0848912194
| 19>  H        1.1135747559    -0.2662834626     2.0400683190
| 20> *
| 21>
| 22>                          ****END OF INPUT****

CARTESIAN COORDINATES (ANGSTROEM)
---------------------------------
  O     -0.077256    1.396263    0.054221
  C      0.001007    0.016193    0.025500
  C     -0.260704   -0.797830   -1.211132
  C     -1.145949   -0.958177    0.014112
  C     -0.482048   -1.754505    1.175011
  C      0.917673   -2.232034    0.890692
  C      0.679879   -0.776188    1.189328
  H      0.712950    1.750390   -0.370305
  H     -0.739974   -0.216428   -1.993596
  H      0.393907   -1.578976   -1.583130
  H     -2.208496   -0.759394   -0.030097
  H     -1.050719   -2.122118    2.019265
  H      1.371748   -2.784260    1.709138
  H      1.231089   -2.586767   -0.084891
  H      1.113575   -0.266283    2.040068

 Total Charge           Charge          ....    0
 Multiplicity           Mult            ....    1
 Number of Electrons    NEL             ....   52
 Basis Dimension        Dim             ....  265

ORBITAL ENERGIES
----------------

  NO   OCC          E(Eh)            E(eV)
   0   2.0000     -20.566663      -559.6474
   1   2.0000     -11.288372      -307.1722
   2   2.0000     -11.234276      -305.7002
   3   2.0000     -11.232054      -305.6397
   4   2.0000     -11.231272      -305.6184
   5   2.0000     -11.230677      -305.6022
   6   2.0000     -11.228206      -305.5350
   7   2.0000      -1.377624       -37.4871
   8   2.0000      -1.207921       -32.8692
   9   2.0000      -1.068970       -29.0881
  10   2.0000      -0.877205       -23.8700
  11   2.0000      -0.857697       -23.3391
  12   2.0000      -0.772148       -21.0112
  13   2.0000      -0.732418       -19.9301
  14   2.0000      -0.713485       -19.4149
  15   2.0000      -0.660750       -17.9799
  16   2.0000      -0.642400       -17.4806
  17   2.0000      -0.603101       -16.4112
  18   2.0000      -0.552670       -15.0389
  19   2.0000      -0.543713       -14.7952
  20   2.0000      -0.519172       -14.1274
  21   2.0000      -0.499250       -13.5853
  22   2.0000      -0.444758       -12.1025
  23   2.0000      -0.423141       -11.5143
  24   2.0000      -0.398092       -10.8326
  25   2.0000      -0.326434        -8.8827
  26   0.0000       0.145589         3.9617
  27   0.0000       0.159358         4.3363
  28   0.0000       0.168277         4.5791
  29   0.0000       0.177824         4.8388
  30   0.0000       0.190579         5.1859

MULLIKEN ATOMIC CHARGES
-----------------------
   0 O :   -0.456495
   1 C :    0.208703
   2 C :   -0.298958
   3 C :   -0.142408
   4 C :   -0.134299
   5 C :   -0.240366
   6 C :   -0.185699
   7 H :    0.325427
   8 H :    0.132606
   9 H :    0.121998
  10 H :    0.144644
  11 H :    0.134110
  12 H :    0.128774
  13 H :    0.125009
  14 H :    0.136952
Sum of atomic charges:   -0.0000000

LOEWDIN ATOMIC CHARGES
----------------------
   0 O :    0.030575
   1 C :   -0.319672
   2 C :   -0.195930
   3 C :   -0.143705
   4 C :   -0.160880
   5 C :   -0.205198
   6 C :   -0.150861
   7 H :    0.185842
   8 H :    0.145744
   9 H :    0.125700
  10 H :    0.141850
  11 H :    0.137451
  12 H :    0.141899
  13 H :    0.127756
  14 H :    0.139428

  Mayer bond orders larger than 0.1
B(  0-O ,  1-C ) :   1.0133 B(  0-O ,  7-H ) :   0.8359 B(  1-C ,  2-C ) :   0.9257
B(  1-C ,  3-C ) :   0.9021 B(  1-C ,  6-C ) :   0.8931 B(  2-C ,  3-C ) :   0.8815
B(  2-C ,  8-H ) :   0.9245 B(  2-C ,  9-H ) :   0.8899 B(  3-C ,  4-C ) :   0.8922
B(  3-C , 10-H ) :   0.9086 B(  4-C ,  5-C ) :   0.9051 B(  4-C ,  6-C ) :   0.9020
B(  4-C , 11-H ) :   0.9243 B(  5-C ,  6-C ) :   0.8746 B(  5-C , 12-H ) :   0.9238
B(  5-C , 13-H ) :   0.9110 B(  6-C , 14-H ) :   0.9206

MP2 TOTAL ENERGY:     -307.898489053 Eh
FINAL SINGLE POINT ENERGY      -307.898489052602

DIPOLE MOMENT
-------------
                                X             Y             Z
Electronic contribution:     -0.66318       2.80610       0.40076
Nuclear contribution   :      1.07632      -2.97606      -0.55839
                        -----------------------------------------
Total Dipole Moment    :      0.41314      -0.16996      -0.15763
                        -----------------------------------------
Magnitude (a.u.)       :      0.47372
Magnitude (Debye)      :      1.20411

                             ****ORCA TERMINATED NORMALLY****
TOTAL RUN TIME: 0 days 0 hours 7 minutes 54 seconds 74 msec
