                         Program Version 3.0.3 - RELEASE   -
|  1> ! RI-MP2 RIJK def2-TZVP def2-TZVP/C def2-TZVP/JK TIGHTSCF
|  2> % maxcore 2000
|  3> % mp2 density relaxed end
|  4> *xyz 0 1
|  5>  C       -0.0582143482     1.5523537074     0.0295902007
|  6>  C        0.0217402166     0.0358691078    -0.0213548504
|  7>  C        1.1290456283    -0.6303019314    -0.8977873492
|  8>  C        1.1752216154    -1.7693826141     0.1691764460
|  9>  C        2.5017353734    -2.4540830858     0.4524802072
| 10>  C        0.6612680739    -0.7093098805     1.1855748615
| 11>  C        0.0354863358    -2.7769363041    -0.0878288803
| 12>  C       -1.1897341531    -2.0950643027    -0.7381685707
| 13>  C       -1.3450419859    -0.6163520042    -0.3158614137
| 14>  H        0.9115824048     1.9929919109     0.2855499269
| 15>  H       -0.3709175497     1.9673004247    -0.9361420181
| 16>  H       -0.7845666345     1.8848148036     0.7813237542
| 17>  H        0.9000184455    -0.8862995183    -1.9368209985
| 18>  H        2.0505044455    -0.0393097136    -0.8767840557
| 19>  H        3.2860732359    -1.7231132726     0.6776031500
| 20>  H        2.4211441878    -3.1320460005     1.3110217351
| 21>  H        2.8341960943    -3.0491527515    -0.4065680837
| 22>  H        1.4877705040    -0.1355020600     1.6186714453
| 23>  H       -0.0013708429    -1.0478059961     1.9900409440
| 24>  H        0.3863398106    -3.5880928997    -0.7378749554
| 25>  H       -0.2353947356    -3.2441006568     0.8680935575
| 26>  H       -1.0652536995    -2.1302847820    -1.8254895238
| 27>  H       -2.1046837974    -2.6573256147    -0.5263481616
| 28>  H       -1.9715176962    -0.5269858761     0.5813275119
| 29>  H       -1.8645589187    -0.0653489297    -1.1096693592
| 30> *
| 31>
| 32>                          ****END OF INPUT****

CARTESIAN COORDINATES (ANGSTROEM)
---------------------------------
  C     -0.058214    1.552354    0.029590
  C      0.021740    0.035869   -0.021355
  C      1.129046   -0.630302   -0.897787
  C      1.175222   -1.769383    0.169176
  C      2.501735   -2.454083    0.452480
  C      0.661268   -0.709310    1.185575
  C      0.035486   -2.776936   -0.087829
  C     -1.189734   -2.095064   -0.738169
  C     -1.345042   -0.616352   -0.315861
  H      0.911582    1.992992    0.285550
  H     -0.370918    1.967300   -0.936142
  H     -0.784567    1.884815    0.781324
  H      0.900018   -0.886300   -1.936821
  H      2.050504   -0.039310   -0.876784
  H      3.286073   -1.723113    0.677603
  H      2.421144   -3.132046    1.311022
  H      2.834196   -3.049153   -0.406568
  H      1.487771   -0.135502    1.618671
  H     -0.001371   -1.047806    1.990041
  H      0.386340   -3.588093   -0.737875
  H     -0.235395   -3.244101    0.868094
  H     -1.065254   -2.130285   -1.825490
  H     -2.104684   -2.657326   -0.526348
  H     -1.971518   -0.526986    0.581328
  H     -1.864559   -0.065349   -1.109669

 Total Charge           Charge          ....    0
 Multiplicity           Mult            ....    1
 Number of Electrons    NEL             ....   70
 Basis Dimension        Dim             ....  375

ORBITAL ENERGIES
----------------

  NO   OCC          E(Eh)            E(eV)
   0   2.0000     -11.226867      -305.4986
   1   2.0000     -11.226848      -305.4981
   2   2.0000     -11.213939      -305.1468
   3   2.0000     -11.212661      -305.1120
   4   2.0000     -11.212525      -305.1083
   5   2.0000     -11.210073      -305.0416
   6   2.0000     -11.207849      -304.9811
   7   2.0000     -11.206870      -304.9544
   8   2.0000     -11.206869      -304.9544
   9   2.0000      -1.163716       -31.6663
  10   2.0000      -1.029564       -28.0158
  11   2.0000      -1.022193       -27.8153
  12   2.0000      -0.937729       -25.5169
  13   2.0000      -0.912302       -24.8250
  14   2.0000      -0.893172       -24.3044
  15   2.0000      -0.811721       -22.0880
  16   2.0000      -0.747088       -20.3293
  17   2.0000      -0.698692       -19.0124
  18   2.0000      -0.637527       -17.3480
  19   2.0000      -0.626979       -17.0610
  20   2.0000      -0.602043       -16.3824
  21   2.0000      -0.586477       -15.9589
  22   2.0000      -0.573701       -15.6112
  23   2.0000      -0.550641       -14.9837
  24   2.0000      -0.543486       -14.7890
  25   2.0000      -0.530356       -14.4317
  26   2.0000      -0.522153       -14.2085
  27   2.0000      -0.515311       -14.0223
  28   2.0000      -0.496827       -13.5193
  29   2.0000      -0.465477       -12.6663
  30   2.0000      -0.464681       -12.6446
  31   2.0000      -0.424192       -11.5428
  32   2.0000      -0.418159       -11.3787
  33   2.0000      -0.410012       -11.1570
  34   2.0000      -0.396865       -10.7993
  35   0.0000       0.128958         3.5091
  36   0.0000       0.153542         4.1781
  37   0.0000       0.158867         4.3230
  38   0.0000       0.174247         4.7415
  39   0.0000       0.188670         5.1340

MULLIKEN ATOMIC CHARGES
-----------------------
   0 C :   -0.409366
   1 C :    0.256960
   2 C :   -0.372959
   3 C :    0.256950
   4 C :   -0.409360
   5 C :   -0.372498
   6 C :   -0.307589
   7 C :   -0.221530
   8 C :   -0.307596
   9 H :    0.124096
  10 H :    0.127741
  11 H :    0.128236
  12 H :    0.115571
  13 H :    0.107001
  14 H :    0.124096
  15 H :    0.128235
  16 H :    0.127740
  17 H :    0.106045
  18 H :    0.110551
  19 H :    0.112099
  20 H :    0.109820
  21 H :    0.117792
  22 H :    0.126043
  23 H :    0.109821
  24 H :    0.112101
Sum of atomic charges:    0.0000000

LOEWDIN ATOMIC CHARGES
----------------------
   0 C :   -0.278741
   1 C :   -0.273165
   2 C :   -0.155927
   3 C :   -0.273165
   4 C :   -0.278741
   5 C :   -0.159060
   6 C :   -0.217325
   7 C :   -0.253256
   8 C :   -0.217325
   9 H :    0.123425
  10 H :    0.124971
  11 H :    0.126554
  12 H :    0.127740
  13 H :    0.139638
  14 H :    0.123425
  15 H :    0.126555
  16 H :    0.124969
  17 H :    0.138126
  18 H :    0.127075
  19 H :    0.138604
  20 H :    0.138130
  21 H :    0.136549
  22 H :    0.134210
  23 H :    0.138129
  24 H :    0.138604

  Mayer bond orders larger than 0.1
B(  0-C ,  1-C ) :   0.8586 B(  0-C ,  9-H ) :   0.9395 B(  0-C , 10-H ) :   0.9421
B(  0-C , 11-H ) :   0.9405 B(  1-C ,  2-C ) :   0.9102 B(  1-C ,  5-C ) :   0.9001
B(  1-C ,  8-C ) :   0.8869 B(  2-C ,  3-C ) :   0.9102 B(  2-C , 12-H ) :   0.9173
B(  2-C , 13-H ) :   0.9050 B(  3-C ,  4-C ) :   0.8586 B(  3-C ,  5-C ) :   0.9001
B(  3-C ,  6-C ) :   0.8869 B(  4-C , 14-H ) :   0.9395 B(  4-C , 15-H ) :   0.9405
B(  4-C , 16-H ) :   0.9421 B(  5-C , 17-H ) :   0.9040 B(  5-C , 18-H ) :   0.9216
B(  6-C ,  7-C ) :   0.9472 B(  6-C , 19-H ) :   0.9272 B(  6-C , 20-H ) :   0.9307
B(  7-C ,  8-C ) :   0.9472 B(  7-C , 21-H ) :   0.9356 B(  7-C , 22-H ) :   0.9331
B(  8-C , 23-H ) :   0.9307 B(  8-C , 24-H ) :   0.9272

MP2 TOTAL ENERGY:     -351.732711168 Eh
FINAL SINGLE POINT ENERGY      -351.732711168188

DIPOLE MOMENT
-------------
                                X             Y             Z
Electronic contribution:     -0.57937      -0.38669      -0.15627
Nuclear contribution   :      0.54517       0.36183       0.12774
                        -----------------------------------------
Total Dipole Moment    :     -0.03420      -0.02486      -0.02853
                        -----------------------------------------
Magnitude (a.u.)       :      0.05100
Magnitude (Debye)      :      0.12964

                             ****ORCA TERMINATED NORMALLY****
TOTAL RUN TIME: 0 days 0 hours 23 minutes 5 seconds 36 msec
