                         Program Version 3.0.3 - RELEASE   -
|  1> ! RI-MP2 RIJK def2-TZVP def2-TZVP/C def2-TZVP/JK TIGHTSCF
|  2> % maxcore 2000
|  3> % mp2 density relaxed end
|  4> *xyz 0 1
|  5>  C       -0.1180002543     1.4659901153     0.0800599978
|  6>  C       -0.1171852291    -0.0515007100    -0.1173098072
|  7>  C        0.8245327180    -0.4910298106    -1.2370637392
|  8>  N        0.8031190516    -1.9315200025    -1.3990773722
|  9>  C        1.4228504465    -2.5560633637    -2.4294893186
| 10>  N        1.9433133962    -1.9178435427    -3.4158860839
| 11>  C        1.3917957937    -4.0749079918    -2.2345916114
| 12>  N        1.5596549634    -4.8080531348    -3.3678896425
| 13>  O        1.2395256708    -4.5689431276    -1.1316501591
| 14>  H        0.8825436134     1.8343735234     0.3310295569
| 15>  H       -0.4427526708     1.9826885777    -0.8294291718
| 16>  H       -0.7935261810     1.7582120031     0.8891819230
| 17>  H        0.1793229844    -0.5437521190     0.8189407987
| 18>  H       -1.1311310791    -0.4023347108    -0.3447868317
| 19>  H        0.5320578173    -0.0379192004    -2.1905801008
| 20>  H        1.8484360953    -0.1393917382    -1.0361951256
| 21>  H        0.6214092942    -2.5221658809    -0.5999718793
| 22>  H        2.3895196945    -2.5546283887    -4.0711165085
| 23>  H        1.4240097691    -4.3867989064    -4.2710026310
| 24>  H        1.4541695357    -5.8069871113    -3.2897724536
| 25> *
| 26>
| 27>                          ****END OF INPUT****

CARTESIAN COORDINATES (ANGSTROEM)
---------------------------------
  C     -0.118000    1.465990    0.080060
  C     -0.117185   -0.051501   -0.117310
  C      0.824533   -0.491030   -1.237064
  N      0.803119   -1.931520   -1.399077
  C      1.422850   -2.556063   -2.429489
  N      1.943313   -1.917844   -3.415886
  C      1.391796   -4.074908   -2.234592
  N      1.559655   -4.808053   -3.367890
  O      1.239526   -4.568943   -1.131650
  H      0.882544    1.834374    0.331030
  H     -0.442753    1.982689   -0.829429
  H     -0.793526    1.758212    0.889182
  H      0.179323   -0.543752    0.818941
  H     -1.131131   -0.402335   -0.344787
  H      0.532058   -0.037919   -2.190580
  H      1.848436   -0.139392   -1.036195
  H      0.621409   -2.522166   -0.599972
  H      2.389520   -2.554628   -4.071117
  H      1.424010   -4.386799   -4.271003
  H      1.454170   -5.806987   -3.289772

 Total Charge           Charge          ....    0
 Multiplicity           Mult            ....    1
 Number of Electrons    NEL             ....   70
 Basis Dimension        Dim             ....  345

ORBITAL ENERGIES
----------------

  NO   OCC          E(Eh)            E(eV)
   0   2.0000     -20.544699      -559.0497
   1   2.0000     -15.603096      -424.5818
   2   2.0000     -15.571635      -423.7257
   3   2.0000     -15.535536      -422.7434
   4   2.0000     -11.375997      -309.5566
   5   2.0000     -11.326985      -308.2229
   6   2.0000     -11.255057      -306.2657
   7   2.0000     -11.226783      -305.4963
   8   2.0000     -11.217683      -305.2487
   9   2.0000      -1.409058       -38.3424
  10   2.0000      -1.276866       -34.7453
  11   2.0000      -1.234490       -33.5922
  12   2.0000      -1.160251       -31.5720
  13   2.0000      -1.053141       -28.6574
  14   2.0000      -0.947452       -25.7815
  15   2.0000      -0.878141       -23.8954
  16   2.0000      -0.817698       -22.2507
  17   2.0000      -0.785113       -21.3640
  18   2.0000      -0.765786       -20.8381
  19   2.0000      -0.703206       -19.1352
  20   2.0000      -0.656789       -17.8721
  21   2.0000      -0.643277       -17.5044
  22   2.0000      -0.638789       -17.3823
  23   2.0000      -0.612077       -16.6555
  24   2.0000      -0.598359       -16.2822
  25   2.0000      -0.572782       -15.5862
  26   2.0000      -0.554222       -15.0811
  27   2.0000      -0.508437       -13.8353
  28   2.0000      -0.505298       -13.7499
  29   2.0000      -0.494606       -13.4589
  30   2.0000      -0.479486       -13.0475
  31   2.0000      -0.467736       -12.7278
  32   2.0000      -0.440566       -11.9884
  33   2.0000      -0.412608       -11.2276
  34   2.0000      -0.356395        -9.6980
  35   0.0000       0.111627         3.0375
  36   0.0000       0.123145         3.3509
  37   0.0000       0.138757         3.7758
  38   0.0000       0.166623         4.5340
  39   0.0000       0.171496         4.6667

MULLIKEN ATOMIC CHARGES
-----------------------
   0 C :   -0.397949
   1 C :   -0.195671
   2 C :   -0.100677
   3 N :   -0.301316
   4 C :    0.112734
   5 N :   -0.413022
   6 C :    0.300707
   7 N :   -0.487330
   8 O :   -0.362718
   9 H :    0.126609
  10 H :    0.127402
  11 H :    0.137401
  12 H :    0.108667
  13 H :    0.118646
  14 H :    0.133514
  15 H :    0.111940
  16 H :    0.255967
  17 H :    0.195829
  18 H :    0.262807
  19 H :    0.266459
Sum of atomic charges:    0.0000000

LOEWDIN ATOMIC CHARGES
----------------------
   0 C :   -0.317073
   1 C :   -0.298627
   2 C :   -0.277668
   3 N :    0.115138
   4 C :   -0.373307
   5 N :   -0.092027
   6 C :   -0.444437
   7 N :   -0.009071
   8 O :    0.085020
   9 H :    0.122171
  10 H :    0.122605
  11 H :    0.122470
  12 H :    0.134460
  13 H :    0.136575
  14 H :    0.141534
  15 H :    0.132188
  16 H :    0.196787
  17 H :    0.151270
  18 H :    0.173389
  19 H :    0.178602

  Mayer bond orders larger than 0.1
B(  0-C ,  1-C ) :   0.9298 B(  0-C ,  9-H ) :   0.9368 B(  0-C , 10-H ) :   0.9382
B(  0-C , 11-H ) :   0.9408 B(  1-C ,  2-C ) :   0.9237 B(  1-C , 12-H ) :   0.9283
B(  1-C , 13-H ) :   0.9276 B(  2-C ,  3-N ) :   0.8699 B(  2-C , 14-H ) :   0.9252
B(  2-C , 15-H ) :   0.9310 B(  3-N ,  4-C ) :   1.1920 B(  3-N , 16-H ) :   0.8499
B(  4-C ,  5-N ) :   1.8551 B(  4-C ,  6-C ) :   0.8671 B(  5-N , 17-H ) :   0.8678
B(  6-C ,  7-N ) :   1.1833 B(  6-C ,  8-O ) :   1.8859 B(  7-N , 18-H ) :   0.8635
B(  7-N , 19-H ) :   0.8581

MP2 TOTAL ENERGY:     -435.790770126 Eh
FINAL SINGLE POINT ENERGY      -435.790770126266

DIPOLE MOMENT
-------------
                                X             Y             Z
Electronic contribution:      3.36321     -12.01986      -4.26420
Nuclear contribution   :     -3.68663      11.67920       3.77830
                        -----------------------------------------
Total Dipole Moment    :     -0.32342      -0.34066      -0.48590
                        -----------------------------------------
Magnitude (a.u.)       :      0.67583
Magnitude (Debye)      :      1.71783

                             ****ORCA TERMINATED NORMALLY****
TOTAL RUN TIME: 0 days 0 hours 15 minutes 35 seconds 691 msec
