                         Program Version 3.0.3 - RELEASE   -
|  1> ! RI-MP2 RIJK def2-TZVP def2-TZVP/C def2-TZVP/JK TIGHTSCF
|  2> % maxcore 2000
|  3> % mp2 density relaxed end
|  4> *xyz 0 1
|  5>  C       -0.1424693289     1.5810179005    -0.0025843923
|  6>  N       -0.0489967166     0.1242455255     0.0617647473
|  7>  C        0.6622415296    -0.3254149682     1.2473719447
|  8>  C        2.1519839027    -0.0242478340     1.1396971791
|  9>  O        2.8661456505     0.1880071259     2.0821280226
| 10>  C       -1.3471521635    -0.5225519025    -0.0794846807
| 11>  C       -1.9343978120    -0.2859681571    -1.4044536304
| 12>  N       -2.4098462342    -0.0972432420    -2.4398370060
| 13>  H        0.8603727812     2.0151419392     0.0378583034
| 14>  H       -0.6022055819     1.8817042505    -0.9470176906
| 15>  H       -0.7331609349     2.0061679735     0.8289174926
| 16>  H        0.2809798079     0.0912925960     2.1959419599
| 17>  H        0.5807037110    -1.4193973034     1.3168045197
| 18>  H        2.5334662097    -0.0482218549     0.0942574906
| 19>  H       -1.2220324011    -1.6036712952     0.0447081851
| 20>  H       -2.0840002896    -0.1960748337     0.6792500051
| 21> *
| 22>
| 23>                          ****END OF INPUT****

CARTESIAN COORDINATES (ANGSTROEM)
---------------------------------
  C     -0.142469    1.581018   -0.002584
  N     -0.048997    0.124246    0.061765
  C      0.662242   -0.325415    1.247372
  C      2.151984   -0.024248    1.139697
  O      2.866146    0.188007    2.082128
  C     -1.347152   -0.522552   -0.079485
  C     -1.934398   -0.285968   -1.404454
  N     -2.409846   -0.097243   -2.439837
  H      0.860373    2.015142    0.037858
  H     -0.602206    1.881704   -0.947018
  H     -0.733161    2.006168    0.828917
  H      0.280980    0.091293    2.195942
  H      0.580704   -1.419397    1.316805
  H      2.533466   -0.048222    0.094257
  H     -1.222032   -1.603671    0.044708
  H     -2.084000   -0.196075    0.679250

 Total Charge           Charge          ....    0
 Multiplicity           Mult            ....    1
 Number of Electrons    NEL             ....   60
 Basis Dimension        Dim             ....  296

ORBITAL ENERGIES
----------------

  NO   OCC          E(Eh)            E(eV)
   0   2.0000     -20.573467      -559.8325
   1   2.0000     -15.598230      -424.4494
   2   2.0000     -15.583023      -424.0356
   3   2.0000     -11.346837      -308.7631
   4   2.0000     -11.327532      -308.2378
   5   2.0000     -11.292208      -307.2766
   6   2.0000     -11.284619      -307.0701
   7   2.0000     -11.274594      -306.7973
   8   2.0000      -1.413371       -38.4598
   9   2.0000      -1.282546       -34.8999
  10   2.0000      -1.226821       -33.3835
  11   2.0000      -1.048424       -28.5291
  12   2.0000      -1.007013       -27.4022
  13   2.0000      -0.894392       -24.3376
  14   2.0000      -0.813202       -22.1284
  15   2.0000      -0.727585       -19.7986
  16   2.0000      -0.703305       -19.1379
  17   2.0000      -0.696649       -18.9568
  18   2.0000      -0.663563       -18.0565
  19   2.0000      -0.642982       -17.4964
  20   2.0000      -0.607062       -16.5190
  21   2.0000      -0.597812       -16.2673
  22   2.0000      -0.573197       -15.5975
  23   2.0000      -0.566497       -15.4152
  24   2.0000      -0.555370       -15.1124
  25   2.0000      -0.518844       -14.1185
  26   2.0000      -0.479045       -13.0355
  27   2.0000      -0.472497       -12.8573
  28   2.0000      -0.440131       -11.9766
  29   2.0000      -0.405709       -11.0399
  30   0.0000       0.106030         2.8852
  31   0.0000       0.120602         3.2817
  32   0.0000       0.149661         4.0725
  33   0.0000       0.155911         4.2426
  34   0.0000       0.158862         4.3229

MULLIKEN ATOMIC CHARGES
-----------------------
   0 C :   -0.350161
   1 N :   -0.167648
   2 C :   -0.099723
   3 C :    0.061209
   4 O :   -0.250849
   5 C :   -0.074787
   6 C :   -0.164198
   7 N :   -0.050374
   8 H :    0.149880
   9 H :    0.167583
  10 H :    0.123027
  11 H :    0.116539
  12 H :    0.137295
  13 H :    0.098933
  14 H :    0.158696
  15 H :    0.144577
Sum of atomic charges:    0.0000000

LOEWDIN ATOMIC CHARGES
----------------------
   0 C :   -0.307253
   1 N :    0.067326
   2 C :   -0.288743
   3 C :   -0.296495
   4 O :    0.142314
   5 C :   -0.273746
   6 C :   -0.187539
   7 N :    0.067990
   8 H :    0.125220
   9 H :    0.129719
  10 H :    0.109970
  11 H :    0.133915
  12 H :    0.152151
  13 H :    0.115957
  14 H :    0.160792
  15 H :    0.148421

  Mayer bond orders larger than 0.1
B(  0-C ,  1-N ) :   0.8970 B(  0-C ,  8-H ) :   0.9316 B(  0-C ,  9-H ) :   0.9309
B(  0-C , 10-H ) :   0.9265 B(  1-N ,  2-C ) :   0.9002 B(  1-N ,  5-C ) :   0.9561
B(  2-C ,  3-C ) :   0.8712 B(  2-C , 11-H ) :   0.8901 B(  2-C , 12-H ) :   0.9059
B(  3-C ,  4-O ) :   2.0094 B(  3-C , 13-H ) :   0.9316 B(  5-C ,  6-C ) :   0.9189
B(  5-C , 14-H ) :   0.9001 B(  5-C , 15-H ) :   0.9142 B(  6-C ,  7-N ) :   2.8671

MP2 TOTAL ENERGY:     -379.280522495 Eh
FINAL SINGLE POINT ENERGY      -379.280522494618

DIPOLE MOMENT
-------------
                                X             Y             Z
Electronic contribution:      0.37798      -2.03773      -2.18735
Nuclear contribution   :     -0.58176       1.80813       2.99121
                        -----------------------------------------
Total Dipole Moment    :     -0.20378      -0.22960       0.80387
                        -----------------------------------------
Magnitude (a.u.)       :      0.86049
Magnitude (Debye)      :      2.18719

                             ****ORCA TERMINATED NORMALLY****
TOTAL RUN TIME: 0 days 0 hours 10 minutes 37 seconds 378 msec
