                         Program Version 3.0.3 - RELEASE   -
|  1> ! RI-MP2 RIJK def2-TZVP def2-TZVP/C def2-TZVP/JK TIGHTSCF
|  2> % maxcore 2000
|  3> % mp2 density relaxed end
|  4> *xyz 0 1
|  5>  C       -0.0452960661     1.5064894492    -0.0265318436
|  6>  C        0.0382657272    -0.0127205306    -0.0182859877
|  7>  O        1.1128206428    -0.5833663923    -0.0339956742
|  8>  C       -1.2284757235    -0.7635532603     0.0086958414
|  9>  C       -2.4962361919    -0.2487848137     0.0280300217
| 10>  O       -3.4143276709    -1.2306417544     0.0499735907
| 11>  C       -2.7249104425    -2.4151823412     0.0446371015
| 12>  C       -1.3855817461    -2.2059449983     0.0197151211
| 13>  C       -0.3077141490    -3.2428071964     0.0065990119
| 14>  H        0.9642524110     1.9179249087    -0.0413838496
| 15>  H       -0.5958817852     1.8589049292    -0.9054801280
| 16>  H       -0.5753593184     1.8707943192     0.8600552625
| 17>  H       -2.8825356587     0.7576714955     0.0289356126
| 18>  H       -3.3328543810    -3.3046799140     0.0605836357
| 19>  H        0.3245055916    -3.1435866237    -0.8801197479
| 20>  H        0.3559235481    -3.1330344341     0.8687683075
| 21>  H       -0.7384048474    -4.2481158629     0.0203840644
| 22> *
| 23>
| 24>                          ****END OF INPUT****

CARTESIAN COORDINATES (ANGSTROEM)
---------------------------------
  C     -0.045296    1.506489   -0.026532
  C      0.038266   -0.012721   -0.018286
  O      1.112821   -0.583366   -0.033996
  C     -1.228476   -0.763553    0.008696
  C     -2.496236   -0.248785    0.028030
  O     -3.414328   -1.230642    0.049974
  C     -2.724910   -2.415182    0.044637
  C     -1.385582   -2.205945    0.019715
  C     -0.307714   -3.242807    0.006599
  H      0.964252    1.917925   -0.041384
  H     -0.595882    1.858905   -0.905480
  H     -0.575359    1.870794    0.860055
  H     -2.882536    0.757671    0.028936
  H     -3.332854   -3.304680    0.060584
  H      0.324506   -3.143587   -0.880120
  H      0.355924   -3.133034    0.868768
  H     -0.738405   -4.248116    0.020384

 Total Charge           Charge          ....    0
 Multiplicity           Mult            ....    1
 Number of Electrons    NEL             ....   66
 Basis Dimension        Dim             ....  327

ORBITAL ENERGIES
----------------

  NO   OCC          E(Eh)            E(eV)
   0   2.0000     -20.636535      -561.5487
   1   2.0000     -20.541848      -558.9721
   2   2.0000     -11.337591      -308.5115
   3   2.0000     -11.315998      -307.9240
   4   2.0000     -11.286715      -307.1271
   5   2.0000     -11.245828      -306.0145
   6   2.0000     -11.242363      -305.9203
   7   2.0000     -11.237208      -305.7800
   8   2.0000     -11.222655      -305.3840
   9   2.0000      -1.474673       -40.1279
  10   2.0000      -1.384955       -37.6865
  11   2.0000      -1.116574       -30.3835
  12   2.0000      -1.048094       -28.5201
  13   2.0000      -0.996364       -27.1124
  14   2.0000      -0.950394       -25.8615
  15   2.0000      -0.859890       -23.3988
  16   2.0000      -0.786717       -21.4077
  17   2.0000      -0.752148       -20.4670
  18   2.0000      -0.704080       -19.1590
  19   2.0000      -0.653329       -17.7780
  20   2.0000      -0.637382       -17.3440
  21   2.0000      -0.623852       -16.9759
  22   2.0000      -0.614729       -16.7276
  23   2.0000      -0.602579       -16.3970
  24   2.0000      -0.577927       -15.7262
  25   2.0000      -0.563629       -15.3371
  26   2.0000      -0.554174       -15.0798
  27   2.0000      -0.546220       -14.8634
  28   2.0000      -0.511977       -13.9316
  29   2.0000      -0.507537       -13.8108
  30   2.0000      -0.421493       -11.4694
  31   2.0000      -0.393561       -10.7093
  32   2.0000      -0.329819        -8.9748
  33   0.0000       0.096833         2.6350
  34   0.0000       0.132082         3.5941
  35   0.0000       0.155835         4.2405
  36   0.0000       0.158605         4.3159
  37   0.0000       0.176723         4.8089

MULLIKEN ATOMIC CHARGES
-----------------------
   0 C :   -0.417451
   1 C :    0.210068
   2 O :   -0.305599
   3 C :   -0.041049
   4 C :   -0.004656
   5 O :   -0.198773
   6 C :   -0.020710
   7 C :   -0.040939
   8 C :   -0.361136
   9 H :    0.157255
  10 H :    0.145864
  11 H :    0.145553
  12 H :    0.158655
  13 H :    0.149662
  14 H :    0.148009
  15 H :    0.148034
  16 H :    0.127211
Sum of atomic charges:   -0.0000000

LOEWDIN ATOMIC CHARGES
----------------------
   0 C :   -0.272708
   1 C :   -0.320065
   2 O :    0.146782
   3 C :   -0.144049
   4 C :   -0.205430
   5 O :    0.348118
   6 C :   -0.205721
   7 C :   -0.165815
   8 C :   -0.262922
   9 H :    0.134448
  10 H :    0.135885
  11 H :    0.135669
  12 H :    0.138095
  13 H :    0.135928
  14 H :    0.136685
  15 H :    0.136689
  16 H :    0.128410

  Mayer bond orders larger than 0.1
B(  0-C ,  1-C ) :   0.9478 B(  0-C ,  9-H ) :   0.9377 B(  0-C , 10-H ) :   0.9167
B(  0-C , 11-H ) :   0.9171 B(  1-C ,  2-O ) :   1.9713 B(  1-C ,  3-C ) :   0.8856
B(  3-C ,  4-C ) :   1.4369 B(  3-C ,  7-C ) :   1.1500 B(  4-C ,  5-O ) :   1.0984
B(  4-C , 12-H ) :   0.9321 B(  5-O ,  6-C ) :   1.0045 B(  6-C ,  7-C ) :   1.5651
B(  6-C , 13-H ) :   0.9361 B(  7-C ,  8-C ) :   0.8822 B(  8-C , 14-H ) :   0.9327
B(  8-C , 15-H ) :   0.9327 B(  8-C , 16-H ) :   0.9406

MP2 TOTAL ENERGY:     -421.163373968 Eh
FINAL SINGLE POINT ENERGY      -421.163373967849

DIPOLE MOMENT
-------------
                                X             Y             Z
Electronic contribution:     -3.22650      -0.36142       0.06234
Nuclear contribution   :      2.45942       0.60604      -0.05081
                        -----------------------------------------
Total Dipole Moment    :     -0.76709       0.24461       0.01153
                        -----------------------------------------
Magnitude (a.u.)       :      0.80523
Magnitude (Debye)      :      2.04672

                             ****ORCA TERMINATED NORMALLY****
TOTAL RUN TIME: 0 days 0 hours 16 minutes 13 seconds 751 msec
