                         Program Version 3.0.3 - RELEASE   -
|  1> ! RI-MP2 RIJK def2-TZVP def2-TZVP/C def2-TZVP/JK TIGHTSCF
|  2> % maxcore 2000
|  3> % mp2 density relaxed end
|  4> *xyz 0 1
|  5>  C       -0.0108344684     1.5586842002    -0.0356591902
|  6>  C        0.0621387259     0.0523925410     0.0208311393
|  7>  C        0.5232254520    -0.7029738426    -1.2221040262
|  8>  C        0.3726900059    -1.9801397036    -0.8764126104
|  9>  C       -0.1634873241    -1.8664034906     0.5381214079
| 10>  C        0.7245888632    -0.7605670383     1.2047036883
| 11>  C       -0.0509629347    -0.3495876836     2.4480697960
| 12>  C       -1.4739764603    -0.3684955934     1.8002574199
| 13>  N       -1.2148979545    -0.7530163313     0.3943009435
| 14>  H        0.9634613260     1.9747314729    -0.3134258372
| 15>  H       -0.7409681731     1.8759228535    -0.7874658896
| 16>  H       -0.2993848694     2.0009605657     0.9217021145
| 17>  H        0.8578596483    -0.2523626843    -2.1457251089
| 18>  H        0.5490651942    -2.8899306531    -1.4308222005
| 19>  H       -0.4713691969    -2.7632427506     1.0787078283
| 20>  H        1.8097988271    -0.8707089229     1.2717395120
| 21>  H        0.0578885129    -1.0661552669     3.2678348239
| 22>  H        0.2390935313     0.6353069733     2.8272092309
| 23>  H       -2.1397568476    -1.1058584313     2.2578697459
| 24>  H       -1.9788643478     0.6005724360     1.8351080624
| 25> *
| 26>
| 27>                          ****END OF INPUT****

CARTESIAN COORDINATES (ANGSTROEM)
---------------------------------
  C     -0.010834    1.558684   -0.035659
  C      0.062139    0.052393    0.020831
  C      0.523225   -0.702974   -1.222104
  C      0.372690   -1.980140   -0.876413
  C     -0.163487   -1.866403    0.538121
  C      0.724589   -0.760567    1.204704
  C     -0.050963   -0.349588    2.448070
  C     -1.473976   -0.368496    1.800257
  N     -1.214898   -0.753016    0.394301
  H      0.963461    1.974731   -0.313426
  H     -0.740968    1.875923   -0.787466
  H     -0.299385    2.000961    0.921702
  H      0.857860   -0.252363   -2.145725
  H      0.549065   -2.889931   -1.430822
  H     -0.471369   -2.763243    1.078708
  H      1.809799   -0.870709    1.271740
  H      0.057889   -1.066155    3.267835
  H      0.239094    0.635307    2.827209
  H     -2.139757   -1.105858    2.257870
  H     -1.978864    0.600572    1.835108

 Total Charge           Charge          ....    0
 Multiplicity           Mult            ....    1
 Number of Electrons    NEL             ....   66
 Basis Dimension        Dim             ....  345

ORBITAL ENERGIES
----------------

  NO   OCC          E(Eh)            E(eV)
   0   2.0000     -15.548973      -423.1091
   1   2.0000     -11.267585      -306.6066
   2   2.0000     -11.259776      -306.3941
   3   2.0000     -11.240719      -305.8755
   4   2.0000     -11.234052      -305.6941
   5   2.0000     -11.223660      -305.4113
   6   2.0000     -11.221365      -305.3489
   7   2.0000     -11.219214      -305.2903
   8   2.0000     -11.219156      -305.2887
   9   2.0000      -1.280412       -34.8418
  10   2.0000      -1.082291       -29.4506
  11   2.0000      -1.008887       -27.4532
  12   2.0000      -0.999525       -27.1985
  13   2.0000      -0.934356       -25.4251
  14   2.0000      -0.872725       -23.7481
  15   2.0000      -0.782616       -21.2961
  16   2.0000      -0.741231       -20.1699
  17   2.0000      -0.720717       -19.6117
  18   2.0000      -0.668482       -18.1903
  19   2.0000      -0.655800       -17.8452
  20   2.0000      -0.618523       -16.8309
  21   2.0000      -0.587017       -15.9735
  22   2.0000      -0.563304       -15.3283
  23   2.0000      -0.553272       -15.0553
  24   2.0000      -0.532768       -14.4974
  25   2.0000      -0.511811       -13.9271
  26   2.0000      -0.494781       -13.4637
  27   2.0000      -0.480978       -13.0881
  28   2.0000      -0.473162       -12.8754
  29   2.0000      -0.439462       -11.9584
  30   2.0000      -0.425798       -11.5866
  31   2.0000      -0.378472       -10.2988
  32   2.0000      -0.331008        -9.0072
  33   0.0000       0.138246         3.7619
  34   0.0000       0.141079         3.8389
  35   0.0000       0.156830         4.2675
  36   0.0000       0.173843         4.7305
  37   0.0000       0.176430         4.8009

MULLIKEN ATOMIC CHARGES
-----------------------
   0 C :   -0.441744
   1 C :    0.185124
   2 C :   -0.238210
   3 C :   -0.203031
   4 C :   -0.043012
   5 C :   -0.018322
   6 C :   -0.305948
   7 C :   -0.161460
   8 N :   -0.195539
   9 H :    0.139828
  10 H :    0.149525
  11 H :    0.136570
  12 H :    0.131563
  13 H :    0.135216
  14 H :    0.124482
  15 H :    0.108979
  16 H :    0.120933
  17 H :    0.121724
  18 H :    0.126079
  19 H :    0.127243
Sum of atomic charges:    0.0000000

LOEWDIN ATOMIC CHARGES
----------------------
   0 C :   -0.269096
   1 C :   -0.234759
   2 C :   -0.108926
   3 C :   -0.125921
   4 C :   -0.181223
   5 C :   -0.157446
   6 C :   -0.250975
   7 C :   -0.278510
   8 N :    0.143614
   9 H :    0.133515
  10 H :    0.135794
  11 H :    0.127954
  12 H :    0.136421
  13 H :    0.134699
  14 H :    0.134189
  15 H :    0.137160
  16 H :    0.134330
  17 H :    0.132711
  18 H :    0.129070
  19 H :    0.127397

  Mayer bond orders larger than 0.1
B(  0-C ,  1-C ) :   0.8474 B(  0-C ,  9-H ) :   0.9334 B(  0-C , 10-H ) :   0.9426
B(  0-C , 11-H ) :   0.9442 B(  1-C ,  2-C ) :   0.9271 B(  1-C ,  5-C ) :   0.8850
B(  1-C ,  8-N ) :   0.8798 B(  2-C ,  3-C ) :   1.7766 B(  2-C , 12-H ) :   0.9363
B(  3-C ,  4-C ) :   0.9542 B(  3-C , 13-H ) :   0.9326 B(  4-C ,  5-C ) :   0.9095
B(  4-C ,  8-N ) :   0.8944 B(  4-C , 14-H ) :   0.9018 B(  5-C ,  6-C ) :   0.9166
B(  5-C , 15-H ) :   0.9089 B(  6-C ,  7-C ) :   0.9150 B(  6-C , 16-H ) :   0.9189
B(  6-C , 17-H ) :   0.9305 B(  7-C ,  8-N ) :   0.9097 B(  7-C , 18-H ) :   0.9303
B(  7-C , 19-H ) :   0.9368

MP2 TOTAL ENERGY:     -365.318555427 Eh
FINAL SINGLE POINT ENERGY      -365.318555427217

DIPOLE MOMENT
-------------
                                X             Y             Z
Electronic contribution:      0.00654      -3.69282      -2.67136
Nuclear contribution   :      0.47742       3.82911       3.04846
                        -----------------------------------------
Total Dipole Moment    :      0.48396       0.13628       0.37709
                        -----------------------------------------
Magnitude (a.u.)       :      0.62848
Magnitude (Debye)      :      1.59748

                             ****ORCA TERMINATED NORMALLY****
TOTAL RUN TIME: 0 days 0 hours 20 minutes 23 seconds 8 msec
