                         Program Version 3.0.3 - RELEASE   -
|  1> ! RI-MP2 RIJK def2-TZVP def2-TZVP/C def2-TZVP/JK TIGHTSCF
|  2> % maxcore 2000
|  3> % mp2 density relaxed end
|  4> *xyz 0 1
|  5>  C       -0.0423115457     1.5029576318    -0.2777818797
|  6>  C       -0.0344395881     0.0259539184     0.0100594382
|  7>  O        1.2202691087    -0.6591276292    -0.0471612929
|  8>  C        0.5603209189    -0.5850150962     1.2223080211
|  9>  C        1.2516824065     0.1713950620     2.2857180274
| 10>  C        0.9243364254     0.2355680487     3.6277523309
| 11>  N        1.8507881825     1.0345763266     4.2095770840
| 12>  N        2.7747882216     1.4945160144     3.3465458375
| 13>  C        2.4148383841     0.9727775935     2.1780756153
| 14>  H        0.7181001193     2.0310063217     0.3009516864
| 15>  H        0.1433142144     1.6829046467    -1.3418786778
| 16>  H       -1.0220781435     1.9274269732    -0.0328102539
| 17>  H       -0.8491320877    -0.5340757539    -0.4555139691
| 18>  H        0.1230174084    -1.5314251882     1.5469001517
| 19>  H        0.1247257332    -0.2155562949     4.1941332816
| 20>  H        1.9165027092     1.2949413706     5.1789005390
| 21>  H        3.0014219427     1.1605427248     1.2921701104
| 22> *
| 23>
| 24>                          ****END OF INPUT****

CARTESIAN COORDINATES (ANGSTROEM)
---------------------------------
  C     -0.042312    1.502958   -0.277782
  C     -0.034440    0.025954    0.010059
  O      1.220269   -0.659128   -0.047161
  C      0.560321   -0.585015    1.222308
  C      1.251682    0.171395    2.285718
  C      0.924336    0.235568    3.627752
  N      1.850788    1.034576    4.209577
  N      2.774788    1.494516    3.346546
  C      2.414838    0.972778    2.178076
  H      0.718100    2.031006    0.300952
  H      0.143314    1.682905   -1.341879
  H     -1.022078    1.927427   -0.032810
  H     -0.849132   -0.534076   -0.455514
  H      0.123017   -1.531425    1.546900
  H      0.124726   -0.215556    4.194133
  H      1.916503    1.294941    5.178901
  H      3.001422    1.160543    1.292170

 Total Charge           Charge          ....    0
 Multiplicity           Mult            ....    1
 Number of Electrons    NEL             ....   66
 Basis Dimension        Dim             ....  327

ORBITAL ENERGIES
----------------

  NO   OCC          E(Eh)            E(eV)
   0   2.0000     -20.565849      -559.6252
   1   2.0000     -15.641422      -425.6247
   2   2.0000     -15.589363      -424.2081
   3   2.0000     -11.294079      -307.3275
   4   2.0000     -11.288046      -307.1633
   5   2.0000     -11.281244      -306.9783
   6   2.0000     -11.252289      -306.1904
   7   2.0000     -11.231663      -305.6291
   8   2.0000     -11.223393      -305.4041
   9   2.0000      -1.410919       -38.3931
  10   2.0000      -1.377646       -37.4876
  11   2.0000      -1.099983       -29.9321
  12   2.0000      -1.073689       -29.2166
  13   2.0000      -1.010296       -27.4915
  14   2.0000      -0.920878       -25.0584
  15   2.0000      -0.843213       -22.9450
  16   2.0000      -0.813298       -22.1310
  17   2.0000      -0.775425       -21.1004
  18   2.0000      -0.731809       -19.9135
  19   2.0000      -0.697871       -18.9900
  20   2.0000      -0.632889       -17.2218
  21   2.0000      -0.613577       -16.6963
  22   2.0000      -0.611336       -16.6353
  23   2.0000      -0.591713       -16.1013
  24   2.0000      -0.572520       -15.5791
  25   2.0000      -0.555698       -15.1213
  26   2.0000      -0.530492       -14.4354
  27   2.0000      -0.515782       -14.0351
  28   2.0000      -0.465763       -12.6741
  29   2.0000      -0.449269       -12.2252
  30   2.0000      -0.446583       -12.1522
  31   2.0000      -0.364887        -9.9291
  32   2.0000      -0.335709        -9.1351
  33   0.0000       0.132037         3.5929
  34   0.0000       0.139985         3.8092
  35   0.0000       0.153206         4.1690
  36   0.0000       0.160514         4.3678
  37   0.0000       0.176851         4.8124

MULLIKEN ATOMIC CHARGES
-----------------------
   0 C :   -0.390556
   1 C :    0.082645
   2 O :   -0.333854
   3 C :   -0.034479
   4 C :    0.042828
   5 C :   -0.152782
   6 N :   -0.092152
   7 N :   -0.209462
   8 C :   -0.130955
   9 H :    0.149255
  10 H :    0.139684
  11 H :    0.126797
  12 H :    0.106296
  13 H :    0.133075
  14 H :    0.155697
  15 H :    0.256581
  16 H :    0.151384
Sum of atomic charges:   -0.0000000

LOEWDIN ATOMIC CHARGES
----------------------
   0 C :   -0.292442
   1 C :   -0.285610
   2 O :    0.168866
   3 C :   -0.235813
   4 C :   -0.194069
   5 C :   -0.213615
   6 N :    0.130892
   7 N :    0.021916
   8 C :   -0.243355
   9 H :    0.132911
  10 H :    0.130536
  11 H :    0.130926
  12 H :    0.135466
  13 H :    0.144883
  14 H :    0.139107
  15 H :    0.188719
  16 H :    0.140684

  Mayer bond orders larger than 0.1
B(  0-C ,  1-C ) :   0.8946 B(  0-C ,  9-H ) :   0.9336 B(  0-C , 10-H ) :   0.9370
B(  0-C , 11-H ) :   0.9265 B(  1-C ,  2-O ) :   0.8758 B(  1-C ,  3-C ) :   0.9706
B(  1-C , 12-H ) :   0.9263 B(  2-O ,  3-C ) :   0.9333 B(  3-C ,  4-C ) :   0.8984
B(  3-C , 13-H ) :   0.9139 B(  4-C ,  5-C ) :   1.3743 B(  4-C ,  8-C ) :   1.2948
B(  5-C ,  6-N ) :   1.2117 B(  5-C ,  7-N ) :   0.1243 B(  5-C , 14-H ) :   0.9039
B(  6-N ,  7-N ) :   1.0787 B(  6-N , 15-H ) :   0.8747 B(  7-N ,  8-C ) :   1.5283
B(  8-C , 16-H ) :   0.9276

MP2 TOTAL ENERGY:     -417.299359436 Eh
FINAL SINGLE POINT ENERGY      -417.299359436120

DIPOLE MOMENT
-------------
                                X             Y             Z
Electronic contribution:      3.93631      -1.92490       4.38849
Nuclear contribution   :     -5.12412       1.90229      -3.55646
                        -----------------------------------------
Total Dipole Moment    :     -1.18781      -0.02261       0.83204
                        -----------------------------------------
Magnitude (a.u.)       :      1.45041
Magnitude (Debye)      :      3.68665

                             ****ORCA TERMINATED NORMALLY****
TOTAL RUN TIME: 0 days 0 hours 15 minutes 53 seconds 967 msec
