                         Program Version 3.0.3 - RELEASE   -
|  1> ! RI-MP2 RIJK def2-TZVP def2-TZVP/C def2-TZVP/JK TIGHTSCF
|  2> % maxcore 2000
|  3> % mp2 density relaxed end
|  4> *xyz 0 1
|  5>  N       -0.0106189549     1.3989904434    -0.2196387547
|  6>  C       -0.0831362665     0.0551053093    -0.1138576798
|  7>  N       -1.1409157556    -0.6738314098    -0.1522055009
|  8>  C       -0.7526989284    -2.0831355819     0.0597871678
|  9>  C        0.7691789025    -2.1583044057     0.2570889281
| 10>  C        1.2025989753    -0.7140004478     0.0857506688
| 11>  O        2.3058462505    -0.2287435979     0.0764224244
| 12>  C       -1.5608453163    -2.6068167246     1.2438192444
| 13>  O       -1.0996443425    -3.2249755847     2.1675917271
| 14>  H        0.9069961403     1.7972110027    -0.3387505804
| 15>  H       -0.8136888832     1.9259722201    -0.5170182378
| 16>  H       -1.0838644236    -2.6657464596    -0.8137012395
| 17>  H        1.0192775562    -2.5212068380     1.2593973059
| 18>  H        1.2826564898    -2.8009621120    -0.4622030932
| 19>  H       -2.6396759637    -2.3510412235     1.1868527096
| 20> *
| 21>
| 22>                          ****END OF INPUT****

CARTESIAN COORDINATES (ANGSTROEM)
---------------------------------
  N     -0.010619    1.398990   -0.219639
  C     -0.083136    0.055105   -0.113858
  N     -1.140916   -0.673831   -0.152206
  C     -0.752699   -2.083136    0.059787
  C      0.769179   -2.158304    0.257089
  C      1.202599   -0.714000    0.085751
  O      2.305846   -0.228744    0.076422
  C     -1.560845   -2.606817    1.243819
  O     -1.099644   -3.224976    2.167592
  H      0.906996    1.797211   -0.338751
  H     -0.813689    1.925972   -0.517018
  H     -1.083864   -2.665746   -0.813701
  H      1.019278   -2.521207    1.259397
  H      1.282656   -2.800962   -0.462203
  H     -2.639676   -2.351041    1.186853

 Total Charge           Charge          ....    0
 Multiplicity           Mult            ....    1
 Number of Electrons    NEL             ....   66
 Basis Dimension        Dim             ....  315

ORBITAL ENERGIES
----------------

  NO   OCC          E(Eh)            E(eV)
   0   2.0000     -20.580483      -560.0234
   1   2.0000     -20.567640      -559.6740
   2   2.0000     -15.594757      -424.3549
   3   2.0000     -15.570487      -423.6945
   4   2.0000     -11.359251      -309.1009
   5   2.0000     -11.338748      -308.5430
   6   2.0000     -11.336428      -308.4799
   7   2.0000     -11.289635      -307.2066
   8   2.0000     -11.254068      -306.2388
   9   2.0000      -1.423122       -38.7251
  10   2.0000      -1.407414       -38.2977
  11   2.0000      -1.301087       -35.4044
  12   2.0000      -1.211772       -32.9740
  13   2.0000      -1.050468       -28.5847
  14   2.0000      -0.989875       -26.9359
  15   2.0000      -0.870971       -23.7003
  16   2.0000      -0.797149       -21.6915
  17   2.0000      -0.777818       -21.1655
  18   2.0000      -0.717073       -19.5126
  19   2.0000      -0.704226       -19.1630
  20   2.0000      -0.691566       -18.8185
  21   2.0000      -0.662675       -18.0323
  22   2.0000      -0.636295       -17.3145
  23   2.0000      -0.616103       -16.7650
  24   2.0000      -0.596253       -16.2249
  25   2.0000      -0.577086       -15.7033
  26   2.0000      -0.561262       -15.2727
  27   2.0000      -0.524046       -14.2600
  28   2.0000      -0.502528       -13.6745
  29   2.0000      -0.484415       -13.1816
  30   2.0000      -0.443421       -12.0661
  31   2.0000      -0.418069       -11.3762
  32   2.0000      -0.375374       -10.2145
  33   0.0000       0.075420         2.0523
  34   0.0000       0.118445         3.2231
  35   0.0000       0.138611         3.7718
  36   0.0000       0.143885         3.9153
  37   0.0000       0.170161         4.6303

MULLIKEN ATOMIC CHARGES
-----------------------
   0 N :   -0.488634
   1 C :    0.121937
   2 N :   -0.264536
   3 C :    0.097296
   4 C :   -0.263686
   5 C :    0.168737
   6 O :   -0.281206
   7 C :    0.080474
   8 O :   -0.268433
   9 H :    0.278983
  10 H :    0.266012
  11 H :    0.121698
  12 H :    0.178567
  13 H :    0.151210
  14 H :    0.101582
Sum of atomic charges:   -0.0000000

LOEWDIN ATOMIC CHARGES
----------------------
   0 N :   -0.001143
   1 C :   -0.356647
   2 N :    0.117596
   3 C :   -0.277103
   4 C :   -0.192938
   5 C :   -0.284630
   6 O :    0.160263
   7 C :   -0.266425
   8 O :    0.138555
   9 H :    0.183396
  10 H :    0.177080
  11 H :    0.159286
  12 H :    0.167098
  13 H :    0.156423
  14 H :    0.119190

  Mayer bond orders larger than 0.1
B(  0-N ,  1-C ) :   1.1724 B(  0-N ,  9-H ) :   0.8522 B(  0-N , 10-H ) :   0.8603
B(  1-C ,  2-N ) :   1.7620 B(  1-C ,  5-C ) :   0.9020 B(  2-N ,  3-C ) :   0.8730
B(  3-C ,  4-C ) :   0.9211 B(  3-C ,  7-C ) :   0.8591 B(  3-C , 11-H ) :   0.8869
B(  4-C ,  5-C ) :   0.9431 B(  4-C , 12-H ) :   0.8858 B(  4-C , 13-H ) :   0.9083
B(  5-C ,  6-O ) :   1.9638 B(  7-C ,  8-O ) :   1.9814 B(  7-C , 14-H ) :   0.9361

MP2 TOTAL ENERGY:     -453.250277355 Eh
FINAL SINGLE POINT ENERGY      -453.250277355473

DIPOLE MOMENT
-------------
                                X             Y             Z
Electronic contribution:      0.81529       0.42631       0.97682
Nuclear contribution   :     -1.08750       0.12705      -1.89540
                        -----------------------------------------
Total Dipole Moment    :     -0.27221       0.55336      -0.91859
                        -----------------------------------------
Magnitude (a.u.)       :      1.10639
Magnitude (Debye)      :      2.81223

                             ****ORCA TERMINATED NORMALLY****
TOTAL RUN TIME: 0 days 0 hours 14 minutes 7 seconds 362 msec
