                         Program Version 3.0.3 - RELEASE   -
|  1> ! RI-MP2 RIJK def2-TZVP def2-TZVP/C def2-TZVP/JK TIGHTSCF
|  2> % maxcore 2000
|  3> % mp2 density relaxed end
|  4> *xyz 0 1
|  5>  C        0.0313116286     1.4473089787     0.0314619873
|  6>  N        0.0509192362     0.0051358371    -0.0277922914
|  7>  C        0.0928621056    -0.7942546882    -1.1694479387
|  8>  C        0.0999478687    -2.0884322778    -0.7815743886
|  9>  C        0.1383824139    -3.3380986459    -1.5887847282
| 10>  N        0.0617155648    -2.0919857681     0.6172132508
| 11>  C        0.0532485175    -3.2378108167     1.4968916410
| 12>  C        0.0308414827    -0.7898832632     1.1073412822
| 13>  O       -0.0058274795    -0.4329617824     2.2751748418
| 14>  H        0.9298812125     1.8775766539    -0.4247276411
| 15>  H       -0.8508680523     1.8553320353    -0.4743956938
| 16>  H       -0.0015298069     1.7231209413     1.0868951703
| 17>  H        0.1151501083    -0.3702320834    -2.1590054594
| 18>  H        0.1620358074    -3.0910352935    -2.6527780288
| 19>  H        1.0239543170    -3.9460449529    -1.3660455888
| 20>  H       -0.7398986108    -3.9709025562    -1.4110555169
| 21>  H        0.9551385303    -3.8473587878     1.3737096700
| 22>  H        0.0208968592    -2.8498581491     2.5165722871
| 23>  H       -0.8244487432    -3.8707683110     1.3261651451
| 24> *
| 25>
| 26>                          ****END OF INPUT****

CARTESIAN COORDINATES (ANGSTROEM)
---------------------------------
  C      0.031312    1.447309    0.031462
  N      0.050919    0.005136   -0.027792
  C      0.092862   -0.794255   -1.169448
  C      0.099948   -2.088432   -0.781574
  C      0.138382   -3.338099   -1.588785
  N      0.061716   -2.091986    0.617213
  C      0.053249   -3.237811    1.496892
  C      0.030841   -0.789883    1.107341
  O     -0.005827   -0.432962    2.275175
  H      0.929881    1.877577   -0.424728
  H     -0.850868    1.855332   -0.474396
  H     -0.001530    1.723121    1.086895
  H      0.115150   -0.370232   -2.159005
  H      0.162036   -3.091035   -2.652778
  H      1.023954   -3.946045   -1.366046
  H     -0.739899   -3.970903   -1.411056
  H      0.955139   -3.847359    1.373710
  H      0.020897   -2.849858    2.516572
  H     -0.824449   -3.870768    1.326165

 Total Charge           Charge          ....    0
 Multiplicity           Mult            ....    1
 Number of Electrons    NEL             ....   68
 Basis Dimension        Dim             ....  339

ORBITAL ENERGIES
----------------

  NO   OCC          E(Eh)            E(eV)
   0   2.0000     -20.496027      -557.7252
   1   2.0000     -15.595721      -424.3811
   2   2.0000     -15.593471      -424.3199
   3   2.0000     -11.359060      -309.0957
   4   2.0000     -11.272395      -306.7375
   5   2.0000     -11.262835      -306.4773
   6   2.0000     -11.261191      -306.4326
   7   2.0000     -11.256763      -306.3121
   8   2.0000     -11.243756      -305.9582
   9   2.0000      -1.389537       -37.8112
  10   2.0000      -1.298481       -35.3335
  11   2.0000      -1.220992       -33.2249
  12   2.0000      -1.057893       -28.7867
  13   2.0000      -1.002776       -27.2869
  14   2.0000      -0.939291       -25.5594
  15   2.0000      -0.913153       -24.8482
  16   2.0000      -0.801801       -21.8181
  17   2.0000      -0.767012       -20.8715
  18   2.0000      -0.689741       -18.7688
  19   2.0000      -0.667163       -18.1544
  20   2.0000      -0.635639       -17.2966
  21   2.0000      -0.618643       -16.8341
  22   2.0000      -0.612204       -16.6589
  23   2.0000      -0.595800       -16.2125
  24   2.0000      -0.579874       -15.7792
  25   2.0000      -0.578659       -15.7461
  26   2.0000      -0.565356       -15.3841
  27   2.0000      -0.546737       -14.8775
  28   2.0000      -0.537065       -14.6143
  29   2.0000      -0.532345       -14.4858
  30   2.0000      -0.464411       -12.6373
  31   2.0000      -0.427950       -11.6451
  32   2.0000      -0.406714       -11.0673
  33   2.0000      -0.287666        -7.8278
  34   0.0000       0.126201         3.4341
  35   0.0000       0.147772         4.0211
  36   0.0000       0.165035         4.4908
  37   0.0000       0.165080         4.4920
  38   0.0000       0.190629         5.1873

MULLIKEN ATOMIC CHARGES
-----------------------
   0 C :   -0.339446
   1 N :   -0.072906
   2 C :   -0.154360
   3 C :    0.058560
   4 C :   -0.412060
   5 N :   -0.080499
   6 C :   -0.344252
   7 C :    0.257938
   8 O :   -0.431722
   9 H :    0.140324
  10 H :    0.140352
  11 H :    0.184110
  12 H :    0.149009
  13 H :    0.147295
  14 H :    0.145486
  15 H :    0.145420
  16 H :    0.139252
  17 H :    0.188240
  18 H :    0.139260
Sum of atomic charges:    0.0000000

LOEWDIN ATOMIC CHARGES
----------------------
   0 C :   -0.279469
   1 N :    0.209621
   2 C :   -0.204457
   3 C :   -0.245593
   4 C :   -0.272077
   5 N :    0.228946
   6 C :   -0.276620
   7 C :   -0.483431
   8 O :    0.021143
   9 H :    0.119506
  10 H :    0.119514
  11 H :    0.139594
  12 H :    0.140484
  13 H :    0.138726
  14 H :    0.131903
  15 H :    0.131920
  16 H :    0.119698
  17 H :    0.140908
  18 H :    0.119684

  Mayer bond orders larger than 0.1
B(  0-C ,  1-N ) :   0.8636 B(  0-C ,  9-H ) :   0.9325 B(  0-C , 10-H ) :   0.9325
B(  0-C , 11-H ) :   0.9248 B(  1-N ,  2-C ) :   1.0317 B(  1-N ,  7-C ) :   1.1107
B(  2-C ,  3-C ) :   1.6309 B(  2-C , 12-H ) :   0.9171 B(  3-C ,  4-C ) :   0.8772
B(  3-C ,  5-N ) :   1.0763 B(  4-C , 13-H ) :   0.9452 B(  4-C , 14-H ) :   0.9338
B(  4-C , 15-H ) :   0.9337 B(  5-N ,  6-C ) :   0.8663 B(  5-N ,  7-C ) :   1.0940
B(  6-C , 16-H ) :   0.9326 B(  6-C , 17-H ) :   0.9204 B(  6-C , 18-H ) :   0.9327
B(  7-C ,  8-O ) :   1.8825

MP2 TOTAL ENERGY:     -418.561833653 Eh
FINAL SINGLE POINT ENERGY      -418.561833653067

DIPOLE MOMENT
-------------
                                X             Y             Z
Electronic contribution:     -0.12644       3.13290       2.99834
Nuclear contribution   :      0.17190      -3.67009      -4.36873
                        -----------------------------------------
Total Dipole Moment    :      0.04545      -0.53719      -1.37039
                        -----------------------------------------
Magnitude (a.u.)       :      1.47262
Magnitude (Debye)      :      3.74310

                             ****ORCA TERMINATED NORMALLY****
TOTAL RUN TIME: 0 days 0 hours 18 minutes 30 seconds 639 msec
