                         Program Version 3.0.3 - RELEASE   -
|  1> ! RI-MP2 RIJK def2-TZVP def2-TZVP/C def2-TZVP/JK TIGHTSCF
|  2> % maxcore 2000
|  3> % mp2 density relaxed end
|  4> *xyz 0 1
|  5>  C       -0.0083176675     1.5109001226    -0.0098325384
|  6>  C       -0.0372953783     0.0160602237     0.0652903359
|  7>  O       -0.0084687802    -0.6181293380    -1.2005524185
|  8>  C       -0.3175434581    -1.9708201091    -0.9099614466
|  9>  C        0.9386148411    -2.6527327653    -0.3722510462
| 10>  N        1.3863226191    -1.9568355933     0.8528537156
| 11>  C        0.5721365192    -0.8084305068     1.1843989859
| 12>  C       -0.9315408381    -0.8491187588     0.9221905807
| 13>  O       -1.3123570303    -1.9431486571     0.1101371780
| 14>  H        0.9356804626     1.8631584124    -0.4381969481
| 15>  H       -0.8292557680     1.8777403424    -0.6341000361
| 16>  H       -0.1114325663     1.9450171092     0.9884956708
| 17>  H       -0.7259810466    -2.4478718496    -1.8032954451
| 18>  H        0.7199888886    -3.7060748031    -0.1675047559
| 19>  H        1.7168349093    -2.6131761861    -1.1466168571
| 20>  H        1.3782393210    -2.6004190385     1.6347525408
| 21>  H        0.9224467806    -0.2592173018     2.0535111790
| 22>  H       -1.7132831283    -0.5125115128     1.5921766652
| 23> *
| 24>
| 25>                          ****END OF INPUT****

CARTESIAN COORDINATES (ANGSTROEM)
---------------------------------
  C     -0.008318    1.510900   -0.009833
  C     -0.037295    0.016060    0.065290
  O     -0.008469   -0.618129   -1.200552
  C     -0.317543   -1.970820   -0.909961
  C      0.938615   -2.652733   -0.372251
  N      1.386323   -1.956836    0.852854
  C      0.572137   -0.808431    1.184399
  C     -0.931541   -0.849119    0.922191
  O     -1.312357   -1.943149    0.110137
  H      0.935680    1.863158   -0.438197
  H     -0.829256    1.877740   -0.634100
  H     -0.111433    1.945017    0.988496
  H     -0.725981   -2.447872   -1.803295
  H      0.719989   -3.706075   -0.167505
  H      1.716835   -2.613176   -1.146617
  H      1.378239   -2.600419    1.634753
  H      0.922447   -0.259217    2.053511
  H     -1.713283   -0.512512    1.592177

 Total Charge           Charge          ....    0
 Multiplicity           Mult            ....    1
 Number of Electrons    NEL             ....   68
 Basis Dimension        Dim             ....  333

ORBITAL ENERGIES
----------------

  NO   OCC          E(Eh)            E(eV)
   0   2.0000     -20.569115      -559.7141
   1   2.0000     -20.568980      -559.7104
   2   2.0000     -15.554255      -423.2528
   3   2.0000     -11.335534      -308.4556
   4   2.0000     -11.290440      -307.2285
   5   2.0000     -11.279252      -306.9240
   6   2.0000     -11.264530      -306.5234
   7   2.0000     -11.254852      -306.2601
   8   2.0000     -11.227056      -305.5037
   9   2.0000      -1.453548       -39.5530
  10   2.0000      -1.338710       -36.4282
  11   2.0000      -1.214377       -33.0449
  12   2.0000      -1.121634       -30.5212
  13   2.0000      -0.979510       -26.6538
  14   2.0000      -0.957474       -26.0542
  15   2.0000      -0.873249       -23.7623
  16   2.0000      -0.803398       -21.8616
  17   2.0000      -0.757309       -20.6074
  18   2.0000      -0.729882       -19.8611
  19   2.0000      -0.664674       -18.0867
  20   2.0000      -0.656569       -17.8662
  21   2.0000      -0.629167       -17.1205
  22   2.0000      -0.609485       -16.5849
  23   2.0000      -0.602274       -16.3887
  24   2.0000      -0.576596       -15.6900
  25   2.0000      -0.562836       -15.3156
  26   2.0000      -0.556137       -15.1332
  27   2.0000      -0.538064       -14.6415
  28   2.0000      -0.512015       -13.9326
  29   2.0000      -0.502588       -13.6761
  30   2.0000      -0.477715       -12.9993
  31   2.0000      -0.458174       -12.4675
  32   2.0000      -0.376124       -10.2349
  33   2.0000      -0.340074        -9.2539
  34   0.0000       0.135273         3.6810
  35   0.0000       0.151129         4.1124
  36   0.0000       0.170345         4.6353
  37   0.0000       0.181984         4.9520
  38   0.0000       0.193738         5.2719

MULLIKEN ATOMIC CHARGES
-----------------------
   0 C :   -0.439985
   1 C :    0.204070
   2 O :   -0.315641
   3 C :    0.234284
   4 C :   -0.162288
   5 N :   -0.329280
   6 C :   -0.105125
   7 C :   -0.008995
   8 O :   -0.320121
   9 H :    0.146545
  10 H :    0.143634
  11 H :    0.127407
  12 H :    0.132647
  13 H :    0.117307
  14 H :    0.103037
  15 H :    0.215365
  16 H :    0.123805
  17 H :    0.133334
Sum of atomic charges:    0.0000000

LOEWDIN ATOMIC CHARGES
----------------------
   0 C :   -0.263131
   1 C :   -0.316876
   2 O :    0.231805
   3 C :   -0.370293
   4 C :   -0.272713
   5 N :    0.007431
   6 C :   -0.233909
   7 C :   -0.246187
   8 O :    0.201301
   9 H :    0.133532
  10 H :    0.133698
  11 H :    0.132986
  12 H :    0.139791
  13 H :    0.131318
  14 H :    0.132168
  15 H :    0.174612
  16 H :    0.148257
  17 H :    0.136209

  Mayer bond orders larger than 0.1
B(  0-C ,  1-C ) :   0.8726 B(  0-C ,  9-H ) :   0.9404 B(  0-C , 10-H ) :   0.9413
B(  0-C , 11-H ) :   0.9372 B(  1-C ,  2-O ) :   0.9641 B(  1-C ,  6-C ) :   0.8438
B(  1-C ,  7-C ) :   0.8805 B(  2-O ,  3-C ) :   0.9504 B(  3-C ,  4-C ) :   0.9397
B(  3-C ,  8-O ) :   0.9345 B(  3-C , 12-H ) :   0.9175 B(  4-C ,  5-N ) :   0.9758
B(  4-C , 13-H ) :   0.9280 B(  4-C , 14-H ) :   0.9112 B(  5-N ,  6-C ) :   0.9759
B(  5-N , 15-H ) :   0.8782 B(  6-C ,  7-C ) :   0.8497 B(  6-C , 16-H ) :   0.9129
B(  7-C ,  8-O ) :   0.9494 B(  7-C , 17-H ) :   0.9127

MP2 TOTAL ENERGY:     -438.344442430 Eh
FINAL SINGLE POINT ENERGY      -438.344442430263

DIPOLE MOMENT
-------------
                                X             Y             Z
Electronic contribution:     -1.90139      -2.70855      -0.94554
Nuclear contribution   :      1.92664       2.69914       1.46151
                        -----------------------------------------
Total Dipole Moment    :      0.02525      -0.00940       0.51597
                        -----------------------------------------
Magnitude (a.u.)       :      0.51667
Magnitude (Debye)      :      1.31328

                             ****ORCA TERMINATED NORMALLY****
TOTAL RUN TIME: 0 days 0 hours 16 minutes 41 seconds 386 msec
