                         Program Version 3.0.3 - RELEASE   -
|  1> ! RI-MP2 RIJK def2-TZVP def2-TZVP/C def2-TZVP/JK TIGHTSCF
|  2> % maxcore 2000
|  3> % mp2 density relaxed end
|  4> *xyz 0 1
|  5>  C        0.0687240478     1.5934277977    -0.0012913649
|  6>  C        0.0400790618     0.0663249248    -0.0060378492
|  7>  C       -1.4114120561    -0.4508133816     0.0096480304
|  8>  N        0.7060317096    -0.5170274113    -1.1903127364
|  9>  C        2.1628063162    -0.3408871597    -1.2354354113
| 10>  C        1.5976641814    -1.6182219696    -0.7334983529
| 11>  C        1.5299119757    -1.7732334317     0.7700881668
| 12>  C        0.7564769729    -0.5289534737     1.2280215861
| 13>  O        0.7011130525    -0.0966563599     2.3493361887
| 14>  H        1.0885664788     1.9793189640    -0.0835449653
| 15>  H       -0.5155992032     1.9881775901    -0.8371272861
| 16>  H       -0.3536764209     1.9628684601     0.9365430243
| 17>  H       -1.9303505386    -0.1006379548    -0.8867573607
| 18>  H       -1.4428290095    -1.5448016510     0.0086035152
| 19>  H       -1.9382994589    -0.0888096051     0.8967801672
| 20>  H        2.5814680149    -0.2791450853    -2.2354528947
| 21>  H        2.6403824755     0.3175442421    -0.5104475448
| 22>  H        1.6127254070    -2.5059895673    -1.3580586818
| 23>  H        0.9641963912    -2.6653372596     1.0654200700
| 24>  H        2.5007645319    -1.8256696385     1.2694374196
| 25> *
| 26>
| 27>                          ****END OF INPUT****

CARTESIAN COORDINATES (ANGSTROEM)
---------------------------------
  C      0.068724    1.593428   -0.001291
  C      0.040079    0.066325   -0.006038
  C     -1.411412   -0.450813    0.009648
  N      0.706032   -0.517027   -1.190313
  C      2.162806   -0.340887   -1.235435
  C      1.597664   -1.618222   -0.733498
  C      1.529912   -1.773233    0.770088
  C      0.756477   -0.528953    1.228022
  O      0.701113   -0.096656    2.349336
  H      1.088566    1.979319   -0.083545
  H     -0.515599    1.988178   -0.837127
  H     -0.353676    1.962868    0.936543
  H     -1.930351   -0.100638   -0.886757
  H     -1.442829   -1.544802    0.008604
  H     -1.938299   -0.088810    0.896780
  H      2.581468   -0.279145   -2.235453
  H      2.640382    0.317544   -0.510448
  H      1.612725   -2.505990   -1.358059
  H      0.964196   -2.665337    1.065420
  H      2.500765   -1.825670    1.269437

 Total Charge           Charge          ....    0
 Multiplicity           Mult            ....    1
 Number of Electrons    NEL             ....   68
 Basis Dimension        Dim             ....  345

ORBITAL ENERGIES
----------------

  NO   OCC          E(Eh)            E(eV)
   0   2.0000     -20.552779      -559.2695
   1   2.0000     -15.569397      -423.6648
   2   2.0000     -11.331842      -308.3551
   3   2.0000     -11.275822      -306.8307
   4   2.0000     -11.272534      -306.7413
   5   2.0000     -11.264751      -306.5295
   6   2.0000     -11.246818      -306.0415
   7   2.0000     -11.224046      -305.4218
   8   2.0000     -11.219989      -305.3114
   9   2.0000      -1.397541       -38.0290
  10   2.0000      -1.294414       -35.2228
  11   2.0000      -1.083070       -29.4718
  12   2.0000      -1.033829       -28.1319
  13   2.0000      -0.943933       -25.6857
  14   2.0000      -0.909153       -24.7393
  15   2.0000      -0.846546       -23.0357
  16   2.0000      -0.798583       -21.7306
  17   2.0000      -0.727943       -19.8083
  18   2.0000      -0.690963       -18.8021
  19   2.0000      -0.648937       -17.6585
  20   2.0000      -0.643998       -17.5241
  21   2.0000      -0.621218       -16.9042
  22   2.0000      -0.593644       -16.1539
  23   2.0000      -0.577797       -15.7227
  24   2.0000      -0.560623       -15.2553
  25   2.0000      -0.550074       -14.9683
  26   2.0000      -0.544468       -14.8157
  27   2.0000      -0.517694       -14.0872
  28   2.0000      -0.515130       -14.0174
  29   2.0000      -0.496218       -13.5028
  30   2.0000      -0.470942       -12.8150
  31   2.0000      -0.445970       -12.1355
  32   2.0000      -0.420484       -11.4420
  33   2.0000      -0.372177       -10.1275
  34   0.0000       0.126758         3.4493
  35   0.0000       0.137935         3.7534
  36   0.0000       0.156131         4.2485
  37   0.0000       0.161939         4.4066
  38   0.0000       0.179696         4.8898

MULLIKEN ATOMIC CHARGES
-----------------------
   0 C :   -0.400014
   1 C :    0.138786
   2 C :   -0.404560
   3 N :   -0.217571
   4 C :   -0.191543
   5 C :   -0.075308
   6 C :   -0.203284
   7 C :    0.101418
   8 O :   -0.261069
   9 H :    0.123057
  10 H :    0.142280
  11 H :    0.150685
  12 H :    0.142118
  13 H :    0.130210
  14 H :    0.142913
  15 H :    0.133799
  16 H :    0.129734
  17 H :    0.130719
  18 H :    0.143118
  19 H :    0.144514
Sum of atomic charges:    0.0000000

LOEWDIN ATOMIC CHARGES
----------------------
   0 C :   -0.258505
   1 C :   -0.334333
   2 C :   -0.252679
   3 N :    0.151561
   4 C :   -0.240305
   5 C :   -0.236695
   6 C :   -0.211996
   7 C :   -0.276796
   8 O :    0.166641
   9 H :    0.126038
  10 H :    0.130771
  11 H :    0.136101
  12 H :    0.131739
  13 H :    0.127760
  14 H :    0.131832
  15 H :    0.128886
  16 H :    0.130237
  17 H :    0.139015
  18 H :    0.157154
  19 H :    0.153574

  Mayer bond orders larger than 0.1
B(  0-C ,  1-C ) :   0.9335 B(  0-C ,  9-H ) :   0.9225 B(  0-C , 10-H ) :   0.9388
B(  0-C , 11-H ) :   0.9294 B(  1-C ,  2-C ) :   0.8876 B(  1-C ,  3-N ) :   0.8899
B(  1-C ,  7-C ) :   0.8367 B(  2-C , 12-H ) :   0.9353 B(  2-C , 13-H ) :   0.9248
B(  2-C , 14-H ) :   0.9350 B(  3-N ,  4-C ) :   0.8690 B(  3-N ,  5-C ) :   0.8995
B(  4-C ,  5-C ) :   0.9230 B(  4-C , 15-H ) :   0.9274 B(  4-C , 16-H ) :   0.9131
B(  5-C ,  6-C ) :   0.9326 B(  5-C , 17-H ) :   0.9144 B(  6-C ,  7-C ) :   0.9122
B(  6-C , 18-H ) :   0.9019 B(  6-C , 19-H ) :   0.9060 B(  7-C ,  8-O ) :   2.0709

MP2 TOTAL ENERGY:     -402.467840993 Eh
FINAL SINGLE POINT ENERGY      -402.467840993334

DIPOLE MOMENT
-------------
                                X             Y             Z
Electronic contribution:      2.26645      -1.73171       2.73107
Nuclear contribution   :     -1.98485       1.38866      -3.21369
                        -----------------------------------------
Total Dipole Moment    :      0.28161      -0.34306      -0.48262
                        -----------------------------------------
Magnitude (a.u.)       :      0.65568
Magnitude (Debye)      :      1.66659

                             ****ORCA TERMINATED NORMALLY****
TOTAL RUN TIME: 0 days 0 hours 22 minutes 48 seconds 466 msec
