                         Program Version 3.0.3 - RELEASE   -
|  1> ! RI-MP2 RIJK def2-TZVP def2-TZVP/C def2-TZVP/JK TIGHTSCF
|  2> % maxcore 2000
|  3> % mp2 density relaxed end
|  4> *xyz 0 1
|  5>  O        0.0158213307     1.5594331648     0.0041107182
|  6>  C        0.0786074164     0.1390466072     0.0280119673
|  7>  C       -1.3098515566    -0.4985451682    -0.0752905960
|  8>  C       -1.3183157745    -2.0320382263    -0.0511550998
|  9>  O       -0.6716836574    -2.3921336707     1.1844663440
| 10>  C       -2.7611628227    -2.6178581186    -0.1435494369
| 11>  C       -2.6901530951    -3.8371087184    -1.0968079589
| 12>  C       -1.3377818064    -3.6872523248    -1.7490579217
| 13>  C       -0.6158139170    -2.7026627930    -1.2162712681
| 14>  H       -0.4416175047     1.8424607472     0.8022132030
| 15>  H        0.6915441170    -0.1357934342    -0.8369142027
| 16>  H        0.5910602681    -0.2306518843     0.9248909461
| 17>  H       -1.9209552693    -0.1482828879     0.7686411081
| 18>  H       -1.7965841348    -0.1490861566    -0.9918475719
| 19>  H       -0.4930474492    -3.3378497020     1.1495012283
| 20>  H       -3.1200511131    -2.8689772996     0.8572572836
| 21>  H       -3.4394474707    -1.8643691132    -0.5541075509
| 22>  H       -2.7673464797    -4.7970074927    -0.5686062076
| 23>  H       -3.5038698809    -3.8352390709    -1.8310537057
| 24>  H       -1.0070227600    -4.3353711745    -2.5543079272
| 25>  H        0.3925708799    -2.4337999034    -1.5095978613
| 26> *
| 27>
| 28>                          ****END OF INPUT****

CARTESIAN COORDINATES (ANGSTROEM)
---------------------------------
  O      0.015821    1.559433    0.004111
  C      0.078607    0.139047    0.028012
  C     -1.309852   -0.498545   -0.075291
  C     -1.318316   -2.032038   -0.051155
  O     -0.671684   -2.392134    1.184466
  C     -2.761163   -2.617858   -0.143549
  C     -2.690153   -3.837109   -1.096808
  C     -1.337782   -3.687252   -1.749058
  C     -0.615814   -2.702663   -1.216271
  H     -0.441618    1.842461    0.802213
  H      0.691544   -0.135793   -0.836914
  H      0.591060   -0.230652    0.924891
  H     -1.920955   -0.148283    0.768641
  H     -1.796584   -0.149086   -0.991848
  H     -0.493047   -3.337850    1.149501
  H     -3.120051   -2.868977    0.857257
  H     -3.439447   -1.864369   -0.554108
  H     -2.767346   -4.797007   -0.568606
  H     -3.503870   -3.835239   -1.831054
  H     -1.007023   -4.335371   -2.554308
  H      0.392571   -2.433800   -1.509598

 Total Charge           Charge          ....    0
 Multiplicity           Mult            ....    1
 Number of Electrons    NEL             ....   70
 Basis Dimension        Dim             ....  351

ORBITAL ENERGIES
----------------

  NO   OCC          E(Eh)            E(eV)
   0   2.0000     -20.553179      -559.2804
   1   2.0000     -20.547330      -559.1213
   2   2.0000     -11.291737      -307.2638
   3   2.0000     -11.264617      -306.5258
   4   2.0000     -11.239127      -305.8322
   5   2.0000     -11.233957      -305.6915
   6   2.0000     -11.227207      -305.5078
   7   2.0000     -11.224095      -305.4232
   8   2.0000     -11.219414      -305.2958
   9   2.0000      -1.360926       -37.0327
  10   2.0000      -1.350035       -36.7363
  11   2.0000      -1.133257       -30.8375
  12   2.0000      -1.033228       -28.1156
  13   2.0000      -0.977240       -26.5921
  14   2.0000      -0.929498       -25.2929
  15   2.0000      -0.841148       -22.8888
  16   2.0000      -0.784580       -21.3495
  17   2.0000      -0.744215       -20.2511
  18   2.0000      -0.702998       -19.1296
  19   2.0000      -0.680250       -18.5105
  20   2.0000      -0.645276       -17.5588
  21   2.0000      -0.632918       -17.2226
  22   2.0000      -0.603675       -16.4268
  23   2.0000      -0.595052       -16.1922
  24   2.0000      -0.560330       -15.2473
  25   2.0000      -0.551189       -14.9986
  26   2.0000      -0.534339       -14.5401
  27   2.0000      -0.525829       -14.3085
  28   2.0000      -0.506312       -13.7774
  29   2.0000      -0.497148       -13.5281
  30   2.0000      -0.476890       -12.9768
  31   2.0000      -0.470572       -12.8049
  32   2.0000      -0.445109       -12.1120
  33   2.0000      -0.417040       -11.3482
  34   2.0000      -0.364757        -9.9255
  35   0.0000       0.127784         3.4772
  36   0.0000       0.140548         3.8245
  37   0.0000       0.152792         4.1577
  38   0.0000       0.167023         4.5449
  39   0.0000       0.174411         4.7460

MULLIKEN ATOMIC CHARGES
-----------------------
   0 O :   -0.472523
   1 C :   -0.060256
   2 C :   -0.241708
   3 C :    0.341649
   4 O :   -0.471672
   5 C :   -0.341678
   6 C :   -0.158153
   7 C :   -0.143241
   8 C :   -0.317682
   9 H :    0.312053
  10 H :    0.105774
  11 H :    0.128905
  12 H :    0.107174
  13 H :    0.121841
  14 H :    0.312190
  15 H :    0.138423
  16 H :    0.125803
  17 H :    0.120810
  18 H :    0.125589
  19 H :    0.131261
  20 H :    0.135442
Sum of atomic charges:    0.0000000

LOEWDIN ATOMIC CHARGES
----------------------
   0 O :   -0.055881
   1 C :   -0.342039
   2 C :   -0.242786
   3 C :   -0.346989
   4 O :   -0.001357
   5 C :   -0.200941
   6 C :   -0.244598
   7 C :   -0.149558
   8 C :   -0.137372
   9 H :    0.171527
  10 H :    0.125660
  11 H :    0.120854
  12 H :    0.142893
  13 H :    0.145757
  14 H :    0.174319
  15 H :    0.138891
  16 H :    0.142922
  17 H :    0.139455
  18 H :    0.139964
  19 H :    0.137669
  20 H :    0.141611

  Mayer bond orders larger than 0.1
B(  0-O ,  1-C ) :   0.9248 B(  0-O ,  9-H ) :   0.8495 B(  1-C ,  2-C ) :   0.9323
B(  1-C , 10-H ) :   0.9248 B(  1-C , 11-H ) :   0.9427 B(  2-C ,  3-C ) :   0.8780
B(  2-C , 12-H ) :   0.9263 B(  2-C , 13-H ) :   0.9210 B(  3-C ,  4-O ) :   0.9265
B(  3-C ,  5-C ) :   0.8625 B(  3-C ,  8-C ) :   0.9234 B(  4-O , 14-H ) :   0.8416
B(  5-C ,  6-C ) :   0.9526 B(  5-C , 15-H ) :   0.9395 B(  5-C , 16-H ) :   0.9290
B(  6-C ,  7-C ) :   0.9330 B(  6-C , 17-H ) :   0.9110 B(  6-C , 18-H ) :   0.9270
B(  7-C ,  8-C ) :   1.7694 B(  7-C , 19-H ) :   0.9276 B(  8-C , 20-H ) :   0.9309

MP2 TOTAL ENERGY:     -423.531954700 Eh
FINAL SINGLE POINT ENERGY      -423.531954700049

DIPOLE MOMENT
-------------
                                X             Y             Z
Electronic contribution:      2.32655       0.75828       0.77864
Nuclear contribution   :     -2.83851      -1.65889      -0.79407
                        -----------------------------------------
Total Dipole Moment    :     -0.51196      -0.90061      -0.01543
                        -----------------------------------------
Magnitude (a.u.)       :      1.03607
Magnitude (Debye)      :      2.63349

                             ****ORCA TERMINATED NORMALLY****
TOTAL RUN TIME: 0 days 0 hours 16 minutes 56 seconds 962 msec
