                         Program Version 3.0.3 - RELEASE   -
|  1> ! RI-MP2 RIJK def2-TZVP def2-TZVP/C def2-TZVP/JK TIGHTSCF
|  2> % maxcore 2000
|  3> % mp2 density relaxed end
|  4> *xyz 0 1
|  5>  C       -0.0350102278     1.5705511944    -0.0890927074
|  6>  C        0.0030451486     0.0471994096    -0.0458771679
|  7>  C       -1.3627128256    -0.5640243893     0.2850470574
|  8>  C        0.7133135631    -0.6827871704    -1.2128904230
|  9>  N        2.0868895470    -0.1792229391    -1.2507990853
| 10>  C        1.7408239881    -1.3011221034    -0.3047382275
| 11>  C        1.0841795592    -0.6217537705     0.8749412656
| 12>  O        1.1989008323    -0.7041311786     2.0629686651
| 13>  H        0.9294808333     1.9740909790    -0.4036104834
| 14>  H       -0.8056167248     1.9220393977    -0.7848907096
| 15>  H       -0.2720730268     1.9699750992     0.9023452729
| 16>  H       -2.1130374830    -0.2445983136    -0.4464663210
| 17>  H       -1.3300352689    -1.6588306448     0.2833645339
| 18>  H       -1.6908190972    -0.2404818202     1.2768535911
| 19>  H        0.2413675964    -1.1371571873    -2.0754651170
| 20>  H        2.5665898347    -0.6203852698    -2.0358883815
| 21>  H        2.2660619314    -2.2464385229    -0.3580615226
| 22> *
| 23>
| 24>                          ****END OF INPUT****

CARTESIAN COORDINATES (ANGSTROEM)
---------------------------------
  C     -0.035010    1.570551   -0.089093
  C      0.003045    0.047199   -0.045877
  C     -1.362713   -0.564024    0.285047
  C      0.713314   -0.682787   -1.212890
  N      2.086890   -0.179223   -1.250799
  C      1.740824   -1.301122   -0.304738
  C      1.084180   -0.621754    0.874941
  O      1.198901   -0.704131    2.062969
  H      0.929481    1.974091   -0.403610
  H     -0.805617    1.922039   -0.784891
  H     -0.272073    1.969975    0.902345
  H     -2.113037   -0.244598   -0.446466
  H     -1.330035   -1.658831    0.283365
  H     -1.690819   -0.240482    1.276854
  H      0.241368   -1.137157   -2.075465
  H      2.566590   -0.620385   -2.035888
  H      2.266062   -2.246439   -0.358062

 Total Charge           Charge          ....    0
 Multiplicity           Mult            ....    1
 Number of Electrons    NEL             ....   60
 Basis Dimension        Dim             ....  302

ORBITAL ENERGIES
----------------

  NO   OCC          E(Eh)            E(eV)
   0   2.0000     -20.551862      -559.2446
   1   2.0000     -15.587787      -424.1653
   2   2.0000     -11.333293      -308.3946
   3   2.0000     -11.284274      -307.0607
   4   2.0000     -11.279648      -306.9348
   5   2.0000     -11.257366      -306.3285
   6   2.0000     -11.229262      -305.5638
   7   2.0000     -11.217996      -305.2572
   8   2.0000      -1.396486       -38.0003
   9   2.0000      -1.299906       -35.3722
  10   2.0000      -1.094921       -29.7943
  11   2.0000      -0.973358       -26.4864
  12   2.0000      -0.941849       -25.6290
  13   2.0000      -0.865921       -23.5629
  14   2.0000      -0.815540       -22.1920
  15   2.0000      -0.720808       -19.6142
  16   2.0000      -0.697037       -18.9673
  17   2.0000      -0.656559       -17.8659
  18   2.0000      -0.635779       -17.3004
  19   2.0000      -0.597452       -16.2575
  20   2.0000      -0.587634       -15.9903
  21   2.0000      -0.559288       -15.2190
  22   2.0000      -0.546605       -14.8739
  23   2.0000      -0.534296       -14.5389
  24   2.0000      -0.517252       -14.0752
  25   2.0000      -0.505489       -13.7551
  26   2.0000      -0.487248       -13.2587
  27   2.0000      -0.470198       -12.7947
  28   2.0000      -0.399177       -10.8621
  29   2.0000      -0.379271       -10.3205
  30   0.0000       0.122601         3.3361
  31   0.0000       0.134748         3.6667
  32   0.0000       0.156244         4.2516
  33   0.0000       0.170593         4.6421
  34   0.0000       0.184589         5.0229

MULLIKEN ATOMIC CHARGES
-----------------------
   0 C :   -0.429156
   1 C :    0.212895
   2 C :   -0.439017
   3 C :   -0.118985
   4 N :   -0.370925
   5 C :   -0.102150
   6 C :    0.123878
   7 O :   -0.255342
   8 H :    0.160763
   9 H :    0.125786
  10 H :    0.141368
  11 H :    0.135930
  12 H :    0.137760
  13 H :    0.152061
  14 H :    0.149007
  15 H :    0.223156
  16 H :    0.152973
Sum of atomic charges:   -0.0000000

LOEWDIN ATOMIC CHARGES
----------------------
   0 C :   -0.265108
   1 C :   -0.257149
   2 C :   -0.257671
   3 C :   -0.195786
   4 N :    0.017036
   5 C :   -0.180622
   6 C :   -0.262633
   7 O :    0.170706
   8 H :    0.133695
   9 H :    0.126069
  10 H :    0.132459
  11 H :    0.127981
  12 H :    0.130551
  13 H :    0.135076
  14 H :    0.135141
  15 H :    0.176077
  16 H :    0.134178

  Mayer bond orders larger than 0.1
B(  0-C ,  1-C ) :   0.8885 B(  0-C ,  8-H ) :   0.9303 B(  0-C ,  9-H ) :   0.9355
B(  0-C , 10-H ) :   0.9297 B(  1-C ,  2-C ) :   0.8786 B(  1-C ,  3-C ) :   0.8795
B(  1-C ,  5-C ) :  -0.1317 B(  1-C ,  6-C ) :   0.8545 B(  2-C , 11-H ) :   0.9380
B(  2-C , 12-H ) :   0.9255 B(  2-C , 13-H ) :   0.9353 B(  3-C ,  4-N ) :   0.9739
B(  3-C ,  5-C ) :   0.8849 B(  3-C , 14-H ) :   0.9113 B(  4-N ,  5-C ) :   0.8737
B(  4-N , 15-H ) :   0.8663 B(  5-C ,  6-C ) :   0.9054 B(  5-C , 16-H ) :   0.9100
B(  6-C ,  7-O ) :   2.0481

MP2 TOTAL ENERGY:     -363.214637388 Eh
FINAL SINGLE POINT ENERGY      -363.214637387611

DIPOLE MOMENT
-------------
                                X             Y             Z
Electronic contribution:      5.43856      -2.70822       2.54083
Nuclear contribution   :     -5.79745       2.21443      -3.84218
                        -----------------------------------------
Total Dipole Moment    :     -0.35889      -0.49379      -1.30135
                        -----------------------------------------
Magnitude (a.u.)       :      1.43741
Magnitude (Debye)      :      3.65360

                             ****ORCA TERMINATED NORMALLY****
TOTAL RUN TIME: 0 days 0 hours 14 minutes 19 seconds 682 msec
