                         Program Version 3.0.3 - RELEASE   -
|  1> ! RI-MP2 RIJK def2-TZVP def2-TZVP/C def2-TZVP/JK TIGHTSCF
|  2> % maxcore 2000
|  3> % mp2 density relaxed end
|  4> *xyz 0 1
|  5>  C        1.4582763271     1.5308618592    -0.6412268237
|  6>  C        0.4526068058     0.4696713226    -0.1749929280
|  7>  C        0.9411882706    -0.3002208355     1.0384769095
|  8>  C        0.4397472028    -1.6602887043     1.4116965656
|  9>  C       -0.6105851998    -2.4140484992     0.6163313558
| 10>  C       -0.5547026001    -3.9285717049     0.8570946825
| 11>  N        1.8277336782    -1.4682423502     0.9747701794
| 12>  C        2.2879518750    -1.9884604411    -0.3025612940
| 13>  H        2.3989118152     1.0736191085    -0.9641448971
| 14>  H        1.0608436491     2.1104521212    -1.4802357513
| 15>  H        1.6937423408     2.2312080245     0.1675574209
| 16>  H       -0.4921483329     0.9604614823     0.0940137554
| 17>  H        0.2156779758    -0.2009896843    -1.0053670106
| 18>  H        1.2030831876     0.3662301030     1.8632695973
| 19>  H        0.3749262949    -1.8800031689     2.4796631056
| 20>  H       -1.5971338249    -2.0365001381     0.9162991649
| 21>  H       -0.5246400598    -2.2094642830    -0.4542767547
| 22>  H       -1.3559153378    -4.4442253022     0.3186032600
| 23>  H        0.3992280907    -4.3498806303     0.5244406949
| 24>  H       -0.6634676468    -4.1613905220     1.9220014463
| 25>  H        1.5675763114    -1.9505202266    -1.1326978975
| 26>  H        3.1778843776    -1.4285720970    -0.6093909212
| 27>  H        2.5857490196    -3.0339532938    -0.1689187501
| 28> *
| 29>
| 30>                          ****END OF INPUT****

CARTESIAN COORDINATES (ANGSTROEM)
---------------------------------
  C      1.458276    1.530862   -0.641227
  C      0.452607    0.469671   -0.174993
  C      0.941188   -0.300221    1.038477
  C      0.439747   -1.660289    1.411697
  C     -0.610585   -2.414048    0.616331
  C     -0.554703   -3.928572    0.857095
  N      1.827734   -1.468242    0.974770
  C      2.287952   -1.988460   -0.302561
  H      2.398912    1.073619   -0.964145
  H      1.060844    2.110452   -1.480236
  H      1.693742    2.231208    0.167557
  H     -0.492148    0.960461    0.094014
  H      0.215678   -0.200990   -1.005367
  H      1.203083    0.366230    1.863270
  H      0.374926   -1.880003    2.479663
  H     -1.597134   -2.036500    0.916299
  H     -0.524640   -2.209464   -0.454277
  H     -1.355915   -4.444225    0.318603
  H      0.399228   -4.349881    0.524441
  H     -0.663468   -4.161391    1.922001
  H      1.567576   -1.950520   -1.132698
  H      3.177884   -1.428572   -0.609391
  H      2.585749   -3.033953   -0.168919

 Total Charge           Charge          ....    0
 Multiplicity           Mult            ....    1
 Number of Electrons    NEL             ....   64
 Basis Dimension        Dim             ....  338

ORBITAL ENERGIES
----------------

  NO   OCC          E(Eh)            E(eV)
   0   2.0000     -15.545066      -423.0028
   1   2.0000     -11.248077      -306.0757
   2   2.0000     -11.247376      -306.0567
   3   2.0000     -11.240470      -305.8687
   4   2.0000     -11.224907      -305.4453
   5   2.0000     -11.224903      -305.4451
   6   2.0000     -11.214672      -305.1668
   7   2.0000     -11.214672      -305.1667
   8   2.0000      -1.259485       -34.2723
   9   2.0000      -1.041187       -28.3321
  10   2.0000      -1.040906       -28.3245
  11   2.0000      -0.979224       -26.6460
  12   2.0000      -0.875601       -23.8263
  13   2.0000      -0.871265       -23.7083
  14   2.0000      -0.769052       -20.9270
  15   2.0000      -0.756528       -20.5862
  16   2.0000      -0.673471       -18.3261
  17   2.0000      -0.627512       -17.0755
  18   2.0000      -0.623547       -16.9676
  19   2.0000      -0.591176       -16.0867
  20   2.0000      -0.568495       -15.4695
  21   2.0000      -0.564555       -15.3623
  22   2.0000      -0.557454       -15.1691
  23   2.0000      -0.543429       -14.7875
  24   2.0000      -0.513654       -13.9772
  25   2.0000      -0.510781       -13.8991
  26   2.0000      -0.496628       -13.5139
  27   2.0000      -0.493339       -13.4244
  28   2.0000      -0.465882       -12.6773
  29   2.0000      -0.431048       -11.7294
  30   2.0000      -0.423853       -11.5336
  31   2.0000      -0.348789        -9.4910
  32   0.0000       0.135200         3.6790
  33   0.0000       0.150431         4.0934
  34   0.0000       0.162612         4.4249
  35   0.0000       0.168029         4.5723
  36   0.0000       0.188396         5.1265

MULLIKEN ATOMIC CHARGES
-----------------------
   0 C :   -0.387157
   1 C :   -0.197815
   2 C :   -0.056111
   3 C :   -0.056118
   4 C :   -0.197794
   5 C :   -0.387168
   6 N :   -0.224532
   7 C :   -0.308862
   8 H :    0.127330
   9 H :    0.132333
  10 H :    0.126134
  11 H :    0.117994
  12 H :    0.104655
  13 H :    0.106606
  14 H :    0.106604
  15 H :    0.117995
  16 H :    0.104651
  17 H :    0.132334
  18 H :    0.127328
  19 H :    0.126135
  20 H :    0.107223
  21 H :    0.139120
  22 H :    0.139114
Sum of atomic charges:   -0.0000000

LOEWDIN ATOMIC CHARGES
----------------------
   0 C :   -0.313739
   1 C :   -0.280414
   2 C :   -0.241446
   3 C :   -0.241446
   4 C :   -0.280413
   5 C :   -0.313740
   6 N :    0.102216
   7 C :   -0.336303
   8 H :    0.120650
   9 H :    0.120264
  10 H :    0.121882
  11 H :    0.143090
  12 H :    0.134811
  13 H :    0.142553
  14 H :    0.142553
  15 H :    0.143089
  16 H :    0.134811
  17 H :    0.120264
  18 H :    0.120650
  19 H :    0.121881
  20 H :    0.102293
  21 H :    0.118246
  22 H :    0.118246

  Mayer bond orders larger than 0.1
B(  0-C ,  1-C ) :   0.9148 B(  0-C ,  8-H ) :   0.9389 B(  0-C ,  9-H ) :   0.9406
B(  0-C , 10-H ) :   0.9383 B(  1-C ,  2-C ) :   0.9141 B(  1-C , 11-H ) :   0.9269
B(  1-C , 12-H ) :   0.9402 B(  2-C ,  3-C ) :   0.9357 B(  2-C ,  6-N ) :   0.9168
B(  2-C , 13-H ) :   0.9109 B(  3-C ,  4-C ) :   0.9141 B(  3-C ,  6-N ) :   0.9168
B(  3-C , 14-H ) :   0.9109 B(  4-C ,  5-C ) :   0.9148 B(  4-C , 15-H ) :   0.9269
B(  4-C , 16-H ) :   0.9402 B(  5-C , 17-H ) :   0.9406 B(  5-C , 18-H ) :   0.9389
B(  5-C , 19-H ) :   0.9383 B(  6-N ,  7-C ) :   0.8930 B(  7-C , 20-H ) :   0.9268
B(  7-C , 21-H ) :   0.9366 B(  7-C , 22-H ) :   0.9366

MP2 TOTAL ENERGY:     -329.706254526 Eh
FINAL SINGLE POINT ENERGY      -329.706254526311

DIPOLE MOMENT
-------------
                                X             Y             Z
Electronic contribution:      1.15790       0.52938       3.48444
Nuclear contribution   :     -1.60339      -0.47200      -3.87383
                        -----------------------------------------
Total Dipole Moment    :     -0.44549       0.05739      -0.38939
                        -----------------------------------------
Magnitude (a.u.)       :      0.59446
Magnitude (Debye)      :      1.51100

                             ****ORCA TERMINATED NORMALLY****
TOTAL RUN TIME: 0 days 0 hours 14 minutes 48 seconds 297 msec
