                         Program Version 3.0.3 - RELEASE   -
|  1> ! RI-MP2 RIJK def2-TZVP def2-TZVP/C def2-TZVP/JK TIGHTSCF
|  2> % maxcore 2000
|  3> % mp2 density relaxed end
|  4> *xyz 0 1
|  5>  N        0.1645821556     1.4140351481     0.1515910492
|  6>  C       -0.0191951672     0.0592217304     0.0544808163
|  7>  C       -1.1347121276    -0.7327723396     0.0432302886
|  8>  C       -0.5751707462    -2.0349694760     0.0033502189
|  9>  N       -1.2292554547    -3.2610414857    -0.0212277556
| 10>  C       -2.5848888367    -3.4607760268    -0.0191031683
| 11>  O       -3.4276584442    -2.5941537399     0.0026605352
| 12>  N        0.7413158495    -2.0464977937    -0.0123143164
| 13>  O        1.0963151700    -0.6817360426     0.0205394411
| 14>  H        1.0589521553     1.7406606616    -0.1852531710
| 15>  H       -0.6104019359     1.9737530179    -0.1694074649
| 16>  H       -2.1730197021    -0.4624268313     0.0651383312
| 17>  H       -0.6263883094    -4.0711142373    -0.0424275910
| 18>  H       -2.8240812162    -4.5407676650    -0.0407579534
| 19> *
| 20>
| 21>                          ****END OF INPUT****

CARTESIAN COORDINATES (ANGSTROEM)
---------------------------------
  N      0.164582    1.414035    0.151591
  C     -0.019195    0.059222    0.054481
  C     -1.134712   -0.732772    0.043230
  C     -0.575171   -2.034969    0.003350
  N     -1.229255   -3.261041   -0.021228
  C     -2.584889   -3.460776   -0.019103
  O     -3.427658   -2.594154    0.002661
  N      0.741316   -2.046498   -0.012314
  O      1.096315   -0.681736    0.020539
  H      1.058952    1.740661   -0.185253
  H     -0.610402    1.973753   -0.169407
  H     -2.173020   -0.462427    0.065138
  H     -0.626388   -4.071114   -0.042428
  H     -2.824081   -4.540768   -0.040758

 Total Charge           Charge          ....    0
 Multiplicity           Mult            ....    1
 Number of Electrons    NEL             ....   66
 Basis Dimension        Dim             ....  309

ORBITAL ENERGIES
----------------

  NO   OCC          E(Eh)            E(eV)
   0   2.0000     -20.636085      -561.5364
   1   2.0000     -20.548082      -559.1417
   2   2.0000     -15.623139      -425.1272
   3   2.0000     -15.599425      -424.4819
   4   2.0000     -15.597796      -424.4376
   5   2.0000     -11.374714      -309.5217
   6   2.0000     -11.360923      -309.1464
   7   2.0000     -11.328149      -308.2546
   8   2.0000     -11.221304      -305.3472
   9   2.0000      -1.490350       -40.5545
  10   2.0000      -1.409192       -38.3461
  11   2.0000      -1.286309       -35.0022
  12   2.0000      -1.246383       -33.9158
  13   2.0000      -1.137328       -30.9483
  14   2.0000      -1.049187       -28.5498
  15   2.0000      -0.904100       -24.6018
  16   2.0000      -0.836159       -22.7530
  17   2.0000      -0.798836       -21.7374
  18   2.0000      -0.756198       -20.5772
  19   2.0000      -0.721839       -19.6422
  20   2.0000      -0.707212       -19.2442
  21   2.0000      -0.671740       -18.2790
  22   2.0000      -0.649953       -17.6861
  23   2.0000      -0.628427       -17.1004
  24   2.0000      -0.608187       -16.5496
  25   2.0000      -0.604167       -16.4402
  26   2.0000      -0.566045       -15.4029
  27   2.0000      -0.513006       -13.9596
  28   2.0000      -0.487157       -13.2562
  29   2.0000      -0.477802       -13.0016
  30   2.0000      -0.455616       -12.3979
  31   2.0000      -0.382647       -10.4123
  32   2.0000      -0.332878        -9.0581
  33   0.0000       0.121852         3.3158
  34   0.0000       0.129061         3.5119
  35   0.0000       0.133295         3.6271
  36   0.0000       0.174716         4.7543
  37   0.0000       0.177519         4.8305

MULLIKEN ATOMIC CHARGES
-----------------------
   0 N :   -0.507064
   1 C :    0.296544
   2 C :   -0.329575
   3 C :    0.226131
   4 N :   -0.311745
   5 C :    0.207925
   6 O :   -0.346620
   7 N :   -0.174448
   8 O :   -0.131117
   9 H :    0.269351
  10 H :    0.267584
  11 H :    0.185372
  12 H :    0.254384
  13 H :    0.093277
Sum of atomic charges:   -0.0000000

LOEWDIN ATOMIC CHARGES
----------------------
   0 N :   -0.046013
   1 C :   -0.379682
   2 C :   -0.175923
   3 C :   -0.345602
   4 N :    0.144351
   5 C :   -0.405468
   6 O :    0.083979
   7 N :    0.017938
   8 O :    0.272983
   9 H :    0.180075
  10 H :    0.180758
  11 H :    0.153229
  12 H :    0.203783
  13 H :    0.115594

  Mayer bond orders larger than 0.1
B(  0-N ,  1-C ) :   1.0991 B(  0-N ,  9-H ) :   0.8631 B(  0-N , 10-H ) :   0.8698
B(  1-C ,  2-C ) :   1.4517 B(  1-C ,  8-O ) :   1.1567 B(  2-C ,  3-C ) :   1.2743
B(  2-C , 11-H ) :   0.8856 B(  3-C ,  4-N ) :   0.9737 B(  3-C ,  7-N ) :   1.6083
B(  4-N ,  5-C ) :   1.1007 B(  4-N , 12-H ) :   0.8581 B(  5-C ,  6-O ) :   1.8938
B(  5-C , 13-H ) :   0.9296 B(  7-N ,  8-O ) :   0.8517

MP2 TOTAL ENERGY:     -469.268130375 Eh
FINAL SINGLE POINT ENERGY      -469.268130375097

DIPOLE MOMENT
-------------
                                X             Y             Z
Electronic contribution:      1.37868      -1.44567       0.07164
Nuclear contribution   :     -1.20687       1.85034      -0.44682
                        -----------------------------------------
Total Dipole Moment    :      0.17181       0.40467      -0.37518
                        -----------------------------------------
Magnitude (a.u.)       :      0.57796
Magnitude (Debye)      :      1.46905

                             ****ORCA TERMINATED NORMALLY****
TOTAL RUN TIME: 0 days 0 hours 14 minutes 32 seconds 399 msec
