                         Program Version 3.0.3 - RELEASE   -
|  1> ! RI-MP2 RIJK def2-TZVP def2-TZVP/C def2-TZVP/JK TIGHTSCF
|  2> % maxcore 2000
|  3> % mp2 density relaxed end
|  4> *xyz 0 1
|  5>  C        0.2950280236     1.3717633009     0.0201510754
|  6>  N        0.1141512795    -0.0716023188    -0.0078138394
|  7>  C       -0.0077529525    -0.7121185761     1.2883914912
|  8>  C        0.0714162814    -0.7129026396    -1.2087596144
|  9>  O        0.1792427348    -0.1254303333    -2.2776180478
| 10>  C       -0.1207133902    -2.2342432632    -1.1904539494
| 11>  N       -0.1355292392    -2.6968747142    -2.5544979656
| 12>  C       -0.2905285386    -4.0027089768    -2.8667516731
| 13>  O       -0.4289880134    -4.8942726759    -2.0518380596
| 14>  H        1.2061627837     1.6328899227     0.5721720429
| 15>  H        0.3734624517     1.7307823628    -1.0040239737
| 16>  H       -0.5563089760     1.8549503213     0.5149789772
| 17>  H       -0.8684069219    -0.3079325130     1.8364944660
| 18>  H       -0.1406262036    -1.7878234840     1.1948659800
| 19>  H        0.8904388304    -0.5300108266     1.8922118964
| 20>  H        0.6855962506    -2.7198905325    -0.6260658299
| 21>  H       -1.0559199507    -2.5005821462    -0.6815417618
| 22>  H       -0.0225179471    -1.9750212232    -3.2538650094
| 23>  H       -0.2774643128    -4.1745837043    -3.9609422549
| 24> *
| 25>
| 26>                          ****END OF INPUT****

CARTESIAN COORDINATES (ANGSTROEM)
---------------------------------
  C      0.295028    1.371763    0.020151
  N      0.114151   -0.071602   -0.007814
  C     -0.007753   -0.712119    1.288391
  C      0.071416   -0.712903   -1.208760
  O      0.179243   -0.125430   -2.277618
  C     -0.120713   -2.234243   -1.190454
  N     -0.135529   -2.696875   -2.554498
  C     -0.290529   -4.002709   -2.866752
  O     -0.428988   -4.894273   -2.051838
  H      1.206163    1.632890    0.572172
  H      0.373462    1.730782   -1.004024
  H     -0.556309    1.854950    0.514979
  H     -0.868407   -0.307933    1.836494
  H     -0.140626   -1.787823    1.194866
  H      0.890439   -0.530011    1.892212
  H      0.685596   -2.719891   -0.626066
  H     -1.055920   -2.500582   -0.681542
  H     -0.022518   -1.975021   -3.253865
  H     -0.277464   -4.174584   -3.960942

 Total Charge           Charge          ....    0
 Multiplicity           Mult            ....    1
 Number of Electrons    NEL             ....   70
 Basis Dimension        Dim             ....  339

ORBITAL ENERGIES
----------------

  NO   OCC          E(Eh)            E(eV)
   0   2.0000     -20.530812      -558.6718
   1   2.0000     -20.519910      -558.3751
   2   2.0000     -15.603132      -424.5828
   3   2.0000     -15.584534      -424.0767
   4   2.0000     -11.366815      -309.3068
   5   2.0000     -11.345593      -308.7293
   6   2.0000     -11.288065      -307.1639
   7   2.0000     -11.282277      -307.0064
   8   2.0000     -11.265450      -306.5485
   9   2.0000      -1.400698       -38.1149
  10   2.0000      -1.379367       -37.5345
  11   2.0000      -1.262270       -34.3481
  12   2.0000      -1.236373       -33.6434
  13   2.0000      -1.019299       -27.7365
  14   2.0000      -0.984608       -26.7926
  15   2.0000      -0.935981       -25.4693
  16   2.0000      -0.817401       -22.2426
  17   2.0000      -0.772180       -21.0121
  18   2.0000      -0.736261       -20.0347
  19   2.0000      -0.685911       -18.6646
  20   2.0000      -0.679938       -18.5021
  21   2.0000      -0.666559       -18.1380
  22   2.0000      -0.639512       -17.4020
  23   2.0000      -0.637244       -17.3403
  24   2.0000      -0.591175       -16.0867
  25   2.0000      -0.585154       -15.9229
  26   2.0000      -0.572016       -15.5653
  27   2.0000      -0.565195       -15.3797
  28   2.0000      -0.552562       -15.0360
  29   2.0000      -0.544120       -14.8063
  30   2.0000      -0.519859       -14.1461
  31   2.0000      -0.444900       -12.1063
  32   2.0000      -0.429513       -11.6876
  33   2.0000      -0.402907       -10.9637
  34   2.0000      -0.384797       -10.4709
  35   0.0000       0.118502         3.2246
  36   0.0000       0.157396         4.2830
  37   0.0000       0.158976         4.3259
  38   0.0000       0.162520         4.4224
  39   0.0000       0.175203         4.7675

MULLIKEN ATOMIC CHARGES
-----------------------
   0 C :   -0.321482
   1 N :   -0.104558
   2 C :   -0.329231
   3 C :    0.272144
   4 O :   -0.416570
   5 C :   -0.170463
   6 N :   -0.308343
   7 C :    0.184440
   8 O :   -0.379294
   9 H :    0.136429
  10 H :    0.186962
  11 H :    0.136447
  12 H :    0.145620
  13 H :    0.162866
  14 H :    0.145631
  15 H :    0.152772
  16 H :    0.152770
  17 H :    0.268692
  18 H :    0.085165
Sum of atomic charges:    0.0000000

LOEWDIN ATOMIC CHARGES
----------------------
   0 C :   -0.282755
   1 N :    0.149097
   2 C :   -0.287080
   3 C :   -0.429723
   4 O :    0.061238
   5 C :   -0.252444
   6 N :    0.088440
   7 C :   -0.438827
   8 O :    0.045140
   9 H :    0.119128
  10 H :    0.136324
  11 H :    0.119125
  12 H :    0.121667
  13 H :    0.130360
  14 H :    0.121662
  15 H :    0.146645
  16 H :    0.146648
  17 H :    0.194593
  18 H :    0.110763

  Mayer bond orders larger than 0.1
B(  0-C ,  1-N ) :   0.8613 B(  0-C ,  9-H ) :   0.9325 B(  0-C , 10-H ) :   0.9220
B(  0-C , 11-H ) :   0.9325 B(  1-N ,  2-C ) :   0.8904 B(  1-N ,  3-C ) :   1.2498
B(  2-C , 12-H ) :   0.9303 B(  2-C , 13-H ) :   0.9270 B(  2-C , 14-H ) :   0.9303
B(  3-C ,  4-O ) :   1.8003 B(  3-C ,  5-C ) :   0.8924 B(  5-C ,  6-N ) :   0.8894
B(  5-C , 15-H ) :   0.9197 B(  5-C , 16-H ) :   0.9197 B(  6-N ,  7-C ) :   1.1655
B(  6-N , 17-H ) :   0.8404 B(  7-C ,  8-O ) :   1.8752 B(  7-C , 18-H ) :   0.9326

MP2 TOTAL ENERGY:     -455.658028102 Eh
FINAL SINGLE POINT ENERGY      -455.658028101975

DIPOLE MOMENT
-------------
                                X             Y             Z
Electronic contribution:     -0.42292      -5.08490      -6.85954
Nuclear contribution   :      0.55566       6.40798       7.93448
                        -----------------------------------------
Total Dipole Moment    :      0.13274       1.32308       1.07494
                        -----------------------------------------
Magnitude (a.u.)       :      1.70987
Magnitude (Debye)      :      4.34615

                             ****ORCA TERMINATED NORMALLY****
TOTAL RUN TIME: 0 days 0 hours 16 minutes 0 seconds 903 msec
