                         Program Version 3.0.3 - RELEASE   -
|  1> ! RI-MP2 RIJK def2-TZVP def2-TZVP/C def2-TZVP/JK TIGHTSCF
|  2> % maxcore 2000
|  3> % mp2 density relaxed end
|  4> *xyz 0 1
|  5>  C       -0.3836172555     1.4521991862     0.0162865810
|  6>  C        0.0598019025    -0.0177075915    -0.0152812281
|  7>  C        1.0650612129    -0.2550978825    -1.1503906117
|  8>  C        0.6503407747    -0.4804964341     1.3286753567
|  9>  C       -0.3490752831    -0.4694044144     2.4915905874
| 10>  N        0.2205258607    -1.0012148073     3.7204423114
| 11>  C        0.3962392451    -0.2587954609     4.8458960730
| 12>  O        0.0775589531     0.9039073644     4.9801331677
| 13>  H        0.4643065671     2.1100566345     0.2415622497
| 14>  H       -0.7900737320     1.7562984751    -0.9538252433
| 15>  H       -1.1560186635     1.6373190219     0.7682838538
| 16>  H       -0.8279674039    -0.6350219314    -0.2190377744
| 17>  H        1.9761209550     0.3352474417    -0.9958775233
| 18>  H        1.3580578987    -1.3085679890    -1.2127628529
| 19>  H        0.6437813236     0.0343437634    -2.1185993711
| 20>  H        1.0405705420    -1.5010257402     1.2094908002
| 21>  H        1.5100626727     0.1494410850     1.5925673624
| 22>  H       -0.6702385549     0.5456198106     2.7313959792
| 23>  H       -1.2434968028    -1.0469744429     2.2211728211
| 24>  H        0.5523174705    -1.9529245834     3.7282786845
| 25>  H        0.8726350772    -0.8502460154     5.6536073368
| 26> *
| 27>
| 28>                          ****END OF INPUT****

CARTESIAN COORDINATES (ANGSTROEM)
---------------------------------
  C     -0.383617    1.452199    0.016287
  C      0.059802   -0.017708   -0.015281
  C      1.065061   -0.255098   -1.150391
  C      0.650341   -0.480496    1.328675
  C     -0.349075   -0.469404    2.491591
  N      0.220526   -1.001215    3.720442
  C      0.396239   -0.258795    4.845896
  O      0.077559    0.903907    4.980133
  H      0.464307    2.110057    0.241562
  H     -0.790074    1.756298   -0.953825
  H     -1.156019    1.637319    0.768284
  H     -0.827967   -0.635022   -0.219038
  H      1.976121    0.335247   -0.995878
  H      1.358058   -1.308568   -1.212763
  H      0.643781    0.034344   -2.118599
  H      1.040571   -1.501026    1.209491
  H      1.510063    0.149441    1.592567
  H     -0.670239    0.545620    2.731396
  H     -1.243497   -1.046974    2.221173
  H      0.552317   -1.952925    3.728279
  H      0.872635   -0.850246    5.653607

 Total Charge           Charge          ....    0
 Multiplicity           Mult            ....    1
 Number of Electrons    NEL             ....   64
 Basis Dimension        Dim             ....  326

ORBITAL ENERGIES
----------------

  NO   OCC          E(Eh)            E(eV)
   0   2.0000     -20.518656      -558.3410
   1   2.0000     -15.587219      -424.1498
   2   2.0000     -11.346300      -308.7485
   3   2.0000     -11.262913      -306.4794
   4   2.0000     -11.232993      -305.6653
   5   2.0000     -11.226528      -305.4893
   6   2.0000     -11.215863      -305.1992
   7   2.0000     -11.213492      -305.1346
   8   2.0000      -1.379351       -37.5340
   9   2.0000      -1.234276       -33.5863
  10   2.0000      -1.094201       -29.7747
  11   2.0000      -0.998521       -27.1711
  12   2.0000      -0.931387       -25.3443
  13   2.0000      -0.883547       -24.0425
  14   2.0000      -0.802294       -21.8315
  15   2.0000      -0.773609       -21.0510
  16   2.0000      -0.734977       -19.9997
  17   2.0000      -0.648821       -17.6553
  18   2.0000      -0.637884       -17.3577
  19   2.0000      -0.621583       -16.9141
  20   2.0000      -0.599226       -16.3058
  21   2.0000      -0.586699       -15.9649
  22   2.0000      -0.564193       -15.3525
  23   2.0000      -0.551164       -14.9979
  24   2.0000      -0.536793       -14.6069
  25   2.0000      -0.515377       -14.0241
  26   2.0000      -0.504588       -13.7305
  27   2.0000      -0.474880       -12.9221
  28   2.0000      -0.465647       -12.6709
  29   2.0000      -0.464461       -12.6386
  30   2.0000      -0.427162       -11.6237
  31   2.0000      -0.390234       -10.6188
  32   0.0000       0.125417         3.4128
  33   0.0000       0.138766         3.7760
  34   0.0000       0.159267         4.3339
  35   0.0000       0.172537         4.6950
  36   0.0000       0.181298         4.9334

MULLIKEN ATOMIC CHARGES
-----------------------
   0 C :   -0.418659
   1 C :   -0.024632
   2 C :   -0.390172
   3 C :   -0.245260
   4 C :   -0.121956
   5 N :   -0.322150
   6 C :    0.196715
   7 O :   -0.370882
   8 H :    0.126781
   9 H :    0.132174
  10 H :    0.137226
  11 H :    0.081701
  12 H :    0.124205
  13 H :    0.127053
  14 H :    0.132445
  15 H :    0.102920
  16 H :    0.128018
  17 H :    0.162722
  18 H :    0.129252
  19 H :    0.235580
  20 H :    0.076920
Sum of atomic charges:    0.0000000

LOEWDIN ATOMIC CHARGES
----------------------
   0 C :   -0.293469
   1 C :   -0.310285
   2 C :   -0.295892
   3 C :   -0.254728
   4 C :   -0.274520
   5 N :    0.081685
   6 C :   -0.441614
   7 O :    0.050198
   8 H :    0.125666
   9 H :    0.123826
  10 H :    0.122609
  11 H :    0.148888
  12 H :    0.123990
  13 H :    0.121154
  14 H :    0.122982
  15 H :    0.135928
  16 H :    0.143058
  17 H :    0.146829
  18 H :    0.132829
  19 H :    0.182665
  20 H :    0.108198

  Mayer bond orders larger than 0.1
B(  0-C ,  1-C ) :   0.9180 B(  0-C ,  8-H ) :   0.9302 B(  0-C ,  9-H ) :   0.9386
B(  0-C , 10-H ) :   0.9399 B(  1-C ,  2-C ) :   0.9204 B(  1-C ,  3-C ) :   0.9214
B(  1-C , 11-H ) :   0.9262 B(  2-C , 12-H ) :   0.9326 B(  2-C , 13-H ) :   0.9393
B(  2-C , 14-H ) :   0.9414 B(  3-C ,  4-C ) :   0.9230 B(  3-C , 15-H ) :   0.9324
B(  3-C , 16-H ) :   0.9248 B(  4-C ,  5-N ) :   0.8032 B(  4-C , 17-H ) :   0.9234
B(  4-C , 18-H ) :   0.9349 B(  5-N ,  6-C ) :   1.1675 B(  5-N , 19-H ) :   0.8747
B(  6-C ,  7-O ) :   1.8847 B(  6-C , 20-H ) :   0.9301

MP2 TOTAL ENERGY:     -365.678442337 Eh
FINAL SINGLE POINT ENERGY      -365.678442337167

DIPOLE MOMENT
-------------
                                X             Y             Z
Electronic contribution:     -0.61720      -0.67033      12.14424
Nuclear contribution   :      0.81079      -0.60508     -12.94862
                        -----------------------------------------
Total Dipole Moment    :      0.19359      -1.27542      -0.80438
                        -----------------------------------------
Magnitude (a.u.)       :      1.52026
Magnitude (Debye)      :      3.86420

                             ****ORCA TERMINATED NORMALLY****
TOTAL RUN TIME: 0 days 0 hours 13 minutes 4 seconds 360 msec
