                         Program Version 3.0.3 - RELEASE   -
|  1> ! RI-MP2 RIJK def2-TZVP def2-TZVP/C def2-TZVP/JK TIGHTSCF
|  2> % maxcore 2000
|  3> % mp2 density relaxed end
|  4> *xyz 0 1
|  5>  O       -0.4965582380     0.9415140112     0.1057688545
|  6>  C       -0.2664330685    -0.4536054762    -0.0553551910
|  7>  C        0.6604592336    -0.7476074936    -1.2446361824
|  8>  C        0.0872889137    -0.2944371574    -2.5724078941
|  9>  C        0.2707490849     1.1355915538    -3.0481652519
| 10>  C        0.9924709953     0.0042047962    -3.7366547223
| 11>  C        0.3074544655    -0.9768847099     1.2478226691
| 12>  C        1.2439587397    -0.1544558580     2.0503492310
| 13>  N       -0.1305401417    -0.4105540814     2.5281832730
| 14>  H       -0.7764220732     1.2888007941    -0.7466424414
| 15>  H       -1.2295533916    -0.9658271094    -0.2319456202
| 16>  H        1.6241937438    -0.2547298035    -1.0669705382
| 17>  H        0.8551899201    -1.8277758221    -1.2767953783
| 18>  H       -0.8662210829    -0.7528773500    -2.8266201768
| 19>  H       -0.5441670767     1.6191971483    -3.5762462417
| 20>  H        0.8613050207     1.8041598429    -2.4299066578
| 21>  H        2.0624791560    -0.0810437138    -3.5782362741
| 22>  H        0.6660476186    -0.2815889677    -4.7301580181
| 23>  H        0.4221471726    -2.0593987320     1.2599881198
| 24>  H        2.0290962436    -0.6323632858     2.6294463612
| 25>  H        1.4755641040     0.8406187364     1.6841247058
| 26>  H       -0.6897382195     0.4159903378     2.3247701738
| 27> *
| 28>
| 29>                          ****END OF INPUT****

CARTESIAN COORDINATES (ANGSTROEM)
---------------------------------
  O     -0.496558    0.941514    0.105769
  C     -0.266433   -0.453605   -0.055355
  C      0.660459   -0.747607   -1.244636
  C      0.087289   -0.294437   -2.572408
  C      0.270749    1.135592   -3.048165
  C      0.992471    0.004205   -3.736655
  C      0.307454   -0.976885    1.247823
  C      1.243959   -0.154456    2.050349
  N     -0.130540   -0.410554    2.528183
  H     -0.776422    1.288801   -0.746642
  H     -1.229553   -0.965827   -0.231946
  H      1.624194   -0.254730   -1.066971
  H      0.855190   -1.827776   -1.276795
  H     -0.866221   -0.752877   -2.826620
  H     -0.544167    1.619197   -3.576246
  H      0.861305    1.804160   -2.429907
  H      2.062479   -0.081044   -3.578236
  H      0.666048   -0.281589   -4.730158
  H      0.422147   -2.059399    1.259988
  H      2.029096   -0.632363    2.629446
  H      1.475564    0.840619    1.684125
  H     -0.689738    0.415990    2.324770

 Total Charge           Charge          ....    0
 Multiplicity           Mult            ....    1
 Number of Electrons    NEL             ....   70
 Basis Dimension        Dim             ....  357

ORBITAL ENERGIES
----------------

  NO   OCC          E(Eh)            E(eV)
   0   2.0000     -20.560057      -559.4676
   1   2.0000     -15.543060      -422.9482
   2   2.0000     -11.286906      -307.1323
   3   2.0000     -11.251233      -306.1616
   4   2.0000     -11.244123      -305.9681
   5   2.0000     -11.241655      -305.9010
   6   2.0000     -11.236322      -305.7559
   7   2.0000     -11.234523      -305.7069
   8   2.0000     -11.232633      -305.6555
   9   2.0000      -1.371146       -37.3108
  10   2.0000      -1.246271       -33.9128
  11   2.0000      -1.155280       -31.4368
  12   2.0000      -1.032532       -28.0966
  13   2.0000      -0.914273       -24.8786
  14   2.0000      -0.869751       -23.6671
  15   2.0000      -0.834344       -22.7037
  16   2.0000      -0.792882       -21.5754
  17   2.0000      -0.780638       -21.2422
  18   2.0000      -0.716279       -19.4909
  19   2.0000      -0.675927       -18.3929
  20   2.0000      -0.659068       -17.9342
  21   2.0000      -0.636944       -17.3321
  22   2.0000      -0.624952       -17.0058
  23   2.0000      -0.607399       -16.5282
  24   2.0000      -0.559317       -15.2198
  25   2.0000      -0.527698       -14.3594
  26   2.0000      -0.523636       -14.2489
  27   2.0000      -0.521376       -14.1874
  28   2.0000      -0.494446       -13.4546
  29   2.0000      -0.487741       -13.2721
  30   2.0000      -0.465000       -12.6533
  31   2.0000      -0.439230       -11.9521
  32   2.0000      -0.423521       -11.5246
  33   2.0000      -0.415207       -11.2983
  34   2.0000      -0.376326       -10.2404
  35   0.0000       0.135543         3.6883
  36   0.0000       0.148662         4.0453
  37   0.0000       0.151732         4.1288
  38   0.0000       0.161499         4.3946
  39   0.0000       0.184047         5.0082

MULLIKEN ATOMIC CHARGES
-----------------------
   0 O :   -0.491090
   1 C :    0.070993
   2 C :   -0.233913
   3 C :   -0.126311
   4 C :   -0.326248
   5 C :   -0.258236
   6 C :   -0.031831
   7 C :   -0.190578
   8 N :   -0.373453
   9 H :    0.331300
  10 H :    0.088146
  11 H :    0.122906
  12 H :    0.123364
  13 H :    0.124520
  14 H :    0.138496
  15 H :    0.148945
  16 H :    0.132967
  17 H :    0.135222
  18 H :    0.123880
  19 H :    0.118077
  20 H :    0.137065
  21 H :    0.235779
Sum of atomic charges:   -0.0000000

LOEWDIN ATOMIC CHARGES
----------------------
   0 O :   -0.013880
   1 C :   -0.335981
   2 C :   -0.232507
   3 C :   -0.239574
   4 C :   -0.246467
   5 C :   -0.227248
   6 C :   -0.273768
   7 C :   -0.267740
   8 N :   -0.016647
   9 H :    0.176935
  10 H :    0.139803
  11 H :    0.148686
  12 H :    0.149095
  13 H :    0.148622
  14 H :    0.130592
  15 H :    0.133680
  16 H :    0.134545
  17 H :    0.132711
  18 H :    0.144135
  19 H :    0.121087
  20 H :    0.124450
  21 H :    0.169472

  Mayer bond orders larger than 0.1
B(  0-O ,  1-C ) :   0.9339 B(  0-O ,  9-H ) :   0.8376 B(  1-C ,  2-C ) :   0.9173
B(  1-C ,  6-C ) :   0.9255 B(  1-C , 10-H ) :   0.9331 B(  2-C ,  3-C ) :   0.8861
B(  2-C , 11-H ) :   0.9257 B(  2-C , 12-H ) :   0.9178 B(  3-C ,  4-C ) :   0.8958
B(  3-C ,  5-C ) :   0.8861 B(  3-C , 13-H ) :   0.9285 B(  4-C ,  5-C ) :   0.9037
B(  4-C , 14-H ) :   0.9303 B(  4-C , 15-H ) :   0.9238 B(  5-C , 16-H ) :   0.9287
B(  5-C , 17-H ) :   0.9331 B(  6-C ,  7-C ) :   0.9624 B(  6-C ,  8-N ) :   0.9701
B(  6-C , 18-H ) :   0.9093 B(  7-C ,  8-N ) :   0.9163 B(  7-C , 19-H ) :   0.9224
B(  7-C , 20-H ) :   0.9110 B(  8-N , 21-H ) :   0.8730

MP2 TOTAL ENERGY:     -403.616803586 Eh
FINAL SINGLE POINT ENERGY      -403.616803586247

DIPOLE MOMENT
-------------
                                X             Y             Z
Electronic contribution:     -1.96072      -0.02413       4.31565
Nuclear contribution   :      2.08369       0.08677      -5.63027
                        -----------------------------------------
Total Dipole Moment    :      0.12297       0.06264      -1.31462
                        -----------------------------------------
Magnitude (a.u.)       :      1.32185
Magnitude (Debye)      :      3.35986

                             ****ORCA TERMINATED NORMALLY****
TOTAL RUN TIME: 0 days 0 hours 18 minutes 37 seconds 135 msec
