                         Program Version 3.0.3 - RELEASE   -
|  1> ! RI-MP2 RIJK def2-TZVP def2-TZVP/C def2-TZVP/JK TIGHTSCF
|  2> % maxcore 2000
|  3> % mp2 density relaxed end
|  4> *xyz 0 1
|  5>  C        0.1180540975     1.3009519474    -0.5132268344
|  6>  C       -0.1274157277    -0.1311862961    -0.0241243190
|  7>  C        0.9004271849    -0.6215689103     0.9883555615
|  8>  C        0.9338620520     0.1606549297     2.3023877318
|  9>  C        1.6641912117    -0.4822428557     3.4862578090
| 10>  C        1.2798703385    -2.0840352782     0.9523336905
| 11>  N        2.1481814405    -1.0816083053     0.3844330349
| 12>  C        3.4535223971    -0.8380888720     0.7475669088
| 13>  O        4.2696371609    -1.6852213375     1.0269094859
| 14>  H        1.1222669405     1.3952974705    -0.9394610771
| 15>  H       -0.6021167705     1.5716005703    -1.2907436339
| 16>  H        0.0212676959     2.0340771587     0.2933257970
| 17>  H       -1.1253491039    -0.2092630970     0.4258115231
| 18>  H       -0.1123860675    -0.8105464519    -0.8827479117
| 19>  H        1.3646320236     1.1495098958     2.1029025120
| 20>  H       -0.1082698292     0.3493885683     2.5890204093
| 21>  H        1.6779605550     0.2109534363     4.3325524561
| 22>  H        1.1631111784    -1.3959077698     3.8187551860
| 23>  H        2.7027715329    -0.7343354524     3.2538736798
| 24>  H        1.6229949821    -2.5658100506     1.8625295944
| 25>  H        0.7825300371    -2.7426783608     0.2443223903
| 26>  H        3.7020907902     0.2392433806     0.6787043756
| 27> *
| 28>
| 29>                          ****END OF INPUT****

CARTESIAN COORDINATES (ANGSTROEM)
---------------------------------
  C      0.118054    1.300952   -0.513227
  C     -0.127416   -0.131186   -0.024124
  C      0.900427   -0.621569    0.988356
  C      0.933862    0.160655    2.302388
  C      1.664191   -0.482243    3.486258
  C      1.279870   -2.084035    0.952334
  N      2.148181   -1.081608    0.384433
  C      3.453522   -0.838089    0.747567
  O      4.269637   -1.685221    1.026909
  H      1.122267    1.395297   -0.939461
  H     -0.602117    1.571601   -1.290744
  H      0.021268    2.034077    0.293326
  H     -1.125349   -0.209263    0.425812
  H     -0.112386   -0.810546   -0.882748
  H      1.364632    1.149510    2.102903
  H     -0.108270    0.349389    2.589020
  H      1.677961    0.210953    4.332552
  H      1.163111   -1.395908    3.818755
  H      2.702772   -0.734335    3.253874
  H      1.622995   -2.565810    1.862530
  H      0.782530   -2.742678    0.244322
  H      3.702091    0.239243    0.678704

 Total Charge           Charge          ....    0
 Multiplicity           Mult            ....    1
 Number of Electrons    NEL             ....   70
 Basis Dimension        Dim             ....  357

ORBITAL ENERGIES
----------------

  NO   OCC          E(Eh)            E(eV)
   0   2.0000     -20.532738      -558.7242
   1   2.0000     -15.580181      -423.9583
   2   2.0000     -11.349448      -308.8342
   3   2.0000     -11.291790      -307.2652
   4   2.0000     -11.269328      -306.6540
   5   2.0000     -11.243187      -305.9427
   6   2.0000     -11.235551      -305.7349
   7   2.0000     -11.226925      -305.5002
   8   2.0000     -11.224223      -305.4266
   9   2.0000      -1.389767       -37.8175
  10   2.0000      -1.294056       -35.2130
  11   2.0000      -1.076244       -29.2861
  12   2.0000      -1.033095       -28.1119
  13   2.0000      -0.982846       -26.7446
  14   2.0000      -0.905283       -24.6340
  15   2.0000      -0.856077       -23.2950
  16   2.0000      -0.803202       -21.8562
  17   2.0000      -0.755129       -20.5481
  18   2.0000      -0.697881       -18.9903
  19   2.0000      -0.656919       -17.8757
  20   2.0000      -0.646879       -17.6025
  21   2.0000      -0.629335       -17.1251
  22   2.0000      -0.614301       -16.7160
  23   2.0000      -0.584656       -15.9093
  24   2.0000      -0.562566       -15.3082
  25   2.0000      -0.543036       -14.7768
  26   2.0000      -0.536678       -14.6037
  27   2.0000      -0.529429       -14.4065
  28   2.0000      -0.520407       -14.1610
  29   2.0000      -0.502202       -13.6656
  30   2.0000      -0.485465       -13.2102
  31   2.0000      -0.472076       -12.8458
  32   2.0000      -0.468291       -12.7429
  33   2.0000      -0.422296       -11.4913
  34   2.0000      -0.386494       -10.5170
  35   0.0000       0.124887         3.3983
  36   0.0000       0.142128         3.8675
  37   0.0000       0.155373         4.2279
  38   0.0000       0.163559         4.4507
  39   0.0000       0.171511         4.6670

MULLIKEN ATOMIC CHARGES
-----------------------
   0 C :   -0.434888
   1 C :   -0.196995
   2 C :    0.137930
   3 C :   -0.220683
   4 C :   -0.426224
   5 C :   -0.182249
   6 N :   -0.182106
   7 C :    0.125496
   8 O :   -0.312909
   9 H :    0.136990
  10 H :    0.140569
  11 H :    0.133397
  12 H :    0.115115
  13 H :    0.118426
  14 H :    0.131420
  15 H :    0.124333
  16 H :    0.142737
  17 H :    0.130923
  18 H :    0.160078
  19 H :    0.142436
  20 H :    0.131401
  21 H :    0.084802
Sum of atomic charges:    0.0000000

LOEWDIN ATOMIC CHARGES
----------------------
   0 C :   -0.312167
   1 C :   -0.247287
   2 C :   -0.259360
   3 C :   -0.249537
   4 C :   -0.311070
   5 C :   -0.193367
   6 N :    0.192786
   7 C :   -0.413393
   8 O :    0.089001
   9 H :    0.125032
  10 H :    0.123796
  11 H :    0.120198
  12 H :    0.141628
  13 H :    0.146141
  14 H :    0.145571
  15 H :    0.149008
  16 H :    0.126197
  17 H :    0.122935
  18 H :    0.128296
  19 H :    0.134162
  20 H :    0.130092
  21 H :    0.111336

  Mayer bond orders larger than 0.1
B(  0-C ,  1-C ) :   0.9135 B(  0-C ,  9-H ) :   0.9370 B(  0-C , 10-H ) :   0.9385
B(  0-C , 11-H ) :   0.9377 B(  1-C ,  2-C ) :   0.8967 B(  1-C , 12-H ) :   0.9322
B(  1-C , 13-H ) :   0.9292 B(  2-C ,  3-C ) :   0.9103 B(  2-C ,  5-C ) :   0.9373
B(  2-C ,  6-N ) :   0.7857 B(  3-C ,  4-C ) :   0.9127 B(  3-C , 14-H ) :   0.9314
B(  3-C , 15-H ) :   0.9234 B(  4-C , 16-H ) :   0.9346 B(  4-C , 17-H ) :   0.9366
B(  4-C , 18-H ) :   0.9358 B(  5-C ,  6-N ) :   0.8792 B(  5-C , 19-H ) :   0.9189
B(  5-C , 20-H ) :   0.9038 B(  6-N ,  7-C ) :   1.0538 B(  7-C ,  8-O ) :   1.9492
B(  7-C , 21-H ) :   0.9343

MP2 TOTAL ENERGY:     -403.657589994 Eh
FINAL SINGLE POINT ENERGY      -403.657589993622

DIPOLE MOMENT
-------------
                                X             Y             Z
Electronic contribution:      7.21877      -5.18679      -2.38043
Nuclear contribution   :     -8.58846       5.85467       2.63526
                        -----------------------------------------
Total Dipole Moment    :     -1.36969       0.66788       0.25483
                        -----------------------------------------
Magnitude (a.u.)       :      1.54501
Magnitude (Debye)      :      3.92711

                             ****ORCA TERMINATED NORMALLY****
TOTAL RUN TIME: 0 days 0 hours 23 minutes 49 seconds 309 msec
