                         Program Version 3.0.3 - RELEASE   -
|  1> ! RI-MP2 RIJK def2-TZVP def2-TZVP/C def2-TZVP/JK TIGHTSCF
|  2> % maxcore 2000
|  3> % mp2 density relaxed end
|  4> *xyz 0 1
|  5>  C       -0.0391302093     1.5036196969     0.0874397180
|  6>  C       -0.0284968695     0.0105145162    -0.0261139591
|  7>  C        1.1216076107    -0.8343531336    -0.5569094684
|  8>  C        0.6224149569    -1.9188610089    -1.4850400912
|  9>  C       -0.7246407121    -2.1735533121    -0.8248946319
| 10>  O       -1.6456145707    -3.0692566517    -1.3534179351
| 11>  C       -0.6348833525    -1.9532801327     0.6812901649
| 12>  C        0.6010111480    -1.0481800804     0.8627924547
| 13>  C       -1.2698501707    -0.9024616420    -0.2192820931
| 14>  H        0.9538603950     1.8808342773     0.3545322605
| 15>  H       -0.3298133212     1.9759662241    -0.8591516123
| 16>  H       -0.7416903687     1.8442422845     0.8570205593
| 17>  H        2.0907454239    -0.3681032647    -0.6911853164
| 18>  H        0.5049627250    -1.5769076718    -2.5191613770
| 19>  H        1.2621350609    -2.8104264841    -1.4808457914
| 20>  H       -1.3213888815    -3.9617609902    -1.1897992332
| 21>  H       -1.1046289863    -2.5997439169     1.4099665321
| 22>  H        1.2027345842    -0.9316846271     1.7548437027
| 23>  H       -2.3057284221    -0.6021949526    -0.3006754135
| 24> *
| 25>
| 26>                          ****END OF INPUT****

CARTESIAN COORDINATES (ANGSTROEM)
---------------------------------
  C     -0.039130    1.503620    0.087440
  C     -0.028497    0.010515   -0.026114
  C      1.121608   -0.834353   -0.556909
  C      0.622415   -1.918861   -1.485040
  C     -0.724641   -2.173553   -0.824895
  O     -1.645615   -3.069257   -1.353418
  C     -0.634883   -1.953280    0.681290
  C      0.601011   -1.048180    0.862792
  C     -1.269850   -0.902462   -0.219282
  H      0.953860    1.880834    0.354532
  H     -0.329813    1.975966   -0.859152
  H     -0.741690    1.844242    0.857021
  H      2.090745   -0.368103   -0.691185
  H      0.504963   -1.576908   -2.519161
  H      1.262135   -2.810426   -1.480846
  H     -1.321389   -3.961761   -1.189799
  H     -1.104629   -2.599744    1.409967
  H      1.202735   -0.931685    1.754844
  H     -2.305728   -0.602195   -0.300675

 Total Charge           Charge          ....    0
 Multiplicity           Mult            ....    1
 Number of Electrons    NEL             ....   66
 Basis Dimension        Dim             ....  339

ORBITAL ENERGIES
----------------

  NO   OCC          E(Eh)            E(eV)
   0   2.0000     -20.564655      -559.5927
   1   2.0000     -11.283254      -307.0330
   2   2.0000     -11.235519      -305.7340
   3   2.0000     -11.228441      -305.5414
   4   2.0000     -11.227284      -305.5099
   5   2.0000     -11.226383      -305.4854
   6   2.0000     -11.223689      -305.4121
   7   2.0000     -11.219508      -305.2983
   8   2.0000     -11.219112      -305.2875
   9   2.0000      -1.375970       -37.4420
  10   2.0000      -1.236874       -33.6571
  11   2.0000      -1.047682       -28.5089
  12   2.0000      -1.001436       -27.2504
  13   2.0000      -0.956976       -26.0406
  14   2.0000      -0.849138       -23.1062
  15   2.0000      -0.780736       -21.2449
  16   2.0000      -0.762957       -20.7611
  17   2.0000      -0.726045       -19.7567
  18   2.0000      -0.684596       -18.6288
  19   2.0000      -0.639087       -17.3904
  20   2.0000      -0.604466       -16.4483
  21   2.0000      -0.601422       -16.3655
  22   2.0000      -0.582974       -15.8635
  23   2.0000      -0.570950       -15.5363
  24   2.0000      -0.557968       -15.1831
  25   2.0000      -0.553967       -15.0742
  26   2.0000      -0.526600       -14.3295
  27   2.0000      -0.482049       -13.1172
  28   2.0000      -0.463221       -12.6049
  29   2.0000      -0.429284       -11.6814
  30   2.0000      -0.391497       -10.6532
  31   2.0000      -0.377612       -10.2753
  32   2.0000      -0.328913        -8.9502
  33   0.0000       0.138859         3.7785
  34   0.0000       0.143866         3.9148
  35   0.0000       0.172896         4.7047
  36   0.0000       0.179054         4.8723
  37   0.0000       0.191540         5.2121

MULLIKEN ATOMIC CHARGES
-----------------------
   0 C :   -0.423683
   1 C :    0.112941
   2 C :   -0.244972
   3 C :   -0.113066
   4 C :    0.145161
   5 O :   -0.454821
   6 C :   -0.210543
   7 C :   -0.113976
   8 C :   -0.186933
   9 H :    0.131189
  10 H :    0.135057
  11 H :    0.135535
  12 H :    0.125095
  13 H :    0.113886
  14 H :    0.098952
  15 H :    0.326470
  16 H :    0.143412
  17 H :    0.137427
  18 H :    0.142869
Sum of atomic charges:    0.0000000

LOEWDIN ATOMIC CHARGES
----------------------
   0 C :   -0.274184
   1 C :   -0.175749
   2 C :   -0.152382
   3 C :   -0.195135
   4 C :   -0.319550
   5 O :    0.033546
   6 C :   -0.126770
   7 C :   -0.119232
   8 C :   -0.092178
   9 H :    0.130689
  10 H :    0.129029
  11 H :    0.128394
  12 H :    0.147510
  13 H :    0.144274
  14 H :    0.139029
  15 H :    0.184660
  16 H :    0.137866
  17 H :    0.136550
  18 H :    0.143632

  Mayer bond orders larger than 0.1
B(  0-C ,  1-C ) :   0.8526 B(  0-C ,  9-H ) :   0.9473 B(  0-C , 10-H ) :   0.9403
B(  0-C , 11-H ) :   0.9451 B(  1-C ,  2-C ) :   0.8550 B(  1-C ,  7-C ) :   0.8293
B(  1-C ,  8-C ) :   0.8782 B(  2-C ,  3-C ) :   0.9333 B(  2-C ,  7-C ) :   0.8533
B(  2-C , 12-H ) :   0.9261 B(  3-C ,  4-C ) :   0.9837 B(  3-C , 13-H ) :   0.9093
B(  3-C , 14-H ) :   0.9054 B(  4-C ,  5-O ) :   1.0513 B(  4-C ,  6-C ) :   0.8434
B(  4-C ,  8-C ) :   0.9012 B(  5-O , 15-H ) :   0.8372 B(  6-C ,  7-C ) :   0.8561
B(  6-C ,  8-C ) :   0.9169 B(  6-C , 16-H ) :   0.9269 B(  7-C , 17-H ) :   0.9136
B(  8-C , 18-H ) :   0.9276

MP2 TOTAL ENERGY:     -385.170017119 Eh
FINAL SINGLE POINT ENERGY      -385.170017118754

DIPOLE MOMENT
-------------
                                X             Y             Z
Electronic contribution:     -2.04147      -4.45181      -0.44858
Nuclear contribution   :      2.50763       4.33741       0.72025
                        -----------------------------------------
Total Dipole Moment    :      0.46616      -0.11440       0.27167
                        -----------------------------------------
Magnitude (a.u.)       :      0.55154
Magnitude (Debye)      :      1.40190

                             ****ORCA TERMINATED NORMALLY****
TOTAL RUN TIME: 0 days 0 hours 18 minutes 14 seconds 389 msec
