                         Program Version 3.0.3 - RELEASE   -
|  1> ! RI-MP2 RIJK def2-TZVP def2-TZVP/C def2-TZVP/JK TIGHTSCF
|  2> % maxcore 2000
|  3> % mp2 density relaxed end
|  4> *xyz 0 1
|  5>  N        0.0754821947     1.4777519261     0.0073820685
|  6>  C        0.0811671460     0.2020332028     0.0008792329
|  7>  N       -1.0971418690    -0.5582233039     0.0077835668
|  8>  C       -2.4168091368    -0.1260437368     0.0244213697
|  9>  O       -2.8076683741     1.0078106186     0.0355241577
| 10>  C        1.2660255623    -0.6109867172    -0.0140537886
| 11>  C        2.2873359484    -1.2643739985    -0.0267436598
| 12>  C        3.4341276605    -1.9916490095    -0.0409470795
| 13>  C        4.4518689318    -2.6413997642    -0.0535647855
| 14>  H        1.0334184926     1.8254270460     0.0005858440
| 15>  H       -0.9648965865    -1.5581511437     0.0004552175
| 16>  H       -3.0915747872    -1.0067989806     0.0252213803
| 17>  H        5.3489923573    -3.2103518191    -0.0646724041
| 18> *
| 19>
| 20>                          ****END OF INPUT****

CARTESIAN COORDINATES (ANGSTROEM)
---------------------------------
  N      0.075482    1.477752    0.007382
  C      0.081167    0.202033    0.000879
  N     -1.097142   -0.558223    0.007784
  C     -2.416809   -0.126044    0.024421
  O     -2.807668    1.007811    0.035524
  C      1.266026   -0.610987   -0.014054
  C      2.287336   -1.264374   -0.026744
  C      3.434128   -1.991649   -0.040947
  C      4.451869   -2.641400   -0.053565
  H      1.033418    1.825427    0.000586
  H     -0.964897   -1.558151    0.000455
  H     -3.091575   -1.006799    0.025221
  H      5.348992   -3.210352   -0.064672

 Total Charge           Charge          ....    0
 Multiplicity           Mult            ....    1
 Number of Electrons    NEL             ....   62
 Basis Dimension        Dim             ....  303

ORBITAL ENERGIES
----------------

  NO   OCC          E(Eh)            E(eV)
   0   2.0000     -20.545110      -559.0609
   1   2.0000     -15.623233      -425.1298
   2   2.0000     -15.563436      -423.5026
   3   2.0000     -11.368791      -309.3605
   4   2.0000     -11.366153      -309.2887
   5   2.0000     -11.295661      -307.3706
   6   2.0000     -11.284308      -307.0616
   7   2.0000     -11.283748      -307.0464
   8   2.0000     -11.279085      -306.9195
   9   2.0000      -1.405881       -38.2560
  10   2.0000      -1.300932       -35.4002
  11   2.0000      -1.198505       -32.6130
  12   2.0000      -1.117603       -30.4115
  13   2.0000      -1.049776       -28.5659
  14   2.0000      -0.951186       -25.8831
  15   2.0000      -0.871043       -23.7023
  16   2.0000      -0.797908       -21.7122
  17   2.0000      -0.792408       -21.5625
  18   2.0000      -0.736319       -20.0363
  19   2.0000      -0.700312       -19.0565
  20   2.0000      -0.669833       -18.2271
  21   2.0000      -0.621376       -16.9085
  22   2.0000      -0.616947       -16.7880
  23   2.0000      -0.537237       -14.6190
  24   2.0000      -0.522875       -14.2282
  25   2.0000      -0.494061       -13.4441
  26   2.0000      -0.482400       -13.1268
  27   2.0000      -0.431951       -11.7540
  28   2.0000      -0.411437       -11.1958
  29   2.0000      -0.387787       -10.5522
  30   2.0000      -0.372298       -10.1307
  31   0.0000       0.052876         1.4388
  32   0.0000       0.085493         2.3264
  33   0.0000       0.115688         3.1480
  34   0.0000       0.141217         3.8427
  35   0.0000       0.147201         4.0055

MULLIKEN ATOMIC CHARGES
-----------------------
   0 N :   -0.300343
   1 C :    0.085455
   2 N :   -0.301068
   3 C :    0.176445
   4 O :   -0.264983
   5 C :   -0.087416
   6 C :    0.055985
   7 C :   -0.020923
   8 C :   -0.115540
   9 H :    0.229073
  10 H :    0.254673
  11 H :    0.084424
  12 H :    0.204217
Sum of atomic charges:    0.0000000

LOEWDIN ATOMIC CHARGES
----------------------
   0 N :    0.006141
   1 C :   -0.350302
   2 N :    0.130453
   3 C :   -0.399484
   4 O :    0.130581
   5 C :    0.002673
   6 C :   -0.032075
   7 C :   -0.091490
   8 C :   -0.019316
   9 H :    0.174595
  10 H :    0.201732
  11 H :    0.112013
  12 H :    0.134479

  Mayer bond orders larger than 0.1
B(  0-N ,  1-C ) :   1.9935 B(  0-N ,  9-H ) :   0.8546 B(  1-C ,  2-N ) :   1.0507
B(  1-C ,  5-C ) :   0.9655 B(  2-N ,  3-C ) :   1.0194 B(  2-N , 10-H ) :   0.8722
B(  3-C ,  4-O ) :   1.9941 B(  3-C , 11-H ) :   0.9260 B(  5-C ,  6-C ) :   2.5699
B(  5-C ,  8-C ) :   0.1214 B(  6-C ,  7-C ) :   1.3031 B(  7-C ,  8-C ) :   2.5359
B(  8-C , 12-H ) :   0.8814

MP2 TOTAL ENERGY:     -414.838445291 Eh
FINAL SINGLE POINT ENERGY      -414.838445290774

DIPOLE MOMENT
-------------
                                X             Y             Z
Electronic contribution:      0.75757       0.22324      -0.00506
Nuclear contribution   :      0.48471      -2.04240      -0.01720
                        -----------------------------------------
Total Dipole Moment    :      1.24229      -1.81916      -0.02226
                        -----------------------------------------
Magnitude (a.u.)       :      2.20298
Magnitude (Debye)      :      5.59953

                             ****ORCA TERMINATED NORMALLY****
TOTAL RUN TIME: 0 days 0 hours 10 minutes 38 seconds 206 msec
