                         Program Version 3.0.3 - RELEASE   -
|  1> ! RI-MP2 RIJK def2-TZVP def2-TZVP/C def2-TZVP/JK TIGHTSCF
|  2> % maxcore 2000
|  3> % mp2 density relaxed end
|  4> *xyz 0 1
|  5>  C        0.0821578563     1.4505245417     0.0017036685
|  6>  N        0.2348719595     0.0090857440     0.0893432336
|  7>  C        0.6946254306    -0.6324924384    -0.8915787916
|  8>  O        1.1394908804     0.0030285535    -2.0445263451
|  9>  N        1.2197386552    -0.7506159876    -3.2790007246
| 10>  N        1.1637048100    -1.9715843125    -3.2130936205
| 11>  C        1.0630331225    -2.6313000489    -1.9390339015
| 12>  C        1.2439965984    -4.1086201157    -2.0199955709
| 13>  N        0.8223533393    -2.0189312452    -0.8484041373
| 14>  H        1.0163046029     1.9457667874     0.2969263685
| 15>  H       -0.1771145303     1.8056730035    -1.0026781030
| 16>  H       -0.6911035740     1.7631587972     0.7077494310
| 17>  H        2.2176593713    -4.3436048983    -2.4636126110
| 18>  H        1.1702756215    -4.5488130695    -1.0263900839
| 19>  H        0.4847245365    -4.5421723309    -2.6798620420
| 20> *
| 21>
| 22>                          ****END OF INPUT****

CARTESIAN COORDINATES (ANGSTROEM)
---------------------------------
  C      0.082158    1.450525    0.001704
  N      0.234872    0.009086    0.089343
  C      0.694625   -0.632492   -0.891579
  O      1.139491    0.003029   -2.044526
  N      1.219739   -0.750616   -3.279001
  N      1.163705   -1.971584   -3.213094
  C      1.063033   -2.631300   -1.939034
  C      1.243997   -4.108620   -2.019996
  N      0.822353   -2.018931   -0.848404
  H      1.016305    1.945767    0.296926
  H     -0.177115    1.805673   -1.002678
  H     -0.691104    1.763159    0.707749
  H      2.217659   -4.343605   -2.463613
  H      1.170276   -4.548813   -1.026390
  H      0.484725   -4.542172   -2.679862

 Total Charge           Charge          ....    0
 Multiplicity           Mult            ....    1
 Number of Electrons    NEL             ....   66
 Basis Dimension        Dim             ....  315

ORBITAL ENERGIES
----------------

  NO   OCC          E(Eh)            E(eV)
   0   2.0000     -20.653972      -562.0231
   1   2.0000     -15.754437      -428.7000
   2   2.0000     -15.668962      -426.3741
   3   2.0000     -15.605668      -424.6518
   4   2.0000     -15.554192      -423.2511
   5   2.0000     -11.377387      -309.5944
   6   2.0000     -11.367849      -309.3349
   7   2.0000     -11.260600      -306.4165
   8   2.0000     -11.247161      -306.0508
   9   2.0000      -1.519649       -41.3517
  10   2.0000      -1.368864       -37.2487
  11   2.0000      -1.301323       -35.4108
  12   2.0000      -1.211961       -32.9791
  13   2.0000      -1.066411       -29.0185
  14   2.0000      -0.976906       -26.5830
  15   2.0000      -0.953506       -25.9462
  16   2.0000      -0.859591       -23.3907
  17   2.0000      -0.805352       -21.9147
  18   2.0000      -0.716856       -19.5066
  19   2.0000      -0.699209       -19.0264
  20   2.0000      -0.657916       -17.9028
  21   2.0000      -0.636796       -17.3281
  22   2.0000      -0.617080       -16.7916
  23   2.0000      -0.605863       -16.4864
  24   2.0000      -0.590885       -16.0788
  25   2.0000      -0.577931       -15.7263
  26   2.0000      -0.560233       -15.2447
  27   2.0000      -0.532679       -14.4949
  28   2.0000      -0.512343       -13.9416
  29   2.0000      -0.509979       -13.8772
  30   2.0000      -0.455450       -12.3934
  31   2.0000      -0.416750       -11.3403
  32   2.0000      -0.374498       -10.1906
  33   0.0000       0.037837         1.0296
  34   0.0000       0.128897         3.5075
  35   0.0000       0.131782         3.5860
  36   0.0000       0.157182         4.2771
  37   0.0000       0.193698         5.2708

MULLIKEN ATOMIC CHARGES
-----------------------
   0 C :   -0.283137
   1 N :   -0.211193
   2 C :    0.216955
   3 O :   -0.178757
   4 N :    0.026769
   5 N :   -0.071317
   6 C :    0.153916
   7 C :   -0.387808
   8 N :   -0.166772
   9 H :    0.142248
  10 H :    0.132290
  11 H :    0.145144
  12 H :    0.156711
  13 H :    0.166816
  14 H :    0.158135
Sum of atomic charges:   -0.0000000

LOEWDIN ATOMIC CHARGES
----------------------
   0 C :   -0.329479
   1 N :    0.098531
   2 C :   -0.459857
   3 O :    0.168222
   4 N :    0.036474
   5 N :    0.065751
   6 C :   -0.310497
   7 C :   -0.257410
   8 N :    0.204381
   9 H :    0.122833
  10 H :    0.112494
  11 H :    0.118137
  12 H :    0.143919
  13 H :    0.141664
  14 H :    0.144837

  Mayer bond orders larger than 0.1
B(  0-C ,  1-N ) :   0.8724 B(  0-C ,  9-H ) :   0.9265 B(  0-C , 10-H ) :   0.9257
B(  0-C , 11-H ) :   0.9395 B(  1-N ,  2-C ) :   1.9156 B(  2-C ,  3-O ) :   1.0096
B(  2-C ,  8-N ) :   1.0624 B(  3-O ,  4-N ) :   0.7884 B(  4-N ,  5-N ) :   1.6045
B(  5-N ,  6-C ) :   0.9638 B(  6-C ,  7-C ) :   0.9184 B(  6-C ,  8-N ) :   1.7538
B(  7-C , 12-H ) :   0.9169 B(  7-C , 13-H ) :   0.9434 B(  7-C , 14-H ) :   0.9142

MP2 TOTAL ENERGY:     -449.320576130 Eh
FINAL SINGLE POINT ENERGY      -449.320576129872

DIPOLE MOMENT
-------------
                                X             Y             Z
Electronic contribution:      1.16988       0.33582      -3.39573
Nuclear contribution   :     -1.02220      -0.92679       3.07141
                        -----------------------------------------
Total Dipole Moment    :      0.14767      -0.59097      -0.32432
                        -----------------------------------------
Magnitude (a.u.)       :      0.69010
Magnitude (Debye)      :      1.75410

                             ****ORCA TERMINATED NORMALLY****
TOTAL RUN TIME: 0 days 0 hours 15 minutes 31 seconds 274 msec
