                         Program Version 3.0.3 - RELEASE   -
|  1> ! RI-MP2 RIJK def2-TZVP def2-TZVP/C def2-TZVP/JK TIGHTSCF
|  2> % maxcore 2000
|  3> % mp2 density relaxed end
|  4> *xyz 0 1
|  5>  C        0.0240943398     1.5378200902    -0.0092897061
|  6>  C        0.0189137168     0.0224278685     0.0169356703
|  7>  C        1.3476463512    -0.6921552452    -0.2006308868
|  8>  C        0.7063631950    -0.6883851250     1.1610587630
|  9>  O        1.2525775869     0.1171584902     2.1719272524
| 10>  C        0.0893126892    -1.9718249810     1.6929836791
| 11>  O       -0.7015154964    -2.6359971898     0.7280685152
| 12>  C       -1.7533123342    -1.7974018689     0.2736839131
| 13>  C       -1.2317527214    -0.6373812147    -0.5795585300
| 14>  H        0.9273424297     1.9407165255     0.4521048070
| 15>  H       -0.0339424638     1.9040838364    -1.0410140533
| 16>  H       -0.8363592253     1.9425546435     0.5360923203
| 17>  H        1.3412115331    -1.6220355407    -0.7611626781
| 18>  H        2.2280717229    -0.0719778752    -0.3359039350
| 19>  H        2.1106917642    -0.2496497823     2.4114815940
| 20>  H        0.8692499267    -2.6809373483     1.9962184138
| 21>  H       -0.5099212604    -1.7219108675     2.5848839485
| 22>  H       -2.4313045031    -2.4348093979    -0.3012729172
| 23>  H       -2.3109555877    -1.4078858198     1.1416274081
| 24>  H       -2.0299017804     0.1075119567    -0.6772376626
| 25>  H       -1.0109181028    -0.9935651049    -1.5926225356
| 26> *
| 27>
| 28>                          ****END OF INPUT****

CARTESIAN COORDINATES (ANGSTROEM)
---------------------------------
  C      0.024094    1.537820   -0.009290
  C      0.018914    0.022428    0.016936
  C      1.347646   -0.692155   -0.200631
  C      0.706363   -0.688385    1.161059
  O      1.252578    0.117158    2.171927
  C      0.089313   -1.971825    1.692984
  O     -0.701515   -2.635997    0.728069
  C     -1.753312   -1.797402    0.273684
  C     -1.231753   -0.637381   -0.579559
  H      0.927342    1.940717    0.452105
  H     -0.033942    1.904084   -1.041014
  H     -0.836359    1.942555    0.536092
  H      1.341212   -1.622036   -0.761163
  H      2.228072   -0.071978   -0.335904
  H      2.110692   -0.249650    2.411482
  H      0.869250   -2.680937    1.996218
  H     -0.509921   -1.721911    2.584884
  H     -2.431305   -2.434809   -0.301273
  H     -2.310956   -1.407886    1.141627
  H     -2.029902    0.107512   -0.677238
  H     -1.010918   -0.993565   -1.592623

 Total Charge           Charge          ....    0
 Multiplicity           Mult            ....    1
 Number of Electrons    NEL             ....   70
 Basis Dimension        Dim             ....  351

ORBITAL ENERGIES
----------------

  NO   OCC          E(Eh)            E(eV)
   0   2.0000     -20.565736      -559.6221
   1   2.0000     -20.555348      -559.3395
   2   2.0000     -11.283784      -307.0474
   3   2.0000     -11.274270      -306.7885
   4   2.0000     -11.273226      -306.7601
   5   2.0000     -11.238160      -305.8059
   6   2.0000     -11.223821      -305.4157
   7   2.0000     -11.218112      -305.2604
   8   2.0000     -11.212429      -305.1057
   9   2.0000      -1.384352       -37.6701
  10   2.0000      -1.369694       -37.2713
  11   2.0000      -1.145837       -31.1798
  12   2.0000      -1.031207       -28.0606
  13   2.0000      -0.959064       -26.0974
  14   2.0000      -0.935446       -25.4548
  15   2.0000      -0.850000       -23.1297
  16   2.0000      -0.801930       -21.8216
  17   2.0000      -0.728551       -19.8249
  18   2.0000      -0.698397       -19.0043
  19   2.0000      -0.667050       -18.1514
  20   2.0000      -0.658100       -17.9078
  21   2.0000      -0.628964       -17.1150
  22   2.0000      -0.613158       -16.6849
  23   2.0000      -0.589018       -16.0280
  24   2.0000      -0.571525       -15.5520
  25   2.0000      -0.555179       -15.1072
  26   2.0000      -0.538599       -14.6560
  27   2.0000      -0.532006       -14.4766
  28   2.0000      -0.521245       -14.1838
  29   2.0000      -0.507520       -13.8103
  30   2.0000      -0.485671       -13.2158
  31   2.0000      -0.456041       -12.4095
  32   2.0000      -0.433461       -11.7951
  33   2.0000      -0.389224       -10.5913
  34   2.0000      -0.375808       -10.2262
  35   0.0000       0.133187         3.6242
  36   0.0000       0.146036         3.9739
  37   0.0000       0.167900         4.5688
  38   0.0000       0.179053         4.8723
  39   0.0000       0.189948         5.1688

MULLIKEN ATOMIC CHARGES
-----------------------
   0 C :   -0.421899
   1 C :    0.134614
   2 C :   -0.401617
   3 C :    0.128387
   4 O :   -0.466752
   5 C :   -0.028095
   6 O :   -0.319266
   7 C :   -0.096650
   8 C :   -0.207796
   9 H :    0.144320
  10 H :    0.133018
  11 H :    0.128298
  12 H :    0.135071
  13 H :    0.139818
  14 H :    0.324822
  15 H :    0.108969
  16 H :    0.100563
  17 H :    0.123294
  18 H :    0.104311
  19 H :    0.118008
  20 H :    0.118581
Sum of atomic charges:   -0.0000000

LOEWDIN ATOMIC CHARGES
----------------------
   0 C :   -0.266330
   1 C :   -0.225156
   2 C :   -0.179422
   3 C :   -0.340749
   4 O :    0.028814
   5 C :   -0.289085
   6 O :    0.157779
   7 C :   -0.308126
   8 C :   -0.220780
   9 H :    0.130934
  10 H :    0.127079
  11 H :    0.127434
  12 H :    0.139825
  13 H :    0.137417
  14 H :    0.182484
  15 H :    0.130868
  16 H :    0.127231
  17 H :    0.128876
  18 H :    0.122295
  19 H :    0.146400
  20 H :    0.142213

  Mayer bond orders larger than 0.1
B(  0-C ,  1-C ) :   0.8996 B(  0-C ,  9-H ) :   0.9299 B(  0-C , 10-H ) :   0.9391
B(  0-C , 11-H ) :   0.9371 B(  1-C ,  2-C ) :   0.8573 B(  1-C ,  3-C ) :   0.8462
B(  1-C ,  8-C ) :   0.8712 B(  2-C ,  3-C ) :   0.9167 B(  2-C , 12-H ) :   0.9011
B(  2-C , 13-H ) :   0.9285 B(  3-C ,  4-O ) :   1.0325 B(  3-C ,  5-C ) :   0.9365
B(  4-O , 14-H ) :   0.8372 B(  5-C ,  6-O ) :   0.9271 B(  5-C , 15-H ) :   0.9144
B(  5-C , 16-H ) :   0.9370 B(  6-O ,  7-C ) :   0.9280 B(  7-C ,  8-C ) :   0.9604
B(  7-C , 17-H ) :   0.9310 B(  7-C , 18-H ) :   0.9469 B(  8-C , 19-H ) :   0.9268
B(  8-C , 20-H ) :   0.9163

MP2 TOTAL ENERGY:     -423.517337134 Eh
FINAL SINGLE POINT ENERGY      -423.517337133602

DIPOLE MOMENT
-------------
                                X             Y             Z
Electronic contribution:      1.55060      -3.36541       2.68060
Nuclear contribution   :     -1.35613       3.49132      -2.78585
                        -----------------------------------------
Total Dipole Moment    :      0.19447       0.12592      -0.10525
                        -----------------------------------------
Magnitude (a.u.)       :      0.25446
Magnitude (Debye)      :      0.64679

                             ****ORCA TERMINATED NORMALLY****
TOTAL RUN TIME: 0 days 0 hours 24 minutes 47 seconds 491 msec
