                         Program Version 3.0.3 - RELEASE   -
|  1> ! RI-MP2 RIJK def2-TZVP def2-TZVP/C def2-TZVP/JK TIGHTSCF
|  2> % maxcore 2000
|  3> % mp2 density relaxed end
|  4> *xyz 0 1
|  5>  C       -0.1285300315     1.2876511474     0.2108377945
|  6>  O        0.0042712985    -0.1157570778     0.0534141532
|  7>  C        0.6469528820    -0.5755174423    -1.1408964996
|  8>  C        0.0594804010     0.0117270756    -2.4210556935
|  9>  C        2.1366656427    -0.2164434431    -0.9941255914
| 10>  O        2.7262971665     0.5825830600    -1.6725819128
| 11>  C        0.5433704138    -2.1184433982    -1.0544219456
| 12>  C       -0.8787169799    -2.6524091784    -1.1778140716
| 13>  O        1.4400937866    -2.7173594117    -1.9831730328
| 14>  H        0.8295269830     1.8136661556     0.1055317821
| 15>  H       -0.8417335513     1.7176225450    -0.5036731546
| 16>  H       -0.5079820094     1.4461946151     1.2229035904
| 17>  H        0.3539890248     1.0550940005    -2.5457401084
| 18>  H        0.4460131248    -0.5249338619    -3.2926085196
| 19>  H       -1.0308089843    -0.0598073379    -2.4183563879
| 20>  H        2.6238950816    -0.7227536587    -0.1313153644
| 21>  H        0.9366996248    -2.3905161966    -0.0679323051
| 22>  H       -0.8880434504    -3.7308069286    -0.9987185771
| 23>  H       -1.5308998699    -2.1651291280    -0.4491103120
| 24>  H       -1.2884071846    -2.4709300101    -2.1783445372
| 25>  H        1.0419406914    -2.6762269258    -2.8591631766
| 26> *
| 27>
| 28>                          ****END OF INPUT****

CARTESIAN COORDINATES (ANGSTROEM)
---------------------------------
  C     -0.128530    1.287651    0.210838
  O      0.004271   -0.115757    0.053414
  C      0.646953   -0.575517   -1.140896
  C      0.059480    0.011727   -2.421056
  C      2.136666   -0.216443   -0.994126
  O      2.726297    0.582583   -1.672582
  C      0.543370   -2.118443   -1.054422
  C     -0.878717   -2.652409   -1.177814
  O      1.440094   -2.717359   -1.983173
  H      0.829527    1.813666    0.105532
  H     -0.841734    1.717623   -0.503673
  H     -0.507982    1.446195    1.222904
  H      0.353989    1.055094   -2.545740
  H      0.446013   -0.524934   -3.292609
  H     -1.030809   -0.059807   -2.418356
  H      2.623895   -0.722754   -0.131315
  H      0.936700   -2.390516   -0.067932
  H     -0.888043   -3.730807   -0.998719
  H     -1.530900   -2.165129   -0.449110
  H     -1.288407   -2.470930   -2.178345
  H      1.041941   -2.676227   -2.859163

 Total Charge           Charge          ....    0
 Multiplicity           Mult            ....    1
 Number of Electrons    NEL             ....   72
 Basis Dimension        Dim             ....  351

ORBITAL ENERGIES
----------------

  NO   OCC          E(Eh)            E(eV)
   0   2.0000     -20.573857      -559.8431
   1   2.0000     -20.568586      -559.6997
   2   2.0000     -20.560446      -559.4782
   3   2.0000     -11.329407      -308.2888
   4   2.0000     -11.303389      -307.5809
   5   2.0000     -11.293595      -307.3143
   6   2.0000     -11.280772      -306.9654
   7   2.0000     -11.228884      -305.5535
   8   2.0000     -11.226293      -305.4830
   9   2.0000      -1.406609       -38.2758
  10   2.0000      -1.386231       -37.7213
  11   2.0000      -1.373191       -37.3664
  12   2.0000      -1.078262       -29.3410
  13   2.0000      -1.000916       -27.2363
  14   2.0000      -0.954852       -25.9828
  15   2.0000      -0.906235       -24.6599
  16   2.0000      -0.840026       -22.8583
  17   2.0000      -0.764914       -20.8144
  18   2.0000      -0.708861       -19.2891
  19   2.0000      -0.690244       -18.7825
  20   2.0000      -0.668537       -18.1918
  21   2.0000      -0.651099       -17.7173
  22   2.0000      -0.644517       -17.5382
  23   2.0000      -0.619571       -16.8594
  24   2.0000      -0.593317       -16.1450
  25   2.0000      -0.579331       -15.7644
  26   2.0000      -0.564256       -15.3542
  27   2.0000      -0.552951       -15.0466
  28   2.0000      -0.543007       -14.7760
  29   2.0000      -0.530495       -14.4355
  30   2.0000      -0.519991       -14.1497
  31   2.0000      -0.499755       -13.5990
  32   2.0000      -0.485470       -13.2103
  33   2.0000      -0.470580       -12.8051
  34   2.0000      -0.445682       -12.1276
  35   2.0000      -0.402351       -10.9485
  36   0.0000       0.123878         3.3709
  37   0.0000       0.135265         3.6807
  38   0.0000       0.156942         4.2706
  39   0.0000       0.163884         4.4595
  40   0.0000       0.173276         4.7151

MULLIKEN ATOMIC CHARGES
-----------------------
   0 C :   -0.247449
   1 O :   -0.313243
   2 C :    0.254739
   3 C :   -0.496337
   4 C :    0.074786
   5 O :   -0.255980
   6 C :    0.094412
   7 C :   -0.433716
   8 O :   -0.465861
   9 H :    0.130584
  10 H :    0.128112
  11 H :    0.146888
  12 H :    0.167788
  13 H :    0.121371
  14 H :    0.156821
  15 H :    0.086187
  16 H :    0.106332
  17 H :    0.151962
  18 H :    0.153215
  19 H :    0.123501
  20 H :    0.315890
Sum of atomic charges:    0.0000000

LOEWDIN ATOMIC CHARGES
----------------------
   0 C :   -0.344631
   1 O :    0.180457
   2 C :   -0.378302
   3 C :   -0.273883
   4 C :   -0.254304
   5 O :    0.145922
   6 C :   -0.335703
   7 C :   -0.298151
   8 O :   -0.004140
   9 H :    0.109146
  10 H :    0.105783
  11 H :    0.116072
  12 H :    0.135950
  13 H :    0.131167
  14 H :    0.131221
  15 H :    0.120385
  16 H :    0.153304
  17 H :    0.128629
  18 H :    0.134635
  19 H :    0.122066
  20 H :    0.174376

  Mayer bond orders larger than 0.1
B(  0-C ,  1-O ) :   0.8963 B(  0-C ,  9-H ) :   0.9272 B(  0-C , 10-H ) :   0.9374
B(  0-C , 11-H ) :   0.9390 B(  1-O ,  2-C ) :   0.9513 B(  2-C ,  3-C ) :   0.8694
B(  2-C ,  4-C ) :   0.8220 B(  2-C ,  6-C ) :   0.8745 B(  3-C , 12-H ) :   0.9214
B(  3-C , 13-H ) :   0.9238 B(  3-C , 14-H ) :   0.9441 B(  4-C ,  5-O ) :   1.9941
B(  4-C , 15-H ) :   0.9476 B(  6-C ,  7-C ) :   0.9397 B(  6-C ,  8-O ) :   0.8992
B(  6-C , 16-H ) :   0.9169 B(  7-C , 17-H ) :   0.9402 B(  7-C , 18-H ) :   0.9330
B(  7-C , 19-H ) :   0.9224 B(  8-O , 20-H ) :   0.8403

MP2 TOTAL ENERGY:     -460.627990510 Eh
FINAL SINGLE POINT ENERGY      -460.627990510110

DIPOLE MOMENT
-------------
                                X             Y             Z
Electronic contribution:      6.88182       0.00427       0.39067
Nuclear contribution   :     -7.96599       0.00605      -0.39478
                        -----------------------------------------
Total Dipole Moment    :     -1.08416       0.01031      -0.00411
                        -----------------------------------------
Magnitude (a.u.)       :      1.08422
Magnitude (Debye)      :      2.75587

                             ****ORCA TERMINATED NORMALLY****
TOTAL RUN TIME: 0 days 0 hours 21 minutes 13 seconds 928 msec
