                         Program Version 3.0.3 - RELEASE   -
|  1> ! RI-MP2 RIJK def2-TZVP def2-TZVP/C def2-TZVP/JK TIGHTSCF
|  2> % maxcore 2000
|  3> % mp2 density relaxed end
|  4> *xyz 0 1
|  5>  C       -0.1885306924     1.4870669888     0.0273420524
|  6>  C        0.0100812396    -0.0241533065    -0.0589168382
|  7>  C        0.9483652711    -0.4019669962    -1.1937941556
|  8>  O        1.1710749603    -1.8158585021    -1.2437931328
|  9>  C        1.4148145710    -2.4858397859    -0.0853430511
| 10>  N        1.8300999353    -3.6816075866    -0.0835390300
| 11>  C        1.1276673010    -1.8056740370     1.2375104853
| 12>  N        1.3482697557    -2.3555982423     2.3654079298
| 13>  N        0.6214370150    -0.5256540659     1.1593472350
| 14>  H        0.7675762081     1.9967704754     0.1806773888
| 15>  H       -0.6506802993     1.8688814907    -0.8875693013
| 16>  H       -0.8478436408     1.7410311478     0.8633566137
| 17>  H       -0.9657756672    -0.5029360689    -0.2493916826
| 18>  H        0.5242012075    -0.1395341798    -2.1653742479
| 19>  H        1.9087425504     0.1153104911    -1.0700148280
| 20>  H        1.9758431273    -4.0117819256    -1.0384484375
| 21>  H        1.7555119719    -3.2769274085     2.2026925714
| 22>  H        0.2690491056    -0.1819800684     2.0421982684
| 23> *
| 24>
| 25>                          ****END OF INPUT****

CARTESIAN COORDINATES (ANGSTROEM)
---------------------------------
  C     -0.188531    1.487067    0.027342
  C      0.010081   -0.024153   -0.058917
  C      0.948365   -0.401967   -1.193794
  O      1.171075   -1.815859   -1.243793
  C      1.414815   -2.485840   -0.085343
  N      1.830100   -3.681608   -0.083539
  C      1.127667   -1.805674    1.237510
  N      1.348270   -2.355598    2.365408
  N      0.621437   -0.525654    1.159347
  H      0.767576    1.996770    0.180677
  H     -0.650680    1.868881   -0.887569
  H     -0.847844    1.741031    0.863357
  H     -0.965776   -0.502936   -0.249392
  H      0.524201   -0.139534   -2.165374
  H      1.908743    0.115310   -1.070015
  H      1.975843   -4.011782   -1.038448
  H      1.755512   -3.276927    2.202693
  H      0.269049   -0.181980    2.042198

 Total Charge           Charge          ....    0
 Multiplicity           Mult            ....    1
 Number of Electrons    NEL             ....   68
 Basis Dimension        Dim             ....  333

ORBITAL ENERGIES
----------------

  NO   OCC          E(Eh)            E(eV)
   0   2.0000     -20.609022      -560.8000
   1   2.0000     -15.580919      -423.9784
   2   2.0000     -15.550059      -423.1386
   3   2.0000     -15.527384      -422.5216
   4   2.0000     -11.354955      -308.9840
   5   2.0000     -11.323777      -308.1356
   6   2.0000     -11.308597      -307.7226
   7   2.0000     -11.292218      -307.2769
   8   2.0000     -11.244588      -305.9808
   9   2.0000      -1.444044       -39.2944
  10   2.0000      -1.282451       -34.8973
  11   2.0000      -1.221514       -33.2391
  12   2.0000      -1.160755       -31.5858
  13   2.0000      -1.058831       -28.8123
  14   2.0000      -0.963726       -26.2243
  15   2.0000      -0.903413       -24.5831
  16   2.0000      -0.854378       -23.2488
  17   2.0000      -0.753434       -20.5020
  18   2.0000      -0.738884       -20.1061
  19   2.0000      -0.718495       -19.5513
  20   2.0000      -0.660252       -17.9664
  21   2.0000      -0.648114       -17.6361
  22   2.0000      -0.635077       -17.2813
  23   2.0000      -0.616727       -16.7820
  24   2.0000      -0.595724       -16.2105
  25   2.0000      -0.565567       -15.3899
  26   2.0000      -0.552541       -15.0354
  27   2.0000      -0.546414       -14.8687
  28   2.0000      -0.509516       -13.8646
  29   2.0000      -0.481911       -13.1135
  30   2.0000      -0.458589       -12.4788
  31   2.0000      -0.428355       -11.6561
  32   2.0000      -0.415731       -11.3126
  33   2.0000      -0.355151        -9.6642
  34   0.0000       0.105247         2.8639
  35   0.0000       0.121684         3.3112
  36   0.0000       0.155206         4.2234
  37   0.0000       0.162325         4.4171
  38   0.0000       0.171855         4.6764

MULLIKEN ATOMIC CHARGES
-----------------------
   0 C :   -0.418978
   1 C :    0.041276
   2 C :   -0.054731
   3 O :   -0.255353
   4 C :    0.163581
   5 N :   -0.391369
   6 C :    0.124578
   7 N :   -0.366343
   8 N :   -0.321106
   9 H :    0.142459
  10 H :    0.137529
  11 H :    0.144401
  12 H :    0.101837
  13 H :    0.131207
  14 H :    0.115737
  15 H :    0.225430
  16 H :    0.245084
  17 H :    0.234761
Sum of atomic charges:   -0.0000000

LOEWDIN ATOMIC CHARGES
----------------------
   0 C :   -0.285151
   1 C :   -0.323857
   2 C :   -0.261376
   3 O :    0.242324
   4 C :   -0.375177
   5 N :   -0.040722
   6 C :   -0.363461
   7 N :   -0.049884
   8 N :    0.115730
   9 H :    0.129365
  10 H :    0.130350
  11 H :    0.128791
  12 H :    0.145974
  13 H :    0.137272
  14 H :    0.133689
  15 H :    0.169942
  16 H :    0.173926
  17 H :    0.192266

  Mayer bond orders larger than 0.1
B(  0-C ,  1-C ) :   0.9069 B(  0-C ,  9-H ) :   0.9305 B(  0-C , 10-H ) :   0.9354
B(  0-C , 11-H ) :   0.9352 B(  1-C ,  2-C ) :   0.9335 B(  1-C ,  8-N ) :   0.8516
B(  1-C , 12-H ) :   0.9217 B(  2-C ,  3-O ) :   0.8726 B(  2-C , 13-H ) :   0.9269
B(  2-C , 14-H ) :   0.9216 B(  3-O ,  4-C ) :   1.0804 B(  4-C ,  5-N ) :   1.9692
B(  4-C ,  6-C ) :   0.9118 B(  5-N , 15-H ) :   0.8558 B(  6-C ,  7-N ) :   1.9488
B(  6-C ,  8-N ) :   1.1363 B(  7-N , 16-H ) :   0.8554 B(  8-N , 17-H ) :   0.8612

MP2 TOTAL ENERGY:     -434.567862524 Eh
FINAL SINGLE POINT ENERGY      -434.567862524177

DIPOLE MOMENT
-------------
                                X             Y             Z
Electronic contribution:      2.65850      -7.13045       0.79368
Nuclear contribution   :     -3.28450       8.50437      -1.93342
                        -----------------------------------------
Total Dipole Moment    :     -0.62600       1.37392      -1.13974
                        -----------------------------------------
Magnitude (a.u.)       :      1.89170
Magnitude (Debye)      :      4.80833

                             ****ORCA TERMINATED NORMALLY****
TOTAL RUN TIME: 0 days 0 hours 17 minutes 5 seconds 154 msec
