                         Program Version 3.0.3 - RELEASE   -
|  1> ! RI-MP2 RIJK def2-TZVP def2-TZVP/C def2-TZVP/JK TIGHTSCF
|  2> % maxcore 2000
|  3> % mp2 density relaxed end
|  4> *xyz 0 1
|  5>  O       -0.0639809530     1.3422234516     0.0098289431
|  6>  C        1.2293361407     1.7932128258     0.0001457237
|  7>  C        2.1406328956     0.7903967085    -0.0141874027
|  8>  C        1.3676344670    -0.4238502345    -0.0136391805
|  9>  C        0.0238695074    -0.0156317857     0.0013658754
| 10>  C       -0.9766866114    -0.9663521465     0.0054995335
| 11>  N       -0.6305288186    -2.2562229565    -0.0050160263
| 12>  C        0.6794870404    -2.5532939832    -0.0190879342
| 13>  N        1.7167588521    -1.7162666951    -0.0242036998
| 14>  H        1.3313788043     2.8669077409     0.0052272172
| 15>  H        3.2138039359     0.8892915393    -0.0238316487
| 16>  H       -2.0340401274    -0.7158259441     0.0169218663
| 17>  H        0.9198889270    -3.6131824805    -0.0273108669
| 18> *
| 19>
| 20>                          ****END OF INPUT****

CARTESIAN COORDINATES (ANGSTROEM)
---------------------------------
  O     -0.063981    1.342223    0.009829
  C      1.229336    1.793213    0.000146
  C      2.140633    0.790397   -0.014187
  C      1.367634   -0.423850   -0.013639
  C      0.023870   -0.015632    0.001366
  C     -0.976687   -0.966352    0.005500
  N     -0.630529   -2.256223   -0.005016
  C      0.679487   -2.553294   -0.019088
  N      1.716759   -1.716267   -0.024204
  H      1.331379    2.866908    0.005227
  H      3.213804    0.889292   -0.023832
  H     -2.034040   -0.715826    0.016922
  H      0.919889   -3.613182   -0.027311

 Total Charge           Charge          ....    0
 Multiplicity           Mult            ....    1
 Number of Electrons    NEL             ....   62
 Basis Dimension        Dim             ....  303

ORBITAL ENERGIES
----------------

  NO   OCC          E(Eh)            E(eV)
   0   2.0000     -20.644296      -561.7599
   1   2.0000     -15.575635      -423.8346
   2   2.0000     -15.573070      -423.7648
   3   2.0000     -11.331046      -308.3334
   4   2.0000     -11.309497      -307.7471
   5   2.0000     -11.305576      -307.6404
   6   2.0000     -11.302707      -307.5623
   7   2.0000     -11.299136      -307.4651
   8   2.0000     -11.252869      -306.2061
   9   2.0000      -1.483539       -40.3691
  10   2.0000      -1.309616       -35.6365
  11   2.0000      -1.201349       -32.6904
  12   2.0000      -1.097423       -29.8624
  13   2.0000      -1.059169       -28.8215
  14   2.0000      -0.916119       -24.9289
  15   2.0000      -0.873211       -23.7613
  16   2.0000      -0.830351       -22.5950
  17   2.0000      -0.759797       -20.6751
  18   2.0000      -0.718510       -19.5516
  19   2.0000      -0.685390       -18.6504
  20   2.0000      -0.670218       -18.2376
  21   2.0000      -0.645524       -17.5656
  22   2.0000      -0.598886       -16.2965
  23   2.0000      -0.596848       -16.2411
  24   2.0000      -0.567103       -15.4317
  25   2.0000      -0.563841       -15.3429
  26   2.0000      -0.479555       -13.0494
  27   2.0000      -0.456581       -12.4242
  28   2.0000      -0.416288       -11.3278
  29   2.0000      -0.372979       -10.1493
  30   2.0000      -0.349578        -9.5125
  31   0.0000       0.071526         1.9463
  32   0.0000       0.124325         3.3830
  33   0.0000       0.160870         4.3775
  34   0.0000       0.164191         4.4679
  35   0.0000       0.173405         4.7186

MULLIKEN ATOMIC CHARGES
-----------------------
   0 O :   -0.223293
   1 C :    0.066835
   2 C :   -0.281917
   3 C :    0.135897
   4 C :    0.168222
   5 C :   -0.080910
   6 N :   -0.237777
   7 C :    0.074995
   8 N :   -0.222056
   9 H :    0.161045
  10 H :    0.153622
  11 H :    0.148658
  12 H :    0.136679
Sum of atomic charges:   -0.0000000

LOEWDIN ATOMIC CHARGES
----------------------
   0 O :    0.347946
   1 C :   -0.199214
   2 C :   -0.131572
   3 C :   -0.206882
   4 C :   -0.203182
   5 C :   -0.171665
   6 N :    0.127046
   7 C :   -0.290501
   8 N :    0.154937
   9 H :    0.138688
  10 H :    0.152762
  11 H :    0.146396
  12 H :    0.135241

  Mayer bond orders larger than 0.1
B(  0-O ,  1-C ) :   1.0077 B(  0-O ,  4-C ) :   1.0457 B(  1-C ,  2-C ) :   1.5885
B(  1-C ,  9-H ) :   0.9298 B(  2-C ,  3-C ) :   1.1761 B(  2-C , 10-H ) :   0.9137
B(  3-C ,  4-C ) :   1.1610 B(  3-C ,  8-N ) :   1.3736 B(  4-C ,  5-C ) :   1.2635
B(  5-C ,  6-N ) :   1.4300 B(  5-C , 11-H ) :   0.9548 B(  6-N ,  7-C ) :   1.3312
B(  7-C ,  8-N ) :   1.4119 B(  7-C , 12-H ) :   0.9372

MP2 TOTAL ENERGY:     -414.955530579 Eh
FINAL SINGLE POINT ENERGY      -414.955530578552

DIPOLE MOMENT
-------------
                                X             Y             Z
Electronic contribution:     -0.87539       0.02356       0.00844
Nuclear contribution   :      0.98190       1.07337      -0.00329
                        -----------------------------------------
Total Dipole Moment    :      0.10651       1.09693       0.00515
                        -----------------------------------------
Magnitude (a.u.)       :      1.10210
Magnitude (Debye)      :      2.80131

                             ****ORCA TERMINATED NORMALLY****
TOTAL RUN TIME: 0 days 0 hours 15 minutes 43 seconds 122 msec
