                         Program Version 3.0.3 - RELEASE   -
|  1> ! RI-MP2 RIJK def2-TZVP def2-TZVP/C def2-TZVP/JK TIGHTSCF
|  2> % maxcore 2000
|  3> % mp2 density relaxed end
|  4> *xyz 0 1
|  5>  C        0.1354918508     1.5135371069    -0.0242141499
|  6>  C       -0.0399150923    -0.0118972105    -0.0458236960
|  7>  C       -1.5199594715    -0.4110221690     0.0500546437
|  8>  C       -2.1609584703    -0.1668954183     1.4116729573
|  9>  C       -3.6741062055    -0.2914537441     1.4691504474
| 10>  O       -1.5079165844     0.0958767242     2.3965120578
| 11>  C        0.6037721917    -0.6236292815    -1.2772414066
| 12>  C        2.0815636975    -0.9150553179    -1.2989487894
| 13>  C        1.0875152642    -2.0519278546    -1.2613382424
| 14>  H        1.1951216532     1.7820363648    -0.0716619287
| 15>  H       -0.3623690946     1.9778798523    -0.8846356576
| 16>  H       -0.2839126867     1.9433834453     0.8887637038
| 17>  H        0.4598282425    -0.4211294988     0.8409357985
| 18>  H       -2.1185247209     0.0927204291    -0.7219198398
| 19>  H       -1.6336811762    -1.4854862280    -0.1571994856
| 20>  H       -4.0118552889    -1.2148557371     0.9866764852
| 21>  H       -4.0116925938    -0.2639742990     2.5059105719
| 22>  H       -4.1316307118     0.5392696246     0.9186466601
| 23>  H        0.1783203530    -0.2807737632    -2.2190139772
| 24>  H        2.6343629806    -0.7424706481    -2.2157703739
| 25>  H        2.6472299495    -0.7127070150    -0.3950109632
| 26>  H        0.9952096963    -2.6073381525    -0.3329885394
| 27>  H        0.9605216077    -2.6563248896    -2.1528518760
| 28> *
| 29>
| 30>                          ****END OF INPUT****

CARTESIAN COORDINATES (ANGSTROEM)
---------------------------------
  C      0.135492    1.513537   -0.024214
  C     -0.039915   -0.011897   -0.045824
  C     -1.519959   -0.411022    0.050055
  C     -2.160958   -0.166895    1.411673
  C     -3.674106   -0.291454    1.469150
  O     -1.507917    0.095877    2.396512
  C      0.603772   -0.623629   -1.277241
  C      2.081564   -0.915055   -1.298949
  C      1.087515   -2.051928   -1.261338
  H      1.195122    1.782036   -0.071662
  H     -0.362369    1.977880   -0.884636
  H     -0.283913    1.943383    0.888764
  H      0.459828   -0.421129    0.840936
  H     -2.118525    0.092720   -0.721920
  H     -1.633681   -1.485486   -0.157199
  H     -4.011855   -1.214856    0.986676
  H     -4.011693   -0.263974    2.505911
  H     -4.131631    0.539270    0.918647
  H      0.178320   -0.280774   -2.219014
  H      2.634363   -0.742471   -2.215770
  H      2.647230   -0.712707   -0.395011
  H      0.995210   -2.607338   -0.332989
  H      0.960522   -2.656325   -2.152852

 Total Charge           Charge          ....    0
 Multiplicity           Mult            ....    1
 Number of Electrons    NEL             ....   70
 Basis Dimension        Dim             ....  363

ORBITAL ENERGIES
----------------

  NO   OCC          E(Eh)            E(eV)
   0   2.0000     -20.541103      -558.9518
   1   2.0000     -11.328812      -308.2726
   2   2.0000     -11.234329      -305.7016
   3   2.0000     -11.233941      -305.6911
   4   2.0000     -11.229690      -305.5754
   5   2.0000     -11.228437      -305.5413
   6   2.0000     -11.223162      -305.3978
   7   2.0000     -11.222333      -305.3752
   8   2.0000     -11.207213      -304.9638
   9   2.0000      -1.385655       -37.7056
  10   2.0000      -1.148424       -31.2502
  11   2.0000      -1.068050       -29.0631
  12   2.0000      -1.013762       -27.5859
  13   2.0000      -0.942248       -25.6399
  14   2.0000      -0.857145       -23.3241
  15   2.0000      -0.820444       -22.3254
  16   2.0000      -0.768094       -20.9009
  17   2.0000      -0.731711       -19.9109
  18   2.0000      -0.663201       -18.0466
  19   2.0000      -0.659683       -17.9509
  20   2.0000      -0.628320       -17.0974
  21   2.0000      -0.621893       -16.9226
  22   2.0000      -0.612358       -16.6631
  23   2.0000      -0.580200       -15.7880
  24   2.0000      -0.560398       -15.2492
  25   2.0000      -0.550422       -14.9777
  26   2.0000      -0.544301       -14.8112
  27   2.0000      -0.512412       -13.9434
  28   2.0000      -0.500930       -13.6310
  29   2.0000      -0.485433       -13.2093
  30   2.0000      -0.479894       -13.0586
  31   2.0000      -0.468529       -12.7493
  32   2.0000      -0.423335       -11.5195
  33   2.0000      -0.408079       -11.1044
  34   2.0000      -0.396407       -10.7868
  35   0.0000       0.126896         3.4530
  36   0.0000       0.142257         3.8710
  37   0.0000       0.155945         4.2435
  38   0.0000       0.159309         4.3350
  39   0.0000       0.163756         4.4560

MULLIKEN ATOMIC CHARGES
-----------------------
   0 C :   -0.434991
   1 C :   -0.027212
   2 C :   -0.301463
   3 C :    0.223914
   4 C :   -0.408987
   5 O :   -0.298712
   6 C :   -0.077374
   7 C :   -0.259984
   8 C :   -0.268324
   9 H :    0.134112
  10 H :    0.114244
  11 H :    0.154220
  12 H :    0.102297
  13 H :    0.133373
  14 H :    0.149779
  15 H :    0.140618
  16 H :    0.153207
  17 H :    0.144916
  18 H :    0.110976
  19 H :    0.128946
  20 H :    0.129619
  21 H :    0.128834
  22 H :    0.127991
Sum of atomic charges:    0.0000000

LOEWDIN ATOMIC CHARGES
----------------------
   0 C :   -0.284959
   1 C :   -0.263664
   2 C :   -0.219482
   3 C :   -0.346865
   4 C :   -0.281868
   5 O :    0.145785
   6 C :   -0.215157
   7 C :   -0.228112
   8 C :   -0.232452
   9 H :    0.125666
  10 H :    0.121010
  11 H :    0.127259
  12 H :    0.163332
  13 H :    0.151475
  14 H :    0.160345
  15 H :    0.133949
  16 H :    0.132318
  17 H :    0.137562
  18 H :    0.148074
  19 H :    0.129817
  20 H :    0.133784
  21 H :    0.132912
  22 H :    0.129269

  Mayer bond orders larger than 0.1
B(  0-C ,  1-C ) :   0.9132 B(  0-C ,  9-H ) :   0.9406 B(  0-C , 10-H ) :   0.9312
B(  0-C , 11-H ) :   0.9393 B(  1-C ,  2-C ) :   0.9122 B(  1-C ,  6-C ) :   0.9061
B(  1-C , 12-H ) :   0.9239 B(  2-C ,  3-C ) :   0.9075 B(  2-C , 13-H ) :   0.9095
B(  2-C , 14-H ) :   0.8986 B(  3-C ,  4-C ) :   0.9222 B(  3-C ,  5-O ) :   1.9760
B(  4-C , 15-H ) :   0.9183 B(  4-C , 16-H ) :   0.9390 B(  4-C , 17-H ) :   0.9168
B(  6-C ,  7-C ) :   0.8941 B(  6-C ,  8-C ) :   0.8944 B(  6-C , 18-H ) :   0.9191
B(  7-C ,  8-C ) :   0.9103 B(  7-C , 19-H ) :   0.9323 B(  7-C , 20-H ) :   0.9265
B(  8-C , 21-H ) :   0.9255 B(  8-C , 22-H ) :   0.9303

MP2 TOTAL ENERGY:     -387.623265458 Eh
FINAL SINGLE POINT ENERGY      -387.623265458234

DIPOLE MOMENT
-------------
                                X             Y             Z
Electronic contribution:     -1.13726      -0.39509       4.41330
Nuclear contribution   :      0.62031       0.16984      -5.24513
                        -----------------------------------------
Total Dipole Moment    :     -0.51694      -0.22524      -0.83183
                        -----------------------------------------
Magnitude (a.u.)       :      1.00494
Magnitude (Debye)      :      2.55436

                             ****ORCA TERMINATED NORMALLY****
TOTAL RUN TIME: 0 days 0 hours 21 minutes 48 seconds 161 msec
