                         Program Version 3.0.3 - RELEASE   -
|  1> ! RI-MP2 RIJK def2-TZVP def2-TZVP/C def2-TZVP/JK TIGHTSCF
|  2> % maxcore 2000
|  3> % mp2 density relaxed end
|  4> *xyz 0 1
|  5>  C        0.0103180550     1.5281158009    -0.0101391928
|  6>  C       -0.0365548939     0.0215264637     0.0687930557
|  7>  C       -1.2610805419    -0.6570246936    -0.5195905545
|  8>  C       -1.2303628464    -2.1651571004    -0.2604129805
|  9>  O       -1.0607644608    -2.4302924382     1.1225934778
| 10>  C        0.2214992832    -2.0664171843     1.5985922189
| 11>  C        0.6983613360    -0.7065423374     1.1183404594
| 12>  O        1.2021515972    -0.6467274982    -0.2264400158
| 13>  H        0.9429810818     1.9080384650     0.4144400207
| 14>  H       -0.0511924623     1.8593280285    -1.0527901606
| 15>  H       -0.8299483665     1.9735032225     0.5328989647
| 16>  H       -2.1589914217    -0.2255522494    -0.0613374637
| 17>  H       -1.3140228390    -0.4570500263    -1.5974083201
| 18>  H       -2.1789286224    -2.6269001116    -0.5471646091
| 19>  H       -0.4242175623    -2.6301154291    -0.8464139862
| 20>  H        0.1490583885    -2.0657680152     2.6910600590
| 21>  H        0.9725385070    -2.8203631819     1.3083658669
| 22>  H        1.2939238282    -0.1391756350     1.8347261400
| 23> *
| 24>
| 25>                          ****END OF INPUT****

CARTESIAN COORDINATES (ANGSTROEM)
---------------------------------
  C      0.010318    1.528116   -0.010139
  C     -0.036555    0.021526    0.068793
  C     -1.261081   -0.657025   -0.519591
  C     -1.230363   -2.165157   -0.260413
  O     -1.060764   -2.430292    1.122593
  C      0.221499   -2.066417    1.598592
  C      0.698361   -0.706542    1.118340
  O      1.202152   -0.646727   -0.226440
  H      0.942981    1.908038    0.414440
  H     -0.051192    1.859328   -1.052790
  H     -0.829948    1.973503    0.532899
  H     -2.158991   -0.225552   -0.061337
  H     -1.314023   -0.457050   -1.597408
  H     -2.178929   -2.626900   -0.547165
  H     -0.424218   -2.630115   -0.846414
  H      0.149058   -2.065768    2.691060
  H      0.972539   -2.820363    1.308366
  H      1.293924   -0.139176    1.834726

 Total Charge           Charge          ....    0
 Multiplicity           Mult            ....    1
 Number of Electrons    NEL             ....   62
 Basis Dimension        Dim             ....  308

ORBITAL ENERGIES
----------------

  NO   OCC          E(Eh)            E(eV)
   0   2.0000     -20.561521      -559.5074
   1   2.0000     -20.555507      -559.3438
   2   2.0000     -11.294141      -307.3292
   3   2.0000     -11.284194      -307.0585
   4   2.0000     -11.280798      -306.9661
   5   2.0000     -11.273983      -306.7807
   6   2.0000     -11.230095      -305.5864
   7   2.0000     -11.226751      -305.4954
   8   2.0000      -1.413364       -38.4596
   9   2.0000      -1.372180       -37.3389
  10   2.0000      -1.060247       -28.8508
  11   2.0000      -1.009408       -27.4674
  12   2.0000      -0.974285       -26.5116
  13   2.0000      -0.869987       -23.6736
  14   2.0000      -0.843421       -22.9507
  15   2.0000      -0.748783       -20.3754
  16   2.0000      -0.698110       -18.9966
  17   2.0000      -0.656364       -17.8606
  18   2.0000      -0.649234       -17.6665
  19   2.0000      -0.629062       -17.1176
  20   2.0000      -0.606368       -16.5001
  21   2.0000      -0.596424       -16.2295
  22   2.0000      -0.561994       -15.2926
  23   2.0000      -0.547350       -14.8942
  24   2.0000      -0.529160       -14.3992
  25   2.0000      -0.519456       -14.1351
  26   2.0000      -0.509069       -13.8525
  27   2.0000      -0.461660       -12.5624
  28   2.0000      -0.438406       -11.9296
  29   2.0000      -0.430005       -11.7010
  30   2.0000      -0.408640       -11.1197
  31   0.0000       0.138542         3.7699
  32   0.0000       0.162932         4.4336
  33   0.0000       0.165697         4.5088
  34   0.0000       0.183644         4.9972
  35   0.0000       0.192926         5.2498

MULLIKEN ATOMIC CHARGES
-----------------------
   0 C :   -0.417798
   1 C :    0.175757
   2 C :   -0.193471
   3 C :   -0.067712
   4 O :   -0.317195
   5 C :   -0.021860
   6 C :   -0.028032
   7 O :   -0.341345
   8 H :    0.142110
   9 H :    0.136264
  10 H :    0.134829
  11 H :    0.109472
  12 H :    0.112733
  13 H :    0.130405
  14 H :    0.110378
  15 H :    0.119794
  16 H :    0.099601
  17 H :    0.116070
Sum of atomic charges:   -0.0000000

LOEWDIN ATOMIC CHARGES
----------------------
   0 C :   -0.265323
   1 C :   -0.326960
   2 C :   -0.227778
   3 C :   -0.308326
   4 O :    0.153909
   5 C :   -0.303210
   6 C :   -0.246617
   7 O :    0.175029
   8 H :    0.132460
   9 H :    0.130974
  10 H :    0.131484
  11 H :    0.147608
  12 H :    0.146655
  13 H :    0.129722
  14 H :    0.126570
  15 H :    0.135165
  16 H :    0.129368
  17 H :    0.139271

  Mayer bond orders larger than 0.1
B(  0-C ,  1-C ) :   0.8778 B(  0-C ,  8-H ) :   0.9405 B(  0-C ,  9-H ) :   0.9373
B(  0-C , 10-H ) :   0.9330 B(  1-C ,  2-C ) :   0.9522 B(  1-C ,  6-C ) :   0.9601
B(  1-C ,  7-O ) :   0.8790 B(  2-C ,  3-C ) :   0.9443 B(  2-C , 11-H ) :   0.9109
B(  2-C , 12-H ) :   0.9111 B(  3-C ,  4-O ) :   0.9133 B(  3-C , 13-H ) :   0.9301
B(  3-C , 14-H ) :   0.9357 B(  4-O ,  5-C ) :   0.9526 B(  5-C ,  6-C ) :   0.9045
B(  5-C , 15-H ) :   0.9251 B(  5-C , 16-H ) :   0.9259 B(  6-C ,  7-O ) :   0.8987
B(  6-C , 17-H ) :   0.9142

MP2 TOTAL ENERGY:     -384.299945005 Eh
FINAL SINGLE POINT ENERGY      -384.299945004603

DIPOLE MOMENT
-------------
                                X             Y             Z
Electronic contribution:      1.45767      -3.07341       0.97361
Nuclear contribution   :     -1.67927       3.55297      -0.85670
                        -----------------------------------------
Total Dipole Moment    :     -0.22160       0.47956       0.11691
                        -----------------------------------------
Magnitude (a.u.)       :      0.54107
Magnitude (Debye)      :      1.37528

                             ****ORCA TERMINATED NORMALLY****
TOTAL RUN TIME: 0 days 0 hours 12 minutes 25 seconds 70 msec
