                         Program Version 3.0.3 - RELEASE   -
|  1> ! RI-MP2 RIJK def2-TZVP def2-TZVP/C def2-TZVP/JK TIGHTSCF
|  2> % maxcore 2000
|  3> % mp2 density relaxed end
|  4> *xyz 0 1
|  5>  C       -0.5910309395     0.9541441397    -0.0594258098
|  6>  O        0.6455054649     0.2463601141     0.0882391715
|  7>  C        0.9788536687    -0.5352595811    -0.9672324002
|  8>  C        0.7394102323    -1.8716087279    -1.1976451653
|  9>  N       -0.0110244228    -2.7934038000    -0.4363436916
| 10>  C        1.3721716438    -2.1209120430    -2.4432160406
| 11>  N        1.4515917318    -3.3725757424    -3.0654015453
| 12>  N        1.9571803070    -1.0374716346    -2.9417080132
| 13>  N        1.6790075831    -0.0586978924    -2.0388465993
| 14>  H       -0.5493094527     1.6478011634    -0.9074528637
| 15>  H       -1.4257959415     0.2595227563    -0.2082540775
| 16>  H       -0.7394014786     1.5161987911     0.8646656179
| 17>  H       -0.1848581575    -2.4300602366     0.4946028637
| 18>  H        0.4954774200    -3.6683448158    -0.3371923157
| 19>  H        0.5416216826    -3.8125942469    -3.1493240994
| 20>  H        1.8735865200    -3.2891693525    -3.9829874258
| 21>  H        2.1724015085     0.8154790985    -2.0879148958
| 22> *
| 23>
| 24>                          ****END OF INPUT****

CARTESIAN COORDINATES (ANGSTROEM)
---------------------------------
  C     -0.591031    0.954144   -0.059426
  O      0.645505    0.246360    0.088239
  C      0.978854   -0.535260   -0.967232
  C      0.739410   -1.871609   -1.197645
  N     -0.011024   -2.793404   -0.436344
  C      1.372172   -2.120912   -2.443216
  N      1.451592   -3.372576   -3.065402
  N      1.957180   -1.037472   -2.941708
  N      1.679008   -0.058698   -2.038847
  H     -0.549309    1.647801   -0.907453
  H     -1.425796    0.259523   -0.208254
  H     -0.739401    1.516199    0.864666
  H     -0.184858   -2.430060    0.494603
  H      0.495477   -3.668345   -0.337192
  H      0.541622   -3.812594   -3.149324
  H      1.873587   -3.289169   -3.982987
  H      2.172402    0.815479   -2.087915

 Total Charge           Charge          ....    0
 Multiplicity           Mult            ....    1
 Number of Electrons    NEL             ....   68
 Basis Dimension        Dim             ....  327

ORBITAL ENERGIES
----------------

  NO   OCC          E(Eh)            E(eV)
   0   2.0000     -20.594641      -560.4087
   1   2.0000     -15.612648      -424.8417
   2   2.0000     -15.562762      -423.4843
   3   2.0000     -15.558621      -423.3716
   4   2.0000     -15.558184      -423.3597
   5   2.0000     -11.318376      -307.9887
   6   2.0000     -11.293234      -307.3045
   7   2.0000     -11.282018      -306.9993
   8   2.0000     -11.244345      -305.9742
   9   2.0000      -1.425117       -38.7794
  10   2.0000      -1.348588       -36.6969
  11   2.0000      -1.213286       -33.0152
  12   2.0000      -1.189217       -32.3602
  13   2.0000      -1.058226       -28.7958
  14   2.0000      -1.014958       -27.6184
  15   2.0000      -0.949319       -25.8323
  16   2.0000      -0.809721       -22.0336
  17   2.0000      -0.781260       -21.2592
  18   2.0000      -0.739953       -20.1352
  19   2.0000      -0.694015       -18.8851
  20   2.0000      -0.664200       -18.0738
  21   2.0000      -0.661395       -17.9975
  22   2.0000      -0.644141       -17.5280
  23   2.0000      -0.620529       -16.8855
  24   2.0000      -0.615119       -16.7382
  25   2.0000      -0.585285       -15.9264
  26   2.0000      -0.581927       -15.8350
  27   2.0000      -0.529056       -14.3963
  28   2.0000      -0.486745       -13.2450
  29   2.0000      -0.483261       -13.1502
  30   2.0000      -0.467196       -12.7131
  31   2.0000      -0.435882       -11.8610
  32   2.0000      -0.321409        -8.7460
  33   2.0000      -0.298086        -8.1113
  34   0.0000       0.130640         3.5549
  35   0.0000       0.142191         3.8692
  36   0.0000       0.160462         4.3664
  37   0.0000       0.165001         4.4899
  38   0.0000       0.183271         4.9871

MULLIKEN ATOMIC CHARGES
-----------------------
   0 C :   -0.213018
   1 O :   -0.324760
   2 C :    0.182017
   3 C :    0.048325
   4 N :   -0.559216
   5 C :    0.125787
   6 N :   -0.548942
   7 N :   -0.239440
   8 N :   -0.140477
   9 H :    0.127040
  10 H :    0.135773
  11 H :    0.143468
  12 H :    0.245305
  13 H :    0.258624
  14 H :    0.256085
  15 H :    0.248476
  16 H :    0.254954
Sum of atomic charges:    0.0000000

LOEWDIN ATOMIC CHARGES
----------------------
   0 C :   -0.317936
   1 O :    0.196876
   2 C :   -0.366302
   3 C :   -0.259190
   4 N :   -0.108901
   5 C :   -0.375202
   6 N :   -0.098184
   7 N :    0.014608
   8 N :    0.118621
   9 H :    0.106098
  10 H :    0.109924
  11 H :    0.114131
  12 H :    0.168320
  13 H :    0.171591
  14 H :    0.169404
  15 H :    0.170505
  16 H :    0.185637

  Mayer bond orders larger than 0.1
B(  0-C ,  1-O ) :   0.8535 B(  0-C ,  9-H ) :   0.9375 B(  0-C , 10-H ) :   0.9321
B(  0-C , 11-H ) :   0.9371 B(  1-O ,  2-C ) :   1.0571 B(  2-C ,  3-C ) :   1.4322
B(  2-C ,  7-N ) :   0.1194 B(  2-C ,  8-N ) :   1.1761 B(  3-C ,  4-N ) :   0.9978
B(  3-C ,  5-C ) :   1.2317 B(  4-N , 12-H ) :   0.8806 B(  4-N , 13-H ) :   0.8726
B(  5-C ,  6-N ) :   1.0146 B(  5-C ,  7-N ) :   1.6018 B(  6-N , 14-H ) :   0.8681
B(  6-N , 15-H ) :   0.8768 B(  7-N ,  8-N ) :   1.0238 B(  8-N , 16-H ) :   0.8627

MP2 TOTAL ENERGY:     -450.588214074 Eh
FINAL SINGLE POINT ENERGY      -450.588214074029

DIPOLE MOMENT
-------------
                                X             Y             Z
Electronic contribution:      3.96168       0.04349      -1.55891
Nuclear contribution   :     -4.60393       0.37015       1.97938
                        -----------------------------------------
Total Dipole Moment    :     -0.64226       0.41364       0.42047
                        -----------------------------------------
Magnitude (a.u.)       :      0.87200
Magnitude (Debye)      :      2.21645

                             ****ORCA TERMINATED NORMALLY****
TOTAL RUN TIME: 0 days 0 hours 17 minutes 8 seconds 414 msec
