                         Program Version 3.0.3 - RELEASE   -
|  1> ! RI-MP2 RIJK def2-TZVP def2-TZVP/C def2-TZVP/JK TIGHTSCF
|  2> % maxcore 2000
|  3> % mp2 density relaxed end
|  4> *xyz 0 1
|  5>  C       -0.1477122547     1.5664641112     0.0638192859
|  6>  C        0.0529966946     0.0566505515     0.0080799846
|  7>  C        1.1280323664    -0.5437379717    -0.9626367536
|  8>  C        1.7654677292    -1.2823847467     0.2209216743
|  9>  C        2.3198959993    -2.6690816040     0.1737760656
| 10>  O        3.5936797749    -2.6276376921    -0.4653416866
| 11>  C        2.2018107876    -0.2675651986     1.2446758502
| 12>  C        0.7470060434    -0.6549320612     1.1881559940
| 13>  C        0.0144518228    -1.2408892897     2.3634586403
| 14>  H        0.7926753026     2.0929802305     0.2561946710
| 15>  H       -0.5496431730     1.9434413259    -0.8833213834
| 16>  H       -0.8523350928     1.8439660963     0.8559742957
| 17>  H       -0.9124572599    -0.4265836367    -0.1814691716
| 18>  H        0.6963367603    -1.2105722311    -1.7137533662
| 19>  H        1.7773200781     0.1766227943    -1.4715193644
| 20>  H        2.4037178606    -3.0694860027     1.1978358797
| 21>  H        1.6305639761    -3.3288956626    -0.3788070452
| 22>  H        3.8971468827    -3.5334401353    -0.5800350184
| 23>  H        2.7491287376    -0.6722398867     2.0912621004
| 24>  H        2.5475851569     0.7143972503     0.9305295555
| 25>  H       -0.3685946638    -0.4515021485     3.0223091437
| 26>  H       -0.8425656306    -1.8451526596     2.0426816951
| 27>  H        0.6669244616    -1.8788403027     2.9687259334
| 28> *
| 29>
| 30>                          ****END OF INPUT****

CARTESIAN COORDINATES (ANGSTROEM)
---------------------------------
  C     -0.147712    1.566464    0.063819
  C      0.052997    0.056651    0.008080
  C      1.128032   -0.543738   -0.962637
  C      1.765468   -1.282385    0.220922
  C      2.319896   -2.669082    0.173776
  O      3.593680   -2.627638   -0.465342
  C      2.201811   -0.267565    1.244676
  C      0.747006   -0.654932    1.188156
  C      0.014452   -1.240889    2.363459
  H      0.792675    2.092980    0.256195
  H     -0.549643    1.943441   -0.883321
  H     -0.852335    1.843966    0.855974
  H     -0.912457   -0.426584   -0.181469
  H      0.696337   -1.210572   -1.713753
  H      1.777320    0.176623   -1.471519
  H      2.403718   -3.069486    1.197836
  H      1.630564   -3.328896   -0.378807
  H      3.897147   -3.533440   -0.580035
  H      2.749129   -0.672240    2.091262
  H      2.547585    0.714397    0.930530
  H     -0.368595   -0.451502    3.022309
  H     -0.842566   -1.845153    2.042682
  H      0.666924   -1.878840    2.968726

 Total Charge           Charge          ....    0
 Multiplicity           Mult            ....    1
 Number of Electrons    NEL             ....   70
 Basis Dimension        Dim             ....  363

ORBITAL ENERGIES
----------------

  NO   OCC          E(Eh)            E(eV)
   0   2.0000     -20.550785      -559.2153
   1   2.0000     -11.274894      -306.8055
   2   2.0000     -11.230922      -305.6089
   3   2.0000     -11.225143      -305.4517
   4   2.0000     -11.224554      -305.4356
   5   2.0000     -11.217236      -305.2365
   6   2.0000     -11.215648      -305.1933
   7   2.0000     -11.214306      -305.1568
   8   2.0000     -11.207535      -304.9725
   9   2.0000      -1.353255       -36.8239
  10   2.0000      -1.189409       -32.3655
  11   2.0000      -1.017403       -27.6849
  12   2.0000      -0.985986       -26.8300
  13   2.0000      -0.934580       -25.4312
  14   2.0000      -0.924931       -25.1687
  15   2.0000      -0.821615       -22.3573
  16   2.0000      -0.759780       -20.6747
  17   2.0000      -0.701205       -19.0808
  18   2.0000      -0.671484       -18.2720
  19   2.0000      -0.653812       -17.7911
  20   2.0000      -0.636732       -17.3264
  21   2.0000      -0.597030       -16.2460
  22   2.0000      -0.584497       -15.9050
  23   2.0000      -0.569608       -15.4998
  24   2.0000      -0.559778       -15.2323
  25   2.0000      -0.546727       -14.8772
  26   2.0000      -0.535607       -14.5746
  27   2.0000      -0.526088       -14.3156
  28   2.0000      -0.513953       -13.9854
  29   2.0000      -0.485881       -13.2215
  30   2.0000      -0.453045       -12.3280
  31   2.0000      -0.433354       -11.7922
  32   2.0000      -0.432813       -11.7774
  33   2.0000      -0.387748       -10.5512
  34   2.0000      -0.359977        -9.7955
  35   0.0000       0.129511         3.5242
  36   0.0000       0.143518         3.9053
  37   0.0000       0.161841         4.4039
  38   0.0000       0.173075         4.7096
  39   0.0000       0.183322         4.9884

MULLIKEN ATOMIC CHARGES
-----------------------
   0 C :   -0.409267
   1 C :   -0.049693
   2 C :   -0.225378
   3 C :    0.093306
   4 C :   -0.126428
   5 O :   -0.458611
   6 C :   -0.287391
   7 C :    0.049285
   8 C :   -0.411679
   9 H :    0.119459
  10 H :    0.131421
  11 H :    0.126904
  12 H :    0.085993
  13 H :    0.110014
  14 H :    0.113722
  15 H :    0.093188
  16 H :    0.095664
  17 H :    0.309970
  18 H :    0.123221
  19 H :    0.124254
  20 H :    0.136690
  21 H :    0.128248
  22 H :    0.127106
Sum of atomic charges:   -0.0000000

LOEWDIN ATOMIC CHARGES
----------------------
   0 C :   -0.298106
   1 C :   -0.205945
   2 C :   -0.164704
   3 C :   -0.193427
   4 C :   -0.315097
   5 O :   -0.048216
   6 C :   -0.161975
   7 C :   -0.191016
   8 C :   -0.275933
   9 H :    0.121932
  10 H :    0.123860
  11 H :    0.123700
  12 H :    0.150218
  13 H :    0.133837
  14 H :    0.132168
  15 H :    0.121273
  16 H :    0.120483
  17 H :    0.169148
  18 H :    0.142870
  19 H :    0.131677
  20 H :    0.129582
  21 H :    0.125901
  22 H :    0.127769

  Mayer bond orders larger than 0.1
B(  0-C ,  1-C ) :   0.9011 B(  0-C ,  9-H ) :   0.9365 B(  0-C , 10-H ) :   0.9399
B(  0-C , 11-H ) :   0.9390 B(  1-C ,  2-C ) :   0.9904 B(  1-C ,  7-C ) :   0.9365
B(  1-C , 12-H ) :   0.9132 B(  2-C ,  3-C ) :   0.9377 B(  2-C , 13-H ) :   0.9158
B(  2-C , 14-H ) :   0.9027 B(  3-C ,  4-C ) :   0.9183 B(  3-C ,  5-O ) :  -0.1418
B(  3-C ,  6-C ) :   0.8595 B(  3-C ,  7-C ) :   0.7747 B(  4-C ,  5-O ) :   1.0864
B(  4-C , 15-H ) :   0.9274 B(  4-C , 16-H ) :   0.9256 B(  5-O , 17-H ) :   0.8492
B(  6-C ,  7-C ) :   0.9038 B(  6-C , 18-H ) :   0.9296 B(  6-C , 19-H ) :   0.9084
B(  7-C ,  8-C ) :   0.8824 B(  8-C , 20-H ) :   0.9375 B(  8-C , 21-H ) :   0.9418
B(  8-C , 22-H ) :   0.9363

MP2 TOTAL ENERGY:     -387.592982170 Eh
FINAL SINGLE POINT ENERGY      -387.592982170024

DIPOLE MOMENT
-------------
                                X             Y             Z
Electronic contribution:      4.32385      -3.16539      -1.98048
Nuclear contribution   :     -4.69132       2.60728       2.18283
                        -----------------------------------------
Total Dipole Moment    :     -0.36747      -0.55811       0.20235
                        -----------------------------------------
Magnitude (a.u.)       :      0.69819
Magnitude (Debye)      :      1.77465

                             ****ORCA TERMINATED NORMALLY****
TOTAL RUN TIME: 0 days 0 hours 20 minutes 9 seconds 33 msec
