                         Program Version 3.0.3 - RELEASE   -
|  1> ! RI-MP2 RIJK def2-TZVP def2-TZVP/C def2-TZVP/JK TIGHTSCF
|  2> % maxcore 2000
|  3> % mp2 density relaxed end
|  4> *xyz 0 1
|  5>  C       -0.0048882637     1.5702192114    -0.0552827928
|  6>  C        1.5275747495     1.5142335014    -0.1134427434
|  7>  O        1.9668903747     0.8322727799     1.0691122571
|  8>  C        1.5266717657     0.0441893018    -0.0431199234
|  9>  C       -0.0066329735     0.0050721026     0.0142214819
| 10>  C       -0.7214769200    -0.8623199796     1.1056255337
| 11>  C       -1.4207465951    -1.6215735081    -0.0299488685
| 12>  O       -2.1533528978    -0.6528384175    -0.7924054949
| 13>  C       -0.7533520574    -0.8036734326    -1.0554257501
| 14>  H       -0.4143794031     2.1020347377     0.8064009832
| 15>  H       -0.4726977941     1.9389358576    -0.9714609248
| 16>  H        2.2282949516     2.1976627084    -0.5783556706
| 17>  H        2.2175852139    -0.6956839290    -0.4328087863
| 18>  H       -0.0121637345    -1.4671756761     1.6758869562
| 19>  H       -1.3915198479    -0.3380063040     1.7905700370
| 20>  H       -1.7731640891    -2.6457191176    -0.0639441697
| 21>  H       -0.4602387892    -1.0265716962    -2.0757358345
| 22> *
| 23>
| 24>                          ****END OF INPUT****

CARTESIAN COORDINATES (ANGSTROEM)
---------------------------------
  C     -0.004888    1.570219   -0.055283
  C      1.527575    1.514234   -0.113443
  O      1.966890    0.832273    1.069112
  C      1.526672    0.044189   -0.043120
  C     -0.006633    0.005072    0.014221
  C     -0.721477   -0.862320    1.105626
  C     -1.420747   -1.621574   -0.029949
  O     -2.153353   -0.652838   -0.792405
  C     -0.753352   -0.803673   -1.055426
  H     -0.414379    2.102035    0.806401
  H     -0.472698    1.938936   -0.971461
  H      2.228295    2.197663   -0.578356
  H      2.217585   -0.695684   -0.432809
  H     -0.012164   -1.467176    1.675887
  H     -1.391520   -0.338006    1.790570
  H     -1.773164   -2.645719   -0.063944
  H     -0.460239   -1.026572   -2.075736

 Total Charge           Charge          ....    0
 Multiplicity           Mult            ....    1
 Number of Electrons    NEL             ....   66
 Basis Dimension        Dim             ....  327

ORBITAL ENERGIES
----------------

  NO   OCC          E(Eh)            E(eV)
   0   2.0000     -20.572257      -559.7996
   1   2.0000     -20.572256      -559.7995
   2   2.0000     -11.291445      -307.2558
   3   2.0000     -11.291444      -307.2558
   4   2.0000     -11.290655      -307.2343
   5   2.0000     -11.290654      -307.2343
   6   2.0000     -11.257447      -306.3307
   7   2.0000     -11.235526      -305.7342
   8   2.0000     -11.235508      -305.7337
   9   2.0000      -1.425055       -38.7777
  10   2.0000      -1.419781       -38.6342
  11   2.0000      -1.118127       -30.4258
  12   2.0000      -1.029927       -28.0257
  13   2.0000      -0.912612       -24.8334
  14   2.0000      -0.885530       -24.0965
  15   2.0000      -0.866991       -23.5920
  16   2.0000      -0.805720       -21.9248
  17   2.0000      -0.742026       -20.1916
  18   2.0000      -0.729952       -19.8630
  19   2.0000      -0.676865       -18.4184
  20   2.0000      -0.640785       -17.4367
  21   2.0000      -0.603010       -16.4087
  22   2.0000      -0.600378       -16.3371
  23   2.0000      -0.588952       -16.0262
  24   2.0000      -0.555185       -15.1074
  25   2.0000      -0.546612       -14.8741
  26   2.0000      -0.499836       -13.6012
  27   2.0000      -0.499075       -13.5805
  28   2.0000      -0.466087       -12.6829
  29   2.0000      -0.462881       -12.5956
  30   2.0000      -0.429456       -11.6861
  31   2.0000      -0.411080       -11.1861
  32   2.0000      -0.395238       -10.7550
  33   0.0000       0.152601         4.1525
  34   0.0000       0.157720         4.2918
  35   0.0000       0.163292         4.4434
  36   0.0000       0.174022         4.7354
  37   0.0000       0.176159         4.7935

MULLIKEN ATOMIC CHARGES
-----------------------
   0 C :   -0.224225
   1 C :   -0.014023
   2 O :   -0.318246
   3 C :   -0.092254
   4 C :    0.234024
   5 C :   -0.224240
   6 C :   -0.014030
   7 O :   -0.318243
   8 C :   -0.092245
   9 H :    0.119359
  10 H :    0.132318
  11 H :    0.137770
  12 H :    0.142292
  13 H :    0.132327
  14 H :    0.119356
  15 H :    0.137769
  16 H :    0.142291
Sum of atomic charges:    0.0000000

LOEWDIN ATOMIC CHARGES
----------------------
   0 C :   -0.174744
   1 C :   -0.236931
   2 O :    0.175536
   3 C :   -0.210435
   4 C :   -0.188413
   5 C :   -0.174742
   6 C :   -0.236929
   7 O :    0.175536
   8 C :   -0.210439
   9 H :    0.136165
  10 H :    0.142980
  11 H :    0.128983
  12 H :    0.132653
  13 H :    0.142977
  14 H :    0.136167
  15 H :    0.128983
  16 H :    0.132654

  Mayer bond orders larger than 0.1
B(  0-C ,  1-C ) :   0.9346 B(  0-C ,  4-C ) :   0.9242 B(  0-C ,  9-H ) :   0.9023
B(  0-C , 10-H ) :   0.9131 B(  1-C ,  2-O ) :   0.9058 B(  1-C ,  3-C ) :   0.9391
B(  1-C , 11-H ) :   0.9300 B(  2-O ,  3-C ) :   0.9331 B(  3-C ,  4-C ) :   0.8317
B(  3-C , 12-H ) :   0.9198 B(  4-C ,  5-C ) :   0.9242 B(  4-C ,  8-C ) :   0.8317
B(  5-C ,  6-C ) :   0.9346 B(  5-C , 13-H ) :   0.9131 B(  5-C , 14-H ) :   0.9023
B(  6-C ,  7-O ) :   0.9058 B(  6-C ,  8-C ) :   0.9391 B(  6-C , 15-H ) :   0.9300
B(  7-O ,  8-C ) :   0.9331 B(  8-C , 16-H ) :   0.9198

MP2 TOTAL ENERGY:     -421.025298276 Eh
FINAL SINGLE POINT ENERGY      -421.025298276340

DIPOLE MOMENT
-------------
                                X             Y             Z
Electronic contribution:      0.32450      -0.31772      -0.46506
Nuclear contribution   :      0.00238      -0.00201      -0.00327
                        -----------------------------------------
Total Dipole Moment    :      0.32689      -0.31973      -0.46833
                        -----------------------------------------
Magnitude (a.u.)       :      0.65453
Magnitude (Debye)      :      1.66369

                             ****ORCA TERMINATED NORMALLY****
TOTAL RUN TIME: 0 days 0 hours 16 minutes 38 seconds 481 msec
