                         Program Version 3.0.3 - RELEASE   -
|  1> ! RI-MP2 RIJK def2-TZVP def2-TZVP/C def2-TZVP/JK TIGHTSCF
|  2> % maxcore 2000
|  3> % mp2 density relaxed end
|  4> *xyz 0 1
|  5>  C       -0.2265978877     1.3192635760     0.2657062618
|  6>  C        0.2807191966    -0.0150781612    -0.2052772354
|  7>  N        1.4868418947    -0.3985339592    -0.3068372166
|  8>  O       -0.7801509557    -0.8042366684    -0.5269566384
|  9>  C       -0.7933220180    -2.1303839225    -1.0128661446
| 10>  O       -1.8559757636    -2.6178961495    -1.2277653764
| 11>  N        0.4535433393    -2.6874938839    -1.1737389000
| 12>  C        0.7049570087    -3.9784378636    -1.6354417184
| 13>  O       -0.1057504854    -4.7995244876    -1.9613478304
| 14>  H        0.5982280590     1.9804721130     0.5350661952
| 15>  H       -0.8262545234     1.7856545000    -0.5212217419
| 16>  H       -0.8811131033     1.1813786952     1.1311779138
| 17>  H        2.1363952249     0.3276686132    -0.0213375722
| 18>  H        1.2409293300    -2.0771984202    -0.9251257494
| 19>  H        1.7982962239    -4.1535372012    -1.6630152472
| 20> *
| 21>
| 22>                          ****END OF INPUT****

CARTESIAN COORDINATES (ANGSTROEM)
---------------------------------
  C     -0.226598    1.319264    0.265706
  C      0.280719   -0.015078   -0.205277
  N      1.486842   -0.398534   -0.306837
  O     -0.780151   -0.804237   -0.526957
  C     -0.793322   -2.130384   -1.012866
  O     -1.855976   -2.617896   -1.227765
  N      0.453543   -2.687494   -1.173739
  C      0.704957   -3.978438   -1.635442
  O     -0.105750   -4.799524   -1.961348
  H      0.598228    1.980472    0.535066
  H     -0.826255    1.785654   -0.521222
  H     -0.881113    1.181379    1.131178
  H      2.136395    0.327669   -0.021338
  H      1.240929   -2.077198   -0.925126
  H      1.798296   -4.153537   -1.663015

 Total Charge           Charge          ....    0
 Multiplicity           Mult            ....    1
 Number of Electrons    NEL             ....   68
 Basis Dimension        Dim             ....  315

ORBITAL ENERGIES
----------------

  NO   OCC          E(Eh)            E(eV)
   0   2.0000     -20.638721      -561.6081
   1   2.0000     -20.550894      -559.2183
   2   2.0000     -20.550047      -559.1952
   3   2.0000     -15.616595      -424.9492
   4   2.0000     -15.579751      -423.9466
   5   2.0000     -11.433492      -311.1211
   6   2.0000     -11.391790      -309.9864
   7   2.0000     -11.371717      -309.4401
   8   2.0000     -11.268682      -306.6364
   9   2.0000      -1.496264       -40.7154
  10   2.0000      -1.413268       -38.4570
  11   2.0000      -1.395539       -37.9745
  12   2.0000      -1.259990       -34.2861
  13   2.0000      -1.243024       -33.8244
  14   2.0000      -1.042135       -28.3579
  15   2.0000      -0.940213       -25.5845
  16   2.0000      -0.879214       -23.9246
  17   2.0000      -0.792466       -21.5641
  18   2.0000      -0.761466       -20.7206
  19   2.0000      -0.713237       -19.4082
  20   2.0000      -0.693786       -18.8789
  21   2.0000      -0.685781       -18.6611
  22   2.0000      -0.661226       -17.9929
  23   2.0000      -0.637240       -17.3402
  24   2.0000      -0.623169       -16.9573
  25   2.0000      -0.603504       -16.4222
  26   2.0000      -0.583347       -15.8737
  27   2.0000      -0.578418       -15.7396
  28   2.0000      -0.528090       -14.3701
  29   2.0000      -0.493889       -13.4394
  30   2.0000      -0.481793       -13.1102
  31   2.0000      -0.455440       -12.3932
  32   2.0000      -0.439155       -11.9500
  33   2.0000      -0.432934       -11.7807
  34   0.0000       0.112272         3.0551
  35   0.0000       0.116870         3.1802
  36   0.0000       0.149742         4.0747
  37   0.0000       0.156020         4.2455
  38   0.0000       0.158393         4.3101

MULLIKEN ATOMIC CHARGES
-----------------------
   0 C :   -0.376785
   1 C :    0.267969
   2 N :   -0.465975
   3 O :   -0.208007
   4 C :    0.348376
   5 O :   -0.241694
   6 N :   -0.298298
   7 C :    0.170188
   8 O :   -0.263850
   9 H :    0.129535
  10 H :    0.164127
  11 H :    0.164121
  12 H :    0.228725
  13 H :    0.286940
  14 H :    0.094628
Sum of atomic charges:   -0.0000000

LOEWDIN ATOMIC CHARGES
----------------------
   0 C :   -0.265433
   1 C :   -0.403210
   2 N :   -0.068571
   3 O :    0.298895
   4 C :   -0.502937
   5 O :    0.173967
   6 N :    0.118264
   7 C :   -0.382943
   8 O :    0.132396
   9 H :    0.130463
  10 H :    0.144838
  11 H :    0.144852
  12 H :    0.173869
  13 H :    0.191007
  14 H :    0.114544

  Mayer bond orders larger than 0.1
B(  0-C ,  1-C ) :   0.9428 B(  0-C ,  9-H ) :   0.9374 B(  0-C , 10-H ) :   0.9147
B(  0-C , 11-H ) :   0.9148 B(  1-C ,  2-N ) :   1.8003 B(  1-C ,  3-O ) :   1.0242
B(  2-N , 12-H ) :   0.8581 B(  2-N , 13-H ) :   0.1046 B(  3-O ,  4-C ) :   0.9632
B(  4-C ,  5-O ) :   2.0741 B(  4-C ,  6-N ) :   1.0683 B(  6-N ,  7-C ) :   0.9899
B(  6-N , 13-H ) :   0.7872 B(  7-C ,  8-O ) :   1.9990 B(  7-C , 14-H ) :   0.9296

MP2 TOTAL ENERGY:     -490.376961985 Eh
FINAL SINGLE POINT ENERGY      -490.376961985210

DIPOLE MOMENT
-------------
                                X             Y             Z
Electronic contribution:     -2.73188      -7.04702      -2.66255
Nuclear contribution   :      4.35323       9.16418       3.48927
                        -----------------------------------------
Total Dipole Moment    :      1.62135       2.11715       0.82672
                        -----------------------------------------
Magnitude (a.u.)       :      2.79188
Magnitude (Debye)      :      7.09640

                             ****ORCA TERMINATED NORMALLY****
TOTAL RUN TIME: 0 days 0 hours 12 minutes 24 seconds 281 msec
