                         Program Version 3.0.3 - RELEASE   -
|  1> ! RI-MP2 RIJK def2-TZVP def2-TZVP/C def2-TZVP/JK TIGHTSCF
|  2> % maxcore 2000
|  3> % mp2 density relaxed end
|  4> *xyz 0 1
|  5>  C        0.0377701481     1.4746605531     0.3363823202
|  6>  C        1.5370180813     1.5847650505    -0.0950281285
|  7>  C        1.4818182010     0.1345779749    -0.6173979665
|  8>  C        2.1372458378    -0.3937062991    -1.8809551174
|  9>  C        1.9350254206    -1.9213431415    -1.7807554985
| 10>  C        2.1175923831    -2.2264122768    -0.2769696974
| 11>  C        1.5474461094    -1.0037475012     0.4444220989
| 12>  O        0.1013414032    -1.0319159019     0.5851659634
| 13>  C       -0.0442653429     0.0703351951    -0.3268473717
| 14>  H       -0.1396716592     1.4363031086     1.4133008851
| 15>  H       -0.6181117929     2.2298082876    -0.1035080752
| 16>  H        1.6871367048     2.3123564668    -0.8980498641
| 17>  H        2.2685838108     1.7907551968     0.6919143448
| 18>  H        1.7124854577     0.0355614362    -2.7944423459
| 19>  H        3.2079401377    -0.1468583774    -1.8755617217
| 20>  H        0.9166225101    -2.1793419052    -2.0914953501
| 21>  H        2.6210354275    -2.4879732102    -2.4158078435
| 22>  H        1.6299167843    -3.1503956564     0.0456892401
| 23>  H        3.1849420037    -2.3103527589    -0.0366414989
| 24>  H        2.0335703935    -0.7948113980     1.4044048545
| 25>  H       -0.8289112697    -0.1026805130    -1.0695334875
| 26> *
| 27>
| 28>                          ****END OF INPUT****

CARTESIAN COORDINATES (ANGSTROEM)
---------------------------------
  C      0.037770    1.474661    0.336382
  C      1.537018    1.584765   -0.095028
  C      1.481818    0.134578   -0.617398
  C      2.137246   -0.393706   -1.880955
  C      1.935025   -1.921343   -1.780755
  C      2.117592   -2.226412   -0.276970
  C      1.547446   -1.003748    0.444422
  O      0.101341   -1.031916    0.585166
  C     -0.044265    0.070335   -0.326847
  H     -0.139672    1.436303    1.413301
  H     -0.618112    2.229808   -0.103508
  H      1.687137    2.312356   -0.898050
  H      2.268584    1.790755    0.691914
  H      1.712485    0.035561   -2.794442
  H      3.207940   -0.146858   -1.875562
  H      0.916623   -2.179342   -2.091495
  H      2.621035   -2.487973   -2.415808
  H      1.629917   -3.150396    0.045689
  H      3.184942   -2.310353   -0.036641
  H      2.033570   -0.794811    1.404405
  H     -0.828911   -0.102681   -1.069533

 Total Charge           Charge          ....    0
 Multiplicity           Mult            ....    1
 Number of Electrons    NEL             ....   68
 Basis Dimension        Dim             ....  351

ORBITAL ENERGIES
----------------

  NO   OCC          E(Eh)            E(eV)
   0   2.0000     -20.539437      -558.9065
   1   2.0000     -11.273940      -306.7795
   2   2.0000     -11.273243      -306.7605
   3   2.0000     -11.228416      -305.5407
   4   2.0000     -11.224534      -305.4351
   5   2.0000     -11.222435      -305.3780
   6   2.0000     -11.220485      -305.3249
   7   2.0000     -11.220467      -305.3244
   8   2.0000     -11.218265      -305.2645
   9   2.0000      -1.373262       -37.3684
  10   2.0000      -1.124105       -30.5885
  11   2.0000      -1.079794       -29.3827
  12   2.0000      -0.958178       -26.0733
  13   2.0000      -0.932389       -25.3716
  14   2.0000      -0.878215       -23.8974
  15   2.0000      -0.820481       -22.3264
  16   2.0000      -0.787182       -21.4203
  17   2.0000      -0.693033       -18.8584
  18   2.0000      -0.680407       -18.5148
  19   2.0000      -0.664372       -18.0785
  20   2.0000      -0.623152       -16.9568
  21   2.0000      -0.606734       -16.5101
  22   2.0000      -0.575185       -15.6516
  23   2.0000      -0.570876       -15.5343
  24   2.0000      -0.549318       -14.9477
  25   2.0000      -0.531766       -14.4701
  26   2.0000      -0.510396       -13.8886
  27   2.0000      -0.486479       -13.2378
  28   2.0000      -0.477638       -12.9972
  29   2.0000      -0.470752       -12.8098
  30   2.0000      -0.443459       -12.0671
  31   2.0000      -0.424632       -11.5548
  32   2.0000      -0.406595       -11.0640
  33   2.0000      -0.386468       -10.5163
  34   0.0000       0.134194         3.6516
  35   0.0000       0.155142         4.2216
  36   0.0000       0.160389         4.3644
  37   0.0000       0.166807         4.5390
  38   0.0000       0.183252         4.9866

MULLIKEN ATOMIC CHARGES
-----------------------
   0 C :   -0.206566
   1 C :   -0.286421
   2 C :    0.133486
   3 C :   -0.242962
   4 C :   -0.229767
   5 C :   -0.217630
   6 C :    0.042423
   7 O :   -0.329913
   8 C :   -0.018915
   9 H :    0.122124
  10 H :    0.113571
  11 H :    0.116481
  12 H :    0.114170
  13 H :    0.121058
  14 H :    0.110792
  15 H :    0.115319
  16 H :    0.126208
  17 H :    0.126267
  18 H :    0.108225
  19 H :    0.088620
  20 H :    0.093430
Sum of atomic charges:   -0.0000000

LOEWDIN ATOMIC CHARGES
----------------------
   0 C :   -0.214534
   1 C :   -0.203120
   2 C :   -0.201990
   3 C :   -0.223343
   4 C :   -0.248133
   5 C :   -0.236395
   6 C :   -0.218936
   7 O :    0.151789
   8 C :   -0.221314
   9 H :    0.135345
  10 H :    0.128928
  11 H :    0.134588
  12 H :    0.127476
  13 H :    0.137665
  14 H :    0.142221
  15 H :    0.139602
  16 H :    0.131597
  17 H :    0.140737
  18 H :    0.141004
  19 H :    0.131927
  20 H :    0.124886

  Mayer bond orders larger than 0.1
B(  0-C ,  1-C ) :   0.9565 B(  0-C ,  8-C ) :   0.8807 B(  0-C ,  9-H ) :   0.9167
B(  0-C , 10-H ) :   0.9131 B(  1-C ,  2-C ) :   0.9004 B(  1-C , 11-H ) :   0.9106
B(  1-C , 12-H ) :   0.9153 B(  2-C ,  3-C ) :   0.9154 B(  2-C ,  6-C ) :   0.9225
B(  2-C ,  8-C ) :   0.9378 B(  3-C ,  4-C ) :   0.9432 B(  3-C , 13-H ) :   0.9246
B(  3-C , 14-H ) :   0.9217 B(  4-C ,  5-C ) :   0.9427 B(  4-C , 15-H ) :   0.9267
B(  4-C , 16-H ) :   0.9323 B(  5-C ,  6-C ) :   0.9239 B(  5-C , 17-H ) :   0.9202
B(  5-C , 18-H ) :   0.9193 B(  6-C ,  7-O ) :   0.9524 B(  6-C , 19-H ) :   0.9144
B(  7-O ,  8-C ) :   0.9902 B(  8-C , 20-H ) :   0.9309

MP2 TOTAL ENERGY:     -386.401783830 Eh
FINAL SINGLE POINT ENERGY      -386.401783829950

DIPOLE MOMENT
-------------
                                X             Y             Z
Electronic contribution:     -2.61545      -0.78023       2.38173
Nuclear contribution   :      3.09920       1.11902      -2.80954
                        -----------------------------------------
Total Dipole Moment    :      0.48375       0.33878      -0.42781
                        -----------------------------------------
Magnitude (a.u.)       :      0.72925
Magnitude (Debye)      :      1.85361

                             ****ORCA TERMINATED NORMALLY****
TOTAL RUN TIME: 0 days 0 hours 20 minutes 21 seconds 547 msec
