                         Program Version 3.0.3 - RELEASE   -
|  1> ! RI-MP2 RIJK def2-TZVP def2-TZVP/C def2-TZVP/JK TIGHTSCF
|  2> % maxcore 2000
|  3> % mp2 density relaxed end
|  4> *xyz 0 1
|  5>  C        0.0055386580     1.5741210803     0.0321751669
|  6>  C        0.0724244818     0.0632245172     0.0603878376
|  7>  C        1.3029031120    -0.7249162105    -0.2021871917
|  8>  C        1.5020054790    -1.7963359221    -1.2242144725
|  9>  O        2.4685931561    -0.0525776951     0.2661389383
| 10>  C        1.9986944581    -0.1009010294     1.6440869682
| 11>  C        0.6767369661    -0.7245361688     1.2311720239
| 12>  C       -0.0123378005    -1.7995615467     1.9395602144
| 13>  O        0.3257489536    -2.2343194396     3.0182398366
| 14>  H        0.9839940029     2.0116690486     0.2405483681
| 15>  H       -0.3069481525     1.9194029185    -0.9586916223
| 16>  H       -0.7132987318     1.9552271322     0.7640956538
| 17>  H       -0.8194081031    -0.4412826813    -0.3109168617
| 18>  H        1.8802460887    -1.3522108265    -2.1523700035
| 19>  H        2.2305409622    -2.5366023774    -0.8821019869
| 20>  H        0.5590979072    -2.3008044170    -1.4506123593
| 21>  H        2.6135066086    -0.7814512320     2.2389671225
| 22>  H        1.9756939554     0.8898315201     2.1092745274
| 23>  H       -0.8952390617    -2.2165506004     1.4012502402
| 24> *
| 25>
| 26>                          ****END OF INPUT****

CARTESIAN COORDINATES (ANGSTROEM)
---------------------------------
  C      0.005539    1.574121    0.032175
  C      0.072424    0.063225    0.060388
  C      1.302903   -0.724916   -0.202187
  C      1.502005   -1.796336   -1.224214
  O      2.468593   -0.052578    0.266139
  C      1.998694   -0.100901    1.644087
  C      0.676737   -0.724536    1.231172
  C     -0.012338   -1.799562    1.939560
  O      0.325749   -2.234319    3.018240
  H      0.983994    2.011669    0.240548
  H     -0.306948    1.919403   -0.958692
  H     -0.713299    1.955227    0.764096
  H     -0.819408   -0.441283   -0.310917
  H      1.880246   -1.352211   -2.152370
  H      2.230541   -2.536602   -0.882102
  H      0.559098   -2.300804   -1.450612
  H      2.613507   -0.781451    2.238967
  H      1.975694    0.889832    2.109275
  H     -0.895239   -2.216551    1.401250

 Total Charge           Charge          ....    0
 Multiplicity           Mult            ....    1
 Number of Electrons    NEL             ....   68
 Basis Dimension        Dim             ....  339

ORBITAL ENERGIES
----------------

  NO   OCC          E(Eh)            E(eV)
   0   2.0000     -20.568096      -559.6863
   1   2.0000     -20.551087      -559.2235
   2   2.0000     -11.335554      -308.4561
   3   2.0000     -11.320387      -308.0434
   4   2.0000     -11.292306      -307.2793
   5   2.0000     -11.263144      -306.4857
   6   2.0000     -11.252089      -306.1849
   7   2.0000     -11.240685      -305.8746
   8   2.0000     -11.230576      -305.5995
   9   2.0000      -1.409966       -38.3671
  10   2.0000      -1.388366       -37.7794
  11   2.0000      -1.150129       -31.2966
  12   2.0000      -1.023448       -27.8494
  13   2.0000      -0.998911       -27.1817
  14   2.0000      -0.923473       -25.1290
  15   2.0000      -0.885859       -24.1054
  16   2.0000      -0.790981       -21.5237
  17   2.0000      -0.720296       -19.6003
  18   2.0000      -0.702239       -19.1089
  19   2.0000      -0.673128       -18.3167
  20   2.0000      -0.651340       -17.7239
  21   2.0000      -0.637994       -17.3607
  22   2.0000      -0.598807       -16.2944
  23   2.0000      -0.583798       -15.8860
  24   2.0000      -0.577132       -15.7045
  25   2.0000      -0.562634       -15.3100
  26   2.0000      -0.551331       -15.0025
  27   2.0000      -0.540040       -14.6952
  28   2.0000      -0.526703       -14.3323
  29   2.0000      -0.520780       -14.1711
  30   2.0000      -0.484089       -13.1727
  31   2.0000      -0.431231       -11.7344
  32   2.0000      -0.407436       -11.0869
  33   2.0000      -0.376153       -10.2357
  34   0.0000       0.117948         3.2095
  35   0.0000       0.123710         3.3663
  36   0.0000       0.151608         4.1255
  37   0.0000       0.161631         4.3982
  38   0.0000       0.180358         4.9078

MULLIKEN ATOMIC CHARGES
-----------------------
   0 C :   -0.411833
   1 C :   -0.132146
   2 C :    0.200611
   3 C :   -0.395033
   4 O :   -0.331851
   5 C :   -0.033555
   6 C :    0.021652
   7 C :    0.051326
   8 O :   -0.286836
   9 H :    0.157145
  10 H :    0.138120
  11 H :    0.139147
  12 H :    0.131401
  13 H :    0.150653
  14 H :    0.148086
  15 H :    0.133671
  16 H :    0.132594
  17 H :    0.119357
  18 H :    0.067491
Sum of atomic charges:   -0.0000000

LOEWDIN ATOMIC CHARGES
----------------------
   0 C :   -0.281649
   1 C :   -0.173350
   2 C :   -0.257113
   3 C :   -0.261107
   4 O :    0.177382
   5 C :   -0.201999
   6 C :   -0.177700
   7 C :   -0.286516
   8 O :    0.118926
   9 H :    0.135016
  10 H :    0.129774
  11 H :    0.128728
  12 H :    0.163781
  13 H :    0.139791
  14 H :    0.135458
  15 H :    0.135159
  16 H :    0.136121
  17 H :    0.123678
  18 H :    0.115621

  Mayer bond orders larger than 0.1
B(  0-C ,  1-C ) :   0.8914 B(  0-C ,  9-H ) :   0.9330 B(  0-C , 10-H ) :   0.9340
B(  0-C , 11-H ) :   0.9352 B(  1-C ,  2-C ) :   0.8975 B(  1-C ,  6-C ) :   0.8058
B(  1-C , 12-H ) :   0.9278 B(  2-C ,  3-C ) :   0.8886 B(  2-C ,  4-O ) :   0.9679
B(  2-C ,  6-C ) :   0.7543 B(  3-C , 13-H ) :   0.9301 B(  3-C , 14-H ) :   0.9327
B(  3-C , 15-H ) :   0.9321 B(  4-O ,  5-C ) :   0.9006 B(  5-C ,  6-C ) :   0.9467
B(  5-C , 16-H ) :   0.9003 B(  5-C , 17-H ) :   0.9250 B(  6-C ,  7-C ) :   0.9095
B(  7-C ,  8-O ) :   1.9718 B(  7-C , 18-H ) :   0.9592

MP2 TOTAL ENERGY:     -422.293714852 Eh
FINAL SINGLE POINT ENERGY      -422.293714852324

DIPOLE MOMENT
-------------
                                X             Y             Z
Electronic contribution:      1.27808      -3.02990       5.14060
Nuclear contribution   :     -1.78385       3.37793      -6.12808
                        -----------------------------------------
Total Dipole Moment    :     -0.50577       0.34804      -0.98748
                        -----------------------------------------
Magnitude (a.u.)       :      1.16277
Magnitude (Debye)      :      2.95554

                             ****ORCA TERMINATED NORMALLY****
TOTAL RUN TIME: 0 days 0 hours 17 minutes 43 seconds 403 msec
