                         Program Version 3.0.3 - RELEASE   -
|  1> ! RI-MP2 RIJK def2-TZVP def2-TZVP/C def2-TZVP/JK TIGHTSCF
|  2> % maxcore 2000
|  3> % mp2 density relaxed end
|  4> *xyz 0 1
|  5>  C       -0.2713734464     1.4624456213     0.0116683528
|  6>  C        0.0406681575    -0.0306111991     0.0506389877
|  7>  O        0.5755852214    -0.3794944442    -1.2293359389
|  8>  C        0.3036619270    -1.6874771671    -1.6869760854
|  9>  C        0.9347921168    -1.7804246628    -3.0818585430
| 10>  C        0.8054522822    -2.7992203176    -0.8008285022
| 11>  C        1.3853054058    -2.7373238296     0.4076151671
| 12>  C        1.5934923248    -1.5799775742     1.2725249263
| 13>  C        1.0017799745    -0.3848565986     1.1598155435
| 14>  H        0.6424826097     2.0325949060    -0.1821967623
| 15>  H       -0.9889433407     1.6824025291    -0.7822399524
| 16>  H       -0.6903762113     1.7934783425     0.9669810368
| 17>  H       -0.8971904072    -0.5908894894     0.2034778669
| 18>  H       -0.7894020668    -1.8203875684    -1.8053237274
| 19>  H        2.0198583472    -1.6650008581    -3.0115336909
| 20>  H        0.7134372038    -2.7467408254    -3.5434841836
| 21>  H        0.5387145704    -0.9869052076    -3.7202027504
| 22>  H        0.7022828668    -3.7835768276    -1.2557511188
| 23>  H        1.7310450965    -3.6804157735     0.8267774830
| 24>  H        2.2679837669    -1.7425325724     2.1100964278
| 25>  H        1.2243202111     0.3909500666     1.8880662535
| 26> *
| 27>
| 28>                          ****END OF INPUT****

CARTESIAN COORDINATES (ANGSTROEM)
---------------------------------
  C     -0.271373    1.462446    0.011668
  C      0.040668   -0.030611    0.050639
  O      0.575585   -0.379494   -1.229336
  C      0.303662   -1.687477   -1.686976
  C      0.934792   -1.780425   -3.081859
  C      0.805452   -2.799220   -0.800829
  C      1.385305   -2.737324    0.407615
  C      1.593492   -1.579978    1.272525
  C      1.001780   -0.384857    1.159816
  H      0.642483    2.032595   -0.182197
  H     -0.988943    1.682403   -0.782240
  H     -0.690376    1.793478    0.966981
  H     -0.897190   -0.590889    0.203478
  H     -0.789402   -1.820388   -1.805324
  H      2.019858   -1.665001   -3.011534
  H      0.713437   -2.746741   -3.543484
  H      0.538715   -0.986905   -3.720203
  H      0.702283   -3.783577   -1.255751
  H      1.731045   -3.680416    0.826777
  H      2.267984   -1.742533    2.110096
  H      1.224320    0.390950    1.888066

 Total Charge           Charge          ....    0
 Multiplicity           Mult            ....    1
 Number of Electrons    NEL             ....   68
 Basis Dimension        Dim             ....  351

ORBITAL ENERGIES
----------------

  NO   OCC          E(Eh)            E(eV)
   0   2.0000     -20.548615      -559.1562
   1   2.0000     -11.285716      -307.1000
   2   2.0000     -11.283096      -307.0286
   3   2.0000     -11.234009      -305.6929
   4   2.0000     -11.231502      -305.6247
   5   2.0000     -11.229944      -305.5823
   6   2.0000     -11.226281      -305.4826
   7   2.0000     -11.214799      -305.1702
   8   2.0000     -11.214374      -305.1586
   9   2.0000      -1.373442       -37.3733
  10   2.0000      -1.094652       -29.7870
  11   2.0000      -1.080061       -29.3899
  12   2.0000      -0.989959       -26.9382
  13   2.0000      -0.972457       -26.4619
  14   2.0000      -0.877993       -23.8914
  15   2.0000      -0.844835       -22.9891
  16   2.0000      -0.771620       -20.9968
  17   2.0000      -0.722519       -19.6607
  18   2.0000      -0.683573       -18.6010
  19   2.0000      -0.657167       -17.8824
  20   2.0000      -0.640163       -17.4197
  21   2.0000      -0.593265       -16.1436
  22   2.0000      -0.586883       -15.9699
  23   2.0000      -0.566946       -15.4274
  24   2.0000      -0.550719       -14.9858
  25   2.0000      -0.530251       -14.4289
  26   2.0000      -0.527637       -14.3577
  27   2.0000      -0.520834       -14.1726
  28   2.0000      -0.485584       -13.2134
  29   2.0000      -0.483659       -13.1610
  30   2.0000      -0.477780       -13.0011
  31   2.0000      -0.419056       -11.4031
  32   2.0000      -0.416219       -11.3259
  33   2.0000      -0.312668        -8.5081
  34   0.0000       0.099195         2.6992
  35   0.0000       0.142902         3.8885
  36   0.0000       0.157698         4.2912
  37   0.0000       0.164837         4.4854
  38   0.0000       0.173266         4.7148

MULLIKEN ATOMIC CHARGES
-----------------------
   0 C :   -0.390295
   1 C :    0.198305
   2 O :   -0.296376
   3 C :    0.117204
   4 C :   -0.384181
   5 C :   -0.182531
   6 C :   -0.162628
   7 C :   -0.068076
   8 C :   -0.267046
   9 H :    0.137111
  10 H :    0.135114
  11 H :    0.126152
  12 H :    0.079478
  13 H :    0.080006
  14 H :    0.134618
  15 H :    0.121793
  16 H :    0.137904
  17 H :    0.120486
  18 H :    0.118632
  19 H :    0.123505
  20 H :    0.120824
Sum of atomic charges:   -0.0000000

LOEWDIN ATOMIC CHARGES
----------------------
   0 C :   -0.289573
   1 C :   -0.320647
   2 O :    0.209880
   3 C :   -0.349444
   4 C :   -0.282565
   5 C :   -0.141359
   6 C :   -0.165741
   7 C :   -0.163388
   8 C :   -0.142034
   9 H :    0.128932
  10 H :    0.124700
  11 H :    0.125894
  12 H :    0.148471
  13 H :    0.141215
  14 H :    0.128456
  15 H :    0.123995
  16 H :    0.126072
  17 H :    0.150927
  18 H :    0.150667
  19 H :    0.149071
  20 H :    0.146472

  Mayer bond orders larger than 0.1
B(  0-C ,  1-C ) :   0.9137 B(  0-C ,  9-H ) :   0.9354 B(  0-C , 10-H ) :   0.9411
B(  0-C , 11-H ) :   0.9349 B(  1-C ,  2-O ) :   0.8714 B(  1-C ,  8-C ) :   0.9196
B(  1-C , 12-H ) :   0.9074 B(  2-O ,  3-C ) :   0.9938 B(  3-C ,  4-C ) :   0.9018
B(  3-C ,  5-C ) :   0.8983 B(  3-C , 13-H ) :   0.9360 B(  4-C , 14-H ) :   0.9338
B(  4-C , 15-H ) :   0.9337 B(  4-C , 16-H ) :   0.9366 B(  5-C ,  6-C ) :   1.7538
B(  5-C , 17-H ) :   0.9139 B(  6-C ,  7-C ) :   1.0112 B(  6-C , 18-H ) :   0.9278
B(  7-C ,  8-C ) :   1.7353 B(  7-C , 19-H ) :   0.9247 B(  8-C , 20-H ) :   0.9260

MP2 TOTAL ENERGY:     -386.409372919 Eh
FINAL SINGLE POINT ENERGY      -386.409372918526

DIPOLE MOMENT
-------------
                                X             Y             Z
Electronic contribution:      1.37657      -1.76612       2.48922
Nuclear contribution   :     -1.66294       1.53189      -2.35637
                        -----------------------------------------
Total Dipole Moment    :     -0.28637      -0.23423       0.13285
                        -----------------------------------------
Magnitude (a.u.)       :      0.39309
Magnitude (Debye)      :      0.99916

                             ****ORCA TERMINATED NORMALLY****
TOTAL RUN TIME: 0 days 0 hours 20 minutes 26 seconds 540 msec
