                         Program Version 3.0.3 - RELEASE   -
|  1> ! RI-MP2 RIJK def2-TZVP def2-TZVP/C def2-TZVP/JK TIGHTSCF
|  2> % maxcore 2000
|  3> % mp2 density relaxed end
|  4> *xyz 0 1
|  5>  C       -0.1098377852     1.5704426055    -0.0285938363
|  6>  C        0.0337042056     0.0689328499     0.0273894863
|  7>  O       -1.1071621933    -0.6187198122    -0.3992428207
|  8>  C        1.3486042502    -0.6888478990    -0.2353552194
|  9>  C        2.6227446602     0.0589509632    -0.0772642740
| 10>  C        2.8095428896     0.4929118002     1.1804354750
| 11>  C        1.6773907804     0.0606026411     2.0454668602
| 12>  O        1.5410835867     0.2589138633     3.2313749174
| 13>  C        0.7185415913    -0.6938102812     1.1424505579
| 14>  H        0.7985575854     2.0877233537     0.2798294664
| 15>  H       -0.3441325844     1.8874606323    -1.0530853892
| 16>  H       -0.9304876603     1.8883177505     0.6213892962
| 17>  H       -1.3960313620    -0.2302074203    -1.2328222050
| 18>  H        1.2801872305    -1.5408632500    -0.9007338436
| 19>  H        3.2871492412     0.2529625826    -0.9124401273
| 20>  H        3.6291025913     1.0934338572     1.5523683913
| 21>  H        0.1786262327    -1.5432345568     1.5404339349
| 22> *
| 23>
| 24>                          ****END OF INPUT****

CARTESIAN COORDINATES (ANGSTROEM)
---------------------------------
  C     -0.109838    1.570443   -0.028594
  C      0.033704    0.068933    0.027389
  O     -1.107162   -0.618720   -0.399243
  C      1.348604   -0.688848   -0.235355
  C      2.622745    0.058951   -0.077264
  C      2.809543    0.492912    1.180435
  C      1.677391    0.060603    2.045467
  O      1.541084    0.258914    3.231375
  C      0.718542   -0.693810    1.142451
  H      0.798558    2.087723    0.279829
  H     -0.344133    1.887461   -1.053085
  H     -0.930488    1.888318    0.621389
  H     -1.396031   -0.230207   -1.232822
  H      1.280187   -1.540863   -0.900734
  H      3.287149    0.252963   -0.912440
  H      3.629103    1.093434    1.552368
  H      0.178626   -1.543235    1.540434

 Total Charge           Charge          ....    0
 Multiplicity           Mult            ....    1
 Number of Electrons    NEL             ....   66
 Basis Dimension        Dim             ....  327

ORBITAL ENERGIES
----------------

  NO   OCC          E(Eh)            E(eV)
   0   2.0000     -20.580540      -560.0250
   1   2.0000     -20.539493      -558.9080
   2   2.0000     -11.330952      -308.3309
   3   2.0000     -11.322452      -308.0996
   4   2.0000     -11.271750      -306.7199
   5   2.0000     -11.252567      -306.1979
   6   2.0000     -11.243973      -305.9641
   7   2.0000     -11.240981      -305.8826
   8   2.0000     -11.236583      -305.7630
   9   2.0000      -1.396399       -37.9980
  10   2.0000      -1.380773       -37.5728
  11   2.0000      -1.195587       -32.5336
  12   2.0000      -1.058859       -28.8130
  13   2.0000      -0.991018       -26.9670
  14   2.0000      -0.929072       -25.2813
  15   2.0000      -0.825479       -22.4624
  16   2.0000      -0.786878       -21.4121
  17   2.0000      -0.727182       -19.7876
  18   2.0000      -0.713355       -19.4114
  19   2.0000      -0.677738       -18.4422
  20   2.0000      -0.654153       -17.8004
  21   2.0000      -0.620453       -16.8834
  22   2.0000      -0.599884       -16.3237
  23   2.0000      -0.593413       -16.1476
  24   2.0000      -0.573004       -15.5922
  25   2.0000      -0.566611       -15.4183
  26   2.0000      -0.537863       -14.6360
  27   2.0000      -0.534910       -14.5556
  28   2.0000      -0.515650       -14.0316
  29   2.0000      -0.453984       -12.3535
  30   2.0000      -0.420193       -11.4340
  31   2.0000      -0.410235       -11.1631
  32   2.0000      -0.358079        -9.7438
  33   0.0000       0.081465         2.2168
  34   0.0000       0.124103         3.3770
  35   0.0000       0.156911         4.2698
  36   0.0000       0.170390         4.6365
  37   0.0000       0.178973         4.8701

MULLIKEN ATOMIC CHARGES
-----------------------
   0 C :   -0.393134
   1 C :    0.145927
   2 O :   -0.443941
   3 C :   -0.059144
   4 C :   -0.186502
   5 C :   -0.179321
   6 C :    0.141675
   7 O :   -0.281419
   8 C :   -0.085925
   9 H :    0.150088
  10 H :    0.121162
  11 H :    0.156034
  12 H :    0.321662
  13 H :    0.147444
  14 H :    0.140661
  15 H :    0.144092
  16 H :    0.160640
Sum of atomic charges:    0.0000000

LOEWDIN ATOMIC CHARGES
----------------------
   0 C :   -0.267848
   1 C :   -0.320355
   2 O :    0.039926
   3 C :   -0.155804
   4 C :   -0.095411
   5 C :   -0.120952
   6 C :   -0.304091
   7 O :    0.145706
   8 C :   -0.112569
   9 H :    0.138011
  10 H :    0.127145
  11 H :    0.136746
  12 H :    0.183980
  13 H :    0.153720
  14 H :    0.143613
  15 H :    0.144844
  16 H :    0.163339

  Mayer bond orders larger than 0.1
B(  0-C ,  1-C ) :   0.9502 B(  0-C ,  9-H ) :   0.9248 B(  0-C , 10-H ) :   0.9180
B(  0-C , 11-H ) :   0.9327 B(  1-C ,  2-O ) :   1.0009 B(  1-C ,  3-C ) :   0.8323
B(  1-C ,  8-C ) :   0.8412 B(  2-O , 12-H ) :   0.8361 B(  3-C ,  4-C ) :   0.9235
B(  3-C ,  8-C ) :   0.8160 B(  3-C , 13-H ) :   0.9047 B(  4-C ,  5-C ) :   1.6463
B(  4-C , 14-H ) :   0.9189 B(  5-C ,  6-C ) :   0.9907 B(  5-C ,  8-C ) :  -0.1076
B(  5-C , 15-H ) :   0.9235 B(  6-C ,  7-O ) :   1.9812 B(  6-C ,  8-C ) :   0.8920
B(  8-C , 16-H ) :   0.9122

MP2 TOTAL ENERGY:     -421.129733598 Eh
FINAL SINGLE POINT ENERGY      -421.129733598006

DIPOLE MOMENT
-------------
                                X             Y             Z
Electronic contribution:      1.46806      -2.80301       4.02016
Nuclear contribution   :     -1.34671       3.12682      -5.75649
                        -----------------------------------------
Total Dipole Moment    :      0.12135       0.32381      -1.73633
                        -----------------------------------------
Magnitude (a.u.)       :      1.77043
Magnitude (Debye)      :      4.50007

                             ****ORCA TERMINATED NORMALLY****
TOTAL RUN TIME: 0 days 0 hours 20 minutes 14 seconds 662 msec
