                         Program Version 3.0.3 - RELEASE   -
|  1> ! RI-MP2 RIJK def2-TZVP def2-TZVP/C def2-TZVP/JK TIGHTSCF
|  2> % maxcore 2000
|  3> % mp2 density relaxed end
|  4> *xyz 0 1
|  5>  C        0.1136835829     1.4528935408     0.0108388947
|  6>  C       -0.0257803174    -0.0883057714     0.0464989129
|  7>  C        0.5919033647    -0.6216933685     1.3582477251
|  8>  C       -1.4525173188    -0.4410706653     0.0207887119
|  9>  C       -2.6208839826    -0.7246674806    -0.0030422877
| 10>  C        0.6287925807    -0.6649661282    -1.2204879576
| 11>  C        2.1061391686    -0.9425275635    -1.3400966491
| 12>  C        1.1142637494    -2.0824973629    -1.3474453713
| 13>  H        1.1721440894     1.7314847951     0.0216971094
| 14>  H       -0.3418358573     1.8640839407    -0.8942958846
| 15>  H       -0.3777244456     1.9084090287     0.8751391535
| 16>  H        0.0709412331    -0.1846054624     2.2140926728
| 17>  H        0.5017104368    -1.7077369653     1.4358894409
| 18>  H        1.6485089951    -0.3481966468     1.4318684283
| 19>  H       -3.6517485302    -0.9781357242    -0.0252024243
| 20>  H        0.1662875223    -0.2632898819    -2.1182485214
| 21>  H        2.6005428116    -0.6743035137    -2.2674062951
| 22>  H        2.7326896924    -0.8327123479    -0.4621344954
| 23>  H        1.0837018248    -2.7233810776    -0.4737102504
| 24>  H        0.9247356303    -2.6031310550    -2.2795362325
| 25> *
| 26>
| 27>                          ****END OF INPUT****

CARTESIAN COORDINATES (ANGSTROEM)
---------------------------------
  C      0.113684    1.452894    0.010839
  C     -0.025780   -0.088306    0.046499
  C      0.591903   -0.621693    1.358248
  C     -1.452517   -0.441071    0.020789
  C     -2.620884   -0.724667   -0.003042
  C      0.628793   -0.664966   -1.220488
  C      2.106139   -0.942528   -1.340097
  C      1.114264   -2.082497   -1.347445
  H      1.172144    1.731485    0.021697
  H     -0.341836    1.864084   -0.894296
  H     -0.377724    1.908409    0.875139
  H      0.070941   -0.184605    2.214093
  H      0.501710   -1.707737    1.435889
  H      1.648509   -0.348197    1.431868
  H     -3.651749   -0.978136   -0.025202
  H      0.166288   -0.263290   -2.118249
  H      2.600543   -0.674304   -2.267406
  H      2.732690   -0.832712   -0.462134
  H      1.083702   -2.723381   -0.473710
  H      0.924736   -2.603131   -2.279536

 Total Charge           Charge          ....    0
 Multiplicity           Mult            ....    1
 Number of Electrons    NEL             ....   60
 Basis Dimension        Dim             ....  320

ORBITAL ENERGIES
----------------

  NO   OCC          E(Eh)            E(eV)
   0   2.0000     -11.265354      -306.5459
   1   2.0000     -11.234641      -305.7101
   2   2.0000     -11.225308      -305.4562
   3   2.0000     -11.225301      -305.4560
   4   2.0000     -11.223370      -305.4034
   5   2.0000     -11.221390      -305.3495
   6   2.0000     -11.219246      -305.2912
   7   2.0000     -11.213990      -305.1482
   8   2.0000      -1.157284       -31.4913
   9   2.0000      -1.084509       -29.5110
  10   2.0000      -0.997909       -27.1545
  11   2.0000      -0.938281       -25.5319
  12   2.0000      -0.870027       -23.6746
  13   2.0000      -0.822957       -22.3938
  14   2.0000      -0.777829       -21.1658
  15   2.0000      -0.706374       -19.2214
  16   2.0000      -0.675569       -18.3832
  17   2.0000      -0.643397       -17.5077
  18   2.0000      -0.624671       -16.9982
  19   2.0000      -0.575888       -15.6707
  20   2.0000      -0.557169       -15.1613
  21   2.0000      -0.542742       -14.7688
  22   2.0000      -0.528022       -14.3682
  23   2.0000      -0.509793       -13.8722
  24   2.0000      -0.497920       -13.5491
  25   2.0000      -0.479856       -13.0575
  26   2.0000      -0.425585       -11.5807
  27   2.0000      -0.412457       -11.2235
  28   2.0000      -0.379261       -10.3202
  29   2.0000      -0.376646       -10.2491
  30   0.0000       0.137116         3.7311
  31   0.0000       0.155861         4.2412
  32   0.0000       0.163632         4.4527
  33   0.0000       0.167304         4.5526
  34   0.0000       0.176843         4.8122

MULLIKEN ATOMIC CHARGES
-----------------------
   0 C :   -0.394691
   1 C :    0.021822
   2 C :   -0.434666
   3 C :   -0.050560
   4 C :   -0.156398
   5 C :   -0.116365
   6 C :   -0.246101
   7 C :   -0.264478
   8 H :    0.134058
   9 H :    0.133719
  10 H :    0.137109
  11 H :    0.144129
  12 H :    0.137921
  13 H :    0.133535
  14 H :    0.187428
  15 H :    0.118756
  16 H :    0.130739
  17 H :    0.125136
  18 H :    0.127721
  19 H :    0.131187
Sum of atomic charges:   -0.0000000

LOEWDIN ATOMIC CHARGES
----------------------
   0 C :   -0.245336
   1 C :   -0.296305
   2 C :   -0.246465
   3 C :   -0.062453
   4 C :   -0.101732
   5 C :   -0.180309
   6 C :   -0.225645
   7 C :   -0.221062
   8 H :    0.127389
   9 H :    0.128959
  10 H :    0.128066
  11 H :    0.132523
  12 H :    0.128361
  13 H :    0.125418
  14 H :    0.125598
  15 H :    0.156679
  16 H :    0.130609
  17 H :    0.131327
  18 H :    0.132917
  19 H :    0.131462

  Mayer bond orders larger than 0.1
B(  0-C ,  1-C ) :   0.9028 B(  0-C ,  8-H ) :   0.9323 B(  0-C ,  9-H ) :   0.9337
B(  0-C , 10-H ) :   0.9344 B(  1-C ,  2-C ) :   0.8764 B(  1-C ,  3-C ) :   1.2019
B(  1-C ,  4-C ) :  -0.1110 B(  1-C ,  5-C ) :   0.8809 B(  2-C , 11-H ) :   0.9328
B(  2-C , 12-H ) :   0.9384 B(  2-C , 13-H ) :   0.9372 B(  3-C ,  4-C ) :   2.5714
B(  4-C , 14-H ) :   0.8831 B(  5-C ,  6-C ) :   0.8783 B(  5-C ,  7-C ) :   0.8918
B(  5-C , 15-H ) :   0.9264 B(  6-C ,  7-C ) :   0.8979 B(  6-C , 16-H ) :   0.9296
B(  6-C , 17-H ) :   0.9293 B(  7-C , 18-H ) :   0.9292 B(  7-C , 19-H ) :   0.9294

MP2 TOTAL ENERGY:     -311.242656580 Eh
FINAL SINGLE POINT ENERGY      -311.242656580158

DIPOLE MOMENT
-------------
                                X             Y             Z
Electronic contribution:     -4.65334      -1.07940      -0.98545
Nuclear contribution   :      4.87181       1.13137       0.97510
                        -----------------------------------------
Total Dipole Moment    :      0.21847       0.05198      -0.01035
                        -----------------------------------------
Magnitude (a.u.)       :      0.22480
Magnitude (Debye)      :      0.57141

                             ****ORCA TERMINATED NORMALLY****
TOTAL RUN TIME: 0 days 0 hours 13 minutes 50 seconds 703 msec
