                         Program Version 3.0.3 - RELEASE   -
|  1> ! RI-MP2 RIJK def2-TZVP def2-TZVP/C def2-TZVP/JK TIGHTSCF
|  2> % maxcore 2000
|  3> % mp2 density relaxed end
|  4> *xyz 0 1
|  5>  O        0.4034607104     1.1210110882     0.0417936658
|  6>  C        0.1376537853    -0.2652180187    -0.1000481571
|  7>  C       -1.3526050299    -0.5925434876     0.0219347696
|  8>  C       -1.6805467238    -2.0873402463    -0.1376745865
|  9>  C       -3.1639246730    -2.3499661571     0.1497160167
| 10>  O       -3.3304047437    -3.7456195540     0.3811269786
| 11>  C       -1.2852323873    -2.5979968404    -1.5161175347
| 12>  C       -0.0685651530    -3.4293034662    -1.7122250425
| 13>  N       -1.4052899494    -4.0209614385    -1.8602143962
| 14>  H        0.1273405078     1.3846847919     0.9253928176
| 15>  H        0.5083755593    -0.5356658930    -1.0927181893
| 16>  H        0.7104712047    -0.8605940346     0.6302173765
| 17>  H       -1.7064622473    -0.2532165899     1.0057446085
| 18>  H       -1.9002666489    -0.0033973900    -0.7251380121
| 19>  H       -1.1208316827    -2.6545171607     0.6203182234
| 20>  H       -3.4803445239    -1.7745137544     1.0339571558
| 21>  H       -3.7737782126    -2.0120463507    -0.7014328016
| 22>  H       -4.2580552351    -3.9685007499     0.2649579848
| 23>  H       -1.5846464671    -1.9353285611    -2.3296559384
| 24>  H        0.5064067551    -3.3546176715    -2.6313617635
| 25>  H        0.5211464157    -3.6755933870    -0.8318743258
| 26>  H       -1.6717252107    -4.5364362785    -1.0254959294
| 27> *
| 28>
| 29>                          ****END OF INPUT****

CARTESIAN COORDINATES (ANGSTROEM)
---------------------------------
  O      0.403461    1.121011    0.041794
  C      0.137654   -0.265218   -0.100048
  C     -1.352605   -0.592543    0.021935
  C     -1.680547   -2.087340   -0.137675
  C     -3.163925   -2.349966    0.149716
  O     -3.330405   -3.745620    0.381127
  C     -1.285232   -2.597997   -1.516118
  C     -0.068565   -3.429303   -1.712225
  N     -1.405290   -4.020961   -1.860214
  H      0.127341    1.384685    0.925393
  H      0.508376   -0.535666   -1.092718
  H      0.710471   -0.860594    0.630217
  H     -1.706462   -0.253217    1.005745
  H     -1.900267   -0.003397   -0.725138
  H     -1.120832   -2.654517    0.620318
  H     -3.480345   -1.774514    1.033957
  H     -3.773778   -2.012046   -0.701433
  H     -4.258055   -3.968501    0.264958
  H     -1.584646   -1.935329   -2.329656
  H      0.506407   -3.354618   -2.631362
  H      0.521146   -3.675593   -0.831874
  H     -1.671725   -4.536436   -1.025496

 Total Charge           Charge          ....    0
 Multiplicity           Mult            ....    1
 Number of Electrons    NEL             ....   72
 Basis Dimension        Dim             ....  357

ORBITAL ENERGIES
----------------

  NO   OCC          E(Eh)            E(eV)
   0   2.0000     -20.564675      -559.5932
   1   2.0000     -20.556941      -559.3828
   2   2.0000     -15.544947      -422.9995
   3   2.0000     -11.284385      -307.0637
   4   2.0000     -11.276845      -306.8586
   5   2.0000     -11.254283      -306.2446
   6   2.0000     -11.248097      -306.0763
   7   2.0000     -11.240285      -305.8637
   8   2.0000     -11.231469      -305.6238
   9   2.0000      -1.368979       -37.2518
  10   2.0000      -1.361103       -37.0375
  11   2.0000      -1.253133       -34.0995
  12   2.0000      -1.085712       -29.5437
  13   2.0000      -0.974871       -26.5276
  14   2.0000      -0.894081       -24.3292
  15   2.0000      -0.862985       -23.4830
  16   2.0000      -0.842977       -22.9386
  17   2.0000      -0.786712       -21.4075
  18   2.0000      -0.706644       -19.2288
  19   2.0000      -0.694223       -18.8908
  20   2.0000      -0.675815       -18.3899
  21   2.0000      -0.646808       -17.6005
  22   2.0000      -0.628028       -17.0895
  23   2.0000      -0.611731       -16.6460
  24   2.0000      -0.593090       -16.1388
  25   2.0000      -0.578959       -15.7543
  26   2.0000      -0.554343       -15.0844
  27   2.0000      -0.524752       -14.2792
  28   2.0000      -0.507803       -13.8180
  29   2.0000      -0.499309       -13.5869
  30   2.0000      -0.483624       -13.1601
  31   2.0000      -0.469004       -12.7623
  32   2.0000      -0.458937       -12.4883
  33   2.0000      -0.442669       -12.0456
  34   2.0000      -0.432793       -11.7769
  35   2.0000      -0.379063       -10.3148
  36   0.0000       0.129112         3.5133
  37   0.0000       0.133010         3.6194
  38   0.0000       0.147160         4.0044
  39   0.0000       0.159033         4.3275
  40   0.0000       0.169374         4.6089

MULLIKEN ATOMIC CHARGES
-----------------------
   0 O :   -0.466572
   1 C :   -0.017596
   2 C :   -0.273068
   3 C :   -0.065218
   4 C :   -0.039454
   5 O :   -0.489080
   6 C :   -0.102219
   7 C :   -0.174853
   8 N :   -0.356804
   9 H :    0.311128
  10 H :    0.125578
  11 H :    0.095699
  12 H :    0.103830
  13 H :    0.119555
  14 H :    0.091749
  15 H :    0.100874
  16 H :    0.108196
  17 H :    0.322311
  18 H :    0.126727
  19 H :    0.119817
  20 H :    0.121827
  21 H :    0.237573
Sum of atomic charges:   -0.0000000

LOEWDIN ATOMIC CHARGES
----------------------
   0 O :   -0.050501
   1 C :   -0.345335
   2 C :   -0.255575
   3 C :   -0.257738
   4 C :   -0.315835
   5 O :   -0.049841
   6 C :   -0.268117
   7 C :   -0.273578
   8 N :   -0.011964
   9 H :    0.171756
  10 H :    0.132475
  11 H :    0.115897
  12 H :    0.135926
  13 H :    0.143228
  14 H :    0.160784
  15 H :    0.118116
  16 H :    0.122710
  17 H :    0.174374
  18 H :    0.144112
  19 H :    0.122790
  20 H :    0.119790
  21 H :    0.166530

  Mayer bond orders larger than 0.1
B(  0-O ,  1-C ) :   0.9330 B(  0-O ,  9-H ) :   0.8485 B(  1-C ,  2-C ) :   0.9361
B(  1-C , 10-H ) :   0.9233 B(  1-C , 11-H ) :   0.9371 B(  2-C ,  3-C ) :   0.9090
B(  2-C , 12-H ) :   0.9226 B(  2-C , 13-H ) :   0.9174 B(  3-C ,  4-C ) :   0.9050
B(  3-C ,  6-C ) :   0.9413 B(  3-C , 14-H ) :   0.9142 B(  4-C ,  5-O ) :   0.9883
B(  4-C , 15-H ) :   0.9360 B(  4-C , 16-H ) :   0.9242 B(  5-O , 17-H ) :   0.8453
B(  6-C ,  7-C ) :   0.9549 B(  6-C ,  8-N ) :   0.9476 B(  6-C , 18-H ) :   0.9022
B(  7-C ,  8-N ) :   0.9371 B(  7-C , 19-H ) :   0.9238 B(  7-C , 20-H ) :   0.9114
B(  8-N , 21-H ) :   0.8683

MP2 TOTAL ENERGY:     -440.733502316 Eh
FINAL SINGLE POINT ENERGY      -440.733502315942

DIPOLE MOMENT
-------------
                                X             Y             Z
Electronic contribution:     -0.63042      -1.17495      -0.46621
Nuclear contribution   :     -0.00106       1.37462       1.38401
                        -----------------------------------------
Total Dipole Moment    :     -0.63148       0.19967       0.91780
                        -----------------------------------------
Magnitude (a.u.)       :      1.13181
Magnitude (Debye)      :      2.87684

                             ****ORCA TERMINATED NORMALLY****
TOTAL RUN TIME: 0 days 0 hours 16 minutes 40 seconds 997 msec
