                         Program Version 3.0.3 - RELEASE   -
|  1> ! RI-MP2 RIJK def2-TZVP def2-TZVP/C def2-TZVP/JK TIGHTSCF
|  2> % maxcore 2000
|  3> % mp2 density relaxed end
|  4> *xyz 0 1
|  5>  C       -0.2825759275     1.5997643917     0.0592560276
|  6>  N       -0.1507593579     0.1608198358     0.1169994808
|  7>  C       -0.9918358151    -0.6064520256     1.0681044160
|  8>  C       -1.7059894819    -1.8041753028     0.4045655882
|  9>  C       -0.3865947020    -2.6315252000     0.5337632117
| 10>  C        0.2484731100    -1.4935573851     1.3944931725
| 11>  C        1.0935630471    -0.4154691350     0.6530322313
| 12>  C        2.0985692694    -0.8781617638    -0.3797435328
| 13>  O        3.2641887249    -1.0755914071    -0.1478866796
| 14>  H        0.4453096528     2.0110685979    -0.6484593053
| 15>  H       -1.2822502772     1.8655785053    -0.2997434200
| 16>  H       -0.1245551302     2.0956020195     1.0352057332
| 17>  H       -1.5213400647    -0.0003534714     1.8110552223
| 18>  H       -2.5137429609    -2.2091336390     1.0212860477
| 19>  H       -2.0810773115    -1.6220087100    -0.6047240484
| 20>  H       -0.4960094918    -3.5764491953     1.0697570245
| 21>  H        0.1236131281    -2.8377528278    -0.4088458203
| 22>  H        0.5702564589    -1.7551639953     2.3999601299
| 23>  H        1.6125138074     0.2261735728     1.3831318105
| 24>  H        1.6619988420    -1.0429969548    -1.3913226901
| 25> *
| 26>
| 27>                          ****END OF INPUT****

CARTESIAN COORDINATES (ANGSTROEM)
---------------------------------
  C     -0.282576    1.599764    0.059256
  N     -0.150759    0.160820    0.116999
  C     -0.991836   -0.606452    1.068104
  C     -1.705989   -1.804175    0.404566
  C     -0.386595   -2.631525    0.533763
  C      0.248473   -1.493557    1.394493
  C      1.093563   -0.415469    0.653032
  C      2.098569   -0.878162   -0.379744
  O      3.264189   -1.075591   -0.147887
  H      0.445310    2.011069   -0.648459
  H     -1.282250    1.865579   -0.299743
  H     -0.124555    2.095602    1.035206
  H     -1.521340   -0.000353    1.811055
  H     -2.513743   -2.209134    1.021286
  H     -2.081077   -1.622009   -0.604724
  H     -0.496009   -3.576449    1.069757
  H      0.123613   -2.837753   -0.408846
  H      0.570256   -1.755164    2.399960
  H      1.612514    0.226174    1.383132
  H      1.661999   -1.042997   -1.391323

 Total Charge           Charge          ....    0
 Multiplicity           Mult            ....    1
 Number of Electrons    NEL             ....   68
 Basis Dimension        Dim             ....  345

ORBITAL ENERGIES
----------------

  NO   OCC          E(Eh)            E(eV)
   0   2.0000     -20.554847      -559.3258
   1   2.0000     -15.556958      -423.3263
   2   2.0000     -11.324720      -308.1613
   3   2.0000     -11.269790      -306.6666
   4   2.0000     -11.264563      -306.5243
   5   2.0000     -11.253849      -306.2328
   6   2.0000     -11.244394      -305.9755
   7   2.0000     -11.232916      -305.6632
   8   2.0000     -11.226665      -305.4931
   9   2.0000      -1.392743       -37.8985
  10   2.0000      -1.269929       -34.5565
  11   2.0000      -1.102088       -29.9893
  12   2.0000      -1.009058       -27.4579
  13   2.0000      -0.934604       -25.4319
  14   2.0000      -0.890002       -24.2182
  15   2.0000      -0.844974       -22.9929
  16   2.0000      -0.791220       -21.5302
  17   2.0000      -0.723712       -19.6932
  18   2.0000      -0.693112       -18.8605
  19   2.0000      -0.664117       -18.0715
  20   2.0000      -0.653178       -17.7739
  21   2.0000      -0.642640       -17.4871
  22   2.0000      -0.593393       -16.1471
  23   2.0000      -0.586974       -15.9724
  24   2.0000      -0.575352       -15.6561
  25   2.0000      -0.554690       -15.0939
  26   2.0000      -0.525464       -14.2986
  27   2.0000      -0.503578       -13.7030
  28   2.0000      -0.494495       -13.4559
  29   2.0000      -0.478878       -13.0309
  30   2.0000      -0.446003       -12.1364
  31   2.0000      -0.439233       -11.9521
  32   2.0000      -0.400092       -10.8870
  33   2.0000      -0.364932        -9.9303
  34   0.0000       0.117588         3.1997
  35   0.0000       0.137115         3.7311
  36   0.0000       0.150126         4.0851
  37   0.0000       0.158965         4.3257
  38   0.0000       0.163825         4.4579

MULLIKEN ATOMIC CHARGES
-----------------------
   0 C :   -0.341082
   1 N :   -0.190297
   2 C :   -0.050669
   3 C :   -0.192280
   4 C :   -0.291183
   5 C :   -0.009901
   6 C :    0.022695
   7 C :    0.025189
   8 O :   -0.257192
   9 H :    0.140393
  10 H :    0.140510
  11 H :    0.112415
  12 H :    0.106584
  13 H :    0.112863
  14 H :    0.106473
  15 H :    0.124821
  16 H :    0.125029
  17 H :    0.135554
  18 H :    0.091691
  19 H :    0.088388
Sum of atomic charges:    0.0000000

LOEWDIN ATOMIC CHARGES
----------------------
   0 C :   -0.335187
   1 N :    0.109719
   2 C :   -0.201429
   3 C :   -0.222432
   4 C :   -0.211893
   5 C :   -0.148544
   6 C :   -0.239935
   7 C :   -0.277692
   8 O :    0.134964
   9 H :    0.120516
  10 H :    0.120566
  11 H :    0.103046
  12 H :    0.127232
  13 H :    0.131540
  14 H :    0.128488
  15 H :    0.130348
  16 H :    0.132169
  17 H :    0.137526
  18 H :    0.148841
  19 H :    0.112156

  Mayer bond orders larger than 0.1
B(  0-C ,  1-N ) :   0.9160 B(  0-C ,  9-H ) :   0.9339 B(  0-C , 10-H ) :   0.9369
B(  0-C , 11-H ) :   0.9288 B(  1-N ,  2-C ) :   0.9099 B(  1-N ,  6-C ) :   0.9129
B(  2-C ,  3-C ) :   0.9266 B(  2-C ,  5-C ) :   0.8688 B(  2-C , 12-H ) :   0.9173
B(  3-C ,  4-C ) :   0.9775 B(  3-C , 13-H ) :   0.9176 B(  3-C , 14-H ) :   0.9143
B(  4-C ,  5-C ) :   0.9063 B(  4-C , 15-H ) :   0.9292 B(  4-C , 16-H ) :   0.9162
B(  5-C ,  6-C ) :   0.8896 B(  5-C , 17-H ) :   0.9205 B(  6-C ,  7-C ) :   0.8204
B(  6-C , 18-H ) :   0.8913 B(  7-C ,  8-O ) :   2.0097 B(  7-C , 19-H ) :   0.9530

MP2 TOTAL ENERGY:     -402.412523936 Eh
FINAL SINGLE POINT ENERGY      -402.412523935923

DIPOLE MOMENT
-------------
                                X             Y             Z
Electronic contribution:      6.14530      -1.29651      -0.59949
Nuclear contribution   :     -7.24747       1.54933       0.94267
                        -----------------------------------------
Total Dipole Moment    :     -1.10218       0.25282       0.34318
                        -----------------------------------------
Magnitude (a.u.)       :      1.18173
Magnitude (Debye)      :      3.00372

                             ****ORCA TERMINATED NORMALLY****
TOTAL RUN TIME: 0 days 0 hours 18 minutes 52 seconds 987 msec
