                         Program Version 3.0.3 - RELEASE   -
|  1> ! RI-MP2 RIJK def2-TZVP def2-TZVP/C def2-TZVP/JK TIGHTSCF
|  2> % maxcore 2000
|  3> % mp2 density relaxed end
|  4> *xyz 0 1
|  5>  C       -0.4545206648    -0.3027825886     1.5680416931
|  6>  C       -0.1466014814     0.2177047727     0.5293218577
|  7>  C        0.2470785167     0.8594184829    -0.7195698702
|  8>  C        1.4389840011     1.8036897503    -0.5547902219
|  9>  C        2.7941265821     1.2727916148    -0.7525174337
| 10>  O        2.1463057701     2.0482124186    -1.7731385555
| 11>  C        1.1954108577     3.0057517514     0.3101312350
| 12>  C        2.0381176970     4.2419982869     0.1606043463
| 13>  C        0.6033862255     4.2521469867    -0.3051089417
| 14>  H       -0.7327034054    -0.7693020110     2.4805070617
| 15>  H        0.5036555142     0.1036035673    -1.4700764752
| 16>  H       -0.5973596750     1.4314786510    -1.1248961591
| 17>  H        3.6343986959     1.7628175241    -0.2651176492
| 18>  H        2.9368697141     0.2200977637    -0.9916712108
| 19>  H        0.8573435918     2.7519927591     1.3100452826
| 20>  H        2.2988329033     4.7930355378     1.0570860438
| 21>  H        2.7997725233     4.2322743885    -0.6106357842
| 22>  H        0.4364632719     4.2485549416    -1.3768399352
| 23>  H       -0.1297154780     4.8093220624     0.2669683264
| 24> *
| 25>
| 26>                          ****END OF INPUT****

CARTESIAN COORDINATES (ANGSTROEM)
---------------------------------
  C     -0.454521   -0.302783    1.568042
  C     -0.146601    0.217705    0.529322
  C      0.247079    0.859418   -0.719570
  C      1.438984    1.803690   -0.554790
  C      2.794127    1.272792   -0.752517
  O      2.146306    2.048212   -1.773139
  C      1.195411    3.005752    0.310131
  C      2.038118    4.241998    0.160604
  C      0.603386    4.252147   -0.305109
  H     -0.732703   -0.769302    2.480507
  H      0.503656    0.103604   -1.470076
  H     -0.597360    1.431479   -1.124896
  H      3.634399    1.762818   -0.265118
  H      2.936870    0.220098   -0.991671
  H      0.857344    2.751993    1.310045
  H      2.298833    4.793036    1.057086
  H      2.799773    4.232274   -0.610636
  H      0.436463    4.248555   -1.376840
  H     -0.129715    4.809322    0.266968

 Total Charge           Charge          ....    0
 Multiplicity           Mult            ....    1
 Number of Electrons    NEL             ....   66
 Basis Dimension        Dim             ....  339

ORBITAL ENERGIES
----------------

  NO   OCC          E(Eh)            E(eV)
   0   2.0000     -20.570649      -559.7558
   1   2.0000     -11.301952      -307.5417
   2   2.0000     -11.283063      -307.0278
   3   2.0000     -11.259623      -306.3899
   4   2.0000     -11.239973      -305.8552
   5   2.0000     -11.236106      -305.7500
   6   2.0000     -11.226468      -305.4877
   7   2.0000     -11.226374      -305.4852
   8   2.0000     -11.225488      -305.4611
   9   2.0000      -1.416235       -38.5377
  10   2.0000      -1.145320       -31.1657
  11   2.0000      -1.079717       -29.3806
  12   2.0000      -0.992191       -26.9989
  13   2.0000      -0.921491       -25.0750
  14   2.0000      -0.875857       -23.8333
  15   2.0000      -0.822792       -22.3893
  16   2.0000      -0.769535       -20.9401
  17   2.0000      -0.726015       -19.7559
  18   2.0000      -0.703293       -19.1376
  19   2.0000      -0.662030       -18.0148
  20   2.0000      -0.656711       -17.8700
  21   2.0000      -0.629960       -17.1421
  22   2.0000      -0.594168       -16.1681
  23   2.0000      -0.582412       -15.8482
  24   2.0000      -0.547375       -14.8948
  25   2.0000      -0.515559       -14.0291
  26   2.0000      -0.510725       -13.8975
  27   2.0000      -0.472269       -12.8511
  28   2.0000      -0.459238       -12.4965
  29   2.0000      -0.424038       -11.5387
  30   2.0000      -0.401980       -10.9384
  31   2.0000      -0.391424       -10.6512
  32   2.0000      -0.387599       -10.5471
  33   0.0000       0.143945         3.9169
  34   0.0000       0.157413         4.2834
  35   0.0000       0.160675         4.3722
  36   0.0000       0.165878         4.5138
  37   0.0000       0.174527         4.7491

MULLIKEN ATOMIC CHARGES
-----------------------
   0 C :   -0.184258
   1 C :   -0.074022
   2 C :   -0.267844
   3 C :    0.220147
   4 C :   -0.104002
   5 O :   -0.344983
   6 C :   -0.136386
   7 C :   -0.268939
   8 C :   -0.276495
   9 H :    0.189975
  10 H :    0.159176
  11 H :    0.147520
  12 H :    0.124487
  13 H :    0.121717
  14 H :    0.142230
  15 H :    0.130990
  16 H :    0.148900
  17 H :    0.139201
  18 H :    0.132588
Sum of atomic charges:   -0.0000000

LOEWDIN ATOMIC CHARGES
----------------------
   0 C :   -0.103451
   1 C :   -0.104746
   2 C :   -0.199525
   3 C :   -0.307587
   4 C :   -0.228148
   5 O :    0.169998
   6 C :   -0.193443
   7 C :   -0.220073
   8 C :   -0.217594
   9 H :    0.126841
  10 H :    0.165576
  11 H :    0.165839
  12 H :    0.124529
  13 H :    0.123381
  14 H :    0.159711
  15 H :    0.130797
  16 H :    0.139337
  17 H :    0.137943
  18 H :    0.130615

  Mayer bond orders larger than 0.1
B(  0-C ,  1-C ) :   2.6337 B(  0-C ,  9-H ) :   0.9050 B(  1-C ,  2-C ) :   1.0570
B(  2-C ,  3-C ) :   0.8481 B(  2-C , 10-H ) :   0.9367 B(  2-C , 11-H ) :   0.9037
B(  3-C ,  4-C ) :   0.9696 B(  3-C ,  5-O ) :   0.8821 B(  3-C ,  6-C ) :   0.9369
B(  4-C ,  5-O ) :   0.8884 B(  4-C , 12-H ) :   0.9084 B(  4-C , 13-H ) :   0.9123
B(  6-C ,  7-C ) :   0.8779 B(  6-C ,  8-C ) :   0.8758 B(  6-C , 14-H ) :   0.9228
B(  7-C ,  8-C ) :   0.9096 B(  7-C , 15-H ) :   0.9290 B(  7-C , 16-H ) :   0.9210
B(  8-C , 17-H ) :   0.9243 B(  8-C , 18-H ) :   0.9304

MP2 TOTAL ENERGY:     -385.135365277 Eh
FINAL SINGLE POINT ENERGY      -385.135365277276

DIPOLE MOMENT
-------------
                                X             Y             Z
Electronic contribution:     -0.56910      -3.74965      -0.80994
Nuclear contribution   :      0.59652       3.62566       1.31397
                        -----------------------------------------
Total Dipole Moment    :      0.02742      -0.12400       0.50403
                        -----------------------------------------
Magnitude (a.u.)       :      0.51978
Magnitude (Debye)      :      1.32119

                             ****ORCA TERMINATED NORMALLY****
TOTAL RUN TIME: 0 days 0 hours 19 minutes 24 seconds 118 msec
