                         Program Version 3.0.3 - RELEASE   -
|  1> ! RI-MP2 RIJK def2-TZVP def2-TZVP/C def2-TZVP/JK TIGHTSCF
|  2> % maxcore 2000
|  3> % mp2 density relaxed end
|  4> *xyz 0 1
|  5>  C        0.1322385054     1.3447023388     0.2361602040
|  6>  O        0.1257399295    -0.0463088359     0.0105830811
|  7>  C        0.6551854426    -0.5505707657    -1.2282326239
|  8>  C       -0.2697159302    -0.1437916379    -2.3879422017
|  9>  C        2.0868636275    -0.0446551853    -1.4597746523
| 10>  C        0.6542124062    -2.0872141441    -1.0475528949
| 11>  C        0.9892497633    -2.9209536784    -2.2704276237
| 12>  C        0.9951806859    -2.6346588947     0.2905684253
| 13>  N       -0.3967953658    -2.6848507124    -0.2064775654
| 14>  H        1.1476948728     1.7555103749     0.3130992909
| 15>  H       -0.4125467415     1.9048205948    -0.5356668877
| 16>  H       -0.3743909062     1.5013154484     1.1921060975
| 17>  H       -0.3381107343     0.9441557515    -2.4748384436
| 18>  H        0.1075673390    -0.5179636884    -3.3426309078
| 19>  H       -1.2757678834    -0.5434434945    -2.2325461936
| 20>  H        2.7165764283    -0.2682317155    -0.5941459365
| 21>  H        2.5265630891    -0.5255555953    -2.3366975006
| 22>  H        2.1083558198     1.0343388384    -1.6394030463
| 23>  H        1.9843868496    -2.6945209990    -2.6672436497
| 24>  H        0.9666311994    -3.9786636581    -1.9984148358
| 25>  H        0.2595709360    -2.7764937270    -3.0728499795
| 26>  H        1.4938334887    -3.5980180004     0.3625626959
| 27>  H        1.2193532267    -1.9346216373     1.0879857283
| 28>  H       -0.9049949382    -1.9268261668     0.2443163900
| 29> *
| 30>
| 31>                          ****END OF INPUT****

CARTESIAN COORDINATES (ANGSTROEM)
---------------------------------
  C      0.132239    1.344702    0.236160
  O      0.125740   -0.046309    0.010583
  C      0.655185   -0.550571   -1.228233
  C     -0.269716   -0.143792   -2.387942
  C      2.086864   -0.044655   -1.459775
  C      0.654212   -2.087214   -1.047553
  C      0.989250   -2.920954   -2.270428
  C      0.995181   -2.634659    0.290568
  N     -0.396795   -2.684851   -0.206478
  H      1.147695    1.755510    0.313099
  H     -0.412547    1.904821   -0.535667
  H     -0.374391    1.501315    1.192106
  H     -0.338111    0.944156   -2.474838
  H      0.107567   -0.517964   -3.342631
  H     -1.275768   -0.543443   -2.232546
  H      2.716576   -0.268232   -0.594146
  H      2.526563   -0.525556   -2.336698
  H      2.108356    1.034339   -1.639403
  H      1.984387   -2.694521   -2.667244
  H      0.966631   -3.978664   -1.998415
  H      0.259571   -2.776494   -3.072850
  H      1.493833   -3.598018    0.362563
  H      1.219353   -1.934622    1.087986
  H     -0.904995   -1.926826    0.244316

 Total Charge           Charge          ....    0
 Multiplicity           Mult            ....    1
 Number of Electrons    NEL             ....   72
 Basis Dimension        Dim             ....  369

ORBITAL ENERGIES
----------------

  NO   OCC          E(Eh)            E(eV)
   0   2.0000     -20.556333      -559.3663
   1   2.0000     -15.537037      -422.7843
   2   2.0000     -11.295974      -307.3791
   3   2.0000     -11.274469      -306.7939
   4   2.0000     -11.255514      -306.2781
   5   2.0000     -11.236319      -305.7558
   6   2.0000     -11.220374      -305.3219
   7   2.0000     -11.217160      -305.2345
   8   2.0000     -11.211934      -305.0922
   9   2.0000      -1.378421       -37.5087
  10   2.0000      -1.246016       -33.9058
  11   2.0000      -1.066159       -29.0117
  12   2.0000      -0.973340       -26.4859
  13   2.0000      -0.946401       -25.7529
  14   2.0000      -0.937800       -25.5188
  15   2.0000      -0.864370       -23.5207
  16   2.0000      -0.821559       -22.3557
  17   2.0000      -0.732109       -19.9217
  18   2.0000      -0.701594       -19.0913
  19   2.0000      -0.654604       -17.8127
  20   2.0000      -0.646848       -17.6016
  21   2.0000      -0.602499       -16.3948
  22   2.0000      -0.593474       -16.1492
  23   2.0000      -0.584823       -15.9138
  24   2.0000      -0.567872       -15.4526
  25   2.0000      -0.564702       -15.3663
  26   2.0000      -0.559245       -15.2178
  27   2.0000      -0.532736       -14.4965
  28   2.0000      -0.527998       -14.3676
  29   2.0000      -0.504606       -13.7310
  30   2.0000      -0.486995       -13.2518
  31   2.0000      -0.474909       -12.9229
  32   2.0000      -0.452482       -12.3127
  33   2.0000      -0.437879       -11.9153
  34   2.0000      -0.416347       -11.3294
  35   2.0000      -0.370990       -10.0952
  36   0.0000       0.130038         3.5385
  37   0.0000       0.159350         4.3361
  38   0.0000       0.168800         4.5933
  39   0.0000       0.175400         4.7729
  40   0.0000       0.186392         5.0720

MULLIKEN ATOMIC CHARGES
-----------------------
   0 C :   -0.238191
   1 O :   -0.321706
   2 C :    0.227025
   3 C :   -0.451289
   4 C :   -0.461962
   5 C :    0.205033
   6 C :   -0.469061
   7 C :   -0.208004
   8 N :   -0.392920
   9 H :    0.123951
  10 H :    0.111869
  11 H :    0.144067
  12 H :    0.130690
  13 H :    0.141597
  14 H :    0.150866
  15 H :    0.145605
  16 H :    0.139552
  17 H :    0.138357
  18 H :    0.125069
  19 H :    0.147627
  20 H :    0.137744
  21 H :    0.112753
  22 H :    0.131800
  23 H :    0.229528
Sum of atomic charges:   -0.0000000

LOEWDIN ATOMIC CHARGES
----------------------
   0 C :   -0.358843
   1 O :    0.169066
   2 C :   -0.358446
   3 C :   -0.267878
   4 C :   -0.267688
   5 C :   -0.299495
   6 C :   -0.265488
   7 C :   -0.249341
   8 N :    0.004654
   9 H :    0.104204
  10 H :    0.102768
  11 H :    0.115544
  12 H :    0.122921
  13 H :    0.129561
  14 H :    0.132669
  15 H :    0.131197
  16 H :    0.130326
  17 H :    0.125061
  18 H :    0.123158
  19 H :    0.135068
  20 H :    0.126905
  21 H :    0.122073
  22 H :    0.124256
  23 H :    0.167748

  Mayer bond orders larger than 0.1
B(  0-C ,  1-O ) :   0.9172 B(  0-C ,  9-H ) :   0.9376 B(  0-C , 10-H ) :   0.9291
B(  0-C , 11-H ) :   0.9408 B(  1-O ,  2-C ) :   0.9077 B(  2-C ,  3-C ) :   0.9165
B(  2-C ,  4-C ) :   0.9071 B(  2-C ,  5-C ) :   0.9020 B(  3-C , 12-H ) :   0.9280
B(  3-C , 13-H ) :   0.9326 B(  3-C , 14-H ) :   0.9366 B(  4-C , 15-H ) :   0.9397
B(  4-C , 16-H ) :   0.9289 B(  4-C , 17-H ) :   0.9312 B(  5-C ,  6-C ) :   0.8726
B(  5-C ,  7-C ) :   0.9504 B(  5-C ,  8-N ) :   0.8883 B(  6-C , 18-H ) :   0.9388
B(  6-C , 19-H ) :   0.9353 B(  6-C , 20-H ) :   0.9448 B(  7-C ,  8-N ) :   0.9232
B(  7-C , 21-H ) :   0.9156 B(  7-C , 22-H ) :   0.9049 B(  8-N , 23-H ) :   0.8682

MP2 TOTAL ENERGY:     -404.833656333 Eh
FINAL SINGLE POINT ENERGY      -404.833656333392

DIPOLE MOMENT
-------------
                                X             Y             Z
Electronic contribution:     -2.31024      -2.78310       3.82701
Nuclear contribution   :      2.81391       3.75929      -4.05204
                        -----------------------------------------
Total Dipole Moment    :      0.50367       0.97619      -0.22503
                        -----------------------------------------
Magnitude (a.u.)       :      1.12128
Magnitude (Debye)      :      2.85006

                             ****ORCA TERMINATED NORMALLY****
TOTAL RUN TIME: 0 days 0 hours 22 minutes 28 seconds 679 msec
