                         Program Version 3.0.3 - RELEASE   -
|  1> ! RI-MP2 RIJK def2-TZVP def2-TZVP/C def2-TZVP/JK TIGHTSCF
|  2> % maxcore 2000
|  3> % mp2 density relaxed end
|  4> *xyz 0 1
|  5>  O        0.1590219149     1.2639566519    -0.3284333750
|  6>  C        0.0868278113    -0.0653092231     0.1478698815
|  7>  C       -1.3261333715    -0.6232849672     0.0874711691
|  8>  C       -2.3005737147     0.1355876150     0.9084714997
|  9>  O       -2.0431691660     1.1597308578     1.5033307265
| 10>  C       -1.9975448851    -1.1864522990    -1.1646125347
| 11>  C       -0.9808320456    -1.9159669753    -2.0516257071
| 12>  C       -0.6631060216    -2.8718608791    -0.8559692807
| 13>  C       -1.6814671565    -2.1042536172     0.0005984217
| 14>  H       -0.3822615717     1.7842638860     0.2793012409
| 15>  H        0.7688188940    -0.6541317654    -0.4685798358
| 16>  H        0.4431318182    -0.1396652920     1.1869790588
| 17>  H       -3.3271568989    -0.2955622521     0.9443013689
| 18>  H       -2.9549419119    -0.8011203601    -1.4954004168
| 19>  H       -1.4611686843    -2.4409382342    -2.8796183265
| 20>  H       -0.1631162585    -1.3109344784    -2.4508499682
| 21>  H       -0.9935299233    -3.8933997747    -1.0545096102
| 22>  H        0.3663365507    -2.9081579277    -0.4900321098
| 23>  H       -2.3517566796    -2.5518930650     0.7258334178
| 24> *
| 25>
| 26>                          ****END OF INPUT****

CARTESIAN COORDINATES (ANGSTROEM)
---------------------------------
  O      0.159022    1.263957   -0.328433
  C      0.086828   -0.065309    0.147870
  C     -1.326133   -0.623285    0.087471
  C     -2.300574    0.135588    0.908471
  O     -2.043169    1.159731    1.503331
  C     -1.997545   -1.186452   -1.164613
  C     -0.980832   -1.915967   -2.051626
  C     -0.663106   -2.871861   -0.855969
  C     -1.681467   -2.104254    0.000598
  H     -0.382262    1.784264    0.279301
  H      0.768819   -0.654132   -0.468580
  H      0.443132   -0.139665    1.186979
  H     -3.327157   -0.295562    0.944301
  H     -2.954942   -0.801120   -1.495400
  H     -1.461169   -2.440938   -2.879618
  H     -0.163116   -1.310934   -2.450850
  H     -0.993530   -3.893400   -1.054510
  H      0.366337   -2.908158   -0.490032
  H     -2.351757   -2.551893    0.725833

 Total Charge           Charge          ....    0
 Multiplicity           Mult            ....    1
 Number of Electrons    NEL             ....   68
 Basis Dimension        Dim             ....  339

ORBITAL ENERGIES
----------------

  NO   OCC          E(Eh)            E(eV)
   0   2.0000     -20.561758      -559.5139
   1   2.0000     -20.544031      -559.0315
   2   2.0000     -11.341698      -308.6233
   3   2.0000     -11.278640      -306.9074
   4   2.0000     -11.261312      -306.4359
   5   2.0000     -11.259684      -306.3916
   6   2.0000     -11.258021      -306.3463
   7   2.0000     -11.245641      -306.0094
   8   2.0000     -11.243070      -305.9395
   9   2.0000      -1.403149       -38.1816
  10   2.0000      -1.351338       -36.7718
  11   2.0000      -1.217334       -33.1253
  12   2.0000      -1.038588       -28.2614
  13   2.0000      -0.940573       -25.5943
  14   2.0000      -0.912219       -24.8227
  15   2.0000      -0.870079       -23.6761
  16   2.0000      -0.770358       -20.9625
  17   2.0000      -0.756238       -20.5783
  18   2.0000      -0.715764       -19.4769
  19   2.0000      -0.679214       -18.4824
  20   2.0000      -0.665858       -18.1189
  21   2.0000      -0.638844       -17.3838
  22   2.0000      -0.618689       -16.8354
  23   2.0000      -0.593109       -16.1393
  24   2.0000      -0.578298       -15.7363
  25   2.0000      -0.562266       -15.3000
  26   2.0000      -0.532249       -14.4832
  27   2.0000      -0.517971       -14.0947
  28   2.0000      -0.495820       -13.4919
  29   2.0000      -0.484771       -13.1913
  30   2.0000      -0.462049       -12.5730
  31   2.0000      -0.424919       -11.5626
  32   2.0000      -0.413744       -11.2586
  33   2.0000      -0.398936       -10.8556
  34   0.0000       0.121443         3.3046
  35   0.0000       0.136374         3.7109
  36   0.0000       0.151377         4.1192
  37   0.0000       0.154126         4.1940
  38   0.0000       0.165834         4.5126

MULLIKEN ATOMIC CHARGES
-----------------------
   0 O :   -0.479842
   1 C :   -0.029961
   2 C :    0.077373
   3 C :    0.058316
   4 O :   -0.318027
   5 C :   -0.130667
   6 C :   -0.263765
   7 C :   -0.254958
   8 C :   -0.150064
   9 H :    0.333202
  10 H :    0.119096
  11 H :    0.115202
  12 H :    0.098083
  13 H :    0.146009
  14 H :    0.132062
  15 H :    0.142961
  16 H :    0.131941
  17 H :    0.129736
  18 H :    0.143302
Sum of atomic charges:   -0.0000000

LOEWDIN ATOMIC CHARGES
----------------------
   0 O :   -0.039301
   1 C :   -0.299836
   2 C :   -0.218107
   3 C :   -0.255369
   4 O :    0.113309
   5 C :   -0.132635
   6 C :   -0.205987
   7 C :   -0.208999
   8 C :   -0.137731
   9 H :    0.176490
  10 H :    0.134312
  11 H :    0.129080
  12 H :    0.125881
  13 H :    0.141128
  14 H :    0.137973
  15 H :    0.133311
  16 H :    0.138378
  17 H :    0.128475
  18 H :    0.139629

  Mayer bond orders larger than 0.1
B(  0-O ,  1-C ) :   0.9518 B(  0-O ,  9-H ) :   0.8246 B(  1-C ,  2-C ) :   0.9217
B(  1-C , 10-H ) :   0.9277 B(  1-C , 11-H ) :   0.9274 B(  2-C ,  3-C ) :   0.8573
B(  2-C ,  5-C ) :   0.7862 B(  2-C ,  8-C ) :   0.7916 B(  3-C ,  4-O ) :   1.9105
B(  3-C , 12-H ) :   0.9626 B(  5-C ,  6-C ) :   0.9176 B(  5-C ,  8-C ) :   0.8406
B(  5-C , 13-H ) :   0.9183 B(  6-C ,  7-C ) :   0.9623 B(  6-C , 14-H ) :   0.9248
B(  6-C , 15-H ) :   0.9337 B(  7-C ,  8-C ) :   0.9189 B(  7-C , 16-H ) :   0.9238
B(  7-C , 17-H ) :   0.9337 B(  8-C , 18-H ) :   0.9166

MP2 TOTAL ENERGY:     -422.297648319 Eh
FINAL SINGLE POINT ENERGY      -422.297648319388

DIPOLE MOMENT
-------------
                                X             Y             Z
Electronic contribution:     -1.92481       5.17052       3.39096
Nuclear contribution   :      1.48458      -6.52403      -3.68270
                        -----------------------------------------
Total Dipole Moment    :     -0.44023      -1.35350      -0.29174
                        -----------------------------------------
Magnitude (a.u.)       :      1.45289
Magnitude (Debye)      :      3.69295

                             ****ORCA TERMINATED NORMALLY****
TOTAL RUN TIME: 0 days 0 hours 17 minutes 55 seconds 206 msec
