                         Program Version 3.0.3 - RELEASE   -
|  1> ! RI-MP2 RIJK def2-TZVP def2-TZVP/C def2-TZVP/JK TIGHTSCF
|  2> % maxcore 2000
|  3> % mp2 density relaxed end
|  4> *xyz 0 1
|  5>  O       -1.3128665291     0.7722468233     1.0246997474
|  6>  C       -0.2766142370     0.3278329273     0.1696635362
|  7>  C       -0.7270549825    -0.7767253914    -0.7940601774
|  8>  N       -1.8221337874    -0.4149561272    -1.6966260377
|  9>  C       -3.1748194299    -0.5085782518    -1.2055326210
| 10>  C       -3.8721280930     0.8260399493    -0.9488447222
| 11>  O       -3.2816738925     1.8767327227    -0.8743464239
| 12>  C       -4.0689194756    -1.3495764715    -2.1372351886
| 13>  O       -5.2458631326    -1.5154569683    -1.9577131356
| 14>  H       -1.8415185204     1.4071360665     0.5263302307
| 15>  H        0.1488623646     1.1645056960    -0.4072685259
| 16>  H        0.5270157793    -0.0622760873     0.8063239249
| 17>  H        0.1365005314    -1.0861742410    -1.3982506465
| 18>  H       -1.0412154045    -1.6552822060    -0.2192979518
| 19>  H       -1.6617534731     0.5015586426    -2.1015309590
| 20>  H       -3.2081762606    -1.0231658083    -0.2327875008
| 21>  H       -4.9724336848     0.7600793111    -0.8555520670
| 22>  H       -3.5113685724    -1.7839040360    -2.9944326520
| 23> *
| 24>
| 25>                          ****END OF INPUT****

CARTESIAN COORDINATES (ANGSTROEM)
---------------------------------
  O     -1.312867    0.772247    1.024700
  C     -0.276614    0.327833    0.169664
  C     -0.727055   -0.776725   -0.794060
  N     -1.822134   -0.414956   -1.696626
  C     -3.174819   -0.508578   -1.205533
  C     -3.872128    0.826040   -0.948845
  O     -3.281674    1.876733   -0.874346
  C     -4.068919   -1.349576   -2.137235
  O     -5.245863   -1.515457   -1.957713
  H     -1.841519    1.407136    0.526330
  H      0.148862    1.164506   -0.407269
  H      0.527016   -0.062276    0.806324
  H      0.136501   -1.086174   -1.398251
  H     -1.041215   -1.655282   -0.219298
  H     -1.661753    0.501559   -2.101531
  H     -3.208176   -1.023166   -0.232788
  H     -4.972434    0.760079   -0.855552
  H     -3.511369   -1.783904   -2.994433

 Total Charge           Charge          ....    0
 Multiplicity           Mult            ....    1
 Number of Electrons    NEL             ....   70
 Basis Dimension        Dim             ....  333

ORBITAL ENERGIES
----------------

  NO   OCC          E(Eh)            E(eV)
   0   2.0000     -20.587782      -560.2220
   1   2.0000     -20.580008      -560.0105
   2   2.0000     -20.553598      -559.2918
   3   2.0000     -15.571247      -423.7152
   4   2.0000     -11.362222      -309.1818
   5   2.0000     -11.351900      -308.9009
   6   2.0000     -11.301639      -307.5332
   7   2.0000     -11.281099      -306.9743
   8   2.0000     -11.267946      -306.6164
   9   2.0000      -1.430003       -38.9124
  10   2.0000      -1.420065       -38.6419
  11   2.0000      -1.361987       -37.0615
  12   2.0000      -1.239292       -33.7229
  13   2.0000      -1.052551       -28.6414
  14   2.0000      -0.971952       -26.4482
  15   2.0000      -0.870212       -23.6797
  16   2.0000      -0.846693       -23.0397
  17   2.0000      -0.795886       -21.6571
  18   2.0000      -0.728446       -19.8220
  19   2.0000      -0.711758       -19.3679
  20   2.0000      -0.687883       -18.7182
  21   2.0000      -0.677340       -18.4314
  22   2.0000      -0.656704       -17.8698
  23   2.0000      -0.630124       -17.1465
  24   2.0000      -0.628741       -17.1089
  25   2.0000      -0.612569       -16.6689
  26   2.0000      -0.560698       -15.2574
  27   2.0000      -0.558464       -15.1966
  28   2.0000      -0.548210       -14.9176
  29   2.0000      -0.530734       -14.4420
  30   2.0000      -0.499382       -13.5889
  31   2.0000      -0.472080       -12.8460
  32   2.0000      -0.462204       -12.5772
  33   2.0000      -0.438497       -11.9321
  34   2.0000      -0.387153       -10.5350
  35   0.0000       0.090878         2.4729
  36   0.0000       0.117174         3.1885
  37   0.0000       0.140882         3.8336
  38   0.0000       0.150504         4.0954
  39   0.0000       0.170390         4.6366

MULLIKEN ATOMIC CHARGES
-----------------------
   0 O :   -0.479812
   1 C :   -0.083654
   2 C :   -0.118122
   3 N :   -0.383823
   4 C :    0.034237
   5 C :    0.084674
   6 O :   -0.314929
   7 C :    0.097461
   8 O :   -0.261985
   9 H :    0.338935
  10 H :    0.111283
  11 H :    0.112791
  12 H :    0.126688
  13 H :    0.116601
  14 H :    0.219637
  15 H :    0.155875
  16 H :    0.133495
  17 H :    0.110649
Sum of atomic charges:   -0.0000000

LOEWDIN ATOMIC CHARGES
----------------------
   0 O :   -0.043907
   1 C :   -0.365142
   2 C :   -0.318040
   3 N :    0.021595
   4 C :   -0.324617
   5 C :   -0.258941
   6 O :    0.117885
   7 C :   -0.267452
   8 O :    0.142213
   9 H :    0.169634
  10 H :    0.117402
  11 H :    0.129192
  12 H :    0.135396
  13 H :    0.135028
  14 H :    0.175549
  15 H :    0.186252
  16 H :    0.130076
  17 H :    0.117876

  Mayer bond orders larger than 0.1
B(  0-O ,  1-C ) :   0.9510 B(  0-O ,  9-H ) :   0.8240 B(  1-C ,  2-C ) :   0.9164
B(  1-C , 10-H ) :   0.9375 B(  1-C , 11-H ) :   0.9314 B(  2-C ,  3-N ) :   0.9216
B(  2-C , 12-H ) :   0.9254 B(  2-C , 13-H ) :   0.9339 B(  3-N ,  4-C ) :   0.9406
B(  3-N , 14-H ) :   0.8765 B(  4-C ,  5-C ) :   0.8726 B(  4-C ,  7-C ) :   0.8309
B(  4-C , 15-H ) :   0.8702 B(  5-C ,  6-O ) :   1.8741 B(  5-C , 16-H ) :   0.9231
B(  7-C ,  8-O ) :   1.9760 B(  7-C , 17-H ) :   0.9279

MP2 TOTAL ENERGY:     -475.463754758 Eh
FINAL SINGLE POINT ENERGY      -475.463754758134

DIPOLE MOMENT
-------------
                                X             Y             Z
Electronic contribution:     -6.99755       0.96299      -1.61901
Nuclear contribution   :      7.65990      -1.18310       1.19818
                        -----------------------------------------
Total Dipole Moment    :      0.66236      -0.22011      -0.42083
                        -----------------------------------------
Magnitude (a.u.)       :      0.81502
Magnitude (Debye)      :      2.07162

                             ****ORCA TERMINATED NORMALLY****
TOTAL RUN TIME: 0 days 0 hours 16 minutes 48 seconds 311 msec
