                         Program Version 3.0.3 - RELEASE   -
|  1> ! RI-MP2 RIJK def2-TZVP def2-TZVP/C def2-TZVP/JK TIGHTSCF
|  2> % maxcore 2000
|  3> % mp2 density relaxed end
|  4> *xyz 0 1
|  5>  C        0.5798431638     1.4688156601    -0.0499233276
|  6>  C       -0.1501388331     0.1383543757     0.1339751330
|  7>  C        0.1893253642    -0.8713862466    -0.9648540145
|  8>  O        1.5659470928    -1.1970064055    -0.9808817651
|  9>  O        0.2217445113    -0.5040820492     1.3576514272
| 10>  C       -0.4183720958    -0.0214235473     2.5208608846
| 11>  C        0.0934678028    -0.7751480833     3.7285737956
| 12>  C        0.5072823438    -2.1931469596     3.6298826297
| 13>  N        1.5144991782    -1.1284829281     3.8301743476
| 14>  H        1.6535465032     1.2915256271    -0.1465782199
| 15>  H        0.2292581887     1.9681216733    -0.9589146822
| 16>  H        0.4049651195     2.1466743306     0.7897292502
| 17>  H       -1.2399869919     0.2999617052     0.1304246929
| 18>  H       -0.4330556263    -1.7681447904    -0.8238998044
| 19>  H       -0.0468755338    -0.4454758374    -1.9453910999
| 20>  H        1.7772674803    -1.5099528496    -0.0941580498
| 21>  H       -0.2248329232     1.0543519179     2.6557432990
| 22>  H       -1.5108746919    -0.1483675142     2.4368420125
| 23>  H       -0.3428899707    -0.4217904626     4.6612456518
| 24>  H        0.3714639430    -2.8598167296     4.4765279488
| 25>  H        0.4477074982    -2.6646689877     2.6543005699
| 26>  H        1.9500347471    -0.9298532486     2.9316401105
| 27> *
| 28>
| 29>                          ****END OF INPUT****

CARTESIAN COORDINATES (ANGSTROEM)
---------------------------------
  C      0.579843    1.468816   -0.049923
  C     -0.150139    0.138354    0.133975
  C      0.189325   -0.871386   -0.964854
  O      1.565947   -1.197006   -0.980882
  O      0.221745   -0.504082    1.357651
  C     -0.418372   -0.021424    2.520861
  C      0.093468   -0.775148    3.728574
  C      0.507282   -2.193147    3.629883
  N      1.514499   -1.128483    3.830174
  H      1.653547    1.291526   -0.146578
  H      0.229258    1.968122   -0.958915
  H      0.404965    2.146674    0.789729
  H     -1.239987    0.299962    0.130425
  H     -0.433056   -1.768145   -0.823900
  H     -0.046876   -0.445476   -1.945391
  H      1.777267   -1.509953   -0.094158
  H     -0.224833    1.054352    2.655743
  H     -1.510875   -0.148368    2.436842
  H     -0.342890   -0.421790    4.661246
  H      0.371464   -2.859817    4.476528
  H      0.447707   -2.664669    2.654301
  H      1.950035   -0.929853    2.931640

 Total Charge           Charge          ....    0
 Multiplicity           Mult            ....    1
 Number of Electrons    NEL             ....   72
 Basis Dimension        Dim             ....  357

ORBITAL ENERGIES
----------------

  NO   OCC          E(Eh)            E(eV)
   0   2.0000     -20.570343      -559.7475
   1   2.0000     -20.555518      -559.3441
   2   2.0000     -15.552627      -423.2085
   3   2.0000     -11.292157      -307.2752
   4   2.0000     -11.291114      -307.2468
   5   2.0000     -11.278210      -306.8957
   6   2.0000     -11.261177      -306.4322
   7   2.0000     -11.250205      -306.1336
   8   2.0000     -11.221269      -305.3462
   9   2.0000      -1.396704       -38.0062
  10   2.0000      -1.358077       -36.9552
  11   2.0000      -1.256027       -34.1782
  12   2.0000      -1.056154       -28.7394
  13   2.0000      -0.973102       -26.4794
  14   2.0000      -0.932011       -25.3613
  15   2.0000      -0.880932       -23.9714
  16   2.0000      -0.818685       -22.2776
  17   2.0000      -0.792083       -21.5537
  18   2.0000      -0.708319       -19.2743
  19   2.0000      -0.692063       -18.8320
  20   2.0000      -0.679887       -18.5007
  21   2.0000      -0.652178       -17.7467
  22   2.0000      -0.637549       -17.3486
  23   2.0000      -0.628672       -17.1070
  24   2.0000      -0.585482       -15.9318
  25   2.0000      -0.565774       -15.3955
  26   2.0000      -0.546772       -14.8784
  27   2.0000      -0.542404       -14.7596
  28   2.0000      -0.534390       -14.5415
  29   2.0000      -0.503859       -13.7107
  30   2.0000      -0.481980       -13.1153
  31   2.0000      -0.478195       -13.0124
  32   2.0000      -0.467402       -12.7187
  33   2.0000      -0.448568       -12.2062
  34   2.0000      -0.426805       -11.6139
  35   2.0000      -0.386818       -10.5259
  36   0.0000       0.129302         3.5185
  37   0.0000       0.137971         3.7544
  38   0.0000       0.161634         4.3983
  39   0.0000       0.163809         4.4575
  40   0.0000       0.181424         4.9368

MULLIKEN ATOMIC CHARGES
-----------------------
   0 C :   -0.392938
   1 C :    0.030280
   2 C :    0.018548
   3 O :   -0.479126
   4 O :   -0.344166
   5 C :   -0.068111
   6 C :   -0.028897
   7 C :   -0.190621
   8 N :   -0.376122
   9 H :    0.144299
  10 H :    0.129306
  11 H :    0.130382
  12 H :    0.075128
  13 H :    0.107471
  14 H :    0.105377
  15 H :    0.324269
  16 H :    0.105159
  17 H :    0.105934
  18 H :    0.123735
  19 H :    0.123661
  20 H :    0.134495
  21 H :    0.221937
Sum of atomic charges:    0.0000000

LOEWDIN ATOMIC CHARGES
----------------------
   0 C :   -0.296660
   1 C :   -0.356299
   2 C :   -0.329609
   3 O :   -0.041803
   4 O :    0.165131
   5 C :   -0.314509
   6 C :   -0.290231
   7 C :   -0.268068
   8 N :   -0.020050
   9 H :    0.130463
  10 H :    0.128622
  11 H :    0.120964
  12 H :    0.138549
  13 H :    0.120327
  14 H :    0.132224
  15 H :    0.175580
  16 H :    0.125867
  17 H :    0.127469
  18 H :    0.144189
  19 H :    0.122793
  20 H :    0.121703
  21 H :    0.163350

  Mayer bond orders larger than 0.1
B(  0-C ,  1-C ) :   0.9315 B(  0-C ,  9-H ) :   0.9276 B(  0-C , 10-H ) :   0.9302
B(  0-C , 11-H ) :   0.9346 B(  1-C ,  2-C ) :   0.9321 B(  1-C ,  4-O ) :   0.8698
B(  1-C , 12-H ) :   0.9298 B(  2-C ,  3-O ) :   0.9297 B(  2-C , 13-H ) :   0.9305
B(  2-C , 14-H ) :   0.9230 B(  3-O , 15-H ) :   0.8363 B(  4-O ,  5-C ) :   0.9252
B(  5-C ,  6-C ) :   0.9622 B(  5-C , 16-H ) :   0.9206 B(  5-C , 17-H ) :   0.9168
B(  6-C ,  7-C ) :   0.9533 B(  6-C ,  8-N ) :   0.9492 B(  6-C , 18-H ) :   0.9126
B(  7-C ,  8-N ) :   0.9093 B(  7-C , 19-H ) :   0.9254 B(  7-C , 20-H ) :   0.9139
B(  8-N , 21-H ) :   0.8782

MP2 TOTAL ENERGY:     -440.727080386 Eh
FINAL SINGLE POINT ENERGY      -440.727080385629

DIPOLE MOMENT
-------------
                                X             Y             Z
Electronic contribution:      1.83388      -2.79737       1.31449
Nuclear contribution   :     -2.94502       3.13842      -1.46103
                        -----------------------------------------
Total Dipole Moment    :     -1.11114       0.34105      -0.14653
                        -----------------------------------------
Magnitude (a.u.)       :      1.17150
Magnitude (Debye)      :      2.97773

                             ****ORCA TERMINATED NORMALLY****
TOTAL RUN TIME: 0 days 0 hours 16 minutes 27 seconds 527 msec
