                         Program Version 3.0.3 - RELEASE   -
|  1> ! RI-MP2 RIJK def2-TZVP def2-TZVP/C def2-TZVP/JK TIGHTSCF
|  2> % maxcore 2000
|  3> % mp2 density relaxed end
|  4> *xyz 0 1
|  5>  C        0.1108984945     1.5137964962    -0.3530461948
|  6>  C        0.2346725797     0.0083549028    -0.2239960688
|  7>  N        1.5735200304    -0.5607037103    -0.2852427149
|  8>  C        0.8580405733    -0.6536789044     0.9917421716
|  9>  C        1.3994359735     0.1567784200     2.1199368332
| 10>  O        1.1129725652    -0.0381024401     3.2744378299
| 11>  C       -0.8338320594    -0.8726466440    -0.8556875991
| 12>  N       -2.0105821361    -0.2682194338    -1.1636356896
| 13>  O       -0.6186951980    -2.0515930753    -1.0811080489
| 14>  H        1.0306199123     1.9994385941    -0.0246880689
| 15>  H       -0.0581463888     1.7982163143    -1.3967452081
| 16>  H       -0.7116543288     1.9104638864     0.2531364467
| 17>  H        1.5017429354    -1.4660951505    -0.7523841538
| 18>  H        0.4217338345    -1.6060207973     1.2801604005
| 19>  H        2.1055770088     0.9590673722     1.8147354739
| 20>  H       -2.2216396195     0.6748131937    -0.8913368109
| 21>  H       -2.7522913269    -0.8441688441    -1.5273227479
| 22> *
| 23>
| 24>                          ****END OF INPUT****

CARTESIAN COORDINATES (ANGSTROEM)
---------------------------------
  C      0.110898    1.513796   -0.353046
  C      0.234673    0.008355   -0.223996
  N      1.573520   -0.560704   -0.285243
  C      0.858041   -0.653679    0.991742
  C      1.399436    0.156778    2.119937
  O      1.112973   -0.038102    3.274438
  C     -0.833832   -0.872647   -0.855688
  N     -2.010582   -0.268219   -1.163636
  O     -0.618695   -2.051593   -1.081108
  H      1.030620    1.999439   -0.024688
  H     -0.058146    1.798216   -1.396745
  H     -0.711654    1.910464    0.253136
  H      1.501743   -1.466095   -0.752384
  H      0.421734   -1.606021    1.280160
  H      2.105577    0.959067    1.814735
  H     -2.221640    0.674813   -0.891337
  H     -2.752291   -0.844169   -1.527323

 Total Charge           Charge          ....    0
 Multiplicity           Mult            ....    1
 Number of Electrons    NEL             ....   68
 Basis Dimension        Dim             ....  327

ORBITAL ENERGIES
----------------

  NO   OCC          E(Eh)            E(eV)
   0   2.0000     -20.564426      -559.5865
   1   2.0000     -20.537777      -558.8613
   2   2.0000     -15.605345      -424.6430
   3   2.0000     -15.585772      -424.1104
   4   2.0000     -11.374898      -309.5267
   5   2.0000     -11.339252      -308.5567
   6   2.0000     -11.306841      -307.6748
   7   2.0000     -11.287580      -307.1507
   8   2.0000     -11.253279      -306.2173
   9   2.0000      -1.407551       -38.3014
  10   2.0000      -1.402350       -38.1599
  11   2.0000      -1.297339       -35.3024
  12   2.0000      -1.234866       -33.6024
  13   2.0000      -1.030185       -28.0328
  14   2.0000      -0.962194       -26.1826
  15   2.0000      -0.908635       -24.7252
  16   2.0000      -0.813018       -22.1233
  17   2.0000      -0.779952       -21.2236
  18   2.0000      -0.770755       -20.9733
  19   2.0000      -0.711416       -19.3586
  20   2.0000      -0.677599       -18.4384
  21   2.0000      -0.651959       -17.7407
  22   2.0000      -0.642378       -17.4800
  23   2.0000      -0.616539       -16.7769
  24   2.0000      -0.591777       -16.1031
  25   2.0000      -0.581716       -15.8293
  26   2.0000      -0.575171       -15.6512
  27   2.0000      -0.552001       -15.0207
  28   2.0000      -0.510931       -13.9031
  29   2.0000      -0.486155       -13.2290
  30   2.0000      -0.448891       -12.2150
  31   2.0000      -0.442571       -12.0430
  32   2.0000      -0.437277       -11.8989
  33   2.0000      -0.407772       -11.0960
  34   0.0000       0.103283         2.8105
  35   0.0000       0.116857         3.1798
  36   0.0000       0.150565         4.0971
  37   0.0000       0.167581         4.5601
  38   0.0000       0.171484         4.6663

MULLIKEN ATOMIC CHARGES
-----------------------
   0 C :   -0.458168
   1 C :    0.109641
   2 N :   -0.385367
   3 C :    0.016427
   4 C :    0.047980
   5 O :   -0.260064
   6 C :    0.270186
   7 N :   -0.462438
   8 O :   -0.375749
   9 H :    0.154511
  10 H :    0.159887
  11 H :    0.139234
  12 H :    0.250513
  13 H :    0.161525
  14 H :    0.098580
  15 H :    0.267974
  16 H :    0.265330
Sum of atomic charges:   -0.0000000

LOEWDIN ATOMIC CHARGES
----------------------
   0 C :   -0.269395
   1 C :   -0.273122
   2 N :    0.061087
   3 C :   -0.222515
   4 C :   -0.282109
   5 O :    0.138062
   6 C :   -0.448541
   7 N :    0.004458
   8 O :    0.080859
   9 H :    0.137198
  10 H :    0.133839
  11 H :    0.127807
  12 H :    0.184609
  13 H :    0.156990
  14 H :    0.117175
  15 H :    0.174209
  16 H :    0.179390

  Mayer bond orders larger than 0.1
B(  0-C ,  1-C ) :   0.8587 B(  0-C ,  9-H ) :   0.9295 B(  0-C , 10-H ) :   0.9385
B(  0-C , 11-H ) :   0.9349 B(  1-C ,  2-N ) :   0.9299 B(  1-C ,  3-C ) :   0.8130
B(  1-C ,  6-C ) :   0.9230 B(  2-N ,  3-C ) :   0.8755 B(  2-N , 12-H ) :   0.8502
B(  3-C ,  4-C ) :   0.8496 B(  3-C , 13-H ) :   0.8902 B(  4-C ,  5-O ) :   1.9930
B(  4-C , 14-H ) :   0.9585 B(  6-C ,  7-N ) :   1.1881 B(  6-C ,  8-O ) :   1.8829
B(  7-N , 15-H ) :   0.8650 B(  7-N , 16-H ) :   0.8546

MP2 TOTAL ENERGY:     -454.432856945 Eh
FINAL SINGLE POINT ENERGY      -454.432856944651

DIPOLE MOMENT
-------------
                                X             Y             Z
Electronic contribution:      0.89258      -4.48129       2.24990
Nuclear contribution   :     -1.95292       5.51990      -3.12822
                        -----------------------------------------
Total Dipole Moment    :     -1.06033       1.03861      -0.87832
                        -----------------------------------------
Magnitude (a.u.)       :      1.72466
Magnitude (Debye)      :      4.38375

                             ****ORCA TERMINATED NORMALLY****
TOTAL RUN TIME: 0 days 0 hours 15 minutes 35 seconds 736 msec
