                         Program Version 3.0.3 - RELEASE   -
|  1> ! RI-MP2 RIJK def2-TZVP def2-TZVP/C def2-TZVP/JK TIGHTSCF
|  2> % maxcore 2000
|  3> % mp2 density relaxed end
|  4> *xyz 0 1
|  5>  C       -0.3363117038     1.5668533002     0.1360304075
|  6>  C       -0.0937514722     0.0583127770     0.0908962196
|  7>  C       -1.3295678263    -0.6905724734     0.5939029387
|  8>  C        0.4076780601    -0.5346406013    -1.2448935184
|  9>  C        1.7617876876    -0.0142781061    -1.6279062919
| 10>  C        1.6669029861    -1.0778450729    -0.5667052614
| 11>  C        1.2189006250    -0.5025811698     0.7813943463
| 12>  C        2.1644629787     0.4250453581     1.5226250064
| 13>  O        1.5127773496     0.8358917225     2.7210610501
| 14>  H        0.4897015845     2.1363948619    -0.2992711502
| 15>  H       -1.2418226979     1.8262717957    -0.4244090140
| 16>  H       -0.4615554442     1.9023553886     1.1697854289
| 17>  H       -2.2095512298    -0.4477038621    -0.0137975373
| 18>  H       -1.1814329991    -1.7748739429     0.5474214348
| 19>  H       -1.5506546664    -0.4222146139     1.6325850509
| 20>  H       -0.2330434106    -1.0309724058    -1.9656601171
| 21>  H        2.1320391815    -0.3638914852    -2.5869192262
| 22>  H        2.0680991568     1.0010070668    -1.3920930879
| 23>  H        2.1409119911    -2.0437408984    -0.6968714671
| 24>  H        0.9419023589    -1.3021316145     1.4755657437
| 25>  H        3.0991095998    -0.1165541094     1.7443331184
| 26>  H        2.4332762970     1.2936925472     0.9043928711
| 27>  H        2.0772063336     1.4735367178     3.1676865350
| 28> *
| 29>
| 30>                          ****END OF INPUT****

CARTESIAN COORDINATES (ANGSTROEM)
---------------------------------
  C     -0.336312    1.566853    0.136030
  C     -0.093751    0.058313    0.090896
  C     -1.329568   -0.690572    0.593903
  C      0.407678   -0.534641   -1.244894
  C      1.761788   -0.014278   -1.627906
  C      1.666903   -1.077845   -0.566705
  C      1.218901   -0.502581    0.781394
  C      2.164463    0.425045    1.522625
  O      1.512777    0.835892    2.721061
  H      0.489702    2.136395   -0.299271
  H     -1.241823    1.826272   -0.424409
  H     -0.461555    1.902355    1.169785
  H     -2.209551   -0.447704   -0.013798
  H     -1.181433   -1.774874    0.547421
  H     -1.550655   -0.422215    1.632585
  H     -0.233043   -1.030972   -1.965660
  H      2.132039   -0.363891   -2.586919
  H      2.068099    1.001007   -1.392093
  H      2.140912   -2.043741   -0.696871
  H      0.941902   -1.302132    1.475566
  H      3.099110   -0.116554    1.744333
  H      2.433276    1.293693    0.904393
  H      2.077206    1.473537    3.167687

 Total Charge           Charge          ....    0
 Multiplicity           Mult            ....    1
 Number of Electrons    NEL             ....   70
 Basis Dimension        Dim             ....  363

ORBITAL ENERGIES
----------------

  NO   OCC          E(Eh)            E(eV)
   0   2.0000     -20.552600      -559.2647
   1   2.0000     -11.269675      -306.6635
   2   2.0000     -11.231892      -305.6353
   3   2.0000     -11.226780      -305.4962
   4   2.0000     -11.223770      -305.4143
   5   2.0000     -11.223118      -305.3966
   6   2.0000     -11.221929      -305.3642
   7   2.0000     -11.205043      -304.9047
   8   2.0000     -11.201067      -304.7965
   9   2.0000      -1.355526       -36.8857
  10   2.0000      -1.187664       -32.3180
  11   2.0000      -1.040344       -28.3092
  12   2.0000      -0.987364       -26.8675
  13   2.0000      -0.925474       -25.1834
  14   2.0000      -0.873272       -23.7629
  15   2.0000      -0.822193       -22.3730
  16   2.0000      -0.773283       -21.0421
  17   2.0000      -0.715593       -19.4723
  18   2.0000      -0.678988       -18.4762
  19   2.0000      -0.664756       -18.0889
  20   2.0000      -0.629389       -17.1265
  21   2.0000      -0.614347       -16.7172
  22   2.0000      -0.600025       -16.3275
  23   2.0000      -0.560243       -15.2450
  24   2.0000      -0.548213       -14.9176
  25   2.0000      -0.545533       -14.8447
  26   2.0000      -0.525899       -14.3105
  27   2.0000      -0.513492       -13.9728
  28   2.0000      -0.497864       -13.5476
  29   2.0000      -0.474657       -12.9161
  30   2.0000      -0.454847       -12.3770
  31   2.0000      -0.441348       -12.0097
  32   2.0000      -0.415286       -11.3005
  33   2.0000      -0.400806       -10.9065
  34   2.0000      -0.369878       -10.0649
  35   0.0000       0.135183         3.6785
  36   0.0000       0.150651         4.0994
  37   0.0000       0.162577         4.4239
  38   0.0000       0.167148         4.5483
  39   0.0000       0.179999         4.8980

MULLIKEN ATOMIC CHARGES
-----------------------
   0 C :   -0.396413
   1 C :    0.159176
   2 C :   -0.455282
   3 C :   -0.144880
   4 C :   -0.285846
   5 C :   -0.132164
   6 C :   -0.086025
   7 C :   -0.087817
   8 O :   -0.471138
   9 H :    0.111149
  10 H :    0.127314
  11 H :    0.145880
  12 H :    0.124994
  13 H :    0.133682
  14 H :    0.144121
  15 H :    0.122940
  16 H :    0.128637
  17 H :    0.125818
  18 H :    0.125692
  19 H :    0.100860
  20 H :    0.103929
  21 H :    0.091455
  22 H :    0.313919
Sum of atomic charges:   -0.0000000

LOEWDIN ATOMIC CHARGES
----------------------
   0 C :   -0.270238
   1 C :   -0.253766
   2 C :   -0.268364
   3 C :   -0.145974
   4 C :   -0.208144
   5 C :   -0.159317
   6 C :   -0.176347
   7 C :   -0.326157
   8 O :   -0.049748
   9 H :    0.120384
  10 H :    0.125987
  11 H :    0.129963
  12 H :    0.123672
  13 H :    0.126954
  14 H :    0.129470
  15 H :    0.136399
  16 H :    0.139678
  17 H :    0.125686
  18 H :    0.133565
  19 H :    0.159858
  20 H :    0.119794
  21 H :    0.115812
  22 H :    0.170832

  Mayer bond orders larger than 0.1
B(  0-C ,  1-C ) :   0.9132 B(  0-C ,  9-H ) :   0.9317 B(  0-C , 10-H ) :   0.9328
B(  0-C , 11-H ) :   0.9350 B(  1-C ,  2-C ) :   0.8647 B(  1-C ,  3-C ) :   0.9301
B(  1-C ,  6-C ) :   0.9375 B(  2-C , 12-H ) :   0.9378 B(  2-C , 13-H ) :   0.9364
B(  2-C , 14-H ) :   0.9406 B(  3-C ,  4-C ) :   0.8714 B(  3-C ,  5-C ) :   0.8444
B(  3-C , 15-H ) :   0.9247 B(  4-C ,  5-C ) :   0.8769 B(  4-C , 16-H ) :   0.9322
B(  4-C , 17-H ) :   0.9230 B(  5-C ,  6-C ) :   0.9347 B(  5-C , 18-H ) :   0.9297
B(  6-C ,  7-C ) :   0.9144 B(  6-C , 19-H ) :   0.9188 B(  7-C ,  8-O ) :   1.0173
B(  7-C , 20-H ) :   0.9285 B(  7-C , 21-H ) :   0.9265 B(  8-O , 22-H ) :   0.8485

MP2 TOTAL ENERGY:     -387.590274314 Eh
FINAL SINGLE POINT ENERGY      -387.590274313659

DIPOLE MOMENT
-------------
                                X             Y             Z
Electronic contribution:      2.72992      -1.20603       1.26600
Nuclear contribution   :     -2.24741       1.35778      -1.38365
                        -----------------------------------------
Total Dipole Moment    :      0.48251       0.15175      -0.11766
                        -----------------------------------------
Magnitude (a.u.)       :      0.51931
Magnitude (Debye)      :      1.31999

                             ****ORCA TERMINATED NORMALLY****
TOTAL RUN TIME: 0 days 0 hours 34 minutes 49 seconds 76 msec
