                         Program Version 3.0.3 - RELEASE   -
|  1> ! RI-MP2 RIJK def2-TZVP def2-TZVP/C def2-TZVP/JK TIGHTSCF
|  2> % maxcore 2000
|  3> % mp2 density relaxed end
|  4> *xyz 0 1
|  5>  C       -0.0642269478     1.3014366759     0.3734305237
|  6>  C       -0.0547104527     0.1217367855    -0.6020724684
|  7>  N       -1.3145059486    -0.6045112996    -0.6339664536
|  8>  C       -1.4955191965    -1.8028886887    -0.0037463559
|  9>  O       -0.5916619490    -2.3899429656     0.5681845284
| 10>  C       -2.9233509428    -2.3459225005    -0.0503337727
| 11>  C       -2.9770502923    -3.8814870326    -0.0888081110
| 12>  C       -4.4061137432    -4.3827932122     0.1491574483
| 13>  C       -2.4064817649    -4.4293060156    -1.4035366167
| 14>  H        0.9001987941     1.8192474979     0.3570816823
| 15>  H       -0.8399005075     2.0299583880     0.1124264677
| 16>  H       -0.2511176029     0.9547812984     1.3937664232
| 17>  H        0.1812702099     0.4685722110    -1.6151753601
| 18>  H        0.7053555019    -0.6064999325    -0.3116079250
| 19>  H       -2.1153898224    -0.1560032736    -1.0481374191
| 20>  H       -3.4282251083    -1.9858721470     0.8563580462
| 21>  H       -3.4722947812    -1.9209097136    -0.9012575063
| 22>  H       -2.3369742975    -4.2333163398     0.7279175048
| 23>  H       -5.0852413945    -4.0391955360    -0.6410366661
| 24>  H       -4.4402752166    -5.4771266741     0.1584954450
| 25>  H       -4.8029230931    -4.0272028708     1.1062365918
| 26>  H       -2.9935055919    -4.0824450440    -2.2634184993
| 27>  H       -1.3692711010    -4.1134288661    -1.5458030109
| 28>  H       -2.4259136809    -5.5239399744    -1.4114635964
| 29> *
| 30>
| 31>                          ****END OF INPUT****

CARTESIAN COORDINATES (ANGSTROEM)
---------------------------------
  C     -0.064227    1.301437    0.373431
  C     -0.054710    0.121737   -0.602072
  N     -1.314506   -0.604511   -0.633966
  C     -1.495519   -1.802889   -0.003746
  O     -0.591662   -2.389943    0.568185
  C     -2.923351   -2.345923   -0.050334
  C     -2.977050   -3.881487   -0.088808
  C     -4.406114   -4.382793    0.149157
  C     -2.406482   -4.429306   -1.403537
  H      0.900199    1.819247    0.357082
  H     -0.839901    2.029958    0.112426
  H     -0.251118    0.954781    1.393766
  H      0.181270    0.468572   -1.615175
  H      0.705356   -0.606500   -0.311608
  H     -2.115390   -0.156003   -1.048137
  H     -3.428225   -1.985872    0.856358
  H     -3.472295   -1.920910   -0.901258
  H     -2.336974   -4.233316    0.727918
  H     -5.085241   -4.039196   -0.641037
  H     -4.440275   -5.477127    0.158495
  H     -4.802923   -4.027203    1.106237
  H     -2.993506   -4.082445   -2.263418
  H     -1.369271   -4.113429   -1.545803
  H     -2.425914   -5.523940   -1.411464

 Total Charge           Charge          ....    0
 Multiplicity           Mult            ....    1
 Number of Electrons    NEL             ....   72
 Basis Dimension        Dim             ....  369

ORBITAL ENERGIES
----------------

  NO   OCC          E(Eh)            E(eV)
   0   2.0000     -20.507721      -558.0435
   1   2.0000     -15.578545      -423.9138
   2   2.0000     -11.341988      -308.6312
   3   2.0000     -11.260550      -306.4151
   4   2.0000     -11.234632      -305.7099
   5   2.0000     -11.226377      -305.4852
   6   2.0000     -11.219840      -305.3074
   7   2.0000     -11.212829      -305.1166
   8   2.0000     -11.207448      -304.9702
   9   2.0000      -1.373777       -37.3824
  10   2.0000      -1.226033       -33.3621
  11   2.0000      -1.089717       -29.6527
  12   2.0000      -1.022600       -27.8264
  13   2.0000      -0.958489       -26.0818
  14   2.0000      -0.926931       -25.2231
  15   2.0000      -0.859714       -23.3940
  16   2.0000      -0.790910       -21.5218
  17   2.0000      -0.765562       -20.8320
  18   2.0000      -0.692436       -18.8422
  19   2.0000      -0.654617       -17.8130
  20   2.0000      -0.635105       -17.2821
  21   2.0000      -0.605959       -16.4890
  22   2.0000      -0.603827       -16.4310
  23   2.0000      -0.588187       -16.0054
  24   2.0000      -0.574941       -15.6449
  25   2.0000      -0.556878       -15.1534
  26   2.0000      -0.538809       -14.6617
  27   2.0000      -0.531650       -14.4669
  28   2.0000      -0.519360       -14.1325
  29   2.0000      -0.504712       -13.7339
  30   2.0000      -0.497432       -13.5358
  31   2.0000      -0.474454       -12.9105
  32   2.0000      -0.463987       -12.6257
  33   2.0000      -0.461979       -12.5711
  34   2.0000      -0.413382       -11.2487
  35   2.0000      -0.387399       -10.5417
  36   0.0000       0.122159         3.3241
  37   0.0000       0.143325         3.9001
  38   0.0000       0.158373         4.3095
  39   0.0000       0.175077         4.7641
  40   0.0000       0.184847         5.0299

MULLIKEN ATOMIC CHARGES
-----------------------
   0 C :   -0.383676
   1 C :   -0.108143
   2 N :   -0.327402
   3 C :    0.283938
   4 O :   -0.387983
   5 C :   -0.258275
   6 C :   -0.014651
   7 C :   -0.383747
   8 C :   -0.432670
   9 H :    0.128638
  10 H :    0.112362
  11 H :    0.142630
  12 H :    0.121839
  13 H :    0.154730
  14 H :    0.233060
  15 H :    0.132731
  16 H :    0.107626
  17 H :    0.110546
  18 H :    0.115421
  19 H :    0.132958
  20 H :    0.128263
  21 H :    0.112014
  22 H :    0.150661
  23 H :    0.129128
Sum of atomic charges:    0.0000000

LOEWDIN ATOMIC CHARGES
----------------------
   0 C :   -0.320708
   1 C :   -0.304443
   2 N :    0.103916
   3 C :   -0.453950
   4 O :    0.074483
   5 C :   -0.220293
   6 C :   -0.304785
   7 C :   -0.297202
   8 C :   -0.293096
   9 H :    0.124004
  10 H :    0.116696
  11 H :    0.125812
  12 H :    0.129422
  13 H :    0.146195
  14 H :    0.183423
  15 H :    0.153702
  16 H :    0.139475
  17 H :    0.159409
  18 H :    0.121031
  19 H :    0.123704
  20 H :    0.121575
  21 H :    0.119839
  22 H :    0.128289
  23 H :    0.123500

  Mayer bond orders larger than 0.1
B(  0-C ,  1-C ) :   0.9212 B(  0-C ,  9-H ) :   0.9352 B(  0-C , 10-H ) :   0.9353
B(  0-C , 11-H ) :   0.9386 B(  1-C ,  2-N ) :   0.8345 B(  1-C , 12-H ) :   0.9348
B(  1-C , 13-H ) :   0.9225 B(  2-N ,  3-C ) :   1.1799 B(  2-N , 14-H ) :   0.8747
B(  3-C ,  4-O ) :   1.8841 B(  3-C ,  5-C ) :   0.9084 B(  5-C ,  6-C ) :   0.9223
B(  5-C , 15-H ) :   0.9009 B(  5-C , 16-H ) :   0.9237 B(  6-C ,  7-C ) :   0.9058
B(  6-C ,  8-C ) :   0.9210 B(  6-C , 17-H ) :   0.9273 B(  7-C , 18-H ) :   0.9290
B(  7-C , 19-H ) :   0.9442 B(  7-C , 20-H ) :   0.9419 B(  8-C , 21-H ) :   0.9301
B(  8-C , 22-H ) :   0.9367 B(  8-C , 23-H ) :   0.9392

MP2 TOTAL ENERGY:     -404.905581013 Eh
FINAL SINGLE POINT ENERGY      -404.905581013108

DIPOLE MOMENT
-------------
                                X             Y             Z
Electronic contribution:      3.84507       1.26847       1.46134
Nuclear contribution   :     -4.52086      -0.33024      -2.05027
                        -----------------------------------------
Total Dipole Moment    :     -0.67579       0.93823      -0.58893
                        -----------------------------------------
Magnitude (a.u.)       :      1.29762
Magnitude (Debye)      :      3.29829

                             ****ORCA TERMINATED NORMALLY****
TOTAL RUN TIME: 0 days 0 hours 19 minutes 6 seconds 554 msec
