                         Program Version 3.0.3 - RELEASE   -
|  1> ! RI-MP2 RIJK def2-TZVP def2-TZVP/C def2-TZVP/JK TIGHTSCF
|  2> % maxcore 2000
|  3> % mp2 density relaxed end
|  4> *xyz 0 1
|  5>  C       -0.0210169220     1.5179991345     0.0774078495
|  6>  C       -0.0855793834     0.0291830632     0.0073920145
|  7>  C       -0.1139267862    -0.7829870109    -1.0632939134
|  8>  C       -0.0011155243    -2.2164129929    -0.5692625311
|  9>  C        1.4148259870    -2.3420299944     0.0540711392
| 10>  O        1.3690226217    -1.4654519335     1.1941194706
| 11>  C        0.0329254576    -0.9003567177     1.2129063166
| 12>  C       -0.8177570825    -2.1076770783     0.7562929988
| 13>  O       -2.1989623865    -1.9143426886     0.6280906705
| 14>  H        0.9237254653     1.8416257605     0.5319659510
| 15>  H       -0.0931394869     1.9732542794    -0.9144940628
| 16>  H       -0.8242881397     1.9271255931     0.7025437480
| 17>  H       -0.0894255492    -0.4830946270    -2.1046272735
| 18>  H       -0.2758699742    -3.0115611434    -1.2611878712
| 19>  H        1.6218170685    -3.3655689269     0.3911493014
| 20>  H        2.2109260866    -2.0261180363    -0.6298908966
| 21>  H       -0.1471998863    -0.4799053753     2.2015700128
| 22>  H       -0.6828787065    -2.9673476803     1.4175099972
| 23>  H       -2.3207367292    -1.1809213452     0.0113255585
| 24> *
| 25>
| 26>                          ****END OF INPUT****

CARTESIAN COORDINATES (ANGSTROEM)
---------------------------------
  C     -0.021017    1.517999    0.077408
  C     -0.085579    0.029183    0.007392
  C     -0.113927   -0.782987   -1.063294
  C     -0.001116   -2.216413   -0.569263
  C      1.414826   -2.342030    0.054071
  O      1.369023   -1.465452    1.194119
  C      0.032925   -0.900357    1.212906
  C     -0.817757   -2.107677    0.756293
  O     -2.198962   -1.914343    0.628091
  H      0.923725    1.841626    0.531966
  H     -0.093139    1.973254   -0.914494
  H     -0.824288    1.927126    0.702544
  H     -0.089426   -0.483095   -2.104627
  H     -0.275870   -3.011561   -1.261188
  H      1.621817   -3.365569    0.391149
  H      2.210926   -2.026118   -0.629891
  H     -0.147200   -0.479905    2.201570
  H     -0.682879   -2.967348    1.417510
  H     -2.320737   -1.180921    0.011326

 Total Charge           Charge          ....    0
 Multiplicity           Mult            ....    1
 Number of Electrons    NEL             ....   68
 Basis Dimension        Dim             ....  339

ORBITAL ENERGIES
----------------

  NO   OCC          E(Eh)            E(eV)
   0   2.0000     -20.557708      -559.4037
   1   2.0000     -20.553628      -559.2926
   2   2.0000     -11.284285      -307.0610
   3   2.0000     -11.283191      -307.0312
   4   2.0000     -11.277174      -306.8675
   5   2.0000     -11.242142      -305.9142
   6   2.0000     -11.241054      -305.8846
   7   2.0000     -11.232652      -305.6560
   8   2.0000     -11.232540      -305.6529
   9   2.0000      -1.384457       -37.6730
  10   2.0000      -1.361241       -37.0413
  11   2.0000      -1.134003       -30.8578
  12   2.0000      -1.034488       -28.1499
  13   2.0000      -0.979257       -26.6469
  14   2.0000      -0.932691       -25.3798
  15   2.0000      -0.834573       -22.7099
  16   2.0000      -0.803060       -21.8524
  17   2.0000      -0.732972       -19.9452
  18   2.0000      -0.703475       -19.1425
  19   2.0000      -0.672476       -18.2990
  20   2.0000      -0.659206       -17.9379
  21   2.0000      -0.599127       -16.3031
  22   2.0000      -0.592726       -16.1289
  23   2.0000      -0.578687       -15.7469
  24   2.0000      -0.570900       -15.5350
  25   2.0000      -0.566759       -15.4223
  26   2.0000      -0.549538       -14.9537
  27   2.0000      -0.533140       -14.5075
  28   2.0000      -0.509241       -13.8572
  29   2.0000      -0.493776       -13.4363
  30   2.0000      -0.475581       -12.9412
  31   2.0000      -0.438891       -11.9428
  32   2.0000      -0.392525       -10.6811
  33   2.0000      -0.353525        -9.6199
  34   0.0000       0.131001         3.5647
  35   0.0000       0.136890         3.7250
  36   0.0000       0.156190         4.2501
  37   0.0000       0.173405         4.7186
  38   0.0000       0.175962         4.7882

MULLIKEN ATOMIC CHARGES
-----------------------
   0 C :   -0.472800
   1 C :   -0.068372
   2 C :   -0.290934
   3 C :    0.009071
   4 C :   -0.066664
   5 O :   -0.321788
   6 C :    0.183652
   7 C :   -0.021678
   8 O :   -0.451597
   9 H :    0.155315
  10 H :    0.139822
  11 H :    0.143699
  12 H :    0.129321
  13 H :    0.140958
  14 H :    0.112049
  15 H :    0.102665
  16 H :    0.131378
  17 H :    0.119446
  18 H :    0.326457
Sum of atomic charges:   -0.0000000

LOEWDIN ATOMIC CHARGES
----------------------
   0 C :   -0.275816
   1 C :   -0.167927
   2 C :   -0.120521
   3 C :   -0.210528
   4 C :   -0.260711
   5 O :    0.155912
   6 C :   -0.230664
   7 C :   -0.292732
   8 O :    0.000709
   9 H :    0.138435
  10 H :    0.131341
  11 H :    0.132484
  12 H :    0.137556
  13 H :    0.146548
  14 H :    0.124169
  15 H :    0.122740
  16 H :    0.142412
  17 H :    0.148471
  18 H :    0.178122

  Mayer bond orders larger than 0.1
B(  0-C ,  1-C ) :   0.8986 B(  0-C ,  9-H ) :   0.9301 B(  0-C , 10-H ) :   0.9522
B(  0-C , 11-H ) :   0.9333 B(  1-C ,  2-C ) :   1.7109 B(  1-C ,  6-C ) :   0.8474
B(  2-C ,  3-C ) :   0.8859 B(  2-C , 12-H ) :   0.9367 B(  3-C ,  4-C ) :   0.9157
B(  3-C ,  7-C ) :   0.8910 B(  3-C , 13-H ) :   0.9150 B(  4-C ,  5-O ) :   0.9401
B(  4-C , 14-H ) :   0.9232 B(  4-C , 15-H ) :   0.9152 B(  5-O ,  6-C ) :   0.8843
B(  6-C ,  7-C ) :   0.9121 B(  6-C , 16-H ) :   0.9158 B(  7-C ,  8-O ) :   0.9932
B(  7-C , 17-H ) :   0.9404 B(  8-O , 18-H ) :   0.8231

MP2 TOTAL ENERGY:     -422.324955421 Eh
FINAL SINGLE POINT ENERGY      -422.324955421085

DIPOLE MOMENT
-------------
                                X             Y             Z
Electronic contribution:     -0.80442      -3.01484       1.59976
Nuclear contribution   :      0.89108       3.37156      -2.27555
                        -----------------------------------------
Total Dipole Moment    :      0.08665       0.35672      -0.67579
                        -----------------------------------------
Magnitude (a.u.)       :      0.76906
Magnitude (Debye)      :      1.95479

                             ****ORCA TERMINATED NORMALLY****
TOTAL RUN TIME: 0 days 0 hours 21 minutes 42 seconds 490 msec
