                         Program Version 3.0.3 - RELEASE   -
|  1> ! RI-MP2 RIJK def2-TZVP def2-TZVP/C def2-TZVP/JK TIGHTSCF
|  2> % maxcore 2000
|  3> % mp2 density relaxed end
|  4> *xyz 0 1
|  5>  C       -0.0828283023     1.5276454142     0.0581644160
|  6>  C       -0.0400405535     0.0172757898     0.0528149318
|  7>  C       -1.1262296345    -0.6821765845    -0.7457379410
|  8>  C       -1.2364413460    -2.1582735826    -0.5010682187
|  9>  C       -0.6462256948    -2.8061477300     0.5093759318
| 10>  C        0.1777177496    -2.1109152796     1.5154199052
| 11>  O        0.4862181396    -2.6119032851     2.5792475050
| 12>  C        0.6067140255    -0.7107109358     1.1700040926
| 13>  O        1.2561018703    -0.5557782343    -0.1048852550
| 14>  H        0.7699537004     1.9320451157     0.6080082585
| 15>  H       -0.0447869033     1.9153742963    -0.9658887980
| 16>  H       -1.0053014917     1.8908642404     0.5226460380
| 17>  H       -2.0975226227    -0.2122092674    -0.5332609777
| 18>  H       -0.9463486348    -0.5000498591    -1.8145695372
| 19>  H       -1.8695509999    -2.7087113246    -1.1933583717
| 20>  H       -0.7949449665    -3.8686251851     0.6715163272
| 21>  H        1.0632881947    -0.1633786384     1.9926982133
| 22> *
| 23>
| 24>                          ****END OF INPUT****

CARTESIAN COORDINATES (ANGSTROEM)
---------------------------------
  C     -0.082828    1.527645    0.058164
  C     -0.040041    0.017276    0.052815
  C     -1.126230   -0.682177   -0.745738
  C     -1.236441   -2.158274   -0.501068
  C     -0.646226   -2.806148    0.509376
  C      0.177718   -2.110915    1.515420
  O      0.486218   -2.611903    2.579248
  C      0.606714   -0.710711    1.170004
  O      1.256102   -0.555778   -0.104885
  H      0.769954    1.932045    0.608008
  H     -0.044787    1.915374   -0.965889
  H     -1.005301    1.890864    0.522646
  H     -2.097523   -0.212209   -0.533261
  H     -0.946349   -0.500050   -1.814570
  H     -1.869551   -2.708711   -1.193358
  H     -0.794945   -3.868625    0.671516
  H      1.063288   -0.163379    1.992698

 Total Charge           Charge          ....    0
 Multiplicity           Mult            ....    1
 Number of Electrons    NEL             ....   66
 Basis Dimension        Dim             ....  327

ORBITAL ENERGIES
----------------

  NO   OCC          E(Eh)            E(eV)
   0   2.0000     -20.584678      -560.1376
   1   2.0000     -20.549451      -559.1790
   2   2.0000     -11.335676      -308.4594
   3   2.0000     -11.315882      -307.9208
   4   2.0000     -11.298650      -307.4519
   5   2.0000     -11.272707      -306.7460
   6   2.0000     -11.260269      -306.4075
   7   2.0000     -11.243567      -305.9530
   8   2.0000     -11.240404      -305.8669
   9   2.0000      -1.433541       -39.0086
  10   2.0000      -1.387324       -37.7510
  11   2.0000      -1.122211       -30.5369
  12   2.0000      -1.046377       -28.4734
  13   2.0000      -0.986698       -26.8494
  14   2.0000      -0.951136       -25.8817
  15   2.0000      -0.847893       -23.0723
  16   2.0000      -0.815229       -22.1835
  17   2.0000      -0.724781       -19.7223
  18   2.0000      -0.686459       -18.6795
  19   2.0000      -0.683309       -18.5938
  20   2.0000      -0.645688       -17.5701
  21   2.0000      -0.630315       -17.1518
  22   2.0000      -0.602863       -16.4047
  23   2.0000      -0.586391       -15.9565
  24   2.0000      -0.579295       -15.7634
  25   2.0000      -0.568165       -15.4605
  26   2.0000      -0.554134       -15.0787
  27   2.0000      -0.529831       -14.4174
  28   2.0000      -0.512674       -13.9506
  29   2.0000      -0.466149       -12.6846
  30   2.0000      -0.443279       -12.0622
  31   2.0000      -0.417374       -11.3573
  32   2.0000      -0.383648       -10.4396
  33   0.0000       0.083586         2.2745
  34   0.0000       0.123355         3.3567
  35   0.0000       0.152344         4.1455
  36   0.0000       0.172638         4.6977
  37   0.0000       0.177326         4.8253

MULLIKEN ATOMIC CHARGES
-----------------------
   0 C :   -0.416238
   1 C :    0.175109
   2 C :   -0.109134
   3 C :   -0.175092
   4 C :   -0.163810
   5 C :    0.197721
   6 O :   -0.285928
   7 C :   -0.002710
   8 O :   -0.323142
   9 H :    0.150531
  10 H :    0.139269
  11 H :    0.138573
  12 H :    0.132682
  13 H :    0.133213
  14 H :    0.137891
  15 H :    0.141000
  16 H :    0.130065
Sum of atomic charges:   -0.0000000

LOEWDIN ATOMIC CHARGES
----------------------
   0 C :   -0.261486
   1 C :   -0.319237
   2 C :   -0.204851
   3 C :   -0.114440
   4 C :   -0.127908
   5 C :   -0.312442
   6 O :    0.154881
   7 C :   -0.192647
   8 O :    0.205195
   9 H :    0.135876
  10 H :    0.132765
  11 H :    0.132444
  12 H :    0.160765
  13 H :    0.159814
  14 H :    0.148733
  15 H :    0.154929
  16 H :    0.147610

  Mayer bond orders larger than 0.1
B(  0-C ,  1-C ) :   0.8718 B(  0-C ,  9-H ) :   0.9389 B(  0-C , 10-H ) :   0.9338
B(  0-C , 11-H ) :   0.9328 B(  1-C ,  2-C ) :   0.9496 B(  1-C ,  7-C ) :   0.8622
B(  1-C ,  8-O ) :   0.8864 B(  2-C ,  3-C ) :   0.9611 B(  2-C , 12-H ) :   0.8975
B(  2-C , 13-H ) :   0.8944 B(  3-C ,  4-C ) :   1.7137 B(  3-C , 14-H ) :   0.9215
B(  4-C ,  5-C ) :   1.0081 B(  4-C , 15-H ) :   0.9181 B(  5-C ,  6-O ) :   1.9139
B(  5-C ,  7-C ) :   0.8983 B(  7-C ,  8-O ) :   0.8641 B(  7-C , 16-H ) :   0.9320

MP2 TOTAL ENERGY:     -421.131121260 Eh
FINAL SINGLE POINT ENERGY      -421.131121259889

DIPOLE MOMENT
-------------
                                X             Y             Z
Electronic contribution:      3.21199      -5.76028       3.59445
Nuclear contribution   :     -4.27428       6.57293      -4.49196
                        -----------------------------------------
Total Dipole Moment    :     -1.06229       0.81265      -0.89751
                        -----------------------------------------
Magnitude (a.u.)       :      1.61071
Magnitude (Debye)      :      4.09410

                             ****ORCA TERMINATED NORMALLY****
TOTAL RUN TIME: 0 days 0 hours 17 minutes 50 seconds 208 msec
