                         Program Version 3.0.3 - RELEASE   -
|  1> ! RI-MP2 RIJK def2-TZVP def2-TZVP/C def2-TZVP/JK TIGHTSCF
|  2> % maxcore 2000
|  3> % mp2 density relaxed end
|  4> *xyz 0 1
|  5>  O        0.1411818737    -0.1492329894     0.2511164238
|  6>  C        0.0782758744     0.9659575210    -0.1910099003
|  7>  C        1.1967975396     1.9927704733    -0.0610320979
|  8>  N        1.2485332136     2.9060927159    -1.1736700506
|  9>  C        1.6439904591     2.6307841583    -2.4849111468
| 10>  C        1.5625678666     3.7786961751    -3.1860723821
| 11>  N        1.1149064284     4.7659030687    -2.3119812403
| 12>  C        0.9137002882     4.2554818631    -1.0404042690
| 13>  O        0.5387995190     4.8271222715    -0.0335267795
| 14>  H       -0.8220760900     1.3440707279    -0.7263257362
| 15>  H        0.9875195252     2.6082768839     0.8242678449
| 16>  H        2.1480017118     1.4735890374     0.0935531393
| 17>  H        1.9509623353     1.6455721370    -2.7915563630
| 18>  H        1.7772279303     3.9814672772    -4.2205416423
| 19>  H        0.9594386849     5.7349464189    -2.5251733899
| 20> *
| 21>
| 22>                          ****END OF INPUT****

CARTESIAN COORDINATES (ANGSTROEM)
---------------------------------
  O      0.141182   -0.149233    0.251116
  C      0.078276    0.965958   -0.191010
  C      1.196798    1.992770   -0.061032
  N      1.248533    2.906093   -1.173670
  C      1.643990    2.630784   -2.484911
  C      1.562568    3.778696   -3.186072
  N      1.114906    4.765903   -2.311981
  C      0.913700    4.255482   -1.040404
  O      0.538800    4.827122   -0.033527
  H     -0.822076    1.344071   -0.726326
  H      0.987520    2.608277    0.824268
  H      2.148002    1.473589    0.093553
  H      1.950962    1.645572   -2.791556
  H      1.777228    3.981467   -4.220542
  H      0.959439    5.734946   -2.525173

 Total Charge           Charge          ....    0
 Multiplicity           Mult            ....    1
 Number of Electrons    NEL             ....   66
 Basis Dimension        Dim             ....  315

ORBITAL ENERGIES
----------------

  NO   OCC          E(Eh)            E(eV)
   0   2.0000     -20.571119      -559.7686
   1   2.0000     -20.519527      -558.3647
   2   2.0000     -15.620997      -425.0689
   3   2.0000     -15.617630      -424.9773
   4   2.0000     -11.386031      -309.8297
   5   2.0000     -11.344314      -308.6945
   6   2.0000     -11.292833      -307.2936
   7   2.0000     -11.289379      -307.1996
   8   2.0000     -11.285861      -307.1039
   9   2.0000      -1.414308       -38.4853
  10   2.0000      -1.409294       -38.3488
  11   2.0000      -1.321872       -35.9700
  12   2.0000      -1.233472       -33.5645
  13   2.0000      -1.051078       -28.6013
  14   2.0000      -0.999774       -27.2052
  15   2.0000      -0.860199       -23.4072
  16   2.0000      -0.849505       -23.1162
  17   2.0000      -0.798834       -21.7374
  18   2.0000      -0.741147       -20.1676
  19   2.0000      -0.684427       -18.6242
  20   2.0000      -0.675521       -18.3819
  21   2.0000      -0.673809       -18.3353
  22   2.0000      -0.636994       -17.3335
  23   2.0000      -0.629028       -17.1167
  24   2.0000      -0.621735       -16.9183
  25   2.0000      -0.606744       -16.5104
  26   2.0000      -0.589203       -16.0330
  27   2.0000      -0.521314       -14.1857
  28   2.0000      -0.498053       -13.5527
  29   2.0000      -0.471824       -12.8390
  30   2.0000      -0.450309       -12.2535
  31   2.0000      -0.426938       -11.6176
  32   2.0000      -0.318155        -8.6574
  33   0.0000       0.113241         3.0815
  34   0.0000       0.131292         3.5726
  35   0.0000       0.142278         3.8716
  36   0.0000       0.159927         4.3518
  37   0.0000       0.161426         4.3926

MULLIKEN ATOMIC CHARGES
-----------------------
   0 O :   -0.250727
   1 C :    0.084424
   2 C :   -0.136694
   3 N :   -0.081514
   4 C :   -0.140868
   5 C :   -0.071237
   6 N :   -0.299615
   7 C :    0.271372
   8 O :   -0.395476
   9 H :    0.095879
  10 H :    0.184666
  11 H :    0.149101
  12 H :    0.166253
  13 H :    0.165768
  14 H :    0.258668
Sum of atomic charges:   -0.0000000

LOEWDIN ATOMIC CHARGES
----------------------
   0 O :    0.143481
   1 C :   -0.289470
   2 C :   -0.245123
   3 N :    0.226032
   4 C :   -0.217709
   5 C :   -0.233111
   6 N :    0.164372
   7 C :   -0.499346
   8 O :    0.037232
   9 H :    0.115100
  10 H :    0.170880
  11 H :    0.147523
  12 H :    0.144213
  13 H :    0.140298
  14 H :    0.195629

  Mayer bond orders larger than 0.1
B(  0-O ,  1-C ) :   2.0072 B(  1-C ,  2-C ) :   0.8673 B(  1-C ,  9-H ) :   0.9352
B(  2-C ,  3-N ) :   0.8335 B(  2-C , 10-H ) :   0.8872 B(  2-C , 11-H ) :   0.9067
B(  3-N ,  4-C ) :   1.0347 B(  3-N ,  7-C ) :   1.0785 B(  4-C ,  5-C ) :   1.6620
B(  4-C , 12-H ) :   0.9193 B(  5-C ,  6-N ) :   1.0419 B(  5-C , 13-H ) :   0.9147
B(  6-N ,  7-C ) :   1.1143 B(  6-N , 14-H ) :   0.8674 B(  7-C ,  8-O ) :   1.9278

MP2 TOTAL ENERGY:     -453.260917778 Eh
FINAL SINGLE POINT ENERGY      -453.260917777660

DIPOLE MOMENT
-------------
                                X             Y             Z
Electronic contribution:     -0.83792       0.76936       1.02825
Nuclear contribution   :      1.38340      -0.45132      -2.56200
                        -----------------------------------------
Total Dipole Moment    :      0.54548       0.31804      -1.53375
                        -----------------------------------------
Magnitude (a.u.)       :      1.65864
Magnitude (Debye)      :      4.21593

                             ****ORCA TERMINATED NORMALLY****
TOTAL RUN TIME: 0 days 0 hours 14 minutes 0 seconds 136 msec
