                         Program Version 3.0.3 - RELEASE   -
|  1> ! RI-MP2 RIJK def2-TZVP def2-TZVP/C def2-TZVP/JK TIGHTSCF
|  2> % maxcore 2000
|  3> % mp2 density relaxed end
|  4> *xyz 0 1
|  5>  N        0.0301384722     1.4917297122    -0.1162522673
|  6>  C       -0.0136577462     0.1055015369    -0.0550654212
|  7>  C       -1.1053195712    -0.7674332305    -0.0137443632
|  8>  N       -0.5801787428    -2.0329079174    -0.0353589819
|  9>  N        0.7573919939    -2.0411298450    -0.0913165624
| 10>  C        1.1018661314    -0.7612047685    -0.1040667928
| 11>  O        2.3848132911    -0.3358983295    -0.1531003653
| 12>  C       -2.5325674306    -0.5536449276     0.0354860781
| 13>  O       -3.3484409420    -1.4565871740     0.0687696945
| 14>  H        0.9376598649     1.8655240820     0.1255361086
| 15>  H       -0.7050373124     1.9692053839     0.3850502118
| 16>  H       -1.1089298011    -2.8875598072    -0.0089586184
| 17>  H        2.9521222153    -1.1163826262    -0.1624556659
| 18>  H       -2.8499843424     0.5110825810     0.0379930055
| 19> *
| 20>
| 21>                          ****END OF INPUT****

CARTESIAN COORDINATES (ANGSTROEM)
---------------------------------
  N      0.030138    1.491730   -0.116252
  C     -0.013658    0.105502   -0.055065
  C     -1.105320   -0.767433   -0.013744
  N     -0.580179   -2.032908   -0.035359
  N      0.757392   -2.041130   -0.091317
  C      1.101866   -0.761205   -0.104067
  O      2.384813   -0.335898   -0.153100
  C     -2.532567   -0.553645    0.035486
  O     -3.348441   -1.456587    0.068770
  H      0.937660    1.865524    0.125536
  H     -0.705037    1.969205    0.385050
  H     -1.108930   -2.887560   -0.008959
  H      2.952122   -1.116383   -0.162456
  H     -2.849984    0.511083    0.037993

 Total Charge           Charge          ....    0
 Multiplicity           Mult            ....    1
 Number of Electrons    NEL             ....   66
 Basis Dimension        Dim             ....  309

ORBITAL ENERGIES
----------------

  NO   OCC          E(Eh)            E(eV)
   0   2.0000     -20.605443      -560.7026
   1   2.0000     -20.561597      -559.5095
   2   2.0000     -15.640284      -425.5938
   3   2.0000     -15.608623      -424.7322
   4   2.0000     -15.584238      -424.0687
   5   2.0000     -11.348472      -308.8076
   6   2.0000     -11.327310      -308.2318
   7   2.0000     -11.294437      -307.3372
   8   2.0000     -11.281127      -306.9751
   9   2.0000      -1.437437       -39.1146
  10   2.0000      -1.400324       -38.1048
  11   2.0000      -1.374314       -37.3970
  12   2.0000      -1.233415       -33.5629
  13   2.0000      -1.108905       -30.1748
  14   2.0000      -1.052267       -28.6337
  15   2.0000      -0.920920       -25.0595
  16   2.0000      -0.839050       -22.8317
  17   2.0000      -0.807880       -21.9835
  18   2.0000      -0.745103       -20.2753
  19   2.0000      -0.714426       -19.4405
  20   2.0000      -0.703836       -19.1524
  21   2.0000      -0.661708       -18.0060
  22   2.0000      -0.656116       -17.8538
  23   2.0000      -0.646628       -17.5956
  24   2.0000      -0.607008       -16.5175
  25   2.0000      -0.587120       -15.9763
  26   2.0000      -0.580481       -15.7957
  27   2.0000      -0.535205       -14.5637
  28   2.0000      -0.511484       -13.9182
  29   2.0000      -0.485830       -13.2201
  30   2.0000      -0.444621       -12.0987
  31   2.0000      -0.356319        -9.6959
  32   2.0000      -0.319018        -8.6809
  33   0.0000       0.066656         1.8138
  34   0.0000       0.121198         3.2980
  35   0.0000       0.144110         3.9214
  36   0.0000       0.157565         4.2876
  37   0.0000       0.179875         4.8946

MULLIKEN ATOMIC CHARGES
-----------------------
   0 N :   -0.528334
   1 C :    0.098084
   2 C :    0.026482
   3 N :   -0.119638
   4 N :   -0.212095
   5 C :    0.196511
   6 O :   -0.445818
   7 C :    0.081510
   8 O :   -0.311247
   9 H :    0.266165
  10 H :    0.251908
  11 H :    0.273648
  12 H :    0.346104
  13 H :    0.076720
Sum of atomic charges:   -0.0000000

LOEWDIN ATOMIC CHARGES
----------------------
   0 N :   -0.065627
   1 C :   -0.228486
   2 C :   -0.242433
   3 N :    0.154761
   4 N :    0.035004
   5 C :   -0.399347
   6 O :    0.066069
   7 C :   -0.287164
   8 O :    0.103840
   9 H :    0.178478
  10 H :    0.169054
  11 H :    0.195845
  12 H :    0.201965
  13 H :    0.118042

  Mayer bond orders larger than 0.1
B(  0-N ,  1-C ) :   1.0480 B(  0-N ,  9-H ) :   0.8736 B(  0-N , 10-H ) :   0.8733
B(  1-C ,  2-C ) :   1.2781 B(  1-C ,  5-C ) :   1.2646 B(  2-C ,  3-N ) :   1.1609
B(  2-C ,  4-N ) :   0.1129 B(  2-C ,  7-C ) :   0.9114 B(  2-C , 13-H ) :  -0.1093
B(  3-N ,  4-N ) :   1.0577 B(  3-N , 11-H ) :   0.8561 B(  4-N ,  5-C ) :   1.5206
B(  5-C ,  6-O ) :   1.1074 B(  6-O , 12-H ) :   0.8174 B(  7-C ,  8-O ) :   1.9423
B(  7-C , 13-H ) :   0.9939

MP2 TOTAL ENERGY:     -469.283980255 Eh
FINAL SINGLE POINT ENERGY      -469.283980254941

DIPOLE MOMENT
-------------
                                X             Y             Z
Electronic contribution:     -0.24397      -2.93020      -0.16715
Nuclear contribution   :      0.89733       3.56886       0.57569
                        -----------------------------------------
Total Dipole Moment    :      0.65336       0.63866       0.40854
                        -----------------------------------------
Magnitude (a.u.)       :      1.00083
Magnitude (Debye)      :      2.54392

                             ****ORCA TERMINATED NORMALLY****
TOTAL RUN TIME: 0 days 0 hours 14 minutes 9 seconds 5 msec
