                         Program Version 3.0.3 - RELEASE   -
|  1> ! RI-MP2 RIJK def2-TZVP def2-TZVP/C def2-TZVP/JK TIGHTSCF
|  2> % maxcore 2000
|  3> % mp2 density relaxed end
|  4> *xyz 0 1
|  5>  C       -0.0997142467     1.5040083101    -0.0159200163
|  6>  N        0.0918618038     0.0671874762     0.0395433515
|  7>  C        0.7304320421    -0.5482724989    -1.1498611311
|  8>  C        1.3840439962    -1.8931462150    -0.6739872125
|  9>  C        1.5733524150    -1.5444277401     0.7665628982
| 10>  C        0.8149606700    -0.4679097453     1.1142728714
| 11>  N        0.8249932845    -0.2203124513     2.4545346662
| 12>  C        1.5934480942    -1.1863850827     2.9366486941
| 13>  N        2.0497211566    -2.0378529235     1.9643760231
| 14>  H        0.8360514591     2.0543223713    -0.2230933759
| 15>  H       -0.8242953643     1.7531713924    -0.7976612739
| 16>  H       -0.4940574799     1.8462404001     0.9435073034
| 17>  H        0.0002205522    -0.6943931251    -1.9506277012
| 18>  H        1.5252952127     0.1166491815    -1.5282579192
| 19>  H        0.6951667547    -2.7388187598    -0.8139084010
| 20>  H        2.2916698495    -2.1129246950    -1.2453638428
| 21>  H        1.8704346805    -1.3067260483     3.9731791332
| 22>  H        2.6752198999    -2.8119589268     2.1079065627
| 23> *
| 24>
| 25>                          ****END OF INPUT****

CARTESIAN COORDINATES (ANGSTROEM)
---------------------------------
  C     -0.099714    1.504008   -0.015920
  N      0.091862    0.067187    0.039543
  C      0.730432   -0.548272   -1.149861
  C      1.384044   -1.893146   -0.673987
  C      1.573352   -1.544428    0.766563
  C      0.814961   -0.467910    1.114273
  N      0.824993   -0.220312    2.454535
  C      1.593448   -1.186385    2.936649
  N      2.049721   -2.037853    1.964376
  H      0.836051    2.054322   -0.223093
  H     -0.824295    1.753171   -0.797661
  H     -0.494057    1.846240    0.943507
  H      0.000221   -0.694393   -1.950628
  H      1.525295    0.116649   -1.528258
  H      0.695167   -2.738819   -0.813908
  H      2.291670   -2.112925   -1.245364
  H      1.870435   -1.306726    3.973179
  H      2.675220   -2.811959    2.107907

 Total Charge           Charge          ....    0
 Multiplicity           Mult            ....    1
 Number of Electrons    NEL             ....   66
 Basis Dimension        Dim             ....  333

ORBITAL ENERGIES
----------------

  NO   OCC          E(Eh)            E(eV)
   0   2.0000     -15.616677      -424.9514
   1   2.0000     -15.552875      -423.2152
   2   2.0000     -15.540883      -422.8889
   3   2.0000     -11.295976      -307.3791
   4   2.0000     -11.258956      -306.3718
   5   2.0000     -11.256257      -306.2983
   6   2.0000     -11.243462      -305.9501
   7   2.0000     -11.239173      -305.8334
   8   2.0000     -11.233302      -305.6737
   9   2.0000      -1.337916       -36.4065
  10   2.0000      -1.240525       -33.7564
  11   2.0000      -1.160461       -31.5778
  12   2.0000      -1.051267       -28.6064
  13   2.0000      -0.966414       -26.2975
  14   2.0000      -0.911645       -24.8071
  15   2.0000      -0.834262       -22.7014
  16   2.0000      -0.826464       -22.4892
  17   2.0000      -0.743367       -20.2281
  18   2.0000      -0.720289       -19.6001
  19   2.0000      -0.657160       -17.8822
  20   2.0000      -0.630665       -17.1613
  21   2.0000      -0.606390       -16.5007
  22   2.0000      -0.588270       -16.0076
  23   2.0000      -0.580818       -15.8049
  24   2.0000      -0.558433       -15.1957
  25   2.0000      -0.555920       -15.1273
  26   2.0000      -0.513302       -13.9676
  27   2.0000      -0.502905       -13.6847
  28   2.0000      -0.490748       -13.3539
  29   2.0000      -0.439038       -11.9468
  30   2.0000      -0.421630       -11.4731
  31   2.0000      -0.373518       -10.1639
  32   2.0000      -0.268422        -7.3041
  33   0.0000       0.127719         3.4754
  34   0.0000       0.146245         3.9795
  35   0.0000       0.157372         4.2823
  36   0.0000       0.165195         4.4952
  37   0.0000       0.187897         5.1129

MULLIKEN ATOMIC CHARGES
-----------------------
   0 C :   -0.306832
   1 N :   -0.115532
   2 C :   -0.145558
   3 C :   -0.188779
   4 C :   -0.008688
   5 C :    0.073013
   6 N :   -0.307705
   7 C :    0.035923
   8 N :   -0.288307
   9 H :    0.100754
  10 H :    0.132406
  11 H :    0.159965
  12 H :    0.125380
  13 H :    0.093566
  14 H :    0.115963
  15 H :    0.129191
  16 H :    0.145351
  17 H :    0.249886
Sum of atomic charges:   -0.0000000

LOEWDIN ATOMIC CHARGES
----------------------
   0 C :   -0.314933
   1 N :    0.122557
   2 C :   -0.221079
   3 C :   -0.216887
   4 C :   -0.233854
   5 C :   -0.305516
   6 N :    0.102348
   7 C :   -0.313594
   8 N :    0.187810
   9 H :    0.102968
  10 H :    0.116304
  11 H :    0.128132
  12 H :    0.126985
  13 H :    0.123600
  14 H :    0.138972
  15 H :    0.136599
  16 H :    0.127467
  17 H :    0.192122

  Mayer bond orders larger than 0.1
B(  0-C ,  1-N ) :   0.8975 B(  0-C ,  9-H ) :   0.9199 B(  0-C , 10-H ) :   0.9381
B(  0-C , 11-H ) :   0.9353 B(  1-N ,  2-C ) :   0.8903 B(  1-N ,  5-C ) :   1.0894
B(  2-C ,  3-C ) :   0.9579 B(  2-C , 12-H ) :   0.9314 B(  2-C , 13-H ) :   0.9129
B(  3-C ,  4-C ) :   0.9475 B(  3-C , 14-H ) :   0.9003 B(  3-C , 15-H ) :   0.9237
B(  4-C ,  5-C ) :   1.4487 B(  4-C ,  8-N ) :   1.0742 B(  5-C ,  6-N ) :   1.3448
B(  6-N ,  7-C ) :   1.4998 B(  7-C ,  8-N ) :   1.1713 B(  7-C , 16-H ) :   0.9294
B(  8-N , 17-H ) :   0.8658

MP2 TOTAL ENERGY:     -397.461293333 Eh
FINAL SINGLE POINT ENERGY      -397.461293333187

DIPOLE MOMENT
-------------
                                X             Y             Z
Electronic contribution:      1.20394      -3.07823       5.76031
Nuclear contribution   :     -0.33384       2.12462      -6.31744
                        -----------------------------------------
Total Dipole Moment    :      0.87010      -0.95361      -0.55712
                        -----------------------------------------
Magnitude (a.u.)       :      1.40600
Magnitude (Debye)      :      3.57377

                             ****ORCA TERMINATED NORMALLY****
TOTAL RUN TIME: 0 days 0 hours 18 minutes 12 seconds 880 msec
