                         Program Version 3.0.3 - RELEASE   -
|  1> ! RI-MP2 RIJK def2-TZVP def2-TZVP/C def2-TZVP/JK TIGHTSCF
|  2> % maxcore 2000
|  3> % mp2 density relaxed end
|  4> *xyz 0 1
|  5>  C       -0.2753605891     1.5856497774     0.4112583160
|  6>  C       -0.1912305209     0.1667242354    -0.1583794358
|  7>  N       -1.4393199228    -0.5667214503    -0.0677871311
|  8>  C       -1.9590819442    -1.1019498715     1.1772563100
|  9>  C       -3.3965887391    -1.5303871004     0.8270768872
| 10>  O       -4.2343201754    -0.4319406350     1.1609150780
| 11>  C       -3.3367930467    -1.7766331942    -0.6866650686
| 12>  C       -2.1691035036    -0.9155084854    -1.1733858518
| 13>  O       -1.9099828126    -0.6163087955    -2.3211546013
| 14>  H        0.6889638852     2.0916286914     0.3020367080
| 15>  H       -1.0329372598     2.1683482416    -0.1199961321
| 16>  H       -0.5311263424     1.5830766921     1.4755314427
| 17>  H        0.0591338302     0.1999838291    -1.2219870149
| 18>  H        0.5967331153    -0.4009290310     0.3557957693
| 19>  H       -1.3575536437    -1.9527626267     1.5302024616
| 20>  H       -1.9842504950    -0.3474628544     1.9690893893
| 21>  H       -3.6896058756    -2.4258819036     1.3902960362
| 22>  H       -5.1162040969    -0.6141260473     0.8209079185
| 23>  H       -3.1141589038    -2.8243542115    -0.9198579028
| 24>  H       -4.2608380491    -1.5125277702    -1.2065103184
| 25> *
| 26>
| 27>                          ****END OF INPUT****

CARTESIAN COORDINATES (ANGSTROEM)
---------------------------------
  C     -0.275361    1.585650    0.411258
  C     -0.191231    0.166724   -0.158379
  N     -1.439320   -0.566721   -0.067787
  C     -1.959082   -1.101950    1.177256
  C     -3.396589   -1.530387    0.827077
  O     -4.234320   -0.431941    1.160915
  C     -3.336793   -1.776633   -0.686665
  C     -2.169104   -0.915508   -1.173386
  O     -1.909983   -0.616309   -2.321155
  H      0.688964    2.091629    0.302037
  H     -1.032937    2.168348   -0.119996
  H     -0.531126    1.583077    1.475531
  H      0.059134    0.199984   -1.221987
  H      0.596733   -0.400929    0.355796
  H     -1.357554   -1.952763    1.530202
  H     -1.984250   -0.347463    1.969089
  H     -3.689606   -2.425882    1.390296
  H     -5.116204   -0.614126    0.820908
  H     -3.114159   -2.824354   -0.919858
  H     -4.260838   -1.512528   -1.206510

 Total Charge           Charge          ....    0
 Multiplicity           Mult            ....    1
 Number of Electrons    NEL             ....   70
 Basis Dimension        Dim             ....  345

ORBITAL ENERGIES
----------------

  NO   OCC          E(Eh)            E(eV)
   0   2.0000     -20.570701      -559.7572
   1   2.0000     -20.510214      -558.1113
   2   2.0000     -15.579358      -423.9359
   3   2.0000     -11.341420      -308.6157
   4   2.0000     -11.302329      -307.5520
   5   2.0000     -11.272027      -306.7275
   6   2.0000     -11.260146      -306.4042
   7   2.0000     -11.243725      -305.9573
   8   2.0000     -11.217245      -305.2368
   9   2.0000      -1.383981       -37.6600
  10   2.0000      -1.372002       -37.3341
  11   2.0000      -1.256503       -34.1912
  12   2.0000      -1.076733       -29.2994
  13   2.0000      -0.997656       -27.1476
  14   2.0000      -0.976583       -26.5742
  15   2.0000      -0.866388       -23.5756
  16   2.0000      -0.829103       -22.5610
  17   2.0000      -0.738584       -20.0979
  18   2.0000      -0.720458       -19.6047
  19   2.0000      -0.682984       -18.5850
  20   2.0000      -0.652402       -17.7528
  21   2.0000      -0.643058       -17.4985
  22   2.0000      -0.615236       -16.7414
  23   2.0000      -0.593969       -16.1627
  24   2.0000      -0.590725       -16.0744
  25   2.0000      -0.573970       -15.6185
  26   2.0000      -0.561248       -15.2723
  27   2.0000      -0.536777       -14.6065
  28   2.0000      -0.521998       -14.2043
  29   2.0000      -0.503705       -13.7065
  30   2.0000      -0.495010       -13.4699
  31   2.0000      -0.485077       -13.1996
  32   2.0000      -0.471474       -12.8295
  33   2.0000      -0.408852       -11.1254
  34   2.0000      -0.369954       -10.0670
  35   0.0000       0.122174         3.3245
  36   0.0000       0.143595         3.9074
  37   0.0000       0.157500         4.2858
  38   0.0000       0.173084         4.7099
  39   0.0000       0.174351         4.7443

MULLIKEN ATOMIC CHARGES
-----------------------
   0 C :   -0.387280
   1 C :   -0.153045
   2 N :   -0.078712
   3 C :   -0.136129
   4 C :    0.029437
   5 O :   -0.461182
   6 C :   -0.225363
   7 C :    0.182783
   8 O :   -0.368148
   9 H :    0.130097
  10 H :    0.143461
  11 H :    0.121287
  12 H :    0.158411
  13 H :    0.113310
  14 H :    0.119950
  15 H :    0.135751
  16 H :    0.098950
  17 H :    0.316098
  18 H :    0.131083
  19 H :    0.129242
Sum of atomic charges:    0.0000000

LOEWDIN ATOMIC CHARGES
----------------------
   0 C :   -0.313213
   1 C :   -0.279783
   2 N :    0.199107
   3 C :   -0.223176
   4 C :   -0.331464
   5 O :   -0.017262
   6 C :   -0.207819
   7 C :   -0.429821
   8 O :    0.075128
   9 H :    0.124544
  10 H :    0.127423
  11 H :    0.118598
  12 H :    0.148481
  13 H :    0.131314
  14 H :    0.130595
  15 H :    0.140085
  16 H :    0.131045
  17 H :    0.175774
  18 H :    0.153878
  19 H :    0.146565

  Mayer bond orders larger than 0.1
B(  0-C ,  1-C ) :   0.9263 B(  0-C ,  9-H ) :   0.9346 B(  0-C , 10-H ) :   0.9379
B(  0-C , 11-H ) :   0.9352 B(  1-C ,  2-N ) :   0.8547 B(  1-C , 12-H ) :   0.9175
B(  1-C , 13-H ) :   0.9274 B(  2-N ,  3-C ) :   0.8977 B(  2-N ,  7-C ) :   1.1581
B(  3-C ,  4-C ) :   0.9036 B(  3-C , 14-H ) :   0.9071 B(  3-C , 15-H ) :   0.9317
B(  4-C ,  5-O ) :   1.0011 B(  4-C ,  6-C ) :   0.9295 B(  4-C , 16-H ) :   0.9512
B(  5-O , 17-H ) :   0.8440 B(  6-C ,  7-C ) :   0.9131 B(  6-C , 18-H ) :   0.8984
B(  6-C , 19-H ) :   0.9243 B(  7-C ,  8-O ) :   1.9501

MP2 TOTAL ENERGY:     -439.616481457 Eh
FINAL SINGLE POINT ENERGY      -439.616481456916

DIPOLE MOMENT
-------------
                                X             Y             Z
Electronic contribution:     -3.57733      -2.57493      -3.74780
Nuclear contribution   :      3.38131       1.94267       4.91576
                        -----------------------------------------
Total Dipole Moment    :     -0.19602      -0.63225       1.16796
                        -----------------------------------------
Magnitude (a.u.)       :      1.34250
Magnitude (Debye)      :      3.41235

                             ****ORCA TERMINATED NORMALLY****
TOTAL RUN TIME: 0 days 0 hours 29 minutes 16 seconds 904 msec
