                         Program Version 3.0.3 - RELEASE   -
|  1> ! RI-MP2 RIJK def2-TZVP def2-TZVP/C def2-TZVP/JK TIGHTSCF
|  2> % maxcore 2000
|  3> % mp2 density relaxed end
|  4> *xyz 0 1
|  5>  C        0.0167160313     1.4884666837    -0.0238552150
|  6>  C       -0.0263133819    -0.0216683214    -0.0226863733
|  7>  O       -0.0853638039    -0.6908411808     0.9960095616
|  8>  C        0.0059149955    -0.6936563083    -1.3266256503
|  9>  N        0.0689394743    -0.1517823433    -2.5434481638
| 10>  C        0.0730401547    -1.1991809606    -3.3982637331
| 11>  O        0.1299718434    -1.0425233680    -4.7356687635
| 12>  C        0.0124324402    -2.4059936618    -2.7204038106
| 13>  N       -0.0293369309    -2.0492117860    -1.4005293336
| 14>  H        0.9259766598     1.8403715264    -0.5212564401
| 15>  H       -0.8254063305     1.8906093928    -0.5957032818
| 16>  H       -0.0162742222     1.8516430406     1.0035614430
| 17>  H        0.1631907059    -0.0921185906    -4.9003133258
| 18>  H       -0.0029845414    -3.4264550552    -3.0600931713
| 19>  H       -0.0780010544    -2.6421327178    -0.5864583522
| 20> *
| 21>
| 22>                          ****END OF INPUT****

CARTESIAN COORDINATES (ANGSTROEM)
---------------------------------
  C      0.016716    1.488467   -0.023855
  C     -0.026313   -0.021668   -0.022686
  O     -0.085364   -0.690841    0.996010
  C      0.005915   -0.693656   -1.326626
  N      0.068939   -0.151782   -2.543448
  C      0.073040   -1.199181   -3.398264
  O      0.129972   -1.042523   -4.735669
  C      0.012432   -2.405994   -2.720404
  N     -0.029337   -2.049212   -1.400529
  H      0.925977    1.840372   -0.521256
  H     -0.825406    1.890609   -0.595703
  H     -0.016274    1.851643    1.003561
  H      0.163191   -0.092119   -4.900313
  H     -0.002985   -3.426455   -3.060093
  H     -0.078001   -2.642133   -0.586458

 Total Charge           Charge          ....    0
 Multiplicity           Mult            ....    1
 Number of Electrons    NEL             ....   66
 Basis Dimension        Dim             ....  315

ORBITAL ENERGIES
----------------

  NO   OCC          E(Eh)            E(eV)
   0   2.0000     -20.593052      -560.3654
   1   2.0000     -20.558202      -559.4171
   2   2.0000     -15.637434      -425.5162
   3   2.0000     -15.571695      -423.7274
   4   2.0000     -11.350488      -308.8625
   5   2.0000     -11.322928      -308.1125
   6   2.0000     -11.310646      -307.7783
   7   2.0000     -11.270696      -306.6912
   8   2.0000     -11.238225      -305.8077
   9   2.0000      -1.424208       -38.7547
  10   2.0000      -1.401995       -38.1502
  11   2.0000      -1.350333       -36.7444
  12   2.0000      -1.188139       -32.3309
  13   2.0000      -1.050607       -28.5885
  14   2.0000      -1.000280       -27.2190
  15   2.0000      -0.884442       -24.0669
  16   2.0000      -0.826239       -22.4831
  17   2.0000      -0.801725       -21.8161
  18   2.0000      -0.742684       -20.2095
  19   2.0000      -0.690679       -18.7943
  20   2.0000      -0.652822       -17.7642
  21   2.0000      -0.648392       -17.6436
  22   2.0000      -0.638651       -17.3786
  23   2.0000      -0.620085       -16.8734
  24   2.0000      -0.602677       -16.3997
  25   2.0000      -0.570523       -15.5247
  26   2.0000      -0.562425       -15.3044
  27   2.0000      -0.558623       -15.2009
  28   2.0000      -0.508782       -13.8447
  29   2.0000      -0.477410       -12.9910
  30   2.0000      -0.439132       -11.9494
  31   2.0000      -0.414192       -11.2707
  32   2.0000      -0.312901        -8.5145
  33   0.0000       0.075496         2.0543
  34   0.0000       0.136584         3.7166
  35   0.0000       0.151097         4.1115
  36   0.0000       0.157580         4.2880
  37   0.0000       0.186094         5.0639

MULLIKEN ATOMIC CHARGES
-----------------------
   0 C :   -0.378938
   1 C :    0.201150
   2 O :   -0.338362
   3 C :    0.163348
   4 N :   -0.326840
   5 C :    0.225296
   6 O :   -0.438068
   7 C :   -0.116551
   8 N :   -0.224045
   9 H :    0.150160
  10 H :    0.150269
  11 H :    0.152335
  12 H :    0.343798
  13 H :    0.164297
  14 H :    0.272152
Sum of atomic charges:   -0.0000000

LOEWDIN ATOMIC CHARGES
----------------------
   0 C :   -0.266380
   1 C :   -0.338209
   2 O :    0.121708
   3 C :   -0.309117
   4 N :    0.122933
   5 C :   -0.401515
   6 O :    0.070954
   7 C :   -0.202967
   8 N :    0.234776
   9 H :    0.142557
  10 H :    0.142504
  11 H :    0.133414
  12 H :    0.201313
  13 H :    0.140363
  14 H :    0.207666

  Mayer bond orders larger than 0.1
B(  0-C ,  1-C ) :   0.9679 B(  0-C ,  9-H ) :   0.9072 B(  0-C , 10-H ) :   0.9073
B(  0-C , 11-H ) :   0.9384 B(  1-C ,  2-O ) :   1.9016 B(  1-C ,  3-C ) :   0.9349
B(  3-C ,  4-N ) :   1.4373 B(  3-C ,  8-N ) :   1.1796 B(  4-N ,  5-C ) :   1.3339
B(  5-C ,  6-O ) :   1.1041 B(  5-C ,  7-C ) :   1.4250 B(  6-O , 12-H ) :   0.8170
B(  7-C ,  8-N ) :   1.1497 B(  7-C , 13-H ) :   0.9059 B(  8-N , 14-H ) :   0.8466

MP2 TOTAL ENERGY:     -453.278105570 Eh
FINAL SINGLE POINT ENERGY      -453.278105570229

DIPOLE MOMENT
-------------
                                X             Y             Z
Electronic contribution:     -0.04172      -3.81632      -1.71716
Nuclear contribution   :      0.04835       3.60801       1.40922
                        -----------------------------------------
Total Dipole Moment    :      0.00664      -0.20831      -0.30794
                        -----------------------------------------
Magnitude (a.u.)       :      0.37184
Magnitude (Debye)      :      0.94514

                             ****ORCA TERMINATED NORMALLY****
TOTAL RUN TIME: 0 days 0 hours 14 minutes 29 seconds 548 msec
