                         Program Version 3.0.3 - RELEASE   -
|  1> ! RI-MP2 RIJK def2-TZVP def2-TZVP/C def2-TZVP/JK TIGHTSCF
|  2> % maxcore 2000
|  3> % mp2 density relaxed end
|  4> *xyz 0 1
|  5>  C        0.0086194820     1.4614281874     0.0197926414
|  6>  N        0.0030737138     0.0025140597     0.0315385484
|  7>  C       -0.0649804939    -0.6901688427    -1.2404340841
|  8>  O       -0.1406870018    -0.0347155311    -2.2548487096
|  9>  N       -0.0333801058    -2.0595977843    -1.1740238774
| 10>  C        0.0462050293    -2.6131847659     0.0073057660
| 11>  N        0.0958202614    -2.0243444591     1.2204340938
| 12>  C        0.0734890455    -0.7035721064     1.1857915613
| 13>  N        0.1604307854    -0.0348822378     2.3624187478
| 14>  H        0.8954030947     1.8472639356     0.5322376268
| 15>  H        0.0231068274     1.7635207464    -1.0258314177
| 16>  H       -0.8941069173     1.8637373213     0.4942405349
| 17>  H        0.0717163084    -3.7022105115     0.0298819839
| 18>  H        0.0808490591    -0.6118663732     3.1841901152
| 19>  H       -0.1111016183     0.9290220316     2.4373750594
| 20> *
| 21>
| 22>                          ****END OF INPUT****

CARTESIAN COORDINATES (ANGSTROEM)
---------------------------------
  C      0.008619    1.461428    0.019793
  N      0.003074    0.002514    0.031539
  C     -0.064980   -0.690169   -1.240434
  O     -0.140687   -0.034716   -2.254849
  N     -0.033380   -2.059598   -1.174024
  C      0.046205   -2.613185    0.007306
  N      0.095820   -2.024344    1.220434
  C      0.073489   -0.703572    1.185792
  N      0.160431   -0.034882    2.362419
  H      0.895403    1.847264    0.532238
  H      0.023107    1.763521   -1.025831
  H     -0.894107    1.863737    0.494241
  H      0.071716   -3.702211    0.029882
  H      0.080849   -0.611866    3.184190
  H     -0.111102    0.929022    2.437375

 Total Charge           Charge          ....    0
 Multiplicity           Mult            ....    1
 Number of Electrons    NEL             ....   66
 Basis Dimension        Dim             ....  315

ORBITAL ENERGIES
----------------

  NO   OCC          E(Eh)            E(eV)
   0   2.0000     -20.521175      -558.4095
   1   2.0000     -15.639460      -425.5713
   2   2.0000     -15.621589      -425.0850
   3   2.0000     -15.558858      -423.3780
   4   2.0000     -15.548016      -423.0830
   5   2.0000     -11.403471      -310.3042
   6   2.0000     -11.383057      -309.7487
   7   2.0000     -11.333032      -308.3875
   8   2.0000     -11.287791      -307.1564
   9   2.0000      -1.413839       -38.4725
  10   2.0000      -1.357462       -36.9384
  11   2.0000      -1.264743       -34.4154
  12   2.0000      -1.238365       -33.6976
  13   2.0000      -1.172346       -31.9012
  14   2.0000      -0.999611       -27.2008
  15   2.0000      -0.901052       -24.5189
  16   2.0000      -0.898104       -24.4386
  17   2.0000      -0.798085       -21.7170
  18   2.0000      -0.747456       -20.3393
  19   2.0000      -0.710032       -19.3210
  20   2.0000      -0.685811       -18.6619
  21   2.0000      -0.678176       -18.4541
  22   2.0000      -0.651146       -17.7186
  23   2.0000      -0.614529       -16.7222
  24   2.0000      -0.594921       -16.1886
  25   2.0000      -0.584033       -15.8924
  26   2.0000      -0.560957       -15.2644
  27   2.0000      -0.493303       -13.4235
  28   2.0000      -0.485576       -13.2132
  29   2.0000      -0.447154       -12.1677
  30   2.0000      -0.437518       -11.9055
  31   2.0000      -0.422288       -11.4910
  32   2.0000      -0.367490        -9.9999
  33   0.0000       0.102171         2.7802
  34   0.0000       0.104932         2.8554
  35   0.0000       0.149768         4.0754
  36   0.0000       0.161804         4.4029
  37   0.0000       0.167479         4.5573

MULLIKEN ATOMIC CHARGES
-----------------------
   0 C :   -0.394684
   1 N :   -0.074845
   2 C :    0.266294
   3 O :   -0.342585
   4 N :   -0.260329
   5 C :    0.075092
   6 N :   -0.347290
   7 C :    0.348158
   8 N :   -0.485068
   9 H :    0.161756
  10 H :    0.208115
  11 H :    0.152581
  12 H :    0.138984
  13 H :    0.280780
  14 H :    0.273041
Sum of atomic charges:    0.0000000

LOEWDIN ATOMIC CHARGES
----------------------
   0 C :   -0.274325
   1 N :    0.230184
   2 C :   -0.475571
   3 O :    0.096321
   4 N :    0.107312
   5 C :   -0.283522
   6 N :    0.074994
   7 C :   -0.373700
   8 N :    0.006748
   9 H :    0.124092
  10 H :    0.145078
  11 H :    0.120961
  12 H :    0.138274
  13 H :    0.188435
  14 H :    0.174718

  Mayer bond orders larger than 0.1
B(  0-C ,  1-N ) :   0.8413 B(  0-C ,  9-H ) :   0.9242 B(  0-C , 10-H ) :   0.9103
B(  0-C , 11-H ) :   0.9258 B(  1-N ,  2-C ) :   0.9493 B(  1-N ,  7-C ) :   1.2292
B(  2-C ,  3-O ) :   1.9306 B(  2-C ,  4-N ) :   1.2160 B(  4-N ,  5-C ) :   1.5380
B(  5-C ,  6-N ) :   1.2820 B(  5-C , 12-H ) :   0.9370 B(  6-N ,  7-C ) :   1.4607
B(  7-C ,  8-N ) :   1.1741 B(  8-N , 13-H ) :   0.8544 B(  8-N , 14-H ) :   0.8644

MP2 TOTAL ENERGY:     -449.463584134 Eh
FINAL SINGLE POINT ENERGY      -449.463584133534

DIPOLE MOMENT
-------------
                                X             Y             Z
Electronic contribution:     -0.07197      -4.51247      -2.86030
Nuclear contribution   :     -0.01726       5.83121       5.12671
                        -----------------------------------------
Total Dipole Moment    :     -0.08923       1.31874       2.26641
                        -----------------------------------------
Magnitude (a.u.)       :      2.62367
Magnitude (Debye)      :      6.66884

                             ****ORCA TERMINATED NORMALLY****
TOTAL RUN TIME: 0 days 0 hours 15 minutes 22 seconds 706 msec
