                         Program Version 3.0.3 - RELEASE   -
|  1> ! RI-MP2 RIJK def2-TZVP def2-TZVP/C def2-TZVP/JK TIGHTSCF
|  2> % maxcore 2000
|  3> % mp2 density relaxed end
|  4> *xyz 0 1
|  5>  C        0.0829242483     1.5169482698     0.1093896242
|  6>  C       -0.0130493844     0.0174339284    -0.0386608106
|  7>  C        0.6695696853    -0.6425349112    -1.1698347116
|  8>  N        1.2709226306    -0.6830545028     0.2147386462
|  9>  C        1.0889160089    -2.1771870365     0.1949862360
| 10>  C       -0.2472482433    -2.7531484433    -0.0807902307
| 11>  C        0.5203044486    -2.1713662268    -1.2512335770
| 12>  C        1.0065081827    -3.0110960839    -2.3483531425
| 13>  O        0.9905077393    -4.2229333901    -2.3480015561
| 14>  H        1.0288041788     1.8878613267    -0.2939215296
| 15>  H       -0.7401728720     2.0078233787    -0.4200054261
| 16>  H        0.0309854197     1.8009676869     1.1648434226
| 17>  H       -0.9273966655    -0.4096239669     0.3598608197
| 18>  H        1.1668922606    -0.0835348310    -1.9581689744
| 19>  H        1.9212470401    -2.7707231881     0.5511833567
| 20>  H       -0.2457343773    -3.8382244638    -0.1122140288
| 21>  H       -1.1794992671    -2.3147898414     0.2533229235
| 22>  H        1.4268688967    -2.4445994947    -3.2102609217
| 23> *
| 24>
| 25>                          ****END OF INPUT****

CARTESIAN COORDINATES (ANGSTROEM)
---------------------------------
  C      0.082924    1.516948    0.109390
  C     -0.013049    0.017434   -0.038661
  C      0.669570   -0.642535   -1.169835
  N      1.270923   -0.683055    0.214739
  C      1.088916   -2.177187    0.194986
  C     -0.247248   -2.753148   -0.080790
  C      0.520304   -2.171366   -1.251234
  C      1.006508   -3.011096   -2.348353
  O      0.990508   -4.222933   -2.348002
  H      1.028804    1.887861   -0.293922
  H     -0.740173    2.007823   -0.420005
  H      0.030985    1.800968    1.164843
  H     -0.927397   -0.409624    0.359861
  H      1.166892   -0.083535   -1.958169
  H      1.921247   -2.770723    0.551183
  H     -0.245734   -3.838224   -0.112214
  H     -1.179499   -2.314790    0.253323
  H      1.426869   -2.444599   -3.210261

 Total Charge           Charge          ....    0
 Multiplicity           Mult            ....    1
 Number of Electrons    NEL             ....   66
 Basis Dimension        Dim             ....  333

ORBITAL ENERGIES
----------------

  NO   OCC          E(Eh)            E(eV)
   0   2.0000     -20.547793      -559.1339
   1   2.0000     -15.574227      -423.7963
   2   2.0000     -11.335190      -308.4462
   3   2.0000     -11.294915      -307.3503
   4   2.0000     -11.284723      -307.0729
   5   2.0000     -11.280082      -306.9466
   6   2.0000     -11.258067      -306.3476
   7   2.0000     -11.257381      -306.3289
   8   2.0000     -11.230656      -305.6017
   9   2.0000      -1.387612       -37.7588
  10   2.0000      -1.319481       -35.9049
  11   2.0000      -1.138281       -30.9742
  12   2.0000      -1.004433       -27.3320
  13   2.0000      -0.960729       -26.1428
  14   2.0000      -0.891474       -24.2582
  15   2.0000      -0.835143       -22.7254
  16   2.0000      -0.776557       -21.1312
  17   2.0000      -0.747689       -20.3457
  18   2.0000      -0.725851       -19.7514
  19   2.0000      -0.681685       -18.5496
  20   2.0000      -0.640482       -17.4284
  21   2.0000      -0.606553       -16.5052
  22   2.0000      -0.585924       -15.9438
  23   2.0000      -0.577422       -15.7125
  24   2.0000      -0.555923       -15.1274
  25   2.0000      -0.548772       -14.9328
  26   2.0000      -0.533553       -14.5187
  27   2.0000      -0.500677       -13.6241
  28   2.0000      -0.492543       -13.4028
  29   2.0000      -0.474088       -12.9006
  30   2.0000      -0.423783       -11.5317
  31   2.0000      -0.395955       -10.7745
  32   2.0000      -0.345955        -9.4139
  33   0.0000       0.106445         2.8965
  34   0.0000       0.142020         3.8646
  35   0.0000       0.151355         4.1186
  36   0.0000       0.169353         4.6083
  37   0.0000       0.171576         4.6688

MULLIKEN ATOMIC CHARGES
-----------------------
   0 C :   -0.431430
   1 C :    0.077283
   2 C :   -0.097603
   3 N :   -0.258655
   4 C :   -0.075267
   5 C :   -0.219951
   6 C :    0.047756
   7 C :    0.039072
   8 O :   -0.296855
   9 H :    0.143562
  10 H :    0.133105
  11 H :    0.139941
  12 H :    0.117799
  13 H :    0.138421
  14 H :    0.155127
  15 H :    0.163775
  16 H :    0.142172
  17 H :    0.081747
Sum of atomic charges:    0.0000000

LOEWDIN ATOMIC CHARGES
----------------------
   0 C :   -0.283364
   1 C :   -0.257122
   2 C :   -0.154311
   3 N :    0.137938
   4 C :   -0.151148
   5 C :   -0.169206
   6 C :   -0.191078
   7 C :   -0.281192
   8 O :    0.115219
   9 H :    0.132722
  10 H :    0.128219
  11 H :    0.129921
  12 H :    0.142299
  13 H :    0.142762
  14 H :    0.145086
  15 H :    0.161007
  16 H :    0.134619
  17 H :    0.117631

  Mayer bond orders larger than 0.1
B(  0-C ,  1-C ) :   0.8766 B(  0-C ,  9-H ) :   0.9424 B(  0-C , 10-H ) :   0.9343
B(  0-C , 11-H ) :   0.9390 B(  1-C ,  2-C ) :   0.9451 B(  1-C ,  3-N ) :   0.8361
B(  1-C , 12-H ) :   0.9020 B(  2-C ,  3-N ) :   0.8585 B(  2-C ,  6-C ) :   0.8779
B(  2-C , 13-H ) :   0.8858 B(  3-N ,  4-C ) :   0.9443 B(  4-C ,  5-C ) :   0.9486
B(  4-C ,  6-C ) :   0.7872 B(  4-C , 14-H ) :   0.9143 B(  5-C ,  6-C ) :   0.8298
B(  5-C , 15-H ) :   0.9028 B(  5-C , 16-H ) :   0.9010 B(  6-C ,  7-C ) :   0.9084
B(  6-C , 17-H ) :  -0.1022 B(  7-C ,  8-O ) :   1.9583 B(  7-C , 17-H ) :   0.9715

MP2 TOTAL ENERGY:     -401.176715122 Eh
FINAL SINGLE POINT ENERGY      -401.176715121813

DIPOLE MOMENT
-------------
                                X             Y             Z
Electronic contribution:      2.14151      -6.56202      -2.71846
Nuclear contribution   :     -2.69976       7.48950       2.94095
                        -----------------------------------------
Total Dipole Moment    :     -0.55825       0.92748       0.22249
                        -----------------------------------------
Magnitude (a.u.)       :      1.10515
Magnitude (Debye)      :      2.80907

                             ****ORCA TERMINATED NORMALLY****
TOTAL RUN TIME: 0 days 0 hours 17 minutes 55 seconds 693 msec
