                         Program Version 3.0.3 - RELEASE   -
|  1> ! RI-MP2 RIJK def2-TZVP def2-TZVP/C def2-TZVP/JK TIGHTSCF
|  2> % maxcore 2000
|  3> % mp2 density relaxed end
|  4> *xyz 0 1
|  5>  O       -0.0397358647     1.4481191570     0.2301956036
|  6>  C       -0.0098748852     0.0539533787     0.1065313466
|  7>  C       -0.6299443240    -0.8048615531     1.1760319776
|  8>  C       -1.3191672725    -0.6339085686    -0.1642838514
|  9>  C       -2.5826913964     0.1735788605    -0.2455030285
| 10>  O       -3.6656605207    -0.6443438184     0.2217809345
| 11>  C       -4.9025482739    -0.1584099301     0.0224884247
| 12>  N       -5.9093900472    -0.7815985322     0.4628983829
| 13>  H        0.5674289905     1.6961109778     0.9349708877
| 14>  H        0.8656889178    -0.3344594451    -0.4130255505
| 15>  H       -0.1802109630    -1.7619590106     1.4143638982
| 16>  H       -1.0788104481    -0.2889054514     2.0184372390
| 17>  H       -1.2863031281    -1.4823109615    -0.8406572381
| 18>  H       -2.4980476713     1.0758942075     0.3687330841
| 19>  H       -2.7767640427     0.4837446726    -1.2812255585
| 20>  H       -4.9203942350     0.7852173576    -0.5421338546
| 21>  H       -6.7599598254    -0.2818328007     0.2120240626
| 22> *
| 23>
| 24>                          ****END OF INPUT****

CARTESIAN COORDINATES (ANGSTROEM)
---------------------------------
  O     -0.039736    1.448119    0.230196
  C     -0.009875    0.053953    0.106531
  C     -0.629944   -0.804862    1.176032
  C     -1.319167   -0.633909   -0.164284
  C     -2.582691    0.173579   -0.245503
  O     -3.665661   -0.644344    0.221781
  C     -4.902548   -0.158410    0.022488
  N     -5.909390   -0.781599    0.462898
  H      0.567429    1.696111    0.934971
  H      0.865689   -0.334459   -0.413026
  H     -0.180211   -1.761959    1.414364
  H     -1.078810   -0.288905    2.018437
  H     -1.286303   -1.482311   -0.840657
  H     -2.498048    1.075894    0.368733
  H     -2.776764    0.483745   -1.281226
  H     -4.920394    0.785217   -0.542134
  H     -6.759960   -0.281833    0.212024

 Total Charge           Charge          ....    0
 Multiplicity           Mult            ....    1
 Number of Electrons    NEL             ....   62
 Basis Dimension        Dim             ....  302

ORBITAL ENERGIES
----------------

  NO   OCC          E(Eh)            E(eV)
   0   2.0000     -20.584850      -560.1422
   1   2.0000     -20.574105      -559.8499
   2   2.0000     -15.533989      -422.7013
   3   2.0000     -11.332349      -308.3689
   4   2.0000     -11.294750      -307.3458
   5   2.0000     -11.293558      -307.3133
   6   2.0000     -11.241613      -305.8998
   7   2.0000     -11.233781      -305.6867
   8   2.0000      -1.420920       -38.6652
   9   2.0000      -1.383426       -37.6449
  10   2.0000      -1.193119       -32.4664
  11   2.0000      -1.144257       -31.1368
  12   2.0000      -0.974863       -26.5274
  13   2.0000      -0.840265       -22.8648
  14   2.0000      -0.817685       -22.2503
  15   2.0000      -0.797520       -21.7016
  16   2.0000      -0.732801       -19.9405
  17   2.0000      -0.697929       -18.9916
  18   2.0000      -0.681411       -18.5421
  19   2.0000      -0.658336       -17.9142
  20   2.0000      -0.644026       -17.5248
  21   2.0000      -0.611919       -16.6512
  22   2.0000      -0.571920       -15.5627
  23   2.0000      -0.546762       -14.8781
  24   2.0000      -0.528759       -14.3883
  25   2.0000      -0.514672       -14.0049
  26   2.0000      -0.498690       -13.5700
  27   2.0000      -0.435114       -11.8401
  28   2.0000      -0.422716       -11.5027
  29   2.0000      -0.411609       -11.2004
  30   2.0000      -0.394068       -10.7231
  31   0.0000       0.134019         3.6469
  32   0.0000       0.148223         4.0334
  33   0.0000       0.151289         4.1168
  34   0.0000       0.167086         4.5466
  35   0.0000       0.174752         4.7552

MULLIKEN ATOMIC CHARGES
-----------------------
   0 O :   -0.474468
   1 C :    0.005334
   2 C :   -0.299341
   3 C :   -0.033446
   4 C :   -0.125461
   5 O :   -0.203686
   6 C :    0.065861
   7 N :   -0.344428
   8 H :    0.328188
   9 H :    0.113550
  10 H :    0.135815
  11 H :    0.143033
  12 H :    0.133202
  13 H :    0.137262
  14 H :    0.117563
  15 H :    0.078609
  16 H :    0.222412
Sum of atomic charges:    0.0000000

LOEWDIN ATOMIC CHARGES
----------------------
   0 O :   -0.007480
   1 C :   -0.317804
   2 C :   -0.210391
   3 C :   -0.211890
   4 C :   -0.276730
   5 O :    0.241246
   6 C :   -0.407700
   7 N :   -0.087302
   8 H :    0.182611
   9 H :    0.131729
  10 H :    0.134271
  11 H :    0.141477
  12 H :    0.152269
  13 H :    0.134070
  14 H :    0.129346
  15 H :    0.106097
  16 H :    0.166185

  Mayer bond orders larger than 0.1
B(  0-O ,  1-C ) :   1.0011 B(  0-O ,  8-H ) :   0.8390 B(  1-C ,  2-C ) :   0.9069
B(  1-C ,  3-C ) :   0.8584 B(  1-C ,  9-H ) :   0.9472 B(  2-C ,  3-C ) :   0.8691
B(  2-C , 10-H ) :   0.9212 B(  2-C , 11-H ) :   0.9245 B(  3-C ,  4-C ) :   0.9684
B(  3-C , 12-H ) :   0.9187 B(  4-C ,  5-O ) :   0.8888 B(  4-C , 13-H ) :   0.9109
B(  4-C , 14-H ) :   0.9249 B(  5-O ,  6-C ) :   1.0699 B(  6-C ,  7-N ) :   1.9488
B(  6-C , 15-H ) :   0.9311 B(  7-N , 16-H ) :   0.8515

MP2 TOTAL ENERGY:     -400.317133759 Eh
FINAL SINGLE POINT ENERGY      -400.317133759120

DIPOLE MOMENT
-------------
                                X             Y             Z
Electronic contribution:     -2.13210      -0.16367      -0.08857
Nuclear contribution   :      3.11853       0.98455      -0.17581
                        -----------------------------------------
Total Dipole Moment    :      0.98643       0.82088      -0.26438
                        -----------------------------------------
Magnitude (a.u.)       :      1.31026
Magnitude (Debye)      :      3.33041

                             ****ORCA TERMINATED NORMALLY****
TOTAL RUN TIME: 0 days 0 hours 10 minutes 3 seconds 687 msec
