                         Program Version 3.0.3 - RELEASE   -
|  1> ! RI-MP2 RIJK def2-TZVP def2-TZVP/C def2-TZVP/JK TIGHTSCF
|  2> % maxcore 2000
|  3> % mp2 density relaxed end
|  4> *xyz 0 1
|  5>  N        0.0196140120     1.3238118668     0.1554745430
|  6>  C        0.0034552308    -0.0380256501     0.0286995050
|  7>  N       -1.0832465713    -0.7207353521     0.0454172026
|  8>  C       -0.7663043655    -2.1490235563    -0.0236198000
|  9>  C       -1.3033600967    -2.7899736099    -1.2204156365
| 10>  C       -1.7176975061    -3.3160820623    -2.2178455743
| 11>  C        0.7922288318    -2.2495125610     0.0127577172
| 12>  O        1.4456934993    -3.2476794309     0.1065269908
| 13>  C        1.2997318703    -0.8067483032    -0.0534052870
| 14>  H        0.8116677629     1.8218205329    -0.2166634509
| 15>  H       -0.8734762469     1.7790757941     0.0336580211
| 16>  H       -1.1589058612    -2.6691712324     0.8623084893
| 17>  H       -2.0955120837    -3.7853194737    -3.0922808222
| 18>  H        1.8424924111    -0.6347062067    -0.9909384146
| 19>  H        1.9906806732    -0.5900105149     0.7674418866
| 20> *
| 21>
| 22>                          ****END OF INPUT****

CARTESIAN COORDINATES (ANGSTROEM)
---------------------------------
  N      0.019614    1.323812    0.155475
  C      0.003455   -0.038026    0.028700
  N     -1.083247   -0.720735    0.045417
  C     -0.766304   -2.149024   -0.023620
  C     -1.303360   -2.789974   -1.220416
  C     -1.717698   -3.316082   -2.217846
  C      0.792229   -2.249513    0.012758
  O      1.445693   -3.247679    0.106527
  C      1.299732   -0.806748   -0.053405
  H      0.811668    1.821821   -0.216663
  H     -0.873476    1.779076    0.033658
  H     -1.158906   -2.669171    0.862308
  H     -2.095512   -3.785319   -3.092281
  H      1.842492   -0.634706   -0.990938
  H      1.990681   -0.590011    0.767442

 Total Charge           Charge          ....    0
 Multiplicity           Mult            ....    1
 Number of Electrons    NEL             ....   64
 Basis Dimension        Dim             ....  315

ORBITAL ENERGIES
----------------

  NO   OCC          E(Eh)            E(eV)
   0   2.0000     -20.565757      -559.6227
   1   2.0000     -15.591852      -424.2759
   2   2.0000     -15.550800      -423.1588
   3   2.0000     -11.350521      -308.8634
   4   2.0000     -11.335326      -308.4499
   5   2.0000     -11.297129      -307.4105
   6   2.0000     -11.268091      -306.6203
   7   2.0000     -11.236555      -305.7622
   8   2.0000     -11.226760      -305.4957
   9   2.0000      -1.412103       -38.4253
  10   2.0000      -1.299054       -35.3491
  11   2.0000      -1.201907       -32.7056
  12   2.0000      -1.053085       -28.6559
  13   2.0000      -1.040285       -28.3076
  14   2.0000      -0.965994       -26.2860
  15   2.0000      -0.804860       -21.9013
  16   2.0000      -0.785374       -21.3711
  17   2.0000      -0.738622       -20.0989
  18   2.0000      -0.715436       -19.4680
  19   2.0000      -0.684704       -18.6318
  20   2.0000      -0.675299       -18.3758
  21   2.0000      -0.641079       -17.4446
  22   2.0000      -0.620989       -16.8980
  23   2.0000      -0.602966       -16.4075
  24   2.0000      -0.593902       -16.1609
  25   2.0000      -0.544831       -14.8256
  26   2.0000      -0.503171       -13.6920
  27   2.0000      -0.472679       -12.8622
  28   2.0000      -0.421407       -11.4671
  29   2.0000      -0.395227       -10.7547
  30   2.0000      -0.382692       -10.4136
  31   2.0000      -0.371704       -10.1146
  32   0.0000       0.109107         2.9689
  33   0.0000       0.118468         3.2237
  34   0.0000       0.147226         4.0062
  35   0.0000       0.159070         4.3285
  36   0.0000       0.167266         4.5515

MULLIKEN ATOMIC CHARGES
-----------------------
   0 N :   -0.497641
   1 C :    0.150373
   2 N :   -0.254910
   3 C :   -0.054183
   4 C :   -0.064225
   5 C :   -0.114600
   6 C :    0.130149
   7 O :   -0.241961
   8 C :   -0.221018
   9 H :    0.257945
  10 H :    0.264076
  11 H :    0.136439
  12 H :    0.193373
  13 H :    0.156697
  14 H :    0.159487
Sum of atomic charges:   -0.0000000

LOEWDIN ATOMIC CHARGES
----------------------
   0 N :   -0.033845
   1 C :   -0.367039
   2 N :    0.113382
   3 C :   -0.246490
   4 C :   -0.080248
   5 C :   -0.082491
   6 C :   -0.265874
   7 O :    0.182590
   8 C :   -0.194002
   9 H :    0.171511
  10 H :    0.177122
  11 H :    0.173844
  12 H :    0.128031
  13 H :    0.162554
  14 H :    0.160955

  Mayer bond orders larger than 0.1
B(  0-N ,  1-C ) :   1.1064 B(  0-N ,  9-H ) :   0.8704 B(  0-N , 10-H ) :   0.8617
B(  1-C ,  2-N ) :   1.7712 B(  1-C ,  8-C ) :   0.9428 B(  2-N ,  3-C ) :   1.0048
B(  3-C ,  4-C ) :   1.1596 B(  3-C ,  5-C ) :  -0.1010 B(  3-C ,  6-C ) :   0.8699
B(  3-C ,  8-C ) :  -0.1071 B(  3-C , 11-H ) :   0.8858 B(  4-C ,  5-C ) :   2.5609
B(  5-C , 12-H ) :   0.8953 B(  6-C ,  7-O ) :   2.0664 B(  6-C ,  8-C ) :   0.9269
B(  8-C , 13-H ) :   0.8797 B(  8-C , 14-H ) :   0.8863

MP2 TOTAL ENERGY:     -416.088252551 Eh
FINAL SINGLE POINT ENERGY      -416.088252550620

DIPOLE MOMENT
-------------
                                X             Y             Z
Electronic contribution:     -0.56890      -3.28925       0.31313
Nuclear contribution   :      1.03622       4.64613      -0.62499
                        -----------------------------------------
Total Dipole Moment    :      0.46732       1.35688      -0.31186
                        -----------------------------------------
Magnitude (a.u.)       :      1.46860
Magnitude (Debye)      :      3.73288

                             ****ORCA TERMINATED NORMALLY****
TOTAL RUN TIME: 0 days 0 hours 14 minutes 18 seconds 845 msec
