                         Program Version 3.0.3 - RELEASE   -
|  1> ! RI-MP2 RIJK def2-TZVP def2-TZVP/C def2-TZVP/JK TIGHTSCF
|  2> % maxcore 2000
|  3> % mp2 density relaxed end
|  4> *xyz 0 1
|  5>  C       -0.0089110373     1.6003649899    -0.0277215123
|  6>  C        0.0723358590     0.0917579328     0.0655378083
|  7>  N        1.2404603421    -0.7151229824    -0.2928730546
|  8>  C        2.5193622673     0.0417648751    -0.3828402353
|  9>  C        2.8700198311     0.6084760236     1.0073724485
| 10>  C        1.7923605724     0.0502118343     1.9458309427
| 11>  O        1.7872132408     0.1312861292     3.1489550625
| 12>  C        0.7867333815    -0.7061285745     1.1197258865
| 13>  C        0.1791907497    -1.9392449009     1.7397310774
| 14>  H        0.8395610475     2.1258073604     0.4122819934
| 15>  H       -0.0896306097     1.9085692300    -1.0762952353
| 16>  H       -0.9114904343     1.9470368659     0.4854028640
| 17>  H       -0.8463833135    -0.3847522317    -0.2783785046
| 18>  H        3.2819669295    -0.6648891605    -0.7200828039
| 19>  H        2.4341493508     0.8164673032    -1.1502690206
| 20>  H        3.8451393136     0.2668803206     1.3660258997
| 21>  H        2.8837968771     1.7015355468     1.0654266166
| 22>  H       -0.3119414830    -1.6754018744     2.6808944426
| 23>  H       -0.5540179080    -2.3923331811     1.0684916798
| 24>  H        0.9483131333    -2.6858151562     1.9623387645
| 25> *
| 26>
| 27>                          ****END OF INPUT****

CARTESIAN COORDINATES (ANGSTROEM)
---------------------------------
  C     -0.008911    1.600365   -0.027722
  C      0.072336    0.091758    0.065538
  N      1.240460   -0.715123   -0.292873
  C      2.519362    0.041765   -0.382840
  C      2.870020    0.608476    1.007372
  C      1.792361    0.050212    1.945831
  O      1.787213    0.131286    3.148955
  C      0.786733   -0.706129    1.119726
  C      0.179191   -1.939245    1.739731
  H      0.839561    2.125807    0.412282
  H     -0.089631    1.908569   -1.076295
  H     -0.911490    1.947037    0.485403
  H     -0.846383   -0.384752   -0.278379
  H      3.281967   -0.664889   -0.720083
  H      2.434149    0.816467   -1.150269
  H      3.845139    0.266880    1.366026
  H      2.883797    1.701536    1.065427
  H     -0.311941   -1.675402    2.680894
  H     -0.554018   -2.392333    1.068492
  H      0.948313   -2.685815    1.962339

 Total Charge           Charge          ....    0
 Multiplicity           Mult            ....    1
 Number of Electrons    NEL             ....   68
 Basis Dimension        Dim             ....  345

ORBITAL ENERGIES
----------------

  NO   OCC          E(Eh)            E(eV)
   0   2.0000     -20.548867      -559.1631
   1   2.0000     -15.569762      -423.6748
   2   2.0000     -11.333237      -308.3930
   3   2.0000     -11.276500      -306.8492
   4   2.0000     -11.271066      -306.7013
   5   2.0000     -11.265650      -306.5539
   6   2.0000     -11.242174      -305.9151
   7   2.0000     -11.237062      -305.7760
   8   2.0000     -11.222135      -305.3698
   9   2.0000      -1.393605       -37.9219
  10   2.0000      -1.294070       -35.2134
  11   2.0000      -1.063428       -28.9374
  12   2.0000      -1.014622       -27.6093
  13   2.0000      -1.003300       -27.3012
  14   2.0000      -0.923571       -25.1317
  15   2.0000      -0.845965       -23.0199
  16   2.0000      -0.785194       -21.3662
  17   2.0000      -0.715984       -19.4829
  18   2.0000      -0.683158       -18.5897
  19   2.0000      -0.658134       -17.9087
  20   2.0000      -0.629721       -17.1356
  21   2.0000      -0.605487       -16.4761
  22   2.0000      -0.598024       -16.2731
  23   2.0000      -0.574073       -15.6213
  24   2.0000      -0.569797       -15.5050
  25   2.0000      -0.555058       -15.1039
  26   2.0000      -0.549265       -14.9463
  27   2.0000      -0.543450       -14.7880
  28   2.0000      -0.533859       -14.5270
  29   2.0000      -0.495756       -13.4902
  30   2.0000      -0.465726       -12.6730
  31   2.0000      -0.442727       -12.0472
  32   2.0000      -0.405064       -11.0224
  33   2.0000      -0.372818       -10.1449
  34   0.0000       0.125636         3.4187
  35   0.0000       0.129345         3.5197
  36   0.0000       0.155142         4.2216
  37   0.0000       0.160014         4.3542
  38   0.0000       0.174830         4.7574

MULLIKEN ATOMIC CHARGES
-----------------------
   0 C :   -0.395383
   1 C :   -0.078869
   2 N :   -0.224092
   3 C :   -0.165536
   4 C :   -0.240341
   5 C :    0.106398
   6 O :   -0.274029
   7 C :    0.160572
   8 C :   -0.402692
   9 H :    0.136377
  10 H :    0.142996
  11 H :    0.147446
  12 H :    0.118455
  13 H :    0.136203
  14 H :    0.125587
  15 H :    0.146513
  16 H :    0.143727
  17 H :    0.146259
  18 H :    0.138920
  19 H :    0.131490
Sum of atomic charges:    0.0000000

LOEWDIN ATOMIC CHARGES
----------------------
   0 C :   -0.289638
   1 C :   -0.233572
   2 N :    0.144776
   3 C :   -0.261507
   4 C :   -0.230566
   5 C :   -0.288442
   6 O :    0.159046
   7 C :   -0.252952
   8 C :   -0.257135
   9 H :    0.128353
  10 H :    0.131117
  11 H :    0.135569
  12 H :    0.151033
  13 H :    0.134183
  14 H :    0.131551
  15 H :    0.152838
  16 H :    0.146005
  17 H :    0.136907
  18 H :    0.131089
  19 H :    0.131344

  Mayer bond orders larger than 0.1
B(  0-C ,  1-C ) :   0.8880 B(  0-C ,  9-H ) :   0.9343 B(  0-C , 10-H ) :   0.9349
B(  0-C , 11-H ) :   0.9277 B(  1-C ,  2-N ) :   0.9398 B(  1-C ,  7-C ) :   0.8957
B(  1-C , 12-H ) :   0.9131 B(  2-N ,  3-C ) :   0.9026 B(  2-N ,  7-C ) :   0.8253
B(  3-C ,  4-C ) :   0.9449 B(  3-C , 13-H ) :   0.9315 B(  3-C , 14-H ) :   0.9367
B(  4-C ,  5-C ) :   0.9085 B(  4-C ,  7-C ) :  -0.1211 B(  4-C , 15-H ) :   0.9045
B(  4-C , 16-H ) :   0.9101 B(  5-C ,  6-O ) :   2.0349 B(  5-C ,  7-C ) :   0.8788
B(  7-C ,  8-C ) :   0.8753 B(  8-C , 17-H ) :   0.9323 B(  8-C , 18-H ) :   0.9410
B(  8-C , 19-H ) :   0.9330

MP2 TOTAL ENERGY:     -402.464580284 Eh
FINAL SINGLE POINT ENERGY      -402.464580284000

DIPOLE MOMENT
-------------
                                X             Y             Z
Electronic contribution:      2.01423      -1.31200       3.46958
Nuclear contribution   :     -2.06327       1.72615      -4.23108
                        -----------------------------------------
Total Dipole Moment    :     -0.04904       0.41415      -0.76150
                        -----------------------------------------
Magnitude (a.u.)       :      0.86822
Magnitude (Debye)      :      2.20685

                             ****ORCA TERMINATED NORMALLY****
TOTAL RUN TIME: 0 days 0 hours 21 minutes 37 seconds 94 msec
