                         Program Version 3.0.3 - RELEASE   -
|  1> ! RI-MP2 RIJK def2-TZVP def2-TZVP/C def2-TZVP/JK TIGHTSCF
|  2> % maxcore 2000
|  3> % mp2 density relaxed end
|  4> *xyz 0 1
|  5>  C        0.0073920579     1.4721916821    -0.0438725897
|  6>  C        0.0004605070    -0.0177584919     0.0163930852
|  7>  N       -0.0784215051    -0.7762134900    -1.0732770665
|  8>  N       -0.0531948252    -2.0236967876    -0.5632297247
|  9>  C        0.0382239326    -1.9821332934     0.7898301443
| 10>  N        0.0740761501    -0.7159466491     1.1848416490
| 11>  C        0.0839132903    -3.1437967970     1.5937169316
| 12>  C        0.1207699661    -4.1513606697     2.2495070881
| 13>  H        0.9232606793     1.8716916924     0.4021186406
| 14>  H       -0.0592739522     1.8067827499    -1.0802347609
| 15>  H       -0.8352639732     1.8845674044     0.5193430138
| 16>  H       -0.1000792161    -2.8268946536    -1.1689345953
| 17>  H        0.1543744284    -5.0326684264     2.8418869446
| 18> *
| 19>
| 20>                          ****END OF INPUT****

CARTESIAN COORDINATES (ANGSTROEM)
---------------------------------
  C      0.007392    1.472192   -0.043873
  C      0.000461   -0.017758    0.016393
  N     -0.078422   -0.776213   -1.073277
  N     -0.053195   -2.023697   -0.563230
  C      0.038224   -1.982133    0.789830
  N      0.074076   -0.715947    1.184842
  C      0.083913   -3.143797    1.593717
  C      0.120770   -4.151361    2.249507
  H      0.923261    1.871692    0.402119
  H     -0.059274    1.806783   -1.080235
  H     -0.835264    1.884567    0.519343
  H     -0.100079   -2.826895   -1.168935
  H      0.154374   -5.032668    2.841887

 Total Charge           Charge          ....    0
 Multiplicity           Mult            ....    1
 Number of Electrons    NEL             ....   56
 Basis Dimension        Dim             ....  278

ORBITAL ENERGIES
----------------

  NO   OCC          E(Eh)            E(eV)
   0   2.0000     -15.656254      -426.0283
   1   2.0000     -15.595966      -424.3878
   2   2.0000     -15.562817      -423.4858
   3   2.0000     -11.344713      -308.7053
   4   2.0000     -11.296154      -307.3840
   5   2.0000     -11.266955      -306.5894
   6   2.0000     -11.263143      -306.4857
   7   2.0000     -11.227806      -305.5241
   8   2.0000      -1.418452       -38.5980
   9   2.0000      -1.205850       -32.8128
  10   2.0000      -1.142892       -31.0997
  11   2.0000      -1.053817       -28.6758
  12   2.0000      -0.982967       -26.7479
  13   2.0000      -0.897080       -24.4108
  14   2.0000      -0.808490       -22.0001
  15   2.0000      -0.785425       -21.3725
  16   2.0000      -0.732903       -19.9433
  17   2.0000      -0.671896       -18.2832
  18   2.0000      -0.652505       -17.7556
  19   2.0000      -0.569041       -15.4844
  20   2.0000      -0.568243       -15.4627
  21   2.0000      -0.548462       -14.9244
  22   2.0000      -0.516436       -14.0529
  23   2.0000      -0.465652       -12.6710
  24   2.0000      -0.454153       -12.3581
  25   2.0000      -0.427173       -11.6240
  26   2.0000      -0.411130       -11.1874
  27   2.0000      -0.349894        -9.5211
  28   0.0000       0.092171         2.5081
  29   0.0000       0.133042         3.6202
  30   0.0000       0.147197         4.0054
  31   0.0000       0.150608         4.0982
  32   0.0000       0.161525         4.3953

MULLIKEN ATOMIC CHARGES
-----------------------
   0 C :   -0.438926
   1 C :    0.181624
   2 N :   -0.189627
   3 N :   -0.150172
   4 C :    0.024049
   5 N :   -0.297573
   6 C :    0.029616
   7 C :   -0.078105
   8 H :    0.147416
   9 H :    0.152518
  10 H :    0.147399
  11 H :    0.267371
  12 H :    0.204408
Sum of atomic charges:    0.0000000

LOEWDIN ATOMIC CHARGES
----------------------
   0 C :   -0.271450
   1 C :   -0.369711
   2 N :    0.046933
   3 N :    0.161612
   4 C :   -0.326434
   5 N :    0.143978
   6 C :   -0.072027
   7 C :   -0.050208
   8 H :    0.136471
   9 H :    0.135626
  10 H :    0.136469
  11 H :    0.196678
  12 H :    0.132062

  Mayer bond orders larger than 0.1
B(  0-C ,  1-C ) :   0.8614 B(  0-C ,  8-H ) :   0.9333 B(  0-C ,  9-H ) :   0.9550
B(  0-C , 10-H ) :   0.9333 B(  1-C ,  2-N ) :   1.5701 B(  1-C ,  5-N ) :   1.2980
B(  2-N ,  3-N ) :   1.0938 B(  3-N ,  4-C ) :   1.2298 B(  3-N , 11-H ) :   0.8591
B(  4-C ,  5-N ) :   1.4801 B(  4-C ,  6-C ) :   1.1942 B(  4-C ,  7-C ) :  -0.1664
B(  6-C ,  7-C ) :   2.6470 B(  7-C , 12-H ) :   0.8622

MP2 TOTAL ENERGY:     -357.016107568 Eh
FINAL SINGLE POINT ENERGY      -357.016107567714

DIPOLE MOMENT
-------------
                                X             Y             Z
Electronic contribution:     -0.00392      -5.07447       0.49497
Nuclear contribution   :     -0.02305       4.22131      -0.80200
                        -----------------------------------------
Total Dipole Moment    :     -0.02697      -0.85315      -0.30702
                        -----------------------------------------
Magnitude (a.u.)       :      0.90712
Magnitude (Debye)      :      2.30571

                             ****ORCA TERMINATED NORMALLY****
TOTAL RUN TIME: 0 days 0 hours 10 minutes 2 seconds 600 msec
