                         Program Version 3.0.3 - RELEASE   -
|  1> ! RI-MP2 RIJK def2-TZVP def2-TZVP/C def2-TZVP/JK TIGHTSCF
|  2> % maxcore 2000
|  3> % mp2 density relaxed end
|  4> *xyz 0 1
|  5>  O        0.0646655700     1.2126215351    -0.4957373801
|  6>  C        0.0090406863    -0.1746609670    -0.1999501280
|  7>  C       -1.4137480674    -0.4953807603     0.2212473127
|  8>  C       -2.4380377046    -0.3899349379    -0.9573661538
|  9>  C       -2.2618270839    -1.9030640607    -1.1133871279
| 10>  O       -2.2396220719    -2.6688448620    -2.0371938589
| 11>  C       -1.6968268140    -2.0410152846     0.3019211264
| 12>  O       -0.6534107318    -2.9519644589     0.4959237965
| 13>  H        0.9650197469     1.4283975420    -0.7558632878
| 14>  H        0.2856536498    -0.7811995756    -1.0783161730
| 15>  H        0.7003250627    -0.4487939172     0.6094490922
| 16>  H       -1.6755638703     0.0681191410     1.1177863791
| 17>  H       -3.4446215012    -0.1169079597    -0.6285263690
| 18>  H       -2.1565651658     0.2276495189    -1.8115405945
| 19>  H       -2.5040960106    -2.2195781969     1.0268568334
| 20>  H       -0.5714440540    -3.4580304862    -0.3228223874
| 21> *
| 22>
| 23>                          ****END OF INPUT****

CARTESIAN COORDINATES (ANGSTROEM)
---------------------------------
  O      0.064666    1.212622   -0.495737
  C      0.009041   -0.174661   -0.199950
  C     -1.413748   -0.495381    0.221247
  C     -2.438038   -0.389935   -0.957366
  C     -2.261827   -1.903064   -1.113387
  O     -2.239622   -2.668845   -2.037194
  C     -1.696827   -2.041015    0.301921
  O     -0.653411   -2.951964    0.495924
  H      0.965020    1.428398   -0.755863
  H      0.285654   -0.781200   -1.078316
  H      0.700325   -0.448794    0.609449
  H     -1.675564    0.068119    1.117786
  H     -3.444622   -0.116908   -0.628526
  H     -2.156565    0.227650   -1.811541
  H     -2.504096   -2.219578    1.026857
  H     -0.571444   -3.458030   -0.322822

 Total Charge           Charge          ....    0
 Multiplicity           Mult            ....    1
 Number of Electrons    NEL             ....   62
 Basis Dimension        Dim             ....  296

ORBITAL ENERGIES
----------------

  NO   OCC          E(Eh)            E(eV)
   0   2.0000     -20.575345      -559.8836
   1   2.0000     -20.566804      -559.6512
   2   2.0000     -20.566800      -559.6511
   3   2.0000     -11.341482      -308.6174
   4   2.0000     -11.301730      -307.5357
   5   2.0000     -11.288130      -307.1656
   6   2.0000     -11.251833      -306.1779
   7   2.0000     -11.247946      -306.0722
   8   2.0000      -1.413179       -38.4546
   9   2.0000      -1.380182       -37.5567
  10   2.0000      -1.371231       -37.3131
  11   2.0000      -1.146528       -31.1986
  12   2.0000      -0.969012       -26.3682
  13   2.0000      -0.921215       -25.0675
  14   2.0000      -0.819994       -22.3132
  15   2.0000      -0.764316       -20.7981
  16   2.0000      -0.715175       -19.4609
  17   2.0000      -0.694440       -18.8967
  18   2.0000      -0.686978       -18.6936
  19   2.0000      -0.655114       -17.8266
  20   2.0000      -0.634350       -17.2615
  21   2.0000      -0.600890       -16.3511
  22   2.0000      -0.575098       -15.6492
  23   2.0000      -0.571992       -15.5647
  24   2.0000      -0.558095       -15.1865
  25   2.0000      -0.526359       -14.3230
  26   2.0000      -0.505587       -13.7577
  27   2.0000      -0.485784       -13.2188
  28   2.0000      -0.456129       -12.4119
  29   2.0000      -0.441126       -12.0037
  30   2.0000      -0.409531       -11.1439
  31   0.0000       0.114378         3.1124
  32   0.0000       0.128978         3.5097
  33   0.0000       0.152394         4.1469
  34   0.0000       0.155532         4.2322
  35   0.0000       0.182338         4.9617

MULLIKEN ATOMIC CHARGES
-----------------------
   0 O :   -0.465928
   1 C :   -0.125770
   2 C :   -0.004463
   3 C :   -0.215988
   4 C :    0.062211
   5 O :   -0.263083
   6 C :    0.069613
   7 O :   -0.478821
   8 H :    0.320094
   9 H :    0.101876
  10 H :    0.118986
  11 H :    0.122950
  12 H :    0.145554
  13 H :    0.150503
  14 H :    0.123748
  15 H :    0.338519
Sum of atomic charges:   -0.0000000

LOEWDIN ATOMIC CHARGES
----------------------
   0 O :   -0.043658
   1 C :   -0.328554
   2 C :   -0.205686
   3 C :   -0.180510
   4 C :   -0.316800
   5 O :    0.156533
   6 C :   -0.285215
   7 O :   -0.002389
   8 H :    0.174196
   9 H :    0.121863
  10 H :    0.124967
  11 H :    0.146805
  12 H :    0.150286
  13 H :    0.147387
  14 H :    0.151518
  15 H :    0.189256

  Mayer bond orders larger than 0.1
B(  0-O ,  1-C ) :   1.0194 B(  0-O ,  8-H ) :   0.8464 B(  1-C ,  2-C ) :   0.9371
B(  1-C ,  9-H ) :   0.9098 B(  1-C , 10-H ) :   0.9294 B(  2-C ,  3-C ) :   0.8998
B(  2-C ,  6-C ) :   0.8364 B(  2-C , 11-H ) :   0.9148 B(  3-C ,  4-C ) :   0.9133
B(  3-C , 12-H ) :   0.9027 B(  3-C , 13-H ) :   0.8952 B(  4-C ,  5-O ) :   2.0008
B(  4-C ,  6-C ) :   0.8859 B(  6-C ,  7-O ) :   1.0219 B(  6-C , 14-H ) :   0.9225
B(  7-O , 15-H ) :   0.8240

MP2 TOTAL ENERGY:     -420.209874373 Eh
FINAL SINGLE POINT ENERGY      -420.209874373146

DIPOLE MOMENT
-------------
                                X             Y             Z
Electronic contribution:     -1.37267      -3.35009      -1.61503
Nuclear contribution   :      1.66156       3.80302       1.84534
                        -----------------------------------------
Total Dipole Moment    :      0.28889       0.45293       0.23031
                        -----------------------------------------
Magnitude (a.u.)       :      0.58451
Magnitude (Debye)      :      1.48571

                             ****ORCA TERMINATED NORMALLY****
TOTAL RUN TIME: 0 days 0 hours 10 minutes 48 seconds 101 msec
