                         Program Version 3.0.3 - RELEASE   -
|  1> ! RI-MP2 RIJK def2-TZVP def2-TZVP/C def2-TZVP/JK TIGHTSCF
|  2> % maxcore 2000
|  3> % mp2 density relaxed end
|  4> *xyz 0 1
|  5>  C       -0.1284887370     1.5545984593     0.0312264334
|  6>  C        1.3692710325     1.4930181753    -0.3691632897
|  7>  N        1.4565953282     0.1858352767     0.3149188191
|  8>  C       -0.0054423408     0.0556768983     0.4107727048
|  9>  C        2.2597343212    -0.8447913820    -0.1068421501
| 10>  C        2.1023886650    -2.2022177099    -0.1402685500
| 11>  C        3.3481487111    -2.7201112184    -0.6363971902
| 12>  C        4.1501557582    -1.6556407296    -0.8720041370
| 13>  O        3.4926597729    -0.4905501089    -0.5478339223
| 14>  H       -0.3203775925     2.2018899093     0.8882499115
| 15>  H       -0.8318669325     1.7943528835    -0.7658313480
| 16>  H        1.5324089628     1.4232999516    -1.4526637969
| 17>  H        2.0333430782     2.2592272786     0.0399853279
| 18>  H       -0.3691687491    -0.2484725904     1.3973177812
| 19>  H       -0.4234183041    -0.6229107966    -0.3471985866
| 20>  H        1.2281317312    -2.7577511486     0.1559651961
| 21>  H        3.6002272037    -3.7568062423    -0.7982571736
| 22>  H        5.1497862710    -1.5308637557    -1.2504457595
| 23> *
| 24>
| 25>                          ****END OF INPUT****

CARTESIAN COORDINATES (ANGSTROEM)
---------------------------------
  C     -0.128489    1.554598    0.031226
  C      1.369271    1.493018   -0.369163
  N      1.456595    0.185835    0.314919
  C     -0.005442    0.055677    0.410773
  C      2.259734   -0.844791   -0.106842
  C      2.102389   -2.202218   -0.140269
  C      3.348149   -2.720111   -0.636397
  C      4.150156   -1.655641   -0.872004
  O      3.492660   -0.490550   -0.547834
  H     -0.320378    2.201890    0.888250
  H     -0.831867    1.794353   -0.765831
  H      1.532409    1.423300   -1.452664
  H      2.033343    2.259227    0.039985
  H     -0.369169   -0.248473    1.397318
  H     -0.423418   -0.622911   -0.347199
  H      1.228132   -2.757751    0.155965
  H      3.600227   -3.756806   -0.798257
  H      5.149786   -1.530864   -1.250446

 Total Charge           Charge          ....    0
 Multiplicity           Mult            ....    1
 Number of Electrons    NEL             ....   66
 Basis Dimension        Dim             ....  333

ORBITAL ENERGIES
----------------

  NO   OCC          E(Eh)            E(eV)
   0   2.0000     -20.609543      -560.8142
   1   2.0000     -15.568736      -423.6469
   2   2.0000     -11.317995      -307.9783
   3   2.0000     -11.266600      -306.5798
   4   2.0000     -11.266459      -306.5759
   5   2.0000     -11.265696      -306.5552
   6   2.0000     -11.236482      -305.7602
   7   2.0000     -11.221552      -305.3539
   8   2.0000     -11.204299      -304.8845
   9   2.0000      -1.451417       -39.4951
  10   2.0000      -1.269287       -34.5390
  11   2.0000      -1.073142       -29.2017
  12   2.0000      -1.047519       -28.5044
  13   2.0000      -0.941218       -25.6118
  14   2.0000      -0.933184       -25.3932
  15   2.0000      -0.809477       -22.0270
  16   2.0000      -0.793849       -21.6017
  17   2.0000      -0.745182       -20.2774
  18   2.0000      -0.729020       -19.8376
  19   2.0000      -0.679897       -18.5009
  20   2.0000      -0.643159       -17.5012
  21   2.0000      -0.627380       -17.0719
  22   2.0000      -0.595344       -16.2001
  23   2.0000      -0.564262       -15.3543
  24   2.0000      -0.555097       -15.1050
  25   2.0000      -0.551236       -14.9999
  26   2.0000      -0.536028       -14.5861
  27   2.0000      -0.521468       -14.1899
  28   2.0000      -0.500161       -13.6101
  29   2.0000      -0.473464       -12.8836
  30   2.0000      -0.420605       -11.4452
  31   2.0000      -0.386141       -10.5074
  32   2.0000      -0.273388        -7.4393
  33   0.0000       0.136682         3.7193
  34   0.0000       0.158195         4.3047
  35   0.0000       0.164723         4.4823
  36   0.0000       0.172550         4.6953
  37   0.0000       0.185884         5.0582

MULLIKEN ATOMIC CHARGES
-----------------------
   0 C :   -0.224539
   1 C :   -0.138100
   2 N :   -0.101365
   3 C :   -0.145964
   4 C :    0.266062
   5 C :   -0.327770
   6 C :   -0.146483
   7 C :   -0.058959
   8 O :   -0.236547
   9 H :    0.124284
  10 H :    0.126031
  11 H :    0.107615
  12 H :    0.121029
  13 H :    0.120514
  14 H :    0.102130
  15 H :    0.135382
  16 H :    0.133607
  17 H :    0.143072
Sum of atomic charges:    0.0000000

LOEWDIN ATOMIC CHARGES
----------------------
   0 C :   -0.235997
   1 C :   -0.227717
   2 N :    0.159918
   3 C :   -0.230577
   4 C :   -0.327200
   5 C :   -0.196628
   6 C :   -0.199903
   7 C :   -0.252173
   8 O :    0.344198
   9 H :    0.133286
  10 H :    0.127725
  11 H :    0.124314
  12 H :    0.123058
  13 H :    0.122541
  14 H :    0.123083
  15 H :    0.140748
  16 H :    0.141876
  17 H :    0.129448

  Mayer bond orders larger than 0.1
B(  0-C ,  1-C ) :   0.9450 B(  0-C ,  3-C ) :   0.9502 B(  0-C ,  9-H ) :   0.9234
B(  0-C , 10-H ) :   0.9307 B(  1-C ,  2-N ) :   0.8911 B(  1-C , 11-H ) :   0.9096
B(  1-C , 12-H ) :   0.9297 B(  2-N ,  3-C ) :   0.9009 B(  2-N ,  4-C ) :   1.1275
B(  3-C , 13-H ) :   0.9252 B(  3-C , 14-H ) :   0.9063 B(  4-C ,  5-C ) :   1.4905
B(  4-C ,  8-O ) :   1.0406 B(  5-C ,  6-C ) :   1.1810 B(  5-C , 15-H ) :   0.9233
B(  6-C ,  7-C ) :   1.5867 B(  6-C , 16-H ) :   0.9256 B(  7-C ,  8-O ) :   1.0020
B(  7-C , 17-H ) :   0.9356

MP2 TOTAL ENERGY:     -401.246522676 Eh
FINAL SINGLE POINT ENERGY      -401.246522676326

DIPOLE MOMENT
-------------
                                X             Y             Z
Electronic contribution:      5.32179      -2.56352       0.00886
Nuclear contribution   :     -5.91442       2.84408      -0.17143
                        -----------------------------------------
Total Dipole Moment    :     -0.59263       0.28056      -0.16257
                        -----------------------------------------
Magnitude (a.u.)       :      0.67554
Magnitude (Debye)      :      1.71708

                             ****ORCA TERMINATED NORMALLY****
TOTAL RUN TIME: 0 days 0 hours 17 minutes 8 seconds 249 msec
