                         Program Version 3.0.3 - RELEASE   -
|  1> ! RI-MP2 RIJK def2-TZVP def2-TZVP/C def2-TZVP/JK TIGHTSCF
|  2> % maxcore 2000
|  3> % mp2 density relaxed end
|  4> *xyz 0 1
|  5>  O        0.6055711344     0.4998420447     0.7730629786
|  6>  C       -0.0156013800     0.1655890417    -0.4541374989
|  7>  C       -1.3688432635    -0.4664300020    -0.2255137534
|  8>  O       -2.2281505604     0.4014692050     0.4856890472
|  9>  C       -1.9784371048    -1.4247901743    -1.2174546804
| 10>  C       -1.5342716241    -1.9072287366     0.1511531006
| 11>  C       -0.3509349371    -2.8480609518     0.3295733790
| 12>  C       -0.7356600672    -4.2532596032     0.2367152272
| 13>  C       -1.0703462033    -5.4051716345     0.1632090926
| 14>  H       -0.0852527553     0.9058805257     1.3114916873
| 15>  H       -0.1446695251     1.0581245599    -1.0931127832
| 16>  H        0.6588802447    -0.5114469912    -0.9858905274
| 17>  H       -2.5164340470     1.0938925207    -0.1213025109
| 18>  H       -3.0439898741    -1.3468074115    -1.4026291485
| 19>  H       -1.3856676337    -1.7143424697    -2.0802215125
| 20>  H       -2.3428717057    -2.0786329159     0.8546736948
| 21>  H        0.4176815846    -2.6383558995    -0.4237220941
| 22>  H        0.1226254783    -2.6569024071     1.3006899417
| 23>  H       -1.3567009610    -6.4253054506     0.0978855201
| 24> *
| 25>
| 26>                          ****END OF INPUT****

CARTESIAN COORDINATES (ANGSTROEM)
---------------------------------
  O      0.605571    0.499842    0.773063
  C     -0.015601    0.165589   -0.454137
  C     -1.368843   -0.466430   -0.225514
  O     -2.228151    0.401469    0.485689
  C     -1.978437   -1.424790   -1.217455
  C     -1.534272   -1.907229    0.151153
  C     -0.350935   -2.848061    0.329573
  C     -0.735660   -4.253260    0.236715
  C     -1.070346   -5.405172    0.163209
  H     -0.085253    0.905881    1.311492
  H     -0.144670    1.058125   -1.093113
  H      0.658880   -0.511447   -0.985891
  H     -2.516434    1.093893   -0.121303
  H     -3.043990   -1.346807   -1.402629
  H     -1.385668   -1.714342   -2.080222
  H     -2.342872   -2.078633    0.854674
  H      0.417682   -2.638356   -0.423722
  H      0.122625   -2.656902    1.300690
  H     -1.356701   -6.425305    0.097886

 Total Charge           Charge          ....    0
 Multiplicity           Mult            ....    1
 Number of Electrons    NEL             ....   68
 Basis Dimension        Dim             ....  339

ORBITAL ENERGIES
----------------

  NO   OCC          E(Eh)            E(eV)
   0   2.0000     -20.578160      -559.9602
   1   2.0000     -20.556553      -559.3722
   2   2.0000     -11.296686      -307.3985
   3   2.0000     -11.285447      -307.0926
   4   2.0000     -11.257202      -306.3240
   5   2.0000     -11.244386      -305.9753
   6   2.0000     -11.237252      -305.7812
   7   2.0000     -11.232508      -305.6521
   8   2.0000     -11.218524      -305.2716
   9   2.0000      -1.392721       -37.8979
  10   2.0000      -1.357208       -36.9315
  11   2.0000      -1.156234       -31.4627
  12   2.0000      -1.057011       -28.7627
  13   2.0000      -0.970762       -26.4158
  14   2.0000      -0.950127       -25.8543
  15   2.0000      -0.834158       -22.6986
  16   2.0000      -0.783760       -21.3272
  17   2.0000      -0.724362       -19.7109
  18   2.0000      -0.705275       -19.1915
  19   2.0000      -0.696072       -18.9411
  20   2.0000      -0.661045       -17.9879
  21   2.0000      -0.632220       -17.2036
  22   2.0000      -0.623830       -16.9753
  23   2.0000      -0.606321       -16.4988
  24   2.0000      -0.594586       -16.1795
  25   2.0000      -0.581536       -15.8244
  26   2.0000      -0.531128       -14.4527
  27   2.0000      -0.520698       -14.1689
  28   2.0000      -0.497392       -13.5347
  29   2.0000      -0.465873       -12.6770
  30   2.0000      -0.421667       -11.4741
  31   2.0000      -0.413017       -11.2388
  32   2.0000      -0.383474       -10.4349
  33   2.0000      -0.382468       -10.4075
  34   0.0000       0.124816         3.3964
  35   0.0000       0.149332         4.0635
  36   0.0000       0.162303         4.4165
  37   0.0000       0.169405         4.6097
  38   0.0000       0.174197         4.7402

MULLIKEN ATOMIC CHARGES
-----------------------
   0 O :   -0.479101
   1 C :    0.013701
   2 C :    0.122541
   3 O :   -0.477210
   4 C :   -0.344196
   5 C :   -0.052530
   6 C :   -0.395969
   7 C :    0.004438
   8 C :   -0.129810
   9 H :    0.327381
  10 H :    0.095438
  11 H :    0.095090
  12 H :    0.326539
  13 H :    0.141732
  14 H :    0.131786
  15 H :    0.134101
  16 H :    0.136218
  17 H :    0.160434
  18 H :    0.189418
Sum of atomic charges:    0.0000000

LOEWDIN ATOMIC CHARGES
----------------------
   0 O :   -0.042779
   1 C :   -0.317998
   2 C :   -0.364611
   3 O :    0.013201
   4 C :   -0.186617
   5 C :   -0.170868
   6 C :   -0.223700
   7 C :   -0.104862
   8 C :   -0.107148
   9 H :    0.179065
  10 H :    0.121025
  11 H :    0.131754
  12 H :    0.182262
  13 H :    0.138327
  14 H :    0.139419
  15 H :    0.162498
  16 H :    0.159731
  17 H :    0.165479
  18 H :    0.125821

  Mayer bond orders larger than 0.1
B(  0-O ,  1-C ) :   0.9151 B(  0-O ,  9-H ) :   0.8303 B(  1-C ,  2-C ) :   1.0004
B(  1-C , 10-H ) :   0.8972 B(  1-C , 11-H ) :   0.9218 B(  2-C ,  3-O ) :   0.9732
B(  2-C ,  4-C ) :   0.9070 B(  2-C ,  5-C ) :   0.8232 B(  3-O , 12-H ) :   0.8366
B(  4-C ,  5-C ) :   0.9042 B(  4-C , 13-H ) :   0.9157 B(  4-C , 14-H ) :   0.9094
B(  5-C ,  6-C ) :   0.9003 B(  5-C , 15-H ) :   0.9198 B(  6-C ,  7-C ) :   1.0821
B(  6-C ,  8-C ) :  -0.1074 B(  6-C , 16-H ) :   0.9391 B(  6-C , 17-H ) :   0.9307
B(  7-C ,  8-C ) :   2.6167 B(  8-C , 18-H ) :   0.8990

MP2 TOTAL ENERGY:     -422.262213618 Eh
FINAL SINGLE POINT ENERGY      -422.262213618334

DIPOLE MOMENT
-------------
                                X             Y             Z
Electronic contribution:     -0.40528      -0.66840       2.09058
Nuclear contribution   :     -0.11716       1.04646      -2.76679
                        -----------------------------------------
Total Dipole Moment    :     -0.52243       0.37806      -0.67621
                        -----------------------------------------
Magnitude (a.u.)       :      0.93442
Magnitude (Debye)      :      2.37510

                             ****ORCA TERMINATED NORMALLY****
TOTAL RUN TIME: 0 days 0 hours 16 minutes 12 seconds 206 msec
