                         Program Version 3.0.3 - RELEASE   -
|  1> ! RI-MP2 RIJK def2-TZVP def2-TZVP/C def2-TZVP/JK TIGHTSCF
|  2> % maxcore 2000
|  3> % mp2 density relaxed end
|  4> *xyz 0 1
|  5>  O       -0.2952370515     0.4772934854     1.9152117004
|  6>  C       -0.0213016902     1.1537750239     0.9521410119
|  7>  C        1.4114824670     1.7073193835     0.7932329669
|  8>  C        1.9112803962     1.7585646516    -0.5723719594
|  9>  C        2.3178880155     1.7906355394    -1.7031807512
| 10>  C       -1.0293527896     1.4968382895    -0.1170161932
| 11>  C       -1.2577588051     0.3929980981    -1.2126867025
| 12>  C       -2.7811069419     0.6671008085    -1.1137732525
| 13>  C       -2.5332843748     1.3783994513     0.2423914984
| 14>  H        1.3945629584     2.7227368514     1.2169674040
| 15>  H        2.0644345287     1.1113646996     1.4378612265
| 16>  H        2.6864425511     1.8188474194    -2.6987331977
| 17>  H       -0.7760530459     2.4481727695    -0.5919759225
| 18>  H       -0.7599163976     0.5489638538    -2.1706352500
| 19>  H       -0.9952292447    -0.5970453009    -0.8307804617
| 20>  H       -3.1176527919     1.3632881091    -1.8871884274
| 21>  H       -3.4462199178    -0.1992509890    -1.1144231948
| 22>  H       -2.6587371708     0.7057211253     1.0937735525
| 23>  H       -3.0707993950     2.3088977105     0.4376845221
| 24> *
| 25>
| 26>                          ****END OF INPUT****

CARTESIAN COORDINATES (ANGSTROEM)
---------------------------------
  O     -0.295237    0.477293    1.915212
  C     -0.021302    1.153775    0.952141
  C      1.411482    1.707319    0.793233
  C      1.911280    1.758565   -0.572372
  C      2.317888    1.790636   -1.703181
  C     -1.029353    1.496838   -0.117016
  C     -1.257759    0.392998   -1.212687
  C     -2.781107    0.667101   -1.113773
  C     -2.533284    1.378399    0.242391
  H      1.394563    2.722737    1.216967
  H      2.064435    1.111365    1.437861
  H      2.686443    1.818847   -2.698733
  H     -0.776053    2.448173   -0.591976
  H     -0.759916    0.548964   -2.170635
  H     -0.995229   -0.597045   -0.830780
  H     -3.117653    1.363288   -1.887188
  H     -3.446220   -0.199251   -1.114423
  H     -2.658737    0.705721    1.093774
  H     -3.070799    2.308898    0.437685

 Total Charge           Charge          ....    0
 Multiplicity           Mult            ....    1
 Number of Electrons    NEL             ....   66
 Basis Dimension        Dim             ....  339

ORBITAL ENERGIES
----------------

  NO   OCC          E(Eh)            E(eV)
   0   2.0000     -20.549654      -559.1845
   1   2.0000     -11.337316      -308.5041
   2   2.0000     -11.269684      -306.6637
   3   2.0000     -11.248179      -306.0785
   4   2.0000     -11.239980      -305.8554
   5   2.0000     -11.234979      -305.7193
   6   2.0000     -11.233502      -305.6791
   7   2.0000     -11.225568      -305.4632
   8   2.0000     -11.224104      -305.4234
   9   2.0000      -1.395314       -37.9684
  10   2.0000      -1.137803       -30.9612
  11   2.0000      -1.085891       -29.5486
  12   2.0000      -0.995160       -27.0797
  13   2.0000      -0.933050       -25.3896
  14   2.0000      -0.903668       -24.5901
  15   2.0000      -0.795421       -21.6445
  16   2.0000      -0.746422       -20.3112
  17   2.0000      -0.723821       -19.6962
  18   2.0000      -0.684481       -18.6257
  19   2.0000      -0.662274       -18.0214
  20   2.0000      -0.640127       -17.4187
  21   2.0000      -0.631044       -17.1716
  22   2.0000      -0.606093       -16.4926
  23   2.0000      -0.570695       -15.5294
  24   2.0000      -0.548586       -14.9278
  25   2.0000      -0.530972       -14.4485
  26   2.0000      -0.482914       -13.1408
  27   2.0000      -0.479402       -13.0452
  28   2.0000      -0.459264       -12.4972
  29   2.0000      -0.442841       -12.0503
  30   2.0000      -0.431397       -11.7389
  31   2.0000      -0.399572       -10.8729
  32   2.0000      -0.383582       -10.4378
  33   0.0000       0.126128         3.4321
  34   0.0000       0.135641         3.6910
  35   0.0000       0.145272         3.9530
  36   0.0000       0.159939         4.3522
  37   0.0000       0.167192         4.5495

MULLIKEN ATOMIC CHARGES
-----------------------
   0 O :   -0.286095
   1 C :    0.159587
   2 C :   -0.311171
   3 C :   -0.033444
   4 C :   -0.177491
   5 C :   -0.025162
   6 C :   -0.270205
   7 C :   -0.188293
   8 C :   -0.250682
   9 H :    0.162392
  10 H :    0.162432
  11 H :    0.190887
  12 H :    0.123243
  13 H :    0.125989
  14 H :    0.126442
  15 H :    0.113570
  16 H :    0.117635
  17 H :    0.141521
  18 H :    0.118844
Sum of atomic charges:    0.0000000

LOEWDIN ATOMIC CHARGES
----------------------
   0 O :    0.159787
   1 C :   -0.297117
   2 C :   -0.214367
   3 C :   -0.112350
   4 C :   -0.099043
   5 C :   -0.200756
   6 C :   -0.201538
   7 C :   -0.241686
   8 C :   -0.212401
   9 H :    0.173874
  10 H :    0.166601
  11 H :    0.127817
  12 H :    0.160332
  13 H :    0.126314
  14 H :    0.139797
  15 H :    0.132907
  16 H :    0.123584
  17 H :    0.143452
  18 H :    0.124792

  Mayer bond orders larger than 0.1
B(  0-O ,  1-C ) :   2.0022 B(  1-C ,  2-C ) :   0.9199 B(  1-C ,  5-C ) :   0.8721
B(  2-C ,  3-C ) :   0.9897 B(  2-C ,  9-H ) :   0.9167 B(  2-C , 10-H ) :   0.9131
B(  3-C ,  4-C ) :   2.6393 B(  4-C , 11-H ) :   0.9130 B(  5-C ,  6-C ) :   0.8883
B(  5-C ,  8-C ) :   0.9047 B(  5-C , 12-H ) :   0.9053 B(  6-C ,  7-C ) :   0.9365
B(  6-C , 13-H ) :   0.9260 B(  6-C , 14-H ) :   0.9220 B(  7-C ,  8-C ) :   0.9321
B(  7-C , 15-H ) :   0.9275 B(  7-C , 16-H ) :   0.9287 B(  8-C , 17-H ) :   0.9203
B(  8-C , 18-H ) :   0.9327

MP2 TOTAL ENERGY:     -385.171267002 Eh
FINAL SINGLE POINT ENERGY      -385.171267002408

DIPOLE MOMENT
-------------
                                X             Y             Z
Electronic contribution:      5.30437       0.11109       3.46215
Nuclear contribution   :     -5.27956       0.38922      -4.20095
                        -----------------------------------------
Total Dipole Moment    :      0.02481       0.50032      -0.73881
                        -----------------------------------------
Magnitude (a.u.)       :      0.89262
Magnitude (Debye)      :      2.26886

                             ****ORCA TERMINATED NORMALLY****
TOTAL RUN TIME: 0 days 0 hours 18 minutes 3 seconds 92 msec
