                         Program Version 3.0.3 - RELEASE   -
|  1> ! RI-MP2 RIJK def2-TZVP def2-TZVP/C def2-TZVP/JK TIGHTSCF
|  2> % maxcore 2000
|  3> % mp2 density relaxed end
|  4> *xyz 0 1
|  5>  C       -0.0845397861     1.5080407507    -0.0500412927
|  6>  C        1.2634943781     0.8109570820    -0.0295167114
|  7>  C        0.0123124809    -0.0013787807     0.0263751382
|  8>  C       -0.3628354692    -0.7635711513     1.2835437014
|  9>  C       -1.7704332543    -1.3314609932     1.2026652072
| 10>  C       -2.9568916375    -0.4602963158     0.8874521485
| 11>  C       -2.4303800562    -1.4188548829    -0.1570954810
| 12>  C       -1.6676934417    -0.8779465579    -1.3644111018
| 13>  O       -0.2690422456    -0.7234023669    -1.1415461830
| 14>  H       -0.3965904728     2.0595411964     0.8304913124
| 15>  H       -0.4008655617     1.9392460405    -0.9932650173
| 16>  H        1.8186193597     0.7791203328    -0.9599035110
| 17>  H        1.8723583734     0.8803226906     0.8657794801
| 18>  H        0.3438225448    -1.5957640066     1.3963335778
| 19>  H       -0.2474299560    -0.1224154613     2.1655753587
| 20>  H       -1.9561890694    -2.1598482383     1.8799141167
| 21>  H       -3.9020150858    -0.6877419764     1.3685095656
| 22>  H       -2.7853545560     0.5981732506     0.7179557861
| 23>  H       -3.0309377934    -2.3003158965    -0.3560941743
| 24>  H       -1.7475282680    -1.5744273139    -2.2033323355
| 25>  H       -2.0946489932     0.0844973380    -1.6872824847
| 26> *
| 27>
| 28>                          ****END OF INPUT****

CARTESIAN COORDINATES (ANGSTROEM)
---------------------------------
  C     -0.084540    1.508041   -0.050041
  C      1.263494    0.810957   -0.029517
  C      0.012312   -0.001379    0.026375
  C     -0.362835   -0.763571    1.283544
  C     -1.770433   -1.331461    1.202665
  C     -2.956892   -0.460296    0.887452
  C     -2.430380   -1.418855   -0.157095
  C     -1.667693   -0.877947   -1.364411
  O     -0.269042   -0.723402   -1.141546
  H     -0.396590    2.059541    0.830491
  H     -0.400866    1.939246   -0.993265
  H      1.818619    0.779120   -0.959904
  H      1.872358    0.880323    0.865779
  H      0.343823   -1.595764    1.396334
  H     -0.247430   -0.122415    2.165575
  H     -1.956189   -2.159848    1.879914
  H     -3.902015   -0.687742    1.368510
  H     -2.785355    0.598173    0.717956
  H     -3.030938   -2.300316   -0.356094
  H     -1.747528   -1.574427   -2.203332
  H     -2.094649    0.084497   -1.687282

 Total Charge           Charge          ....    0
 Multiplicity           Mult            ....    1
 Number of Electrons    NEL             ....   68
 Basis Dimension        Dim             ....  351

ORBITAL ENERGIES
----------------

  NO   OCC          E(Eh)            E(eV)
   0   2.0000     -20.551551      -559.2361
   1   2.0000     -11.280823      -306.9668
   2   2.0000     -11.272486      -306.7399
   3   2.0000     -11.232017      -305.6387
   4   2.0000     -11.228437      -305.5413
   5   2.0000     -11.225222      -305.4538
   6   2.0000     -11.222213      -305.3719
   7   2.0000     -11.221589      -305.3549
   8   2.0000     -11.219512      -305.2985
   9   2.0000      -1.378028       -37.4980
  10   2.0000      -1.148841       -31.2615
  11   2.0000      -1.131291       -30.7840
  12   2.0000      -0.988797       -26.9065
  13   2.0000      -0.930056       -25.3081
  14   2.0000      -0.829711       -22.5776
  15   2.0000      -0.809673       -22.0323
  16   2.0000      -0.802208       -21.8292
  17   2.0000      -0.715473       -19.4690
  18   2.0000      -0.687174       -18.6989
  19   2.0000      -0.673674       -18.3316
  20   2.0000      -0.631292       -17.1783
  21   2.0000      -0.613927       -16.7058
  22   2.0000      -0.597697       -16.2642
  23   2.0000      -0.588724       -16.0200
  24   2.0000      -0.570735       -15.5305
  25   2.0000      -0.533440       -14.5156
  26   2.0000      -0.514426       -13.9982
  27   2.0000      -0.507730       -13.8160
  28   2.0000      -0.487931       -13.2773
  29   2.0000      -0.454779       -12.3752
  30   2.0000      -0.417008       -11.3474
  31   2.0000      -0.403584       -10.9821
  32   2.0000      -0.395258       -10.7555
  33   2.0000      -0.379250       -10.3199
  34   0.0000       0.143386         3.9017
  35   0.0000       0.153628         4.1804
  36   0.0000       0.160134         4.3575
  37   0.0000       0.174412         4.7460
  38   0.0000       0.190829         5.1927

MULLIKEN ATOMIC CHARGES
-----------------------
   0 C :   -0.321237
   1 C :   -0.276226
   2 C :    0.205586
   3 C :   -0.217346
   4 C :   -0.088719
   5 C :   -0.296055
   6 C :   -0.133311
   7 C :   -0.041042
   8 O :   -0.297560
   9 H :    0.127192
  10 H :    0.131165
  11 H :    0.133483
  12 H :    0.127717
  13 H :    0.111380
  14 H :    0.114253
  15 H :    0.119746
  16 H :    0.129267
  17 H :    0.136684
  18 H :    0.122289
  19 H :    0.124188
  20 H :    0.088547
Sum of atomic charges:   -0.0000000

LOEWDIN ATOMIC CHARGES
----------------------
   0 C :   -0.217614
   1 C :   -0.203078
   2 C :   -0.344880
   3 C :   -0.202852
   4 C :   -0.198921
   5 C :   -0.209226
   6 C :   -0.205560
   7 C :   -0.282628
   8 O :    0.213139
   9 H :    0.130609
  10 H :    0.136245
  11 H :    0.139860
  12 H :    0.134126
  13 H :    0.149761
  14 H :    0.146752
  15 H :    0.147134
  16 H :    0.130649
  17 H :    0.136307
  18 H :    0.145765
  19 H :    0.132236
  20 H :    0.122176

  Mayer bond orders larger than 0.1
B(  0-C ,  1-C ) :   0.9492 B(  0-C ,  2-C ) :   0.8651 B(  0-C ,  9-H ) :   0.9148
B(  0-C , 10-H ) :   0.9191 B(  1-C ,  2-C ) :   0.8721 B(  1-C , 11-H ) :   0.9188
B(  1-C , 12-H ) :   0.9272 B(  2-C ,  3-C ) :   0.9360 B(  2-C ,  8-O ) :   0.9888
B(  3-C ,  4-C ) :   0.9539 B(  3-C , 13-H ) :   0.9120 B(  3-C , 14-H ) :   0.9149
B(  4-C ,  5-C ) :   0.8874 B(  4-C ,  6-C ) :   0.8631 B(  4-C , 15-H ) :   0.9306
B(  5-C ,  6-C ) :   0.8758 B(  5-C , 16-H ) :   0.9302 B(  5-C , 17-H ) :   0.9262
B(  6-C ,  7-C ) :   0.9247 B(  6-C , 18-H ) :   0.9277 B(  7-C ,  8-O ) :   0.9252
B(  7-C , 19-H ) :   0.9348 B(  7-C , 20-H ) :   0.9302

MP2 TOTAL ENERGY:     -386.388316687 Eh
FINAL SINGLE POINT ENERGY      -386.388316687388

DIPOLE MOMENT
-------------
                                X             Y             Z
Electronic contribution:      1.14081      -1.95574      -1.90213
Nuclear contribution   :     -1.50009       2.02566       2.24049
                        -----------------------------------------
Total Dipole Moment    :     -0.35927       0.06992       0.33837
                        -----------------------------------------
Magnitude (a.u.)       :      0.49846
Magnitude (Debye)      :      1.26697

                             ****ORCA TERMINATED NORMALLY****
TOTAL RUN TIME: 0 days 0 hours 19 minutes 32 seconds 976 msec
