                         Program Version 3.0.3 - RELEASE   -
|  1> ! RI-MP2 RIJK def2-TZVP def2-TZVP/C def2-TZVP/JK TIGHTSCF
|  2> % maxcore 2000
|  3> % mp2 density relaxed end
|  4> *xyz 0 1
|  5>  O       -0.0594470676     0.1753190629    -0.9422971735
|  6>  C        0.0188290678     1.1270371426    -0.1859862437
|  7>  N        1.1686732907     1.5400175135     0.4190362337
|  8>  C        2.4588711888     0.9083221518     0.1870576180
|  9>  C        3.5185350485     1.9163428055    -0.1943943041
| 10>  C        4.2381597494     2.7001935347     0.8795075302
| 11>  C        4.9657777823     1.6297475379     0.1050055770
| 12>  C       -1.1394365679     1.9453829136     0.1601459704
| 13>  C       -2.1132560542     2.5982815274     0.4266298943
| 14>  H        1.1288063607     2.3534349255     1.0127880988
| 15>  H        2.7773795083     0.3606553329     1.0855299070
| 16>  H        2.3003060518     0.1720559440    -0.6044599460
| 17>  H        3.3105844218     2.4480538918    -1.1186599383
| 18>  H        4.4849855486     3.7375306823     0.6838211126
| 19>  H        3.9921335255     2.4900840731     1.9160280172
| 20>  H        5.2035203724     0.7053568106     0.6210951241
| 21>  H        5.7084508502     1.9333570595    -0.6236340894
| 22>  H       -2.9827484470     3.1660774606     0.6523649418
| 23> *
| 24>
| 25>                          ****END OF INPUT****

CARTESIAN COORDINATES (ANGSTROEM)
---------------------------------
  O     -0.059447    0.175319   -0.942297
  C      0.018829    1.127037   -0.185986
  N      1.168673    1.540018    0.419036
  C      2.458871    0.908322    0.187058
  C      3.518535    1.916343   -0.194394
  C      4.238160    2.700194    0.879508
  C      4.965778    1.629748    0.105006
  C     -1.139437    1.945383    0.160146
  C     -2.113256    2.598282    0.426630
  H      1.128806    2.353435    1.012788
  H      2.777380    0.360655    1.085530
  H      2.300306    0.172056   -0.604460
  H      3.310584    2.448054   -1.118660
  H      4.484986    3.737531    0.683821
  H      3.992134    2.490084    1.916028
  H      5.203520    0.705357    0.621095
  H      5.708451    1.933357   -0.623634
  H     -2.982748    3.166077    0.652365

 Total Charge           Charge          ....    0
 Multiplicity           Mult            ....    1
 Number of Electrons    NEL             ....   66
 Basis Dimension        Dim             ....  333

ORBITAL ENERGIES
----------------

  NO   OCC          E(Eh)            E(eV)
   0   2.0000     -20.527355      -558.5777
   1   2.0000     -15.592647      -424.2975
   2   2.0000     -11.378134      -309.6148
   3   2.0000     -11.270753      -306.6928
   4   2.0000     -11.259667      -306.3911
   5   2.0000     -11.253273      -306.2171
   6   2.0000     -11.242709      -305.9297
   7   2.0000     -11.236513      -305.7611
   8   2.0000     -11.235444      -305.7320
   9   2.0000      -1.392453       -37.8906
  10   2.0000      -1.243866       -33.8473
  11   2.0000      -1.151998       -31.3475
  12   2.0000      -1.059850       -28.8400
  13   2.0000      -0.979112       -26.6430
  14   2.0000      -0.861323       -23.4378
  15   2.0000      -0.833281       -22.6747
  16   2.0000      -0.796460       -21.6728
  17   2.0000      -0.774385       -21.0721
  18   2.0000      -0.723767       -19.6947
  19   2.0000      -0.682064       -18.5599
  20   2.0000      -0.652951       -17.7677
  21   2.0000      -0.645107       -17.5543
  22   2.0000      -0.609627       -16.5888
  23   2.0000      -0.587698       -15.9921
  24   2.0000      -0.554882       -15.0991
  25   2.0000      -0.525319       -14.2947
  26   2.0000      -0.518910       -14.1203
  27   2.0000      -0.462280       -12.5793
  28   2.0000      -0.435022       -11.8375
  29   2.0000      -0.424033       -11.5385
  30   2.0000      -0.419058       -11.4032
  31   2.0000      -0.417752       -11.3676
  32   2.0000      -0.393973       -10.7206
  33   0.0000       0.107689         2.9304
  34   0.0000       0.135247         3.6803
  35   0.0000       0.151204         4.1145
  36   0.0000       0.155726         4.2375
  37   0.0000       0.157913         4.2970

MULLIKEN ATOMIC CHARGES
-----------------------
   0 O :   -0.350035
   1 C :    0.166872
   2 N :   -0.314491
   3 C :   -0.164806
   4 C :   -0.076762
   5 C :   -0.294058
   6 C :   -0.272832
   7 C :   -0.027916
   8 C :   -0.093602
   9 H :    0.247287
  10 H :    0.135008
  11 H :    0.170294
  12 H :    0.134293
  13 H :    0.136695
  14 H :    0.132507
  15 H :    0.133419
  16 H :    0.138052
  17 H :    0.200074
Sum of atomic charges:    0.0000000

LOEWDIN ATOMIC CHARGES
----------------------
   0 O :    0.102843
   1 C :   -0.459306
   2 N :    0.129427
   3 C :   -0.253511
   4 C :   -0.236970
   5 C :   -0.234728
   6 C :   -0.224975
   7 C :   -0.061518
   8 C :   -0.060258
   9 H :    0.193862
  10 H :    0.138771
  11 H :    0.153337
  12 H :    0.150266
  13 H :    0.132020
  14 H :    0.132128
  15 H :    0.134212
  16 H :    0.133648
  17 H :    0.130753

  Mayer bond orders larger than 0.1
B(  0-O ,  1-C ) :   1.9402 B(  1-C ,  2-N ) :   1.2419 B(  1-C ,  7-C ) :   1.0371
B(  1-C ,  8-C ) :  -0.1066 B(  2-N ,  3-C ) :   0.8339 B(  2-N ,  9-H ) :   0.8684
B(  3-C ,  4-C ) :   0.9138 B(  3-C , 10-H ) :   0.9302 B(  3-C , 11-H ) :   0.9245
B(  4-C ,  5-C ) :   0.8836 B(  4-C ,  6-C ) :   0.8776 B(  4-C , 12-H ) :   0.9241
B(  5-C ,  6-C ) :   0.8988 B(  5-C , 13-H ) :   0.9292 B(  5-C , 14-H ) :   0.9271
B(  6-C , 15-H ) :   0.9278 B(  6-C , 16-H ) :   0.9314 B(  7-C ,  8-C ) :   2.6389
B(  8-C , 17-H ) :   0.8924

MP2 TOTAL ENERGY:     -401.221917715 Eh
FINAL SINGLE POINT ENERGY      -401.221917715337

DIPOLE MOMENT
-------------
                                X             Y             Z
Electronic contribution:    -10.92053      -1.76435      -1.78411
Nuclear contribution   :     11.60862       2.83889       2.63328
                        -----------------------------------------
Total Dipole Moment    :      0.68809       1.07454       0.84918
                        -----------------------------------------
Magnitude (a.u.)       :      1.53271
Magnitude (Debye)      :      3.89585

                             ****ORCA TERMINATED NORMALLY****
TOTAL RUN TIME: 0 days 0 hours 16 minutes 1 seconds 861 msec
