                         Program Version 3.0.3 - RELEASE   -
|  1> ! RI-MP2 RIJK def2-TZVP def2-TZVP/C def2-TZVP/JK TIGHTSCF
|  2> % maxcore 2000
|  3> % mp2 density relaxed end
|  4> *xyz 0 1
|  5>  N       -0.0185065345     1.3605934420     0.1641423375
|  6>  C        0.0426193424    -0.0135932364     0.0491787923
|  7>  N       -1.0478891683    -0.7627243472     0.0132776710
|  8>  N       -0.6225681854    -2.0957784674     0.0319431562
|  9>  C        0.7236273222    -2.1350571502    -0.0214759586
| 10>  C        1.2119672483    -0.8397041449     0.0259344139
| 11>  N        2.5764234993    -0.8771761555     0.0338404118
| 12>  N        2.9525674770    -2.1117460003    -0.0078380825
| 13>  N        1.8168735318    -2.9209111604    -0.0325667295
| 14>  H        0.7501683286     1.8493077411    -0.2707849781
| 15>  H       -0.9185228172     1.7453023231    -0.0872043267
| 16>  H       -1.2930630707    -2.7990859607    -0.2200293760
| 17>  H        1.9321508864    -3.9181731531    -0.0840025312
| 18> *
| 19>
| 20>                          ****END OF INPUT****

CARTESIAN COORDINATES (ANGSTROEM)
---------------------------------
  N     -0.018507    1.360593    0.164142
  C      0.042619   -0.013593    0.049179
  N     -1.047889   -0.762724    0.013278
  N     -0.622568   -2.095778    0.031943
  C      0.723627   -2.135057   -0.021476
  C      1.211967   -0.839704    0.025934
  N      2.576423   -0.877176    0.033840
  N      2.952567   -2.111746   -0.007838
  N      1.816874   -2.920911   -0.032567
  H      0.750168    1.849308   -0.270785
  H     -0.918523    1.745302   -0.087204
  H     -1.293063   -2.799086   -0.220029
  H      1.932151   -3.918173   -0.084003

 Total Charge           Charge          ....    0
 Multiplicity           Mult            ....    1
 Number of Electrons    NEL             ....   64
 Basis Dimension        Dim             ....  303

ORBITAL ENERGIES
----------------

  NO   OCC          E(Eh)            E(eV)
   0   2.0000     -15.659537      -426.1177
   1   2.0000     -15.651848      -425.9084
   2   2.0000     -15.637096      -425.5070
   3   2.0000     -15.621183      -425.0740
   4   2.0000     -15.580908      -423.9781
   5   2.0000     -15.576548      -423.8594
   6   2.0000     -11.330008      -308.3052
   7   2.0000     -11.321738      -308.0802
   8   2.0000     -11.248033      -306.0745
   9   2.0000      -1.439217       -39.1631
  10   2.0000      -1.362537       -37.0765
  11   2.0000      -1.238199       -33.6931
  12   2.0000      -1.209635       -32.9158
  13   2.0000      -1.088432       -29.6177
  14   2.0000      -1.075100       -29.2550
  15   2.0000      -0.899071       -24.4650
  16   2.0000      -0.861398       -23.4398
  17   2.0000      -0.815536       -22.1918
  18   2.0000      -0.787297       -21.4234
  19   2.0000      -0.717591       -19.5266
  20   2.0000      -0.679140       -18.4803
  21   2.0000      -0.663055       -18.0426
  22   2.0000      -0.638930       -17.3862
  23   2.0000      -0.597524       -16.2594
  24   2.0000      -0.579950       -15.7812
  25   2.0000      -0.538775       -14.6608
  26   2.0000      -0.511829       -13.9276
  27   2.0000      -0.472571       -12.8593
  28   2.0000      -0.440819       -11.9953
  29   2.0000      -0.440116       -11.9762
  30   2.0000      -0.343214        -9.3393
  31   2.0000      -0.331696        -9.0259
  32   0.0000       0.113244         3.0815
  33   0.0000       0.124963         3.4004
  34   0.0000       0.137684         3.7466
  35   0.0000       0.146782         3.9941
  36   0.0000       0.180662         4.9161

MULLIKEN ATOMIC CHARGES
-----------------------
   0 N :   -0.513659
   1 C :    0.134889
   2 N :   -0.210025
   3 N :   -0.194373
   4 C :    0.107686
   5 C :    0.007588
   6 N :   -0.149914
   7 N :   -0.089351
   8 N :   -0.137275
   9 H :    0.263205
  10 H :    0.254903
  11 H :    0.260422
  12 H :    0.265905
Sum of atomic charges:   -0.0000000

LOEWDIN ATOMIC CHARGES
----------------------
   0 N :   -0.059623
   1 C :   -0.353859
   2 N :    0.036159
   3 N :    0.111331
   4 C :   -0.322684
   5 C :   -0.252429
   6 N :    0.022986
   7 N :   -0.027989
   8 N :    0.123956
   9 H :    0.176392
  10 H :    0.174169
  11 H :    0.184276
  12 H :    0.187313

  Mayer bond orders larger than 0.1
B(  0-N ,  1-C ) :   1.0839 B(  0-N ,  9-H ) :   0.8657 B(  0-N , 10-H ) :   0.8707
B(  1-C ,  2-N ) :   1.6562 B(  1-C ,  5-C ) :   1.1459 B(  2-N ,  3-N ) :   0.9510
B(  3-N ,  4-C ) :   1.2123 B(  3-N , 11-H ) :   0.8614 B(  4-C ,  5-C ) :   1.2460
B(  4-C ,  7-N ) :   0.1012 B(  4-C ,  8-N ) :   1.1780 B(  5-C ,  6-N ) :   1.3297
B(  6-N ,  7-N ) :   1.3525 B(  7-N ,  8-N ) :   0.9618 B(  8-N , 12-H ) :   0.8585

MP2 TOTAL ENERGY:     -444.347916253 Eh
FINAL SINGLE POINT ENERGY      -444.347916252572

DIPOLE MOMENT
-------------
                                X             Y             Z
Electronic contribution:      1.67418      -2.44454       0.12625
Nuclear contribution   :     -2.68349       1.38560      -0.70592
                        -----------------------------------------
Total Dipole Moment    :     -1.00930      -1.05894      -0.57967
                        -----------------------------------------
Magnitude (a.u.)       :      1.57355
Magnitude (Debye)      :      3.99965

                             ****ORCA TERMINATED NORMALLY****
TOTAL RUN TIME: 0 days 0 hours 16 minutes 7 seconds 501 msec
