                         Program Version 3.0.3 - RELEASE   -
|  1> ! RI-MP2 RIJK def2-TZVP def2-TZVP/C def2-TZVP/JK TIGHTSCF
|  2> % maxcore 2000
|  3> % mp2 density relaxed end
|  4> *xyz 0 1
|  5>  O       -0.0982583841     1.4245063572    -0.2170936125
|  6>  C        0.0454130170     0.0124963496    -0.2011168450
|  7>  C       -1.3427231040    -0.5541632394     0.0699402204
|  8>  C       -2.3709200389    -0.1456202920    -1.0165262834
|  9>  O       -3.2127336928    -1.2732046568    -1.2170850177
| 10>  C       -2.3712649001    -2.3985484161    -1.1571063747
| 11>  C       -1.4427720200    -2.1190737496     0.0603278024
| 12>  C       -0.1726951517    -2.8303836413    -0.0177116900
| 13>  N        0.8285429337    -3.4040286304    -0.0918748545
| 14>  H        0.7581770781     1.8145068434    -0.4150296017
| 15>  H        0.4221216848    -0.3649338796    -1.1652021103
| 16>  H        0.7509874620    -0.3145293650     0.5759573784
| 17>  H       -1.6692805061    -0.1861783157     1.0455372753
| 18>  H       -2.9980336139     0.6975523408    -0.7253670145
| 19>  H       -1.8470853989     0.1153606854    -1.9492332183
| 20>  H       -2.9842640362    -3.2929252587    -1.0316906083
| 21>  H       -1.7668678162    -2.5042397021    -2.0719054330
| 22>  H       -1.9506897929    -2.4485422697     0.9709602074
| 23> *
| 24>
| 25>                          ****END OF INPUT****

CARTESIAN COORDINATES (ANGSTROEM)
---------------------------------
  O     -0.098258    1.424506   -0.217094
  C      0.045413    0.012496   -0.201117
  C     -1.342723   -0.554163    0.069940
  C     -2.370920   -0.145620   -1.016526
  O     -3.212734   -1.273205   -1.217085
  C     -2.371265   -2.398548   -1.157106
  C     -1.442772   -2.119074    0.060328
  C     -0.172695   -2.830384   -0.017712
  N      0.828543   -3.404029   -0.091875
  H      0.758177    1.814507   -0.415030
  H      0.422122   -0.364934   -1.165202
  H      0.750987   -0.314529    0.575957
  H     -1.669281   -0.186178    1.045537
  H     -2.998034    0.697552   -0.725367
  H     -1.847085    0.115361   -1.949233
  H     -2.984264   -3.292925   -1.031691
  H     -1.766868   -2.504240   -2.071905
  H     -1.950690   -2.448542    0.970960

 Total Charge           Charge          ....    0
 Multiplicity           Mult            ....    1
 Number of Electrons    NEL             ....   68
 Basis Dimension        Dim             ....  333

ORBITAL ENERGIES
----------------

  NO   OCC          E(Eh)            E(eV)
   0   2.0000     -20.574016      -559.8474
   1   2.0000     -20.573692      -559.8386
   2   2.0000     -15.576392      -423.8552
   3   2.0000     -11.303144      -307.5742
   4   2.0000     -11.294919      -307.3504
   5   2.0000     -11.291175      -307.2485
   6   2.0000     -11.287816      -307.1571
   7   2.0000     -11.279930      -306.9425
   8   2.0000     -11.260382      -306.4106
   9   2.0000      -1.404634       -38.2220
  10   2.0000      -1.378633       -37.5145
  11   2.0000      -1.226827       -33.3837
  12   2.0000      -1.111265       -30.2391
  13   2.0000      -1.034103       -28.1394
  14   2.0000      -0.935255       -25.4496
  15   2.0000      -0.872791       -23.7499
  16   2.0000      -0.822314       -22.3763
  17   2.0000      -0.731742       -19.9117
  18   2.0000      -0.715395       -19.4669
  19   2.0000      -0.698111       -18.9966
  20   2.0000      -0.665774       -18.1166
  21   2.0000      -0.645203       -17.5569
  22   2.0000      -0.616559       -16.7774
  23   2.0000      -0.596262       -16.2251
  24   2.0000      -0.567803       -15.4507
  25   2.0000      -0.555192       -15.1076
  26   2.0000      -0.547908       -14.9093
  27   2.0000      -0.535532       -14.5726
  28   2.0000      -0.509882       -13.8746
  29   2.0000      -0.492749       -13.4084
  30   2.0000      -0.467232       -12.7140
  31   2.0000      -0.456475       -12.4213
  32   2.0000      -0.452534       -12.3141
  33   2.0000      -0.438673       -11.9369
  34   0.0000       0.121990         3.3195
  35   0.0000       0.128297         3.4911
  36   0.0000       0.146327         3.9818
  37   0.0000       0.164683         4.4813
  38   0.0000       0.171443         4.6652

MULLIKEN ATOMIC CHARGES
-----------------------
   0 O :   -0.466284
   1 C :   -0.123337
   2 C :   -0.031070
   3 C :   -0.058202
   4 O :   -0.300248
   5 C :   -0.056482
   6 C :    0.033623
   7 C :   -0.246149
   8 N :   -0.051045
   9 H :    0.323366
  10 H :    0.112861
  11 H :    0.123716
  12 H :    0.112721
  13 H :    0.134155
  14 H :    0.101024
  15 H :    0.136402
  16 H :    0.110414
  17 H :    0.144534
Sum of atomic charges:   -0.0000000

LOEWDIN ATOMIC CHARGES
----------------------
   0 O :   -0.037283
   1 C :   -0.330586
   2 C :   -0.212380
   3 C :   -0.270656
   4 O :    0.163593
   5 C :   -0.274292
   6 C :   -0.206800
   7 C :   -0.179403
   8 N :    0.062758
   9 H :    0.176460
  10 H :    0.124134
  11 H :    0.125157
  12 H :    0.158316
  13 H :    0.132901
  14 H :    0.127898
  15 H :    0.133512
  16 H :    0.128655
  17 H :    0.178017

  Mayer bond orders larger than 0.1
B(  0-O ,  1-C ) :   1.0250 B(  0-O ,  9-H ) :   0.8450 B(  1-C ,  2-C ) :   0.9375
B(  1-C , 10-H ) :   0.9214 B(  1-C , 11-H ) :   0.9306 B(  2-C ,  3-C ) :   0.9368
B(  2-C ,  6-C ) :   0.9048 B(  2-C , 12-H ) :   0.9085 B(  3-C ,  4-O ) :   0.9288
B(  3-C , 13-H ) :   0.9202 B(  3-C , 14-H ) :   0.9217 B(  4-O ,  5-C ) :   0.9470
B(  5-C ,  6-C ) :   0.9005 B(  5-C , 15-H ) :   0.9188 B(  5-C , 16-H ) :   0.9258
B(  6-C ,  7-C ) :   0.9104 B(  6-C , 17-H ) :   0.8998 B(  7-C ,  8-N ) :   2.8605

MP2 TOTAL ENERGY:     -438.382174507 Eh
FINAL SINGLE POINT ENERGY      -438.382174506970

DIPOLE MOMENT
-------------
                                X             Y             Z
Electronic contribution:      0.80503      -3.12654       0.81292
Nuclear contribution   :     -0.98311       3.79046      -0.74477
                        -----------------------------------------
Total Dipole Moment    :     -0.17807       0.66391       0.06814
                        -----------------------------------------
Magnitude (a.u.)       :      0.69075
Magnitude (Debye)      :      1.75575

                             ****ORCA TERMINATED NORMALLY****
TOTAL RUN TIME: 0 days 0 hours 17 minutes 28 seconds 971 msec
