                         Program Version 3.0.3 - RELEASE   -
|  1> ! RI-MP2 RIJK def2-TZVP def2-TZVP/C def2-TZVP/JK TIGHTSCF
|  2> % maxcore 2000
|  3> % mp2 density relaxed end
|  4> *xyz 0 1
|  5>  C        0.0093390623     1.4057363657     0.0069670654
|  6>  N       -0.0134564677    -0.0466968384    -0.0119922165
|  7>  C        0.5497325631    -0.6649020780    -0.9597174818
|  8>  O        1.2053837792    -0.0854832206    -2.0211310195
|  9>  C        1.7261100155    -1.1107054117    -2.8862842839
| 10>  C        3.2358872427    -0.9400253296    -3.0418497192
| 11>  C        1.2955850225    -2.3932470903    -2.2303818799
| 12>  C        0.6162484565    -2.1312543952    -1.1108876464
| 13>  C       -0.0030657882    -3.0521622896    -0.1147055852
| 14>  H        0.7599348451     1.8518625973    -0.6557642658
| 15>  H       -0.9758835214     1.7932459694    -0.2835225007
| 16>  H        0.1922094963     1.7460224149     1.0318023983
| 17>  H        1.2452569221    -0.9842332943    -3.8677922950
| 18>  H        3.7344751140    -1.0523927422    -2.0751118182
| 19>  H        3.6325756665    -1.6932560074    -3.7300821236
| 20>  H        3.4658780371     0.0501440577    -3.4442210746
| 21>  H        1.5323155702    -3.3676882613    -2.6384707309
| 22>  H        0.4227555521    -2.8824128997     0.8795828034
| 23>  H       -1.0759223684    -2.8527252948    -0.0256693478
| 24>  H        0.1427484906    -4.0993999921    -0.3899891681
| 25> *
| 26>
| 27>                          ****END OF INPUT****

CARTESIAN COORDINATES (ANGSTROEM)
---------------------------------
  C      0.009339    1.405736    0.006967
  N     -0.013456   -0.046697   -0.011992
  C      0.549733   -0.664902   -0.959717
  O      1.205384   -0.085483   -2.021131
  C      1.726110   -1.110705   -2.886284
  C      3.235887   -0.940025   -3.041850
  C      1.295585   -2.393247   -2.230382
  C      0.616248   -2.131254   -1.110888
  C     -0.003066   -3.052162   -0.114706
  H      0.759935    1.851863   -0.655764
  H     -0.975884    1.793246   -0.283523
  H      0.192209    1.746022    1.031802
  H      1.245257   -0.984233   -3.867792
  H      3.734475   -1.052393   -2.075112
  H      3.632576   -1.693256   -3.730082
  H      3.465878    0.050144   -3.444221
  H      1.532316   -3.367688   -2.638471
  H      0.422756   -2.882413    0.879583
  H     -1.075922   -2.852725   -0.025669
  H      0.142748   -4.099400   -0.389989

 Total Charge           Charge          ....    0
 Multiplicity           Mult            ....    1
 Number of Electrons    NEL             ....   68
 Basis Dimension        Dim             ....  345

ORBITAL ENERGIES
----------------

  NO   OCC          E(Eh)            E(eV)
   0   2.0000     -20.583402      -560.1029
   1   2.0000     -15.529612      -422.5822
   2   2.0000     -11.323511      -308.1284
   3   2.0000     -11.301840      -307.5387
   4   2.0000     -11.249317      -306.1095
   5   2.0000     -11.245048      -305.9933
   6   2.0000     -11.230879      -305.6078
   7   2.0000     -11.228719      -305.5490
   8   2.0000     -11.225933      -305.4732
   9   2.0000      -1.422064       -38.6963
  10   2.0000      -1.205760       -32.8104
  11   2.0000      -1.108666       -30.1683
  12   2.0000      -1.037928       -28.2435
  13   2.0000      -0.956110       -26.0171
  14   2.0000      -0.936054       -25.4713
  15   2.0000      -0.858620       -23.3642
  16   2.0000      -0.791803       -21.5460
  17   2.0000      -0.737468       -20.0675
  18   2.0000      -0.684174       -18.6173
  19   2.0000      -0.656908       -17.8754
  20   2.0000      -0.618823       -16.8390
  21   2.0000      -0.607196       -16.5226
  22   2.0000      -0.581738       -15.8299
  23   2.0000      -0.571420       -15.5491
  24   2.0000      -0.566339       -15.4109
  25   2.0000      -0.559347       -15.2206
  26   2.0000      -0.551670       -15.0117
  27   2.0000      -0.534078       -14.5330
  28   2.0000      -0.505531       -13.7562
  29   2.0000      -0.499542       -13.5932
  30   2.0000      -0.491993       -13.3878
  31   2.0000      -0.410509       -11.1705
  32   2.0000      -0.401815       -10.9340
  33   2.0000      -0.338974        -9.2240
  34   0.0000       0.113459         3.0874
  35   0.0000       0.139743         3.8026
  36   0.0000       0.157562         4.2875
  37   0.0000       0.167848         4.5674
  38   0.0000       0.178313         4.8521

MULLIKEN ATOMIC CHARGES
-----------------------
   0 C :   -0.282202
   1 N :   -0.252105
   2 C :    0.158717
   3 O :   -0.287623
   4 C :    0.164879
   5 C :   -0.386174
   6 C :   -0.223390
   7 C :    0.043097
   8 C :   -0.412217
   9 H :    0.125776
  10 H :    0.132078
  11 H :    0.134281
  12 H :    0.108008
  13 H :    0.134826
  14 H :    0.125067
  15 H :    0.142472
  16 H :    0.138298
  17 H :    0.150872
  18 H :    0.151031
  19 H :    0.134308
Sum of atomic charges:   -0.0000000

LOEWDIN ATOMIC CHARGES
----------------------
   0 C :   -0.334928
   1 N :    0.073489
   2 C :   -0.336324
   3 O :    0.258656
   4 C :   -0.291946
   5 C :   -0.284564
   6 C :   -0.102060
   7 C :   -0.153894
   8 C :   -0.258955
   9 H :    0.109177
  10 H :    0.118702
  11 H :    0.115692
  12 H :    0.148674
  13 H :    0.128768
  14 H :    0.127896
  15 H :    0.128206
  16 H :    0.144330
  17 H :    0.140034
  18 H :    0.140201
  19 H :    0.128846

  Mayer bond orders larger than 0.1
B(  0-C ,  1-N ) :   0.8685 B(  0-C ,  9-H ) :   0.9308 B(  0-C , 10-H ) :   0.9315
B(  0-C , 11-H ) :   0.9393 B(  1-N ,  2-C ) :   1.9628 B(  2-C ,  3-O ) :   1.0587
B(  2-C ,  7-C ) :   0.9362 B(  3-O ,  4-C ) :   0.8839 B(  4-C ,  5-C ) :   0.9012
B(  4-C ,  6-C ) :   0.9753 B(  4-C , 12-H ) :   0.9113 B(  5-C , 13-H ) :   0.9299
B(  5-C , 14-H ) :   0.9289 B(  5-C , 15-H ) :   0.9335 B(  6-C ,  7-C ) :   1.7226
B(  6-C , 16-H ) :   0.9177 B(  7-C ,  8-C ) :   0.8937 B(  8-C , 17-H ) :   0.9278
B(  8-C , 18-H ) :   0.9263 B(  8-C , 19-H ) :   0.9495

MP2 TOTAL ENERGY:     -402.480404805 Eh
FINAL SINGLE POINT ENERGY      -402.480404804882

DIPOLE MOMENT
-------------
                                X             Y             Z
Electronic contribution:     -1.77376       0.29103      -0.61350
Nuclear contribution   :      2.24727      -0.84072      -0.08237
                        -----------------------------------------
Total Dipole Moment    :      0.47351      -0.54968      -0.69588
                        -----------------------------------------
Magnitude (a.u.)       :      1.00529
Magnitude (Debye)      :      2.55525

                             ****ORCA TERMINATED NORMALLY****
TOTAL RUN TIME: 0 days 0 hours 17 minutes 13 seconds 649 msec
