                         Program Version 3.0.3 - RELEASE   -
|  1> ! RI-MP2 RIJK def2-TZVP def2-TZVP/C def2-TZVP/JK TIGHTSCF
|  2> % maxcore 2000
|  3> % mp2 density relaxed end
|  4> *xyz 0 1
|  5>  C        0.5523173805     1.4554940816     0.1668755194
|  6>  C       -0.0144351231     0.0312291778    -0.0227482883
|  7>  C        0.3365986842    -0.5244313520    -1.4065162893
|  8>  C        0.5558005014    -0.8583790994     1.0870222535
|  9>  O        1.5863071462    -1.4780859931     0.9066949842
| 10>  C       -0.1441002516    -0.9128542938     2.4213599666
| 11>  C       -1.4876530651    -0.2326031866     2.6072007291
| 12>  C        0.1132404774    -2.1956330528     3.2053428367
| 13>  C        0.8106158486    -0.9444395644     3.6159779144
| 14>  H        1.6413701681     1.4450582703     0.0568593022
| 15>  H        0.1383854964     2.1317752869    -0.5872931026
| 16>  H        0.3181166549     1.8664797923     1.1536157251
| 17>  H       -1.1031304314     0.0823340518     0.0820181941
| 18>  H        1.4185348649    -0.6349342604    -1.5080626567
| 19>  H       -0.1130296387    -1.5091515147    -1.5654128624
| 20>  H       -0.0258637498     0.1471546788    -2.1910832808
| 21>  H       -2.2572614767    -0.6627480116     1.9569244031
| 22>  H       -1.8305020061    -0.3564423349     3.6389204363
| 23>  H       -1.4421045659     0.8430988923     2.4083788273
| 24>  H       -0.7048260323    -2.5634194816     3.8150904464
| 25>  H        0.7036731423    -2.9502073706     2.7000087030
| 26>  H        1.8665892248    -0.8650100914     3.3868231871
| 27>  H        0.4833391410    -0.4292940645     4.5127161315
| 28> *
| 29>
| 30>                          ****END OF INPUT****

CARTESIAN COORDINATES (ANGSTROEM)
---------------------------------
  C      0.552317    1.455494    0.166876
  C     -0.014435    0.031229   -0.022748
  C      0.336599   -0.524431   -1.406516
  C      0.555801   -0.858379    1.087022
  O      1.586307   -1.478086    0.906695
  C     -0.144100   -0.912854    2.421360
  C     -1.487653   -0.232603    2.607201
  C      0.113240   -2.195633    3.205343
  C      0.810616   -0.944440    3.615978
  H      1.641370    1.445058    0.056859
  H      0.138385    2.131775   -0.587293
  H      0.318117    1.866480    1.153616
  H     -1.103130    0.082334    0.082018
  H      1.418535   -0.634934   -1.508063
  H     -0.113030   -1.509152   -1.565413
  H     -0.025864    0.147155   -2.191083
  H     -2.257261   -0.662748    1.956924
  H     -1.830502   -0.356442    3.638920
  H     -1.442105    0.843099    2.408379
  H     -0.704826   -2.563419    3.815090
  H      0.703673   -2.950207    2.700009
  H      1.866589   -0.865010    3.386823
  H      0.483339   -0.429294    4.512716

 Total Charge           Charge          ....    0
 Multiplicity           Mult            ....    1
 Number of Electrons    NEL             ....   70
 Basis Dimension        Dim             ....  363

ORBITAL ENERGIES
----------------

  NO   OCC          E(Eh)            E(eV)
   0   2.0000     -20.530257      -558.6567
   1   2.0000     -11.321700      -308.0791
   2   2.0000     -11.246782      -306.0405
   3   2.0000     -11.239257      -305.8357
   4   2.0000     -11.233775      -305.6865
   5   2.0000     -11.231299      -305.6192
   6   2.0000     -11.230332      -305.5929
   7   2.0000     -11.226015      -305.4754
   8   2.0000     -11.212051      -305.0954
   9   2.0000      -1.378065       -37.4990
  10   2.0000      -1.157029       -31.4844
  11   2.0000      -1.079033       -29.3620
  12   2.0000      -0.978514       -26.6267
  13   2.0000      -0.934200       -25.4209
  14   2.0000      -0.890201       -24.2236
  15   2.0000      -0.827905       -22.5284
  16   2.0000      -0.802598       -21.8398
  17   2.0000      -0.702435       -19.1142
  18   2.0000      -0.691244       -18.8097
  19   2.0000      -0.639165       -17.3926
  20   2.0000      -0.628282       -17.0964
  21   2.0000      -0.605841       -16.4858
  22   2.0000      -0.590788       -16.0762
  23   2.0000      -0.565872       -15.3982
  24   2.0000      -0.557600       -15.1731
  25   2.0000      -0.544467       -14.8157
  26   2.0000      -0.539034       -14.6679
  27   2.0000      -0.529330       -14.4038
  28   2.0000      -0.522236       -14.2108
  29   2.0000      -0.502767       -13.6810
  30   2.0000      -0.482259       -13.1229
  31   2.0000      -0.473691       -12.8898
  32   2.0000      -0.441477       -12.0132
  33   2.0000      -0.399288       -10.8652
  34   2.0000      -0.391224       -10.6457
  35   0.0000       0.130033         3.5384
  36   0.0000       0.137245         3.7346
  37   0.0000       0.155223         4.2238
  38   0.0000       0.172672         4.6986
  39   0.0000       0.178937         4.8691

MULLIKEN ATOMIC CHARGES
-----------------------
   0 C :   -0.430472
   1 C :   -0.012295
   2 C :   -0.395200
   3 C :    0.161897
   4 O :   -0.325823
   5 C :    0.062632
   6 C :   -0.433147
   7 C :   -0.265631
   8 C :   -0.267278
   9 H :    0.143101
  10 H :    0.137547
  11 H :    0.132200
  12 H :    0.098092
  13 H :    0.145929
  14 H :    0.129295
  15 H :    0.129733
  16 H :    0.146109
  17 H :    0.137313
  18 H :    0.137386
  19 H :    0.134146
  20 H :    0.152440
  21 H :    0.147878
  22 H :    0.134149
Sum of atomic charges:   -0.0000000

LOEWDIN ATOMIC CHARGES
----------------------
   0 C :   -0.280220
   1 C :   -0.272025
   2 C :   -0.287988
   3 C :   -0.267100
   4 O :    0.148179
   5 C :   -0.235210
   6 C :   -0.270522
   7 C :   -0.193263
   8 C :   -0.191695
   9 H :    0.130294
  10 H :    0.125572
  11 H :    0.122494
  12 H :    0.155460
  13 H :    0.130528
  14 H :    0.125127
  15 H :    0.122673
  16 H :    0.127361
  17 H :    0.131652
  18 H :    0.125730
  19 H :    0.134405
  20 H :    0.142927
  21 H :    0.141846
  22 H :    0.133776

  Mayer bond orders larger than 0.1
B(  0-C ,  1-C ) :   0.8844 B(  0-C ,  9-H ) :   0.9348 B(  0-C , 10-H ) :   0.9365
B(  0-C , 11-H ) :   0.9313 B(  1-C ,  2-C ) :   0.9122 B(  1-C ,  3-C ) :   0.9109
B(  1-C , 12-H ) :   0.9207 B(  2-C , 13-H ) :   0.9297 B(  2-C , 14-H ) :   0.9388
B(  2-C , 15-H ) :   0.9397 B(  3-C ,  4-O ) :   1.9116 B(  3-C ,  5-C ) :   0.9557
B(  5-C ,  6-C ) :   0.8941 B(  5-C ,  7-C ) :   0.8335 B(  5-C ,  8-C ) :   0.8221
B(  6-C , 16-H ) :   0.9432 B(  6-C , 17-H ) :   0.9272 B(  6-C , 18-H ) :   0.9362
B(  7-C ,  8-C ) :   0.9366 B(  7-C , 19-H ) :   0.9310 B(  7-C , 20-H ) :   0.9170
B(  8-C , 21-H ) :   0.9202 B(  8-C , 22-H ) :   0.9286

MP2 TOTAL ENERGY:     -387.629194949 Eh
FINAL SINGLE POINT ENERGY      -387.629194949055

DIPOLE MOMENT
-------------
                                X             Y             Z
Electronic contribution:      3.43722      -4.27759       1.50902
Nuclear contribution   :     -4.28040       4.79656      -1.22889
                        -----------------------------------------
Total Dipole Moment    :     -0.84319       0.51897       0.28013
                        -----------------------------------------
Magnitude (a.u.)       :      1.02896
Magnitude (Debye)      :      2.61541

                             ****ORCA TERMINATED NORMALLY****
TOTAL RUN TIME: 0 days 0 hours 23 minutes 7 seconds 342 msec
