                         Program Version 3.0.3 - RELEASE   -
|  1> ! RI-MP2 RIJK def2-TZVP def2-TZVP/C def2-TZVP/JK TIGHTSCF
|  2> % maxcore 2000
|  3> % mp2 density relaxed end
|  4> *xyz 0 1
|  5>  C       -0.0837782074     1.5233647221    -0.1124500141
|  6>  C       -0.0025246132    -0.0018871593    -0.0088378375
|  7>  C        0.7488400110    -0.4742210126     1.2397840930
|  8>  C        0.8290185116    -1.9970959545     1.3417629133
|  9>  C        1.5707083177    -2.4732203385     2.5736588929
| 10>  O        2.0654217217    -1.7682249146     3.4171525134
| 11>  O        1.6123725565    -3.8226272827     2.6146646126
| 12>  C        2.2939731779    -4.3799636147     3.7442849596
| 13>  H        0.9157224938     1.9702324905    -0.1519872233
| 14>  H       -0.6243792226     1.8349220621    -1.0115642627
| 15>  H       -0.6012213478     1.9509280362     0.7534003252
| 16>  H       -1.0164670824    -0.4242359124    -0.0059475914
| 17>  H        0.4889362383    -0.4050867451    -0.9045843907
| 18>  H        1.7635240361    -0.0593783694     1.2445747230
| 19>  H        0.2639701314    -0.0783746157     2.1397351373
| 20>  H       -0.1711702002    -2.4481980020     1.3579319823
| 21>  H        1.3258282860    -2.4292438655     0.4639464128
| 22>  H        1.8133161146    -4.0730003175     4.6768412046
| 23>  H        2.2350969949    -5.4618377901     3.6234471856
| 24>  H        3.3372226318    -4.0542881760     3.7665557141
| 25> *
| 26>
| 27>                          ****END OF INPUT****

CARTESIAN COORDINATES (ANGSTROEM)
---------------------------------
  C     -0.083778    1.523365   -0.112450
  C     -0.002525   -0.001887   -0.008838
  C      0.748840   -0.474221    1.239784
  C      0.829019   -1.997096    1.341763
  C      1.570708   -2.473220    2.573659
  O      2.065422   -1.768225    3.417153
  O      1.612373   -3.822627    2.614665
  C      2.293973   -4.379964    3.744285
  H      0.915722    1.970232   -0.151987
  H     -0.624379    1.834922   -1.011564
  H     -0.601221    1.950928    0.753400
  H     -1.016467   -0.424236   -0.005948
  H      0.488936   -0.405087   -0.904584
  H      1.763524   -0.059378    1.244575
  H      0.263970   -0.078375    2.139735
  H     -0.171170   -2.448198    1.357932
  H      1.325828   -2.429244    0.463946
  H      1.813316   -4.073000    4.676841
  H      2.235097   -5.461838    3.623447
  H      3.337223   -4.054288    3.766556

 Total Charge           Charge          ....    0
 Multiplicity           Mult            ....    1
 Number of Electrons    NEL             ....   64
 Basis Dimension        Dim             ....  320

ORBITAL ENERGIES
----------------

  NO   OCC          E(Eh)            E(eV)
   0   2.0000     -20.598951      -560.5259
   1   2.0000     -20.539927      -558.9198
   2   2.0000     -11.374205      -309.5078
   3   2.0000     -11.283141      -307.0299
   4   2.0000     -11.240914      -305.8808
   5   2.0000     -11.223040      -305.3944
   6   2.0000     -11.221997      -305.3661
   7   2.0000     -11.213618      -305.1381
   8   2.0000      -1.456832       -39.6424
   9   2.0000      -1.356370       -36.9087
  10   2.0000      -1.086799       -29.5733
  11   2.0000      -1.020779       -27.7768
  12   2.0000      -0.962139       -26.1811
  13   2.0000      -0.883782       -24.0489
  14   2.0000      -0.801892       -21.8206
  15   2.0000      -0.765781       -20.8379
  16   2.0000      -0.695254       -18.9188
  17   2.0000      -0.678610       -18.4659
  18   2.0000      -0.670573       -18.2472
  19   2.0000      -0.642634       -17.4870
  20   2.0000      -0.596199       -16.2234
  21   2.0000      -0.588952       -16.0262
  22   2.0000      -0.577175       -15.7057
  23   2.0000      -0.537858       -14.6359
  24   2.0000      -0.535524       -14.5724
  25   2.0000      -0.525738       -14.3061
  26   2.0000      -0.499096       -13.5811
  27   2.0000      -0.480194       -13.0667
  28   2.0000      -0.475486       -12.9386
  29   2.0000      -0.470343       -12.7987
  30   2.0000      -0.459633       -12.5072
  31   2.0000      -0.443472       -12.0675
  32   0.0000       0.131531         3.5791
  33   0.0000       0.151250         4.1157
  34   0.0000       0.163287         4.4433
  35   0.0000       0.167401         4.5552
  36   0.0000       0.184212         5.0127

MULLIKEN ATOMIC CHARGES
-----------------------
   0 C :   -0.383531
   1 C :   -0.177833
   2 C :   -0.223519
   3 C :   -0.234144
   4 C :    0.314742
   5 O :   -0.333015
   6 O :   -0.259619
   7 C :   -0.222187
   8 H :    0.123677
   9 H :    0.133040
  10 H :    0.123677
  11 H :    0.103572
  12 H :    0.103574
  13 H :    0.117134
  14 H :    0.117123
  15 H :    0.138610
  16 H :    0.138608
  17 H :    0.138675
  18 H :    0.142761
  19 H :    0.138656
Sum of atomic charges:    0.0000000

LOEWDIN ATOMIC CHARGES
----------------------
   0 C :   -0.320381
   1 C :   -0.297568
   2 C :   -0.263728
   3 C :   -0.237421
   4 C :   -0.476963
   5 O :    0.124519
   6 O :    0.221307
   7 C :   -0.313770
   8 H :    0.120933
   9 H :    0.120165
  10 H :    0.120932
  11 H :    0.133816
  12 H :    0.133816
  13 H :    0.142512
  14 H :    0.142511
  15 H :    0.154447
  16 H :    0.154447
  17 H :    0.113234
  18 H :    0.113963
  19 H :    0.113229

  Mayer bond orders larger than 0.1
B(  0-C ,  1-C ) :   0.9277 B(  0-C ,  8-H ) :   0.9394 B(  0-C ,  9-H ) :   0.9433
B(  0-C , 10-H ) :   0.9394 B(  1-C ,  2-C ) :   0.9250 B(  1-C , 11-H ) :   0.9309
B(  1-C , 12-H ) :   0.9309 B(  2-C ,  3-C ) :   0.9397 B(  2-C , 13-H ) :   0.9285
B(  2-C , 14-H ) :   0.9285 B(  3-C ,  4-C ) :   0.9561 B(  3-C , 15-H ) :   0.9088
B(  3-C , 16-H ) :   0.9088 B(  4-C ,  5-O ) :   1.9183 B(  4-C ,  6-O ) :   1.1363
B(  6-O ,  7-C ) :   0.8424 B(  7-C , 17-H ) :   0.9400 B(  7-C , 18-H ) :   0.9341
B(  7-C , 19-H ) :   0.9400

MP2 TOTAL ENERGY:     -385.546037079 Eh
FINAL SINGLE POINT ENERGY      -385.546037078707

DIPOLE MOMENT
-------------
                                X             Y             Z
Electronic contribution:      3.55060      -6.71126       5.80404
Nuclear contribution   :     -3.73925       6.22440      -6.13029
                        -----------------------------------------
Total Dipole Moment    :     -0.18865      -0.48686      -0.32625
                        -----------------------------------------
Magnitude (a.u.)       :      0.61568
Magnitude (Debye)      :      1.56492

                             ****ORCA TERMINATED NORMALLY****
TOTAL RUN TIME: 0 days 0 hours 11 minutes 15 seconds 120 msec
