                         Program Version 3.0.3 - RELEASE   -
|  1> ! RI-MP2 RIJK def2-TZVP def2-TZVP/C def2-TZVP/JK TIGHTSCF
|  2> % maxcore 2000
|  3> % mp2 density relaxed end
|  4> *xyz 0 1
|  5>  C       -0.1184314129     1.5536598968    -0.1606787913
|  6>  C       -0.0254701427     0.0299505157    -0.0442671448
|  7>  C        0.7237774951    -0.4341192861     1.2117092878
|  8>  C        0.8045560656    -1.9627041576     1.3066701769
|  9>  C        1.5453775475    -2.5482596774     2.5463272398
| 10>  C        3.0250012259    -2.0991203161     2.5797059944
| 11>  C        0.8477563310    -2.1356562212     3.8636188117
| 12>  C        1.5029247694    -4.0118166965     2.4327054249
| 13>  C        1.4639033412    -5.2097385159     2.3331534823
| 14>  H        0.8771458229     2.0097063189    -0.2006159361
| 15>  H       -0.6575287197     1.8531294080    -1.0649373420
| 16>  H       -0.6441054969     1.9855639473     0.6983193310
| 17>  H       -1.0356199710    -0.4004245107    -0.0423578429
| 18>  H        0.4736468154    -0.3764465563    -0.9338483806
| 19>  H        1.7312597924     0.0004617390     1.2030880550
| 20>  H        0.2197641275    -0.0238402826     2.0957840439
| 21>  H       -0.2114191105    -2.3765511864     1.2970344423
| 22>  H        1.2972331695    -2.3520183297     0.4070788175
| 23>  H        3.0988919271    -1.0173662361     2.7234657030
| 24>  H        3.5541498635    -2.5872787627     3.4027574387
| 25>  H        3.5344083740    -2.3608491765     1.6477235133
| 26>  H       -0.2074722512    -2.4237315614     3.8543301202
| 27>  H        1.3241307961    -2.6246596957     4.7178193657
| 28>  H        0.9107854839    -1.0540834852     4.0137785658
| 29>  H        1.4302337868    -6.2674876617     2.2478269235
| 30> *
| 31>
| 32>                          ****END OF INPUT****

CARTESIAN COORDINATES (ANGSTROEM)
---------------------------------
  C     -0.118431    1.553660   -0.160679
  C     -0.025470    0.029951   -0.044267
  C      0.723777   -0.434119    1.211709
  C      0.804556   -1.962704    1.306670
  C      1.545378   -2.548260    2.546327
  C      3.025001   -2.099120    2.579706
  C      0.847756   -2.135656    3.863619
  C      1.502925   -4.011817    2.432705
  C      1.463903   -5.209739    2.333153
  H      0.877146    2.009706   -0.200616
  H     -0.657529    1.853129   -1.064937
  H     -0.644105    1.985564    0.698319
  H     -1.035620   -0.400425   -0.042358
  H      0.473647   -0.376447   -0.933848
  H      1.731260    0.000462    1.203088
  H      0.219764   -0.023840    2.095784
  H     -0.211419   -2.376551    1.297034
  H      1.297233   -2.352018    0.407079
  H      3.098892   -1.017366    2.723466
  H      3.554150   -2.587279    3.402757
  H      3.534408   -2.360849    1.647724
  H     -0.207472   -2.423732    3.854330
  H      1.324131   -2.624660    4.717819
  H      0.910785   -1.054083    4.013779
  H      1.430234   -6.267488    2.247827

 Total Charge           Charge          ....    0
 Multiplicity           Mult            ....    1
 Number of Electrons    NEL             ....   70
 Basis Dimension        Dim             ....  375

ORBITAL ENERGIES
----------------

  NO   OCC          E(Eh)            E(eV)
   0   2.0000     -11.260763      -306.4209
   1   2.0000     -11.224590      -305.4366
   2   2.0000     -11.223076      -305.3954
   3   2.0000     -11.219801      -305.3063
   4   2.0000     -11.218875      -305.2811
   5   2.0000     -11.218677      -305.2757
   6   2.0000     -11.218662      -305.2753
   7   2.0000     -11.213469      -305.1340
   8   2.0000     -11.212856      -305.1173
   9   2.0000      -1.123596       -30.5746
  10   2.0000      -1.062566       -28.9139
  11   2.0000      -1.001099       -27.2413
  12   2.0000      -0.969382       -26.3782
  13   2.0000      -0.936095       -25.4724
  14   2.0000      -0.881787       -23.9946
  15   2.0000      -0.815362       -22.1871
  16   2.0000      -0.778533       -21.1850
  17   2.0000      -0.702963       -19.1286
  18   2.0000      -0.646725       -17.5983
  19   2.0000      -0.644106       -17.5270
  20   2.0000      -0.608453       -16.5569
  21   2.0000      -0.597883       -16.2692
  22   2.0000      -0.577818       -15.7232
  23   2.0000      -0.560420       -15.2498
  24   2.0000      -0.543255       -14.7827
  25   2.0000      -0.531577       -14.4649
  26   2.0000      -0.522233       -14.2107
  27   2.0000      -0.501406       -13.6439
  28   2.0000      -0.487472       -13.2648
  29   2.0000      -0.476951       -12.9785
  30   2.0000      -0.466825       -12.7030
  31   2.0000      -0.462735       -12.5917
  32   2.0000      -0.457982       -12.4623
  33   2.0000      -0.379189       -10.3183
  34   2.0000      -0.377346       -10.2681
  35   0.0000       0.128340         3.4923
  36   0.0000       0.146075         3.9749
  37   0.0000       0.159725         4.3463
  38   0.0000       0.168118         4.5747
  39   0.0000       0.169099         4.6014

MULLIKEN ATOMIC CHARGES
-----------------------
   0 C :   -0.384750
   1 C :   -0.181119
   2 C :   -0.268978
   3 C :   -0.231741
   4 C :    0.025918
   5 C :   -0.427837
   6 C :   -0.427779
   7 C :   -0.035534
   8 C :   -0.144487
   9 H :    0.121576
  10 H :    0.133947
  11 H :    0.121569
  12 H :    0.107313
  13 H :    0.107310
  14 H :    0.112869
  15 H :    0.112819
  16 H :    0.122788
  17 H :    0.122804
  18 H :    0.135961
  19 H :    0.140767
  20 H :    0.136151
  21 H :    0.136151
  22 H :    0.140757
  23 H :    0.135936
  24 H :    0.187588
Sum of atomic charges:   -0.0000000

LOEWDIN ATOMIC CHARGES
----------------------
   0 C :   -0.322221
   1 C :   -0.295509
   2 C :   -0.268957
   3 C :   -0.212795
   4 C :   -0.310452
   5 C :   -0.252053
   6 C :   -0.252042
   7 C :   -0.070426
   8 C :   -0.103856
   9 H :    0.119851
  10 H :    0.120472
  11 H :    0.119851
  12 H :    0.134830
  13 H :    0.134833
  14 H :    0.136800
  15 H :    0.136788
  16 H :    0.146612
  17 H :    0.146620
  18 H :    0.123858
  19 H :    0.129865
  20 H :    0.129383
  21 H :    0.129381
  22 H :    0.129867
  23 H :    0.123849
  24 H :    0.125452

  Mayer bond orders larger than 0.1
B(  0-C ,  1-C ) :   0.9200 B(  0-C ,  9-H ) :   0.9399 B(  0-C , 10-H ) :   0.9434
B(  0-C , 11-H ) :   0.9399 B(  1-C ,  2-C ) :   0.9376 B(  1-C , 12-H ) :   0.9346
B(  1-C , 13-H ) :   0.9346 B(  2-C ,  3-C ) :   0.9090 B(  2-C , 14-H ) :   0.9294
B(  2-C , 15-H ) :   0.9294 B(  3-C ,  4-C ) :   0.9348 B(  3-C , 16-H ) :   0.9289
B(  3-C , 17-H ) :   0.9289 B(  4-C ,  5-C ) :   0.8891 B(  4-C ,  6-C ) :   0.8892
B(  4-C ,  7-C ) :   1.1810 B(  4-C ,  8-C ) :  -0.1134 B(  5-C , 18-H ) :   0.9346
B(  5-C , 19-H ) :   0.9334 B(  5-C , 20-H ) :   0.9348 B(  6-C , 21-H ) :   0.9348
B(  6-C , 22-H ) :   0.9334 B(  6-C , 23-H ) :   0.9346 B(  7-C ,  8-C ) :   2.5840
B(  8-C , 24-H ) :   0.8794

MP2 TOTAL ENERGY:     -351.683478586 Eh
FINAL SINGLE POINT ENERGY      -351.683478586144

DIPOLE MOMENT
-------------
                                X             Y             Z
Electronic contribution:      1.34514      -9.43188       2.01498
Nuclear contribution   :     -1.36523       9.70054      -2.04075
                        -----------------------------------------
Total Dipole Moment    :     -0.02009       0.26866      -0.02577
                        -----------------------------------------
Magnitude (a.u.)       :      0.27064
Magnitude (Debye)      :      0.68791

                             ****ORCA TERMINATED NORMALLY****
TOTAL RUN TIME: 0 days 0 hours 19 minutes 17 seconds 886 msec
