                         Program Version 3.0.3 - RELEASE   -
|  1> ! RI-MP2 RIJK def2-TZVP def2-TZVP/C def2-TZVP/JK TIGHTSCF
|  2> % maxcore 2000
|  3> % mp2 density relaxed end
|  4> *xyz 0 1
|  5>  C       -0.1020814195     1.4619609403     0.0913288130
|  6>  N       -0.0624466774     0.0348527514    -0.1864187625
|  7>  C       -1.1636964997    -0.7487061232    -0.0760903676
|  8>  C       -1.3136341422    -2.1225478578     0.0046642381
|  9>  C       -2.7402815545    -2.3524127430     0.0328378711
| 10>  C       -3.3277084392    -1.1415472945    -0.0230188771
| 11>  O       -2.3638576458    -0.1457918545    -0.0874965030
| 12>  C       -0.2531676932    -3.0460711875     0.0531196666
| 13>  N        0.6494860755    -3.7752632488     0.0946800824
| 14>  H        0.8583180333     1.8956792171    -0.1920850516
| 15>  H       -0.8831312728     1.9327076850    -0.5091887411
| 16>  H       -0.2956465453     1.6878847023     1.1488118990
| 17>  H        0.8054198426    -0.4452287685    -0.0043485888
| 18>  H       -3.2299335506    -3.3109218793     0.0909799382
| 19>  H       -4.3448593510    -0.7924205989    -0.0237629868
| 20> *
| 21>
| 22>                          ****END OF INPUT****

CARTESIAN COORDINATES (ANGSTROEM)
---------------------------------
  C     -0.102081    1.461961    0.091329
  N     -0.062447    0.034853   -0.186419
  C     -1.163696   -0.748706   -0.076090
  C     -1.313634   -2.122548    0.004664
  C     -2.740282   -2.352413    0.032838
  C     -3.327708   -1.141547   -0.023019
  O     -2.363858   -0.145792   -0.087497
  C     -0.253168   -3.046071    0.053120
  N      0.649486   -3.775263    0.094680
  H      0.858318    1.895679   -0.192085
  H     -0.883131    1.932708   -0.509189
  H     -0.295647    1.687885    1.148812
  H      0.805420   -0.445229   -0.004349
  H     -3.229934   -3.310922    0.090980
  H     -4.344859   -0.792421   -0.023763

 Total Charge           Charge          ....    0
 Multiplicity           Mult            ....    1
 Number of Electrons    NEL             ....   64
 Basis Dimension        Dim             ....  315

ORBITAL ENERGIES
----------------

  NO   OCC          E(Eh)            E(eV)
   0   2.0000     -20.646954      -561.8322
   1   2.0000     -15.606829      -424.6834
   2   2.0000     -15.559656      -423.3998
   3   2.0000     -11.374990      -309.5292
   4   2.0000     -11.296558      -307.3950
   5   2.0000     -11.282546      -307.0137
   6   2.0000     -11.270863      -306.6958
   7   2.0000     -11.256966      -306.3176
   8   2.0000     -11.255115      -306.2672
   9   2.0000      -1.491966       -40.5984
  10   2.0000      -1.270962       -34.5846
  11   2.0000      -1.209007       -32.8987
  12   2.0000      -1.115634       -30.3579
  13   2.0000      -1.029104       -28.0033
  14   2.0000      -0.949846       -25.8466
  15   2.0000      -0.879265       -23.9260
  16   2.0000      -0.812057       -22.0972
  17   2.0000      -0.782563       -21.2946
  18   2.0000      -0.685116       -18.6430
  19   2.0000      -0.680837       -18.5265
  20   2.0000      -0.673375       -18.3235
  21   2.0000      -0.634527       -17.2664
  22   2.0000      -0.615909       -16.7597
  23   2.0000      -0.594986       -16.1904
  24   2.0000      -0.579441       -15.7674
  25   2.0000      -0.566827       -15.4241
  26   2.0000      -0.547869       -14.9083
  27   2.0000      -0.513096       -13.9620
  28   2.0000      -0.467783       -12.7290
  29   2.0000      -0.455049       -12.3825
  30   2.0000      -0.407876       -11.0989
  31   2.0000      -0.300615        -8.1802
  32   0.0000       0.124567         3.3896
  33   0.0000       0.135487         3.6868
  34   0.0000       0.154645         4.2081
  35   0.0000       0.156853         4.2682
  36   0.0000       0.166192         4.5223

MULLIKEN ATOMIC CHARGES
-----------------------
   0 C :   -0.276870
   1 N :   -0.337964
   2 C :    0.252354
   3 C :    0.123519
   4 C :   -0.245198
   5 C :   -0.013139
   6 O :   -0.231823
   7 C :   -0.225286
   8 N :   -0.058602
   9 H :    0.148383
  10 H :    0.154234
  11 H :    0.138008
  12 H :    0.258900
  13 H :    0.155598
  14 H :    0.157887
Sum of atomic charges:   -0.0000000

LOEWDIN ATOMIC CHARGES
----------------------
   0 C :   -0.310105
   1 N :    0.078787
   2 C :   -0.290453
   3 C :   -0.189427
   4 C :   -0.142757
   5 C :   -0.224435
   6 O :    0.352789
   7 C :   -0.176846
   8 N :    0.053931
   9 H :    0.123101
  10 H :    0.124943
  11 H :    0.113497
  12 H :    0.199350
  13 H :    0.152418
  14 H :    0.135207

  Mayer bond orders larger than 0.1
B(  0-C ,  1-N ) :   0.8772 B(  0-C ,  9-H ) :   0.9333 B(  0-C , 10-H ) :   0.9329
B(  0-C , 11-H ) :   0.9321 B(  1-N ,  2-C ) :   1.1786 B(  1-N , 12-H ) :   0.8650
B(  2-C ,  3-C ) :   1.3865 B(  2-C ,  6-O ) :   1.0981 B(  3-C ,  4-C ) :   1.1249
B(  3-C ,  7-C ) :   0.8838 B(  4-C ,  5-C ) :   1.6396 B(  4-C , 13-H ) :   0.9173
B(  5-C ,  6-O ) :   0.9630 B(  5-C , 14-H ) :   0.9341 B(  7-C ,  8-N ) :   2.8784

MP2 TOTAL ENERGY:     -416.130319468 Eh
FINAL SINGLE POINT ENERGY      -416.130319467649

DIPOLE MOMENT
-------------
                                X             Y             Z
Electronic contribution:     -0.66861      -6.17242      -0.40317
Nuclear contribution   :     -0.03189       7.79486       0.53147
                        -----------------------------------------
Total Dipole Moment    :     -0.70050       1.62244       0.12830
                        -----------------------------------------
Magnitude (a.u.)       :      1.77186
Magnitude (Debye)      :      4.50371

                             ****ORCA TERMINATED NORMALLY****
TOTAL RUN TIME: 0 days 0 hours 14 minutes 54 seconds 148 msec
