                         Program Version 3.0.3 - RELEASE   -
|  1> ! RI-MP2 RIJK def2-TZVP def2-TZVP/C def2-TZVP/JK TIGHTSCF
|  2> % maxcore 2000
|  3> % mp2 density relaxed end
|  4> *xyz 0 1
|  5>  N       -0.0271573516     1.3262247477     0.0098225303
|  6>  C        1.2521888846     1.8430942218     0.0001432542
|  7>  C        2.1658545788     0.8238522426    -0.0142137579
|  8>  C        1.4214121091    -0.4007187629    -0.0136659495
|  9>  C        0.0428876457    -0.0452688538     0.0016753582
| 10>  N       -0.9998990571    -0.8681219460     0.0073414532
| 11>  C       -0.6792367713    -2.1629419011    -0.0028249405
| 12>  C        0.6373892494    -2.6518437895    -0.0182937159
| 13>  C        1.7085712653    -1.7686780373    -0.0239074488
| 14>  H       -0.8852815323     1.8500550878     0.0210517967
| 15>  H        1.4062011588     2.9110591109     0.0044224253
| 16>  H        3.2388723329     0.9359265103    -0.0240201024
| 17>  H       -1.5129917327    -2.8605253177     0.0014928673
| 18>  H        0.8032093580    -3.7231185492    -0.0257332714
| 19>  H        2.7322349726    -2.1294900436    -0.0358198890
| 20> *
| 21>
| 22>                          ****END OF INPUT****

CARTESIAN COORDINATES (ANGSTROEM)
---------------------------------
  N     -0.027157    1.326225    0.009823
  C      1.252189    1.843094    0.000143
  C      2.165855    0.823852   -0.014214
  C      1.421412   -0.400719   -0.013666
  C      0.042888   -0.045269    0.001675
  N     -0.999899   -0.868122    0.007341
  C     -0.679237   -2.162942   -0.002825
  C      0.637389   -2.651844   -0.018294
  C      1.708571   -1.768678   -0.023907
  H     -0.885282    1.850055    0.021052
  H      1.406201    2.911059    0.004422
  H      3.238872    0.935927   -0.024020
  H     -1.512992   -2.860525    0.001493
  H      0.803209   -3.723119   -0.025733
  H      2.732235   -2.129490   -0.035820

 Total Charge           Charge          ....    0
 Multiplicity           Mult            ....    1
 Number of Electrons    NEL             ....   62
 Basis Dimension        Dim             ....  315

ORBITAL ENERGIES
----------------

  NO   OCC          E(Eh)            E(eV)
   0   2.0000     -15.603779      -424.6004
   1   2.0000     -15.558568      -423.3702
   2   2.0000     -11.297378      -307.4173
   3   2.0000     -11.276510      -306.8494
   4   2.0000     -11.267759      -306.6113
   5   2.0000     -11.252017      -306.1830
   6   2.0000     -11.232468      -305.6510
   7   2.0000     -11.226156      -305.4792
   8   2.0000     -11.223682      -305.4119
   9   2.0000      -1.316531       -35.8246
  10   2.0000      -1.231300       -33.5054
  11   2.0000      -1.099760       -29.9260
  12   2.0000      -1.028429       -27.9850
  13   2.0000      -0.995479       -27.0884
  14   2.0000      -0.870581       -23.6897
  15   2.0000      -0.830237       -22.5919
  16   2.0000      -0.802082       -21.8258
  17   2.0000      -0.741873       -20.1874
  18   2.0000      -0.677637       -18.4394
  19   2.0000      -0.653997       -17.7962
  20   2.0000      -0.624251       -16.9867
  21   2.0000      -0.601294       -16.3620
  22   2.0000      -0.592143       -16.1130
  23   2.0000      -0.569139       -15.4871
  24   2.0000      -0.558819       -15.2062
  25   2.0000      -0.529225       -14.4009
  26   2.0000      -0.494133       -13.4460
  27   2.0000      -0.418117       -11.3776
  28   2.0000      -0.416734       -11.3399
  29   2.0000      -0.322594        -8.7782
  30   2.0000      -0.295323        -8.0362
  31   0.0000       0.097334         2.6486
  32   0.0000       0.142321         3.8728
  33   0.0000       0.153134         4.1670
  34   0.0000       0.162854         4.4315
  35   0.0000       0.177387         4.8269

MULLIKEN ATOMIC CHARGES
-----------------------
   0 N :   -0.261429
   1 C :   -0.016559
   2 C :   -0.263036
   3 C :    0.111032
   4 C :    0.141172
   5 N :   -0.242663
   6 C :   -0.083323
   7 C :   -0.057733
   8 C :   -0.237329
   9 H :    0.248748
  10 H :    0.151716
  11 H :    0.134475
  12 H :    0.119545
  13 H :    0.130048
  14 H :    0.125336
Sum of atomic charges:   -0.0000000

LOEWDIN ATOMIC CHARGES
----------------------
   0 N :    0.196337
   1 C :   -0.198218
   2 C :   -0.163295
   3 C :   -0.128756
   4 C :   -0.260050
   5 N :    0.141845
   6 C :   -0.224813
   7 C :   -0.162091
   8 C :   -0.105991
   9 H :    0.194461
  10 H :    0.136503
  11 H :    0.142151
  12 H :    0.136476
  13 H :    0.147438
  14 H :    0.148004

  Mayer bond orders larger than 0.1
B(  0-N ,  1-C ) :   1.1032 B(  0-N ,  4-C ) :   1.1198 B(  0-N ,  9-H ) :   0.8622
B(  1-C ,  2-C ) :   1.5285 B(  1-C , 10-H ) :   0.9165 B(  2-C ,  3-C ) :   1.1555
B(  2-C , 11-H ) :   0.9255 B(  3-C ,  4-C ) :   1.1993 B(  3-C ,  8-C ) :   1.2550
B(  4-C ,  5-N ) :   1.4198 B(  5-N ,  6-C ) :   1.4253 B(  6-C ,  7-C ) :   1.2406
B(  6-C , 12-H ) :   0.9524 B(  7-C ,  8-C ) :   1.4015 B(  7-C , 13-H ) :   0.9199
B(  8-C , 14-H ) :   0.9330

MP2 TOTAL ENERGY:     -379.077612619 Eh
FINAL SINGLE POINT ENERGY      -379.077612618716

DIPOLE MOMENT
-------------
                                X             Y             Z
Electronic contribution:     -1.70347       1.00785       0.02204
Nuclear contribution   :      2.07231      -0.48676      -0.02278
                        -----------------------------------------
Total Dipole Moment    :      0.36884       0.52109      -0.00074
                        -----------------------------------------
Magnitude (a.u.)       :      0.63841
Magnitude (Debye)      :      1.62272

                             ****ORCA TERMINATED NORMALLY****
TOTAL RUN TIME: 0 days 0 hours 16 minutes 59 seconds 304 msec
