                         Program Version 3.0.3 - RELEASE   -
|  1> ! RI-MP2 RIJK def2-TZVP def2-TZVP/C def2-TZVP/JK TIGHTSCF
|  2> % maxcore 2000
|  3> % mp2 density relaxed end
|  4> *xyz 0 1
|  5>  C       -0.0441715286     1.5754931926     0.1105459058
|  6>  N       -0.0346970300     0.1313538325     0.1136325325
|  7>  C       -1.2802286471    -0.5924757289     0.4230216687
|  8>  C       -0.4523194242    -1.6224575658     1.2334263086
|  9>  N        0.0900594323    -2.7409302155     0.5078084672
| 10>  C        1.4066957659    -2.6431265930     0.1227199190
| 11>  O        2.0117961149    -3.4675203583    -0.5231997660
| 12>  C        1.9504782954    -1.3220568496     0.6895569007
| 13>  C        0.7097014264    -0.5820190995     1.1744857732
| 14>  H        0.9697397453     1.9544913711    -0.0556538669
| 15>  H       -0.6733794418     1.9401302525    -0.7082212084
| 16>  H       -0.4239632013     2.0134782052     1.0539096474
| 17>  H       -1.9659972612    -0.0314542033     1.0795000613
| 18>  H       -1.8346136381    -0.9552048277    -0.4497493095
| 19>  H       -0.8571692990    -1.9086610682     2.2069184377
| 20>  H       -0.4522134819    -3.5436212072     0.2298620469
| 21>  H        2.6555225008    -1.5486058245     1.4966498043
| 22>  H        2.4888834308    -0.7792211630    -0.0898813940
| 23>  H        0.8519127413     0.0028039606     2.0925135117
| 24> *
| 25>
| 26>                          ****END OF INPUT****

CARTESIAN COORDINATES (ANGSTROEM)
---------------------------------
  C     -0.044172    1.575493    0.110546
  N     -0.034697    0.131354    0.113633
  C     -1.280229   -0.592476    0.423022
  C     -0.452319   -1.622458    1.233426
  N      0.090059   -2.740930    0.507808
  C      1.406696   -2.643127    0.122720
  O      2.011796   -3.467520   -0.523200
  C      1.950478   -1.322057    0.689557
  C      0.709701   -0.582019    1.174486
  H      0.969740    1.954491   -0.055654
  H     -0.673379    1.940130   -0.708221
  H     -0.423963    2.013478    1.053910
  H     -1.965997   -0.031454    1.079500
  H     -1.834614   -0.955205   -0.449749
  H     -0.857169   -1.908661    2.206918
  H     -0.452213   -3.543621    0.229862
  H      2.655523   -1.548606    1.496650
  H      2.488883   -0.779221   -0.089881
  H      0.851913    0.002804    2.092514

 Total Charge           Charge          ....    0
 Multiplicity           Mult            ....    1
 Number of Electrons    NEL             ....   68
 Basis Dimension        Dim             ....  339

ORBITAL ENERGIES
----------------

  NO   OCC          E(Eh)            E(eV)
   0   2.0000     -20.511281      -558.1403
   1   2.0000     -15.579674      -423.9445
   2   2.0000     -15.555989      -423.3000
   3   2.0000     -11.343130      -308.6623
   4   2.0000     -11.281465      -306.9843
   5   2.0000     -11.274228      -306.7873
   6   2.0000     -11.262930      -306.4799
   7   2.0000     -11.253259      -306.2167
   8   2.0000     -11.236218      -305.7530
   9   2.0000      -1.376995       -37.4699
  10   2.0000      -1.285516       -34.9807
  11   2.0000      -1.215601       -33.0782
  12   2.0000      -1.041154       -28.3312
  13   2.0000      -1.017552       -27.6890
  14   2.0000      -0.898149       -24.4399
  15   2.0000      -0.885321       -24.0908
  16   2.0000      -0.792441       -21.5634
  17   2.0000      -0.771625       -20.9970
  18   2.0000      -0.700171       -19.0526
  19   2.0000      -0.675413       -18.3789
  20   2.0000      -0.641325       -17.4513
  21   2.0000      -0.622908       -16.9502
  22   2.0000      -0.619755       -16.8644
  23   2.0000      -0.592276       -16.1167
  24   2.0000      -0.583371       -15.8743
  25   2.0000      -0.562234       -15.2992
  26   2.0000      -0.550338       -14.9755
  27   2.0000      -0.533995       -14.5308
  28   2.0000      -0.508848       -13.8465
  29   2.0000      -0.481911       -13.1135
  30   2.0000      -0.462384       -12.5821
  31   2.0000      -0.413111       -11.2413
  32   2.0000      -0.390561       -10.6277
  33   2.0000      -0.364559        -9.9201
  34   0.0000       0.128680         3.5016
  35   0.0000       0.145733         3.9656
  36   0.0000       0.154876         4.2144
  37   0.0000       0.163315         4.4440
  38   0.0000       0.180381         4.9084

MULLIKEN ATOMIC CHARGES
-----------------------
   0 C :   -0.336926
   1 N :   -0.177967
   2 C :   -0.156415
   3 C :    0.053217
   4 N :   -0.331572
   5 C :    0.172519
   6 O :   -0.335604
   7 C :   -0.161193
   8 C :   -0.043707
   9 H :    0.138731
  10 H :    0.142335
  11 H :    0.104371
  12 H :    0.097147
  13 H :    0.111150
  14 H :    0.127325
  15 H :    0.236602
  16 H :    0.130409
  17 H :    0.125844
  18 H :    0.103735
Sum of atomic charges:    0.0000000

LOEWDIN ATOMIC CHARGES
----------------------
   0 C :   -0.338456
   1 N :    0.088260
   2 C :   -0.236835
   3 C :   -0.230957
   4 N :    0.140398
   5 C :   -0.436273
   6 O :    0.085426
   7 C :   -0.202150
   8 C :   -0.214308
   9 H :    0.120121
  10 H :    0.120868
  11 H :    0.100627
  12 H :    0.122130
  13 H :    0.122259
  14 H :    0.134513
  15 H :    0.184740
  16 H :    0.149655
  17 H :    0.154122
  18 H :    0.135860

  Mayer bond orders larger than 0.1
B(  0-C ,  1-N ) :   0.9172 B(  0-C ,  9-H ) :   0.9356 B(  0-C , 10-H ) :   0.9366
B(  0-C , 11-H ) :   0.9264 B(  1-N ,  2-C ) :   0.9547 B(  1-N ,  8-C ) :   0.9604
B(  2-C ,  3-C ) :   0.9441 B(  2-C , 12-H ) :   0.9208 B(  2-C , 13-H ) :   0.9064
B(  3-C ,  4-N ) :   0.8796 B(  3-C ,  8-C ) :   0.9108 B(  3-C , 14-H ) :   0.9211
B(  4-N ,  5-C ) :   1.1553 B(  4-N , 15-H ) :   0.8630 B(  5-C ,  6-O ) :   2.0243
B(  5-C ,  7-C ) :   0.9323 B(  7-C ,  8-C ) :   0.9154 B(  7-C , 16-H ) :   0.9126
B(  7-C , 17-H ) :   0.8923 B(  8-C , 18-H ) :   0.9147

MP2 TOTAL ENERGY:     -418.523441854 Eh
FINAL SINGLE POINT ENERGY      -418.523441854016

DIPOLE MOMENT
-------------
                                X             Y             Z
Electronic contribution:      2.72202      -7.98023      -1.53441
Nuclear contribution   :     -3.82430       8.97766       2.52541
                        -----------------------------------------
Total Dipole Moment    :     -1.10227       0.99743       0.99100
                        -----------------------------------------
Magnitude (a.u.)       :      1.78660
Magnitude (Debye)      :      4.54118

                             ****ORCA TERMINATED NORMALLY****
TOTAL RUN TIME: 0 days 0 hours 17 minutes 55 seconds 848 msec
