                         Program Version 3.0.3 - RELEASE   -
|  1> ! RI-MP2 RIJK def2-TZVP def2-TZVP/C def2-TZVP/JK TIGHTSCF
|  2> % maxcore 2000
|  3> % mp2 density relaxed end
|  4> *xyz 0 1
|  5>  C        0.1079359745     1.6163597490    -0.0751246499
|  6>  C        0.0568155992     0.0921205953     0.0232166477
|  7>  C        0.5878412454    -0.6374477325    -1.2417506564
|  8>  C        1.1275922945    -1.9747589897    -0.7425362620
|  9>  C        0.9332511355    -3.2382915030    -1.5353174429
| 10>  O        2.4156154665    -1.8132659328    -0.1197882835
| 11>  C        1.2557357097    -1.9053788253     0.7233867185
| 12>  C        0.7861281613    -0.5543859862     1.2554312962
| 13>  C        1.9465656453     0.2524954789     1.8533182348
| 14>  H        1.1343826532     1.9787498209    -0.1915662123
| 15>  H       -0.4649229806     1.9641893059    -0.9416314353
| 16>  H       -0.3183031363     2.0939381904     0.8136891747
| 17>  H       -0.9978115531    -0.1960726675     0.1217036279
| 18>  H       -0.2039549906    -0.7680439435    -1.9865559541
| 19>  H        1.3990554632    -0.0790474916    -1.7232133124
| 20>  H        1.4123820281    -3.1573147041    -2.5175712643
| 21>  H        1.3726822700    -4.0921221304    -1.0131579000
| 22>  H       -0.1316138008    -3.4361382891    -1.6988129373
| 23>  H        1.2257450060    -2.7889667939     1.3594274119
| 24>  H        0.0484151705    -0.7266232566     2.0486049233
| 25>  H        2.7332293032     0.4145996326     1.1127493458
| 26>  H        1.6090154507     1.2236671807     2.2256722490
| 27>  H        2.3919920946    -0.2887124575     2.6948771605
| 28> *
| 29>
| 30>                          ****END OF INPUT****

CARTESIAN COORDINATES (ANGSTROEM)
---------------------------------
  C      0.107936    1.616360   -0.075125
  C      0.056816    0.092121    0.023217
  C      0.587841   -0.637448   -1.241751
  C      1.127592   -1.974759   -0.742536
  C      0.933251   -3.238292   -1.535317
  O      2.415615   -1.813266   -0.119788
  C      1.255736   -1.905379    0.723387
  C      0.786128   -0.554386    1.255431
  C      1.946566    0.252495    1.853318
  H      1.134383    1.978750   -0.191566
  H     -0.464923    1.964189   -0.941631
  H     -0.318303    2.093938    0.813689
  H     -0.997812   -0.196073    0.121704
  H     -0.203955   -0.768044   -1.986556
  H      1.399055   -0.079047   -1.723213
  H      1.412382   -3.157315   -2.517571
  H      1.372682   -4.092122   -1.013158
  H     -0.131614   -3.436138   -1.698813
  H      1.225745   -2.788967    1.359427
  H      0.048415   -0.726623    2.048605
  H      2.733229    0.414600    1.112749
  H      1.609015    1.223667    2.225672
  H      2.391992   -0.288712    2.694877

 Total Charge           Charge          ....    0
 Multiplicity           Mult            ....    1
 Number of Electrons    NEL             ....   70
 Basis Dimension        Dim             ....  363

ORBITAL ENERGIES
----------------

  NO   OCC          E(Eh)            E(eV)
   0   2.0000     -20.552187      -559.2534
   1   2.0000     -11.281012      -306.9719
   2   2.0000     -11.271742      -306.7197
   3   2.0000     -11.229693      -305.5755
   4   2.0000     -11.228602      -305.5458
   5   2.0000     -11.222016      -305.3666
   6   2.0000     -11.220079      -305.3139
   7   2.0000     -11.213045      -305.1225
   8   2.0000     -11.206694      -304.9496
   9   2.0000      -1.400602       -38.1123
  10   2.0000      -1.104241       -30.0479
  11   2.0000      -1.027490       -27.9594
  12   2.0000      -0.991891       -26.9907
  13   2.0000      -0.944483       -25.7007
  14   2.0000      -0.903778       -24.5930
  15   2.0000      -0.837180       -22.7808
  16   2.0000      -0.760027       -20.6814
  17   2.0000      -0.747579       -20.3427
  18   2.0000      -0.684897       -18.6370
  19   2.0000      -0.632655       -17.2154
  20   2.0000      -0.604577       -16.4514
  21   2.0000      -0.592737       -16.1292
  22   2.0000      -0.576759       -15.6944
  23   2.0000      -0.570048       -15.5118
  24   2.0000      -0.558531       -15.1984
  25   2.0000      -0.550542       -14.9810
  26   2.0000      -0.528763       -14.3884
  27   2.0000      -0.518579       -14.1112
  28   2.0000      -0.497018       -13.5246
  29   2.0000      -0.491436       -13.3727
  30   2.0000      -0.482303       -13.1241
  31   2.0000      -0.459676       -12.5084
  32   2.0000      -0.443337       -12.0638
  33   2.0000      -0.412349       -11.2206
  34   2.0000      -0.399209       -10.8630
  35   0.0000       0.128408         3.4942
  36   0.0000       0.149818         4.0767
  37   0.0000       0.160664         4.3719
  38   0.0000       0.168970         4.5979
  39   0.0000       0.192551         5.2396

MULLIKEN ATOMIC CHARGES
-----------------------
   0 C :   -0.432317
   1 C :   -0.024986
   2 C :   -0.252734
   3 C :    0.176889
   4 C :   -0.441370
   5 O :   -0.341886
   6 C :    0.022727
   7 C :   -0.021406
   8 C :   -0.459902
   9 H :    0.135532
  10 H :    0.134603
  11 H :    0.134449
  12 H :    0.092868
  13 H :    0.119409
  14 H :    0.111946
  15 H :    0.138805
  16 H :    0.142121
  17 H :    0.130324
  18 H :    0.126537
  19 H :    0.091923
  20 H :    0.151720
  21 H :    0.133626
  22 H :    0.131123
Sum of atomic charges:   -0.0000000

LOEWDIN ATOMIC CHARGES
----------------------
   0 C :   -0.298707
   1 C :   -0.234161
   2 C :   -0.189442
   3 C :   -0.313552
   4 C :   -0.270766
   5 O :    0.179711
   6 C :   -0.216519
   7 C :   -0.230776
   8 C :   -0.291539
   9 H :    0.125303
  10 H :    0.124664
  11 H :    0.123261
  12 H :    0.152728
  13 H :    0.139127
  14 H :    0.145543
  15 H :    0.131150
  16 H :    0.132768
  17 H :    0.130104
  18 H :    0.133784
  19 H :    0.152031
  20 H :    0.128481
  21 H :    0.121555
  22 H :    0.125252

  Mayer bond orders larger than 0.1
B(  0-C ,  1-C ) :   0.8976 B(  0-C ,  9-H ) :   0.9372 B(  0-C , 10-H ) :   0.9375
B(  0-C , 11-H ) :   0.9455 B(  1-C ,  2-C ) :   0.9618 B(  1-C ,  7-C ) :   0.9313
B(  1-C , 12-H ) :   0.9310 B(  2-C ,  3-C ) :   0.9079 B(  2-C , 13-H ) :   0.9264
B(  2-C , 14-H ) :   0.9003 B(  3-C ,  4-C ) :   0.8822 B(  3-C ,  5-O ) :   0.8911
B(  3-C ,  6-C ) :   0.9563 B(  4-C , 15-H ) :   0.9409 B(  4-C , 16-H ) :   0.9442
B(  4-C , 17-H ) :   0.9334 B(  5-O ,  6-C ) :   0.8623 B(  6-C ,  7-C ) :   0.8925
B(  6-C , 18-H ) :   0.9143 B(  7-C ,  8-C ) :   0.8677 B(  7-C , 19-H ) :   0.9233
B(  8-C , 20-H ) :   0.9398 B(  8-C , 21-H ) :   0.9388 B(  8-C , 22-H ) :   0.9364

MP2 TOTAL ENERGY:     -387.624019014 Eh
FINAL SINGLE POINT ENERGY      -387.624019013926

DIPOLE MOMENT
-------------
                                X             Y             Z
Electronic contribution:      2.39791      -4.43135      -0.11289
Nuclear contribution   :     -3.16371       4.39514       0.12521
                        -----------------------------------------
Total Dipole Moment    :     -0.76579      -0.03621       0.01232
                        -----------------------------------------
Magnitude (a.u.)       :      0.76675
Magnitude (Debye)      :      1.94892

                             ****ORCA TERMINATED NORMALLY****
TOTAL RUN TIME: 0 days 0 hours 21 minutes 0 seconds 461 msec
