                         Program Version 3.0.3 - RELEASE   -
|  1> ! RI-MP2 RIJK def2-TZVP def2-TZVP/C def2-TZVP/JK TIGHTSCF
|  2> % maxcore 2000
|  3> % mp2 density relaxed end
|  4> *xyz 0 1
|  5>  C       -0.1045772483     1.6119275712    -0.1032183543
|  6>  C       -0.1060343578     0.0832730319    -0.0822639647
|  7>  C        0.8135945049    -0.5315352911    -1.1638986573
|  8>  N        2.1934729429    -0.0969365141    -0.9798850760
|  9>  C        3.1285793784    -0.9416143883    -0.9288226749
| 10>  O        3.0849383813    -2.2943069375    -0.9853396798
| 11>  C        1.8032440509    -2.9111645365    -0.8481248326
| 12>  C        0.6114357639    -2.0390344118    -1.2229896787
| 13>  O       -0.4451978889    -2.5529334332    -1.5017383081
| 14>  H        0.9065701409     2.0018121824     0.0338864545
| 15>  H       -0.4853036568     1.9916825536    -1.0577119727
| 16>  H       -0.7416898712     2.0086744818     0.6929178417
| 17>  H        0.2224036164    -0.2784801213     0.9003821798
| 18>  H       -1.1144408322    -0.3074377591    -0.2491578459
| 19>  H        0.4746160116    -0.1416948929    -2.1347357457
| 20>  H        4.1640715071    -0.6182425564    -0.8398198690
| 21>  H        1.8001882427    -3.8130279042    -1.4637091586
| 22>  H        1.6702284942    -3.2167047247     0.2002433425
| 23> *
| 24>
| 25>                          ****END OF INPUT****

CARTESIAN COORDINATES (ANGSTROEM)
---------------------------------
  C     -0.104577    1.611928   -0.103218
  C     -0.106034    0.083273   -0.082264
  C      0.813595   -0.531535   -1.163899
  N      2.193473   -0.096937   -0.979885
  C      3.128579   -0.941614   -0.928823
  O      3.084938   -2.294307   -0.985340
  C      1.803244   -2.911165   -0.848125
  C      0.611436   -2.039034   -1.222990
  O     -0.445198   -2.552933   -1.501738
  H      0.906570    2.001812    0.033886
  H     -0.485304    1.991683   -1.057712
  H     -0.741690    2.008674    0.692918
  H      0.222404   -0.278480    0.900382
  H     -1.114441   -0.307438   -0.249158
  H      0.474616   -0.141695   -2.134736
  H      4.164072   -0.618243   -0.839820
  H      1.800188   -3.813028   -1.463709
  H      1.670228   -3.216705    0.200243

 Total Charge           Charge          ....    0
 Multiplicity           Mult            ....    1
 Number of Electrons    NEL             ....   68
 Basis Dimension        Dim             ....  333

ORBITAL ENERGIES
----------------

  NO   OCC          E(Eh)            E(eV)
   0   2.0000     -20.616442      -561.0019
   1   2.0000     -20.563442      -559.5597
   2   2.0000     -15.561562      -423.4516
   3   2.0000     -11.349334      -308.8311
   4   2.0000     -11.346968      -308.7667
   5   2.0000     -11.315165      -307.9013
   6   2.0000     -11.280430      -306.9561
   7   2.0000     -11.234734      -305.7127
   8   2.0000     -11.214385      -305.1589
   9   2.0000      -1.449906       -39.4540
  10   2.0000      -1.407024       -38.2871
  11   2.0000      -1.238503       -33.7014
  12   2.0000      -1.077734       -29.3266
  13   2.0000      -1.025997       -27.9188
  14   2.0000      -0.948907       -25.8211
  15   2.0000      -0.862679       -23.4747
  16   2.0000      -0.833016       -22.6675
  17   2.0000      -0.744893       -20.2696
  18   2.0000      -0.729744       -19.8573
  19   2.0000      -0.700143       -19.0518
  20   2.0000      -0.679378       -18.4868
  21   2.0000      -0.640882       -17.4393
  22   2.0000      -0.613021       -16.6812
  23   2.0000      -0.600186       -16.3319
  24   2.0000      -0.590762       -16.0754
  25   2.0000      -0.567479       -15.4419
  26   2.0000      -0.553518       -15.0620
  27   2.0000      -0.530325       -14.4309
  28   2.0000      -0.507382       -13.8066
  29   2.0000      -0.502283       -13.6678
  30   2.0000      -0.484123       -13.1737
  31   2.0000      -0.465977       -12.6799
  32   2.0000      -0.405167       -11.0252
  33   2.0000      -0.396102       -10.7785
  34   0.0000       0.116771         3.1775
  35   0.0000       0.131386         3.5752
  36   0.0000       0.142307         3.8724
  37   0.0000       0.166309         4.5255
  38   0.0000       0.177388         4.8270

MULLIKEN ATOMIC CHARGES
-----------------------
   0 C :   -0.388411
   1 C :   -0.204347
   2 C :    0.038674
   3 N :   -0.272369
   4 C :    0.085015
   5 O :   -0.256610
   6 C :   -0.052869
   7 C :    0.127483
   8 O :   -0.272273
   9 H :    0.147337
  10 H :    0.120540
  11 H :    0.134242
  12 H :    0.101501
  13 H :    0.134733
  14 H :    0.124369
  15 H :    0.142269
  16 H :    0.154475
  17 H :    0.136243
Sum of atomic charges:    0.0000000

LOEWDIN ATOMIC CHARGES
----------------------
   0 C :   -0.314958
   1 C :   -0.258279
   2 C :   -0.263901
   3 N :    0.099851
   4 C :   -0.356658
   5 O :    0.223557
   6 C :   -0.246292
   7 C :   -0.308336
   8 O :    0.169080
   9 H :    0.126719
  10 H :    0.122266
  11 H :    0.122209
  12 H :    0.137965
  13 H :    0.145175
  14 H :    0.170578
  15 H :    0.136863
  16 H :    0.147117
  17 H :    0.147043

  Mayer bond orders larger than 0.1
B(  0-C ,  1-C ) :   0.9252 B(  0-C ,  9-H ) :   0.9344 B(  0-C , 10-H ) :   0.9363
B(  0-C , 11-H ) :   0.9382 B(  1-C ,  2-C ) :   0.9154 B(  1-C , 12-H ) :   0.9168
B(  1-C , 13-H ) :   0.9332 B(  2-C ,  3-N ) :   0.8912 B(  2-C ,  7-C ) :   0.8851
B(  2-C , 14-H ) :   0.8939 B(  3-N ,  4-C ) :   1.8451 B(  4-C ,  5-O ) :   1.0572
B(  4-C , 15-H ) :   0.9252 B(  5-O ,  6-C ) :   0.8684 B(  6-C ,  7-C ) :   0.9273
B(  6-C , 16-H ) :   0.9205 B(  6-C , 17-H ) :   0.9132 B(  7-C ,  8-O ) :   1.9958

MP2 TOTAL ENERGY:     -438.382801117 Eh
FINAL SINGLE POINT ENERGY      -438.382801116820

DIPOLE MOMENT
-------------
                                X             Y             Z
Electronic contribution:      4.06844      -7.01652      -3.27740
Nuclear contribution   :     -3.73037       6.90984       3.59811
                        -----------------------------------------
Total Dipole Moment    :      0.33807      -0.10668       0.32070
                        -----------------------------------------
Magnitude (a.u.)       :      0.47804
Magnitude (Debye)      :      1.21508

                             ****ORCA TERMINATED NORMALLY****
TOTAL RUN TIME: 0 days 0 hours 27 minutes 46 seconds 392 msec
