                         Program Version 3.0.3 - RELEASE   -
|  1> ! RI-MP2 RIJK def2-TZVP def2-TZVP/C def2-TZVP/JK TIGHTSCF
|  2> % maxcore 2000
|  3> % mp2 density relaxed end
|  4> *xyz 0 1
|  5>  C        0.0935003202     1.4413178593     0.4623378766
|  6>  C       -0.0517672368    -0.0591871681     0.2016234272
|  7>  C       -1.4504244879    -0.4489335910    -0.2804483841
|  8>  C       -1.6785296663    -1.9597022930    -0.3780430248
|  9>  O       -2.1383142028    -2.3037814035     0.9290228057
| 10>  C       -2.7990866410    -1.1730087934     1.4577047894
| 11>  O       -2.4632579519    -0.0562125008     0.6618174144
| 12>  C       -4.3150154596    -1.3739447245     1.3711812438
| 13>  O       -5.0510251220    -1.3490141635     2.3192490837
| 14>  H        1.0959124575     1.6807784429     0.8283415800
| 15>  H       -0.0753528269     2.0198002557    -0.4528537620
| 16>  H       -0.6333602581     1.7758461790     1.2068977991
| 17>  H        0.6695761161    -0.3813970295    -0.5606400876
| 18>  H        0.1773889247    -0.6289765340     1.1106873443
| 19>  H       -1.6833822857     0.0621772884    -1.2208204498
| 20>  H       -2.4292532852    -2.2083935040    -1.1396125448
| 21>  H       -0.7675480018    -2.5302969883    -0.5738987006
| 22>  H       -2.5017088277    -1.0410993797     2.5062310963
| 23>  H       -4.6762892948    -1.5565446521     0.3340550330
| 24> *
| 25>
| 26>                          ****END OF INPUT****

CARTESIAN COORDINATES (ANGSTROEM)
---------------------------------
  C      0.093500    1.441318    0.462338
  C     -0.051767   -0.059187    0.201623
  C     -1.450424   -0.448934   -0.280448
  C     -1.678530   -1.959702   -0.378043
  O     -2.138314   -2.303781    0.929023
  C     -2.799087   -1.173009    1.457705
  O     -2.463258   -0.056213    0.661817
  C     -4.315015   -1.373945    1.371181
  O     -5.051025   -1.349014    2.319249
  H      1.095912    1.680778    0.828342
  H     -0.075353    2.019800   -0.452854
  H     -0.633360    1.775846    1.206898
  H      0.669576   -0.381397   -0.560640
  H      0.177389   -0.628977    1.110687
  H     -1.683382    0.062177   -1.220820
  H     -2.429253   -2.208394   -1.139613
  H     -0.767548   -2.530297   -0.573899
  H     -2.501709   -1.041099    2.506231
  H     -4.676289   -1.556545    0.334055

 Total Charge           Charge          ....    0
 Multiplicity           Mult            ....    1
 Number of Electrons    NEL             ....   70
 Basis Dimension        Dim             ....  339

ORBITAL ENERGIES
----------------

  NO   OCC          E(Eh)            E(eV)
   0   2.0000     -20.587715      -560.2202
   1   2.0000     -20.583840      -560.1148
   2   2.0000     -20.568690      -559.7025
   3   2.0000     -11.352679      -308.9221
   4   2.0000     -11.334930      -308.4391
   5   2.0000     -11.302737      -307.5631
   6   2.0000     -11.299831      -307.4840
   7   2.0000     -11.237216      -305.7802
   8   2.0000     -11.221968      -305.3653
   9   2.0000      -1.461209       -39.7615
  10   2.0000      -1.404639       -38.2222
  11   2.0000      -1.353389       -36.8276
  12   2.0000      -1.092634       -29.7321
  13   2.0000      -1.017055       -27.6755
  14   2.0000      -0.929943       -25.3050
  15   2.0000      -0.887651       -24.1542
  16   2.0000      -0.826852       -22.4998
  17   2.0000      -0.805978       -21.9318
  18   2.0000      -0.732555       -19.9338
  19   2.0000      -0.707009       -19.2387
  20   2.0000      -0.665449       -18.1078
  21   2.0000      -0.658028       -17.9058
  22   2.0000      -0.641008       -17.4427
  23   2.0000      -0.620523       -16.8853
  24   2.0000      -0.592677       -16.1276
  25   2.0000      -0.584969       -15.9178
  26   2.0000      -0.550157       -14.9705
  27   2.0000      -0.539952       -14.6929
  28   2.0000      -0.533737       -14.5237
  29   2.0000      -0.523663       -14.2496
  30   2.0000      -0.499853       -13.6017
  31   2.0000      -0.494703       -13.4615
  32   2.0000      -0.481208       -13.0943
  33   2.0000      -0.449914       -12.2428
  34   2.0000      -0.407606       -11.0915
  35   0.0000       0.126802         3.4504
  36   0.0000       0.130066         3.5393
  37   0.0000       0.143862         3.9147
  38   0.0000       0.161844         4.4040
  39   0.0000       0.175702         4.7811

MULLIKEN ATOMIC CHARGES
-----------------------
   0 C :   -0.393103
   1 C :   -0.251550
   2 C :    0.079460
   3 C :   -0.050806
   4 O :   -0.329307
   5 C :    0.274932
   6 O :   -0.331403
   7 C :    0.075749
   8 O :   -0.245027
   9 H :    0.136398
  10 H :    0.120085
  11 H :    0.145475
  12 H :    0.111664
  13 H :    0.128723
  14 H :    0.109160
  15 H :    0.111710
  16 H :    0.128452
  17 H :    0.102294
  18 H :    0.077097
Sum of atomic charges:   -0.0000000

LOEWDIN ATOMIC CHARGES
----------------------
   0 C :   -0.315620
   1 C :   -0.277114
   2 C :   -0.307099
   3 C :   -0.278033
   4 O :    0.180280
   5 C :   -0.388862
   6 O :    0.199499
   7 C :   -0.269708
   8 O :    0.150855
   9 H :    0.122410
  10 H :    0.121669
  11 H :    0.126522
  12 H :    0.140798
  13 H :    0.143731
  14 H :    0.146429
  15 H :    0.122801
  16 H :    0.134949
  17 H :    0.134659
  18 H :    0.111835

  Mayer bond orders larger than 0.1
B(  0-C ,  1-C ) :   0.9247 B(  0-C ,  9-H ) :   0.9393 B(  0-C , 10-H ) :   0.9357
B(  0-C , 11-H ) :   0.9367 B(  1-C ,  2-C ) :   0.9357 B(  1-C , 12-H ) :   0.9267
B(  1-C , 13-H ) :   0.9246 B(  2-C ,  3-C ) :   0.9228 B(  2-C ,  6-O ) :   0.8745
B(  2-C , 14-H ) :   0.9161 B(  3-C ,  4-O ) :   0.9177 B(  3-C , 15-H ) :   0.9273
B(  3-C , 16-H ) :   0.9194 B(  4-O ,  5-C ) :   0.8901 B(  5-C ,  6-O ) :   0.9393
B(  5-C ,  7-C ) :   0.8499 B(  5-C , 17-H ) :   0.9003 B(  7-C ,  8-O ) :   1.9977
B(  7-C , 18-H ) :   0.9310

MP2 TOTAL ENERGY:     -459.431900314 Eh
FINAL SINGLE POINT ENERGY      -459.431900313880

DIPOLE MOMENT
-------------
                                X             Y             Z
Electronic contribution:     -9.47681      -4.86545       4.04013
Nuclear contribution   :     10.55260       4.92235      -5.17534
                        -----------------------------------------
Total Dipole Moment    :      1.07579       0.05690      -1.13521
                        -----------------------------------------
Magnitude (a.u.)       :      1.56501
Magnitude (Debye)      :      3.97795

                             ****ORCA TERMINATED NORMALLY****
TOTAL RUN TIME: 0 days 0 hours 28 minutes 19 seconds 620 msec
