                         Program Version 3.0.3 - RELEASE   -
|  1> ! RI-MP2 RIJK def2-TZVP def2-TZVP/C def2-TZVP/JK TIGHTSCF
|  2> % maxcore 2000
|  3> % mp2 density relaxed end
|  4> *xyz 0 1
|  5>  C       -0.0101125719     1.5301681610     0.0229919156
|  6>  C       -0.0484195702    -0.0028693827    -0.0332705279
|  7>  C       -1.4400914657    -0.5545635974     0.0657545537
|  8>  N       -2.5534404697    -0.2343104980    -0.9533072693
|  9>  C       -3.2394031389    -1.1830111693     0.0276505835
| 10>  C       -1.9381213436    -2.0409257404    -0.0184750240
| 11>  C       -1.6322424789    -2.8401457367    -1.2755330425
| 12>  C       -2.5531124481    -0.3369007492     1.1184767234
| 13>  O       -2.7929228280     0.3045829437     2.0969687496
| 14>  H        1.0202302738     1.8951566457    -0.0079122349
| 15>  H       -0.5421235340     1.9687971113    -0.8275687730
| 16>  H       -0.4758027292     1.8978940090     0.9420830854
| 17>  H        0.4172231349    -0.3623308736    -0.9590103259
| 18>  H        0.5370180949    -0.4212934171     0.7950385527
| 19>  H       -2.8979636339     0.7227110171    -0.8351950956
| 20>  H       -4.2733588890    -1.4952118046    -0.1061556615
| 21>  H       -1.7532987661    -2.6226892959     0.8893167817
| 22>  H       -1.8310300530    -2.2561889107    -2.1750816288
| 23>  H       -0.5816434095    -3.1499757554    -1.2851287911
| 24>  H       -2.2415701538    -3.7493506068    -1.3071490212
| 25> *
| 26>
| 27>                          ****END OF INPUT****

CARTESIAN COORDINATES (ANGSTROEM)
---------------------------------
  C     -0.010113    1.530168    0.022992
  C     -0.048420   -0.002869   -0.033271
  C     -1.440091   -0.554564    0.065755
  N     -2.553440   -0.234310   -0.953307
  C     -3.239403   -1.183011    0.027651
  C     -1.938121   -2.040926   -0.018475
  C     -1.632242   -2.840146   -1.275533
  C     -2.553112   -0.336901    1.118477
  O     -2.792923    0.304583    2.096969
  H      1.020230    1.895157   -0.007912
  H     -0.542124    1.968797   -0.827569
  H     -0.475803    1.897894    0.942083
  H      0.417223   -0.362331   -0.959010
  H      0.537018   -0.421293    0.795039
  H     -2.897964    0.722711   -0.835195
  H     -4.273359   -1.495212   -0.106156
  H     -1.753299   -2.622689    0.889317
  H     -1.831030   -2.256189   -2.175082
  H     -0.581643   -3.149976   -1.285129
  H     -2.241570   -3.749351   -1.307149

 Total Charge           Charge          ....    0
 Multiplicity           Mult            ....    1
 Number of Electrons    NEL             ....   68
 Basis Dimension        Dim             ....  345

ORBITAL ENERGIES
----------------

  NO   OCC          E(Eh)            E(eV)
   0   2.0000     -20.555129      -559.3335
   1   2.0000     -15.578498      -423.9125
   2   2.0000     -11.341307      -308.6126
   3   2.0000     -11.290764      -307.2373
   4   2.0000     -11.287118      -307.1381
   5   2.0000     -11.258239      -306.3523
   6   2.0000     -11.238697      -305.8205
   7   2.0000     -11.222876      -305.3900
   8   2.0000     -11.221888      -305.3631
   9   2.0000      -1.402659       -38.1683
  10   2.0000      -1.295815       -35.2609
  11   2.0000      -1.057425       -28.7740
  12   2.0000      -1.041352       -28.3366
  13   2.0000      -0.966687       -26.3049
  14   2.0000      -0.910427       -24.7740
  15   2.0000      -0.830182       -22.5904
  16   2.0000      -0.811401       -22.0793
  17   2.0000      -0.731070       -19.8934
  18   2.0000      -0.674222       -18.3465
  19   2.0000      -0.661449       -17.9990
  20   2.0000      -0.635335       -17.2884
  21   2.0000      -0.601549       -16.3690
  22   2.0000      -0.589179       -16.0324
  23   2.0000      -0.580765       -15.8034
  24   2.0000      -0.554467       -15.0878
  25   2.0000      -0.549212       -14.9448
  26   2.0000      -0.534311       -14.5394
  27   2.0000      -0.513498       -13.9730
  28   2.0000      -0.506631       -13.7861
  29   2.0000      -0.488646       -13.2967
  30   2.0000      -0.473976       -12.8976
  31   2.0000      -0.446555       -12.1514
  32   2.0000      -0.410685       -11.1753
  33   2.0000      -0.390105       -10.6153
  34   0.0000       0.129107         3.5132
  35   0.0000       0.145627         3.9627
  36   0.0000       0.150527         4.0961
  37   0.0000       0.160606         4.3703
  38   0.0000       0.183254         4.9866

MULLIKEN ATOMIC CHARGES
-----------------------
   0 C :   -0.426295
   1 C :   -0.218846
   2 C :   -0.033445
   3 N :   -0.313356
   4 C :   -0.089803
   5 C :   -0.000009
   6 C :   -0.457805
   7 C :    0.202577
   8 O :   -0.262295
   9 H :    0.139221
  10 H :    0.129771
  11 H :    0.154398
  12 H :    0.131450
  13 H :    0.121653
  14 H :    0.215763
  15 H :    0.151908
  16 H :    0.118759
  17 H :    0.166940
  18 H :    0.132670
  19 H :    0.136746
Sum of atomic charges:   -0.0000000

LOEWDIN ATOMIC CHARGES
----------------------
   0 C :   -0.307645
   1 C :   -0.256010
   2 C :   -0.208795
   3 N :    0.059837
   4 C :   -0.170864
   5 C :   -0.186505
   6 C :   -0.294445
   7 C :   -0.287490
   8 O :    0.149440
   9 H :    0.123427
  10 H :    0.122268
  11 H :    0.129132
  12 H :    0.147166
  13 H :    0.150810
  14 H :    0.164217
  15 H :    0.128117
  16 H :    0.150302
  17 H :    0.133845
  18 H :    0.126178
  19 H :    0.127015

  Mayer bond orders larger than 0.1
B(  0-C ,  1-C ) :   0.9176 B(  0-C ,  9-H ) :   0.9377 B(  0-C , 10-H ) :   0.9380
B(  0-C , 11-H ) :   0.9353 B(  1-C ,  2-C ) :   0.8705 B(  1-C , 12-H ) :   0.9413
B(  1-C , 13-H ) :   0.9254 B(  2-C ,  3-N ) :   0.9101 B(  2-C ,  5-C ) :   0.8109
B(  2-C ,  7-C ) :   0.8824 B(  3-N ,  4-C ) :   0.9347 B(  3-N , 14-H ) :   0.8861
B(  4-C ,  5-C ) :   0.8732 B(  4-C ,  7-C ) :   0.9152 B(  4-C , 15-H ) :   0.8786
B(  5-C ,  6-C ) :   0.8852 B(  5-C , 16-H ) :   0.9151 B(  6-C , 17-H ) :   0.9373
B(  6-C , 18-H ) :   0.9350 B(  6-C , 19-H ) :   0.9356 B(  7-C ,  8-O ) :   2.0509

MP2 TOTAL ENERGY:     -402.414715781 Eh
FINAL SINGLE POINT ENERGY      -402.414715781234

DIPOLE MOMENT
-------------
                                X             Y             Z
Electronic contribution:     -6.20982       0.82398       5.19738
Nuclear contribution   :      6.57656      -1.21599      -5.72013
                        -----------------------------------------
Total Dipole Moment    :      0.36675      -0.39201      -0.52275
                        -----------------------------------------
Magnitude (a.u.)       :      0.74930
Magnitude (Debye)      :      1.90456

                             ****ORCA TERMINATED NORMALLY****
TOTAL RUN TIME: 0 days 0 hours 20 minutes 49 seconds 986 msec
