                         Program Version 3.0.3 - RELEASE   -
|  1> ! RI-MP2 RIJK def2-TZVP def2-TZVP/C def2-TZVP/JK TIGHTSCF
|  2> % maxcore 2000
|  3> % mp2 density relaxed end
|  4> *xyz 0 1
|  5>  O        0.2584659784     1.2256232780     0.1425714712
|  6>  C        0.1890555135    -0.1488407292     0.0731126226
|  7>  C        0.5102060967    -1.1307551160    -1.0877465744
|  8>  N       -0.0527135889    -2.0549243259     0.0041062927
|  9>  C        0.8267929612    -1.2435709714     0.9701493949
| 10>  C       -1.1188517368    -0.9545633001     0.1875639446
| 11>  C       -1.9737422452    -1.0207619281     1.4561427426
| 12>  C       -3.0046421639     0.0153950721     1.4610647679
| 13>  N       -3.8233154983     0.8304405232     1.4546349036
| 14>  H        1.1755329003     1.5036301157     0.0400134226
| 15>  H       -0.1066180578    -1.0886679381    -1.9884060939
| 16>  H        1.5585810201    -1.3332582080    -1.3184448676
| 17>  H        1.8933089476    -1.4469971994     0.8459552771
| 18>  H        0.5419739385    -1.3193179841     2.0196828510
| 19>  H       -1.7784402471    -0.8969678834    -0.6830440892
| 20>  H       -2.4630491560    -2.0015666496     1.4938073173
| 21>  H       -1.3848916724    -0.9238318657     2.3715746970
| 22> *
| 23>
| 24>                          ****END OF INPUT****

CARTESIAN COORDINATES (ANGSTROEM)
---------------------------------
  O      0.258466    1.225623    0.142571
  C      0.189056   -0.148841    0.073113
  C      0.510206   -1.130755   -1.087747
  N     -0.052714   -2.054924    0.004106
  C      0.826793   -1.243571    0.970149
  C     -1.118852   -0.954563    0.187564
  C     -1.973742   -1.020762    1.456143
  C     -3.004642    0.015395    1.461065
  N     -3.823315    0.830441    1.454635
  H      1.175533    1.503630    0.040013
  H     -0.106618   -1.088668   -1.988406
  H      1.558581   -1.333258   -1.318445
  H      1.893309   -1.446997    0.845955
  H      0.541974   -1.319318    2.019683
  H     -1.778440   -0.896968   -0.683044
  H     -2.463049   -2.001567    1.493807
  H     -1.384892   -0.923832    2.371575

 Total Charge           Charge          ....    0
 Multiplicity           Mult            ....    1
 Number of Electrons    NEL             ....   66
 Basis Dimension        Dim             ....  327

ORBITAL ENERGIES
----------------

  NO   OCC          E(Eh)            E(eV)
   0   2.0000     -20.587475      -560.2137
   1   2.0000     -15.594589      -424.3503
   2   2.0000     -15.567848      -423.6227
   3   2.0000     -11.327118      -308.2266
   4   2.0000     -11.294262      -307.3325
   5   2.0000     -11.286571      -307.1232
   6   2.0000     -11.278999      -306.9172
   7   2.0000     -11.278522      -306.9042
   8   2.0000     -11.272799      -306.7485
   9   2.0000      -1.404279       -38.2124
  10   2.0000      -1.314031       -35.7566
  11   2.0000      -1.217453       -33.1286
  12   2.0000      -1.072061       -29.1723
  13   2.0000      -0.950775       -25.8719
  14   2.0000      -0.929861       -25.3028
  15   2.0000      -0.912262       -24.8239
  16   2.0000      -0.776510       -21.1299
  17   2.0000      -0.734468       -19.9859
  18   2.0000      -0.711050       -19.3486
  19   2.0000      -0.676796       -18.4166
  20   2.0000      -0.652956       -17.7678
  21   2.0000      -0.626035       -17.0353
  22   2.0000      -0.610500       -16.6126
  23   2.0000      -0.592371       -16.1192
  24   2.0000      -0.555372       -15.1124
  25   2.0000      -0.537417       -14.6239
  26   2.0000      -0.508867       -13.8470
  27   2.0000      -0.501435       -13.6447
  28   2.0000      -0.481611       -13.1053
  29   2.0000      -0.456730       -12.4282
  30   2.0000      -0.453631       -12.3439
  31   2.0000      -0.440562       -11.9883
  32   2.0000      -0.413043       -11.2395
  33   0.0000       0.118108         3.2139
  34   0.0000       0.135657         3.6914
  35   0.0000       0.152465         4.1488
  36   0.0000       0.158177         4.3042
  37   0.0000       0.176284         4.7969

MULLIKEN ATOMIC CHARGES
-----------------------
   0 O :   -0.436693
   1 C :    0.107301
   2 C :   -0.156107
   3 N :   -0.199350
   4 C :   -0.187846
   5 C :   -0.014322
   6 C :   -0.118021
   7 C :   -0.195834
   8 N :   -0.058322
   9 H :    0.327227
  10 H :    0.124968
  11 H :    0.125083
  12 H :    0.123664
  13 H :    0.119895
  14 H :    0.118148
  15 H :    0.171362
  16 H :    0.148849
Sum of atomic charges:    0.0000000

LOEWDIN ATOMIC CHARGES
----------------------
   0 O :    0.032069
   1 C :   -0.365868
   2 C :   -0.209505
   3 N :    0.116876
   4 C :   -0.211901
   5 C :   -0.193788
   6 C :   -0.220341
   7 C :   -0.188050
   8 N :    0.061494
   9 H :    0.184808
  10 H :    0.128051
  11 H :    0.125615
  12 H :    0.126040
  13 H :    0.121405
  14 H :    0.154729
  15 H :    0.173825
  16 H :    0.164542

  Mayer bond orders larger than 0.1
B(  0-O ,  1-C ) :   1.0332 B(  0-O ,  9-H ) :   0.8301 B(  1-C ,  2-C ) :   0.9145
B(  1-C ,  4-C ) :   0.9035 B(  1-C ,  5-C ) :   0.9382 B(  2-C ,  3-N ) :   0.9081
B(  2-C , 10-H ) :   0.9237 B(  2-C , 11-H ) :   0.9211 B(  3-N ,  4-C ) :   0.9006
B(  3-N ,  5-C ) :   0.9180 B(  4-C , 12-H ) :   0.9235 B(  4-C , 13-H ) :   0.9280
B(  5-C ,  6-C ) :   0.9036 B(  5-C , 14-H ) :   0.9218 B(  6-C ,  7-C ) :   0.9315
B(  6-C , 15-H ) :   0.9058 B(  6-C , 16-H ) :   0.9015 B(  7-C ,  8-N ) :   2.8679

MP2 TOTAL ENERGY:     -417.243410129 Eh
FINAL SINGLE POINT ENERGY      -417.243410128689

DIPOLE MOMENT
-------------
                                X             Y             Z
Electronic contribution:     -4.07550       2.86828       1.00310
Nuclear contribution   :      5.86177      -3.45488      -1.15856
                        -----------------------------------------
Total Dipole Moment    :      1.78627      -0.58660      -0.15545
                        -----------------------------------------
Magnitude (a.u.)       :      1.88654
Magnitude (Debye)      :      4.79520

                             ****ORCA TERMINATED NORMALLY****
TOTAL RUN TIME: 0 days 0 hours 16 minutes 52 seconds 79 msec
