                         Program Version 3.0.3 - RELEASE   -
|  1> ! RI-MP2 RIJK def2-TZVP def2-TZVP/C def2-TZVP/JK TIGHTSCF
|  2> % maxcore 2000
|  3> % mp2 density relaxed end
|  4> *xyz 0 1
|  5>  C       -0.4462723771     1.4040576271     0.0108532515
|  6>  C       -0.0258451988    -0.0440328456     0.0207062412
|  7>  C       -0.3039812735    -0.9425786857     1.2241772745
|  8>  C        1.1108247943    -0.6086094206     0.8330282493
|  9>  O        1.8405519138    -1.5584606307     0.0978417531
| 10>  C        1.0727774993    -1.9252885408    -1.0465485958
| 11>  C        0.0855078798    -0.7849728805    -1.2887802722
| 12>  C       -0.9144163970    -0.7963557092    -2.3572217372
| 13>  O        0.2669694131     0.0097038331    -2.4668455006
| 14>  H        0.1417988208     1.9758672814    -0.7112976584
| 15>  H       -1.5042162433     1.5107701151    -0.2569893091
| 16>  H       -0.3140573871     1.8518097236     1.0003273187
| 17>  H       -0.7060720476    -0.4495516421     2.1031654257
| 18>  H       -0.6713334106    -1.9520951801     1.0721428543
| 19>  H        1.7485055742    -0.0115656755     1.4742924306
| 20>  H        1.7446535433    -2.0571981018    -1.8987843210
| 21>  H        0.5442613768    -2.8723025020    -0.8658741820
| 22>  H       -0.9679378778    -1.6409010979    -3.0443385614
| 23>  H       -1.8461457527    -0.2460056879    -2.2332100912
| 24> *
| 25>
| 26>                          ****END OF INPUT****

CARTESIAN COORDINATES (ANGSTROEM)
---------------------------------
  C     -0.446272    1.404058    0.010853
  C     -0.025845   -0.044033    0.020706
  C     -0.303981   -0.942579    1.224177
  C      1.110825   -0.608609    0.833028
  O      1.840552   -1.558461    0.097842
  C      1.072777   -1.925289   -1.046549
  C      0.085508   -0.784973   -1.288780
  C     -0.914416   -0.796356   -2.357222
  O      0.266969    0.009704   -2.466846
  H      0.141799    1.975867   -0.711298
  H     -1.504216    1.510770   -0.256989
  H     -0.314057    1.851810    1.000327
  H     -0.706072   -0.449552    2.103165
  H     -0.671333   -1.952095    1.072143
  H      1.748506   -0.011566    1.474292
  H      1.744654   -2.057198   -1.898784
  H      0.544261   -2.872303   -0.865874
  H     -0.967938   -1.640901   -3.044339
  H     -1.846146   -0.246006   -2.233210

 Total Charge           Charge          ....    0
 Multiplicity           Mult            ....    1
 Number of Electrons    NEL             ....   68
 Basis Dimension        Dim             ....  339

ORBITAL ENERGIES
----------------

  NO   OCC          E(Eh)            E(eV)
   0   2.0000     -20.569210      -559.7167
   1   2.0000     -20.562591      -559.5366
   2   2.0000     -11.298722      -307.4539
   3   2.0000     -11.287190      -307.1401
   4   2.0000     -11.286179      -307.1126
   5   2.0000     -11.283192      -307.0313
   6   2.0000     -11.245811      -306.0141
   7   2.0000     -11.233189      -305.6706
   8   2.0000     -11.223358      -305.4031
   9   2.0000      -1.417802       -38.5803
  10   2.0000      -1.388049       -37.7707
  11   2.0000      -1.148902       -31.2632
  12   2.0000      -1.007345       -27.4112
  13   2.0000      -0.968223       -26.3467
  14   2.0000      -0.913113       -24.8471
  15   2.0000      -0.866591       -23.5811
  16   2.0000      -0.799493       -21.7553
  17   2.0000      -0.757561       -20.6143
  18   2.0000      -0.699342       -19.0301
  19   2.0000      -0.677834       -18.4448
  20   2.0000      -0.658958       -17.9312
  21   2.0000      -0.630763       -17.1639
  22   2.0000      -0.591052       -16.0833
  23   2.0000      -0.583900       -15.8887
  24   2.0000      -0.573315       -15.6007
  25   2.0000      -0.560636       -15.2557
  26   2.0000      -0.549905       -14.9637
  27   2.0000      -0.534783       -14.5522
  28   2.0000      -0.497134       -13.5277
  29   2.0000      -0.489042       -13.3075
  30   2.0000      -0.460318       -12.5259
  31   2.0000      -0.445112       -12.1121
  32   2.0000      -0.402396       -10.9497
  33   2.0000      -0.373071       -10.1518
  34   0.0000       0.139558         3.7976
  35   0.0000       0.153937         4.1888
  36   0.0000       0.165927         4.5151
  37   0.0000       0.179503         4.8845
  38   0.0000       0.189455         5.1553

MULLIKEN ATOMIC CHARGES
-----------------------
   0 C :   -0.422786
   1 C :    0.072833
   2 C :   -0.304017
   3 C :    0.031920
   4 O :   -0.311729
   5 C :   -0.035235
   6 C :    0.102403
   7 C :   -0.089910
   8 O :   -0.335766
   9 H :    0.159051
  10 H :    0.127555
  11 H :    0.131200
  12 H :    0.131295
  13 H :    0.137685
  14 H :    0.131154
  15 H :    0.127555
  16 H :    0.107797
  17 H :    0.120153
  18 H :    0.118844
Sum of atomic charges:   -0.0000000

LOEWDIN ATOMIC CHARGES
----------------------
   0 C :   -0.260659
   1 C :   -0.218426
   2 C :   -0.182404
   3 C :   -0.252419
   4 O :    0.183853
   5 C :   -0.244783
   6 C :   -0.282591
   7 C :   -0.235001
   8 O :    0.167885
   9 H :    0.135871
  10 H :    0.128227
  11 H :    0.130215
  12 H :    0.139508
  13 H :    0.138636
  14 H :    0.140874
  15 H :    0.137872
  16 H :    0.127114
  17 H :    0.122870
  18 H :    0.123359

  Mayer bond orders larger than 0.1
B(  0-C ,  1-C ) :   0.9044 B(  0-C ,  9-H ) :   0.9343 B(  0-C , 10-H ) :   0.9345
B(  0-C , 11-H ) :   0.9343 B(  1-C ,  2-C ) :   0.8541 B(  1-C ,  3-C ) :   0.8702
B(  1-C ,  6-C ) :   0.9198 B(  2-C ,  3-C ) :   0.8733 B(  2-C , 12-H ) :   0.9148
B(  2-C , 13-H ) :   0.9053 B(  3-C ,  4-O ) :   0.9770 B(  3-C , 14-H ) :   0.9343
B(  4-O ,  5-C ) :   0.9330 B(  5-C ,  6-C ) :   0.9388 B(  5-C , 15-H ) :   0.9082
B(  5-C , 16-H ) :   0.9282 B(  6-C ,  7-C ) :   0.9854 B(  6-C ,  8-O ) :   0.8795
B(  7-C ,  8-O ) :   0.8894 B(  7-C , 17-H ) :   0.9186 B(  7-C , 18-H ) :   0.9015

MP2 TOTAL ENERGY:     -422.282974509 Eh
FINAL SINGLE POINT ENERGY      -422.282974509468

DIPOLE MOMENT
-------------
                                X             Y             Z
Electronic contribution:      3.71580      -1.92952      -1.98790
Nuclear contribution   :     -4.58242       1.78096       2.22548
                        -----------------------------------------
Total Dipole Moment    :     -0.86662      -0.14855       0.23758
                        -----------------------------------------
Magnitude (a.u.)       :      0.91079
Magnitude (Debye)      :      2.31505

                             ****ORCA TERMINATED NORMALLY****
TOTAL RUN TIME: 0 days 0 hours 17 minutes 22 seconds 574 msec
