                         Program Version 3.0.3 - RELEASE   -
|  1> ! RI-MP2 RIJK def2-TZVP def2-TZVP/C def2-TZVP/JK TIGHTSCF
|  2> % maxcore 2000
|  3> % mp2 density relaxed end
|  4> *xyz 0 1
|  5>  C        0.2704577522     1.3965112420     0.5270792891
|  6>  O        1.4662496669     1.4807502298    -0.2784215053
|  7>  C        1.3456574891     0.1089757547    -0.7065426023
|  8>  C        2.3520754097    -0.8444817846    -0.0860083466
|  9>  N        2.8354596161    -0.5298918102     1.2633801088
| 10>  C        1.9528963096    -1.6894926686     1.0873620811
| 11>  C        0.5544428319    -1.5381002506     1.6831126907
| 12>  N       -0.4820375888    -1.0667624205     0.7536506671
| 13>  C       -0.0929977707     0.0313484009    -0.0987425810
| 14>  H        0.5062507770     1.3601786040     1.5969777557
| 15>  H       -0.4188919241     2.2260053156     0.3345877810
| 16>  H        1.4003297643     0.0301409016    -1.7991955407
| 17>  H        3.0677060349    -1.2811728833    -0.7791910346
| 18>  H        3.8055140015    -0.8156641496     1.3601502994
| 19>  H        2.3973731325    -2.6807107228     1.1494815931
| 20>  H        0.2141929879    -2.4958885871     2.0875110729
| 21>  H        0.6164665594    -0.8398448240     2.5245831472
| 22>  H       -0.7929723918    -1.8396126266     0.1756368139
| 23>  H       -0.8532982076     0.1397356591    -0.8751890494
| 24> *
| 25>
| 26>                          ****END OF INPUT****

CARTESIAN COORDINATES (ANGSTROEM)
---------------------------------
  C      0.270458    1.396511    0.527079
  O      1.466250    1.480750   -0.278422
  C      1.345657    0.108976   -0.706543
  C      2.352075   -0.844482   -0.086008
  N      2.835460   -0.529892    1.263380
  C      1.952896   -1.689493    1.087362
  C      0.554443   -1.538100    1.683113
  N     -0.482038   -1.066762    0.753651
  C     -0.092998    0.031348   -0.098743
  H      0.506251    1.360179    1.596978
  H     -0.418892    2.226005    0.334588
  H      1.400330    0.030141   -1.799196
  H      3.067706   -1.281173   -0.779191
  H      3.805514   -0.815664    1.360150
  H      2.397373   -2.680711    1.149482
  H      0.214193   -2.495889    2.087511
  H      0.616467   -0.839845    2.524583
  H     -0.792972   -1.839613    0.175637
  H     -0.853298    0.139736   -0.875189

 Total Charge           Charge          ....    0
 Multiplicity           Mult            ....    1
 Number of Electrons    NEL             ....   68
 Basis Dimension        Dim             ....  339

ORBITAL ENERGIES
----------------

  NO   OCC          E(Eh)            E(eV)
   0   2.0000     -20.537947      -558.8659
   1   2.0000     -15.559094      -423.3845
   2   2.0000     -15.550225      -423.1431
   3   2.0000     -11.276792      -306.8571
   4   2.0000     -11.265468      -306.5490
   5   2.0000     -11.262243      -306.4612
   6   2.0000     -11.260906      -306.4248
   7   2.0000     -11.257697      -306.3375
   8   2.0000     -11.253766      -306.2306
   9   2.0000      -1.371312       -37.3153
  10   2.0000      -1.268865       -34.5276
  11   2.0000      -1.206186       -32.8220
  12   2.0000      -1.001650       -27.2563
  13   2.0000      -0.965268       -26.2663
  14   2.0000      -0.935616       -25.4594
  15   2.0000      -0.842512       -22.9259
  16   2.0000      -0.817192       -22.2369
  17   2.0000      -0.736143       -20.0315
  18   2.0000      -0.704579       -19.1726
  19   2.0000      -0.673777       -18.3344
  20   2.0000      -0.669092       -18.2069
  21   2.0000      -0.637560       -17.3489
  22   2.0000      -0.614995       -16.7349
  23   2.0000      -0.577562       -15.7163
  24   2.0000      -0.558109       -15.1869
  25   2.0000      -0.537968       -14.6389
  26   2.0000      -0.514831       -14.0093
  27   2.0000      -0.504357       -13.7242
  28   2.0000      -0.477430       -12.9915
  29   2.0000      -0.454573       -12.3696
  30   2.0000      -0.452625       -12.3165
  31   2.0000      -0.416081       -11.3221
  32   2.0000      -0.385766       -10.4972
  33   2.0000      -0.361041        -9.8244
  34   0.0000       0.125456         3.4138
  35   0.0000       0.142152         3.8681
  36   0.0000       0.166710         4.5364
  37   0.0000       0.171421         4.6646
  38   0.0000       0.188713         5.1351

MULLIKEN ATOMIC CHARGES
-----------------------
   0 C :   -0.023407
   1 O :   -0.336639
   2 C :    0.177149
   3 C :   -0.109747
   4 N :   -0.369332
   5 C :   -0.086564
   6 C :   -0.150003
   7 N :   -0.337557
   8 C :   -0.089452
   9 H :    0.093810
  10 H :    0.102137
  11 H :    0.090334
  12 H :    0.127351
  13 H :    0.215888
  14 H :    0.118826
  15 H :    0.133460
  16 H :    0.125481
  17 H :    0.204599
  18 H :    0.113665
Sum of atomic charges:   -0.0000000

LOEWDIN ATOMIC CHARGES
----------------------
   0 C :   -0.248872
   1 O :    0.143431
   2 C :   -0.257292
   3 C :   -0.238593
   4 N :    0.018387
   5 C :   -0.259144
   6 C :   -0.284813
   7 N :    0.003291
   8 C :   -0.276223
   9 H :    0.121178
  10 H :    0.114803
  11 H :    0.134750
  12 H :    0.136353
  13 H :    0.167841
  14 H :    0.133503
  15 H :    0.135662
  16 H :    0.138810
  17 H :    0.172266
  18 H :    0.144661

  Mayer bond orders larger than 0.1
B(  0-C ,  1-O ) :   0.9614 B(  0-C ,  8-C ) :   1.0086 B(  0-C ,  9-H ) :   0.8845
B(  0-C , 10-H ) :   0.9189 B(  1-O ,  2-C ) :   0.9433 B(  2-C ,  3-C ) :   0.9242
B(  2-C ,  8-C ) :   0.9014 B(  2-C , 11-H ) :   0.9239 B(  3-C ,  4-N ) :   0.8595
B(  3-C ,  5-C ) :   0.8882 B(  3-C , 12-H ) :   0.9232 B(  4-N ,  5-C ) :   0.9679
B(  4-N , 13-H ) :   0.8661 B(  5-C ,  6-C ) :   0.8924 B(  5-C , 14-H ) :   0.9164
B(  6-C ,  7-N ) :   0.9539 B(  6-C , 15-H ) :   0.9351 B(  6-C , 16-H ) :   0.9357
B(  7-N ,  8-C ) :   1.0201 B(  7-N , 17-H ) :   0.8803 B(  8-C , 18-H ) :   0.9315

MP2 TOTAL ENERGY:     -418.449565983 Eh
FINAL SINGLE POINT ENERGY      -418.449565983072

DIPOLE MOMENT
-------------
                                X             Y             Z
Electronic contribution:      1.33802       1.89624      -1.36879
Nuclear contribution   :     -1.30865      -3.16303       1.06141
                        -----------------------------------------
Total Dipole Moment    :      0.02938      -1.26679      -0.30738
                        -----------------------------------------
Magnitude (a.u.)       :      1.30388
Magnitude (Debye)      :      3.31419

                             ****ORCA TERMINATED NORMALLY****
TOTAL RUN TIME: 0 days 0 hours 17 minutes 32 seconds 335 msec
