                         Program Version 3.0.3 - RELEASE   -
|  1> ! RI-MP2 RIJK def2-TZVP def2-TZVP/C def2-TZVP/JK TIGHTSCF
|  2> % maxcore 2000
|  3> % mp2 density relaxed end
|  4> *xyz 0 1
|  5>  O        0.1059952180     1.4020560768     0.2790364710
|  6>  C        0.0757125483     0.0100314244     0.0546525719
|  7>  C       -1.3568934314    -0.5103091811    -0.0632113604
|  8>  C       -1.4096066475    -2.0355559615    -0.2036933423
|  9>  C       -2.7368371794    -2.6268553918    -0.7276748977
| 10>  C       -3.9996141757    -1.8345371849    -0.3541485430
| 11>  O       -3.9931335527    -1.3346307977     0.9770995674
| 12>  C       -3.4032998197    -0.0750587465     1.1197513517
| 13>  O       -2.0002361643    -0.0860782749     1.1464088586
| 14>  H       -0.5201569059     1.5568027256     0.9971093637
| 15>  H        0.6133726919    -0.1809747797    -0.8796705832
| 16>  H        0.5890326329    -0.5436950958     0.8585246062
| 17>  H       -1.8369826727    -0.0072749341    -0.9184045548
| 18>  H       -0.5940413856    -2.3630301451    -0.8598650618
| 19>  H       -1.1937188047    -2.4411818244     0.7897407765
| 20>  H       -2.7137129951    -2.6976379774    -1.8223939522
| 21>  H       -2.8266695047    -3.6537001838    -0.3579718094
| 22>  H       -4.1423352620    -0.9961423488    -1.0527154941
| 23>  H       -4.8804483532    -2.4788326006    -0.4408531803
| 24>  H       -3.7559178180     0.5937125901     0.3130087525
| 25>  H       -3.7139029885     0.3102583914     2.0938280697
| 26> *
| 27>
| 28>                          ****END OF INPUT****

CARTESIAN COORDINATES (ANGSTROEM)
---------------------------------
  O      0.105995    1.402056    0.279036
  C      0.075713    0.010031    0.054653
  C     -1.356893   -0.510309   -0.063211
  C     -1.409607   -2.035556   -0.203693
  C     -2.736837   -2.626855   -0.727675
  C     -3.999614   -1.834537   -0.354149
  O     -3.993134   -1.334631    0.977100
  C     -3.403300   -0.075059    1.119751
  O     -2.000236   -0.086078    1.146409
  H     -0.520157    1.556803    0.997109
  H      0.613373   -0.180975   -0.879671
  H      0.589033   -0.543695    0.858525
  H     -1.836983   -0.007275   -0.918405
  H     -0.594041   -2.363030   -0.859865
  H     -1.193719   -2.441182    0.789741
  H     -2.713713   -2.697638   -1.822394
  H     -2.826670   -3.653700   -0.357972
  H     -4.142335   -0.996142   -1.052715
  H     -4.880448   -2.478833   -0.440853
  H     -3.755918    0.593713    0.313009
  H     -3.713903    0.310258    2.093828

 Total Charge           Charge          ....    0
 Multiplicity           Mult            ....    1
 Number of Electrons    NEL             ....   72
 Basis Dimension        Dim             ....  351

ORBITAL ENERGIES
----------------

  NO   OCC          E(Eh)            E(eV)
   0   2.0000     -20.567209      -559.6622
   1   2.0000     -20.565557      -559.6173
   2   2.0000     -20.548043      -559.1407
   3   2.0000     -11.332938      -308.3849
   4   2.0000     -11.287347      -307.1443
   5   2.0000     -11.284196      -307.0586
   6   2.0000     -11.273554      -306.7690
   7   2.0000     -11.232717      -305.6578
   8   2.0000     -11.230828      -305.6064
   9   2.0000      -1.423254       -38.7287
  10   2.0000      -1.366168       -37.1753
  11   2.0000      -1.344169       -36.5767
  12   2.0000      -1.089069       -29.6351
  13   2.0000      -1.003937       -27.3185
  14   2.0000      -0.953702       -25.9515
  15   2.0000      -0.890690       -24.2369
  16   2.0000      -0.825751       -22.4698
  17   2.0000      -0.792741       -21.5716
  18   2.0000      -0.717858       -19.5339
  19   2.0000      -0.696852       -18.9623
  20   2.0000      -0.684240       -18.6191
  21   2.0000      -0.660916       -17.9844
  22   2.0000      -0.645562       -17.5666
  23   2.0000      -0.610252       -16.6058
  24   2.0000      -0.603200       -16.4139
  25   2.0000      -0.589012       -16.0278
  26   2.0000      -0.556698       -15.1485
  27   2.0000      -0.545655       -14.8480
  28   2.0000      -0.527235       -14.3468
  29   2.0000      -0.514800       -14.0084
  30   2.0000      -0.497031       -13.5249
  31   2.0000      -0.479088       -13.0367
  32   2.0000      -0.465651       -12.6710
  33   2.0000      -0.450664       -12.2632
  34   2.0000      -0.437330       -11.9004
  35   2.0000      -0.425088       -11.5672
  36   0.0000       0.134686         3.6650
  37   0.0000       0.149799         4.0762
  38   0.0000       0.161800         4.4028
  39   0.0000       0.172740         4.7005
  40   0.0000       0.185506         5.0479

MULLIKEN ATOMIC CHARGES
-----------------------
   0 O :   -0.482489
   1 C :    0.019497
   2 C :    0.031119
   3 C :   -0.224986
   4 C :   -0.226506
   5 C :   -0.069285
   6 O :   -0.303625
   7 C :    0.015813
   8 O :   -0.330126
   9 H :    0.325318
  10 H :    0.107441
  11 H :    0.097867
  12 H :    0.083096
  13 H :    0.121824
  14 H :    0.122822
  15 H :    0.114631
  16 H :    0.122921
  17 H :    0.106972
  18 H :    0.131468
  19 H :    0.106464
  20 H :    0.129765
Sum of atomic charges:   -0.0000000

LOEWDIN ATOMIC CHARGES
----------------------
   0 O :   -0.045102
   1 C :   -0.334468
   2 C :   -0.327028
   3 C :   -0.246605
   4 C :   -0.271698
   5 C :   -0.319530
   6 O :    0.164713
   7 C :   -0.412832
   8 O :    0.167616
   9 H :    0.176578
  10 H :    0.130845
  11 H :    0.122586
  12 H :    0.139503
  13 H :    0.145403
  14 H :    0.148761
  15 H :    0.140804
  16 H :    0.139684
  17 H :    0.119427
  18 H :    0.130474
  19 H :    0.106549
  20 H :    0.124321

  Mayer bond orders larger than 0.1
B(  0-O ,  1-C ) :   0.9417 B(  0-O ,  9-H ) :   0.8277 B(  1-C ,  2-C ) :   0.9342
B(  1-C , 10-H ) :   0.9217 B(  1-C , 11-H ) :   0.9298 B(  2-C ,  3-C ) :   0.8948
B(  2-C ,  8-O ) :   0.8799 B(  2-C , 12-H ) :   0.9339 B(  3-C ,  4-C ) :   0.9256
B(  3-C , 13-H ) :   0.9307 B(  3-C , 14-H ) :   0.9043 B(  4-C ,  5-C ) :   0.9250
B(  4-C , 15-H ) :   0.9249 B(  4-C , 16-H ) :   0.9300 B(  5-C ,  6-O ) :   0.9110
B(  5-C , 17-H ) :   0.9455 B(  5-C , 18-H ) :   0.9338 B(  6-O ,  7-C ) :   0.9921
B(  7-C ,  8-O ) :   0.9682 B(  7-C , 19-H ) :   0.9495 B(  7-C , 20-H ) :   0.9312

MP2 TOTAL ENERGY:     -460.631683387 Eh
FINAL SINGLE POINT ENERGY      -460.631683387277

DIPOLE MOMENT
-------------
                                X             Y             Z
Electronic contribution:     -0.34520       3.17873       3.63313
Nuclear contribution   :     -0.13039      -3.70194      -4.16295
                        -----------------------------------------
Total Dipole Moment    :     -0.47559      -0.52321      -0.52982
                        -----------------------------------------
Magnitude (a.u.)       :      0.88354
Magnitude (Debye)      :      2.24578

                             ****ORCA TERMINATED NORMALLY****
TOTAL RUN TIME: 0 days 0 hours 16 minutes 56 seconds 427 msec
