                         Program Version 3.0.3 - RELEASE   -
|  1> ! RI-MP2 RIJK def2-TZVP def2-TZVP/C def2-TZVP/JK TIGHTSCF
|  2> % maxcore 2000
|  3> % mp2 density relaxed end
|  4> *xyz 0 1
|  5>  C       -0.1532367381     1.4882390774    -0.0782704930
|  6>  C        0.0348509419    -0.0234949373     0.0033035637
|  7>  C        1.2209626599    -0.5836111887    -0.8369922375
|  8>  C        2.1112052461    -0.4241750708     0.4293776393
|  9>  C        0.7977292060    -0.5784784278     1.2583269290
| 10>  C        0.6765522768     0.1422803159     2.5910461343
| 11>  C        0.4415164306    -2.0779255259     1.3785425954
| 12>  C        0.9381166051    -2.8938756709     0.1607926900
| 13>  C        0.9679639224    -2.0668598865    -1.1471010353
| 14>  H        0.7826916827     2.0351563493     0.0765721190
| 15>  H       -0.5353251795     1.7703483188    -1.0658274402
| 16>  H       -0.8717043794     1.8447606518     0.6678158266
| 17>  H       -0.9297997561    -0.5120238857    -0.1864977086
| 18>  H        1.5018441843    -0.0214906626    -1.7326454029
| 19>  H        2.9191032047    -1.1428027460     0.5949523203
| 20>  H        2.5244665168     0.5837823845     0.5154896458
| 21>  H        0.8818188369     1.2130929288     2.4960896391
| 22>  H       -0.3293877077     0.0308093499     3.0144502641
| 23>  H        1.3853733333    -0.2675517080     3.3204419237
| 24>  H        0.8785069595    -2.4964222840     2.2938848674
| 25>  H       -0.6471936104    -2.1652015735     1.4905536599
| 26>  H        1.9554657224    -3.2388648599     0.3721824816
| 27>  H        0.3390856075    -3.8011547608     0.0342148548
| 28>  H        0.0184743079    -2.1565009390    -1.6900184799
| 29>  H        1.7441647364    -2.4644003689    -1.8115183367
| 30> *
| 31>
| 32>                          ****END OF INPUT****

CARTESIAN COORDINATES (ANGSTROEM)
---------------------------------
  C     -0.153237    1.488239   -0.078270
  C      0.034851   -0.023495    0.003304
  C      1.220963   -0.583611   -0.836992
  C      2.111205   -0.424175    0.429378
  C      0.797729   -0.578478    1.258327
  C      0.676552    0.142280    2.591046
  C      0.441516   -2.077926    1.378543
  C      0.938117   -2.893876    0.160793
  C      0.967964   -2.066860   -1.147101
  H      0.782692    2.035156    0.076572
  H     -0.535325    1.770348   -1.065827
  H     -0.871704    1.844761    0.667816
  H     -0.929800   -0.512024   -0.186498
  H      1.501844   -0.021491   -1.732645
  H      2.919103   -1.142803    0.594952
  H      2.524467    0.583782    0.515490
  H      0.881819    1.213093    2.496090
  H     -0.329388    0.030809    3.014450
  H      1.385373   -0.267552    3.320442
  H      0.878507   -2.496422    2.293885
  H     -0.647194   -2.165202    1.490554
  H      1.955466   -3.238865    0.372182
  H      0.339086   -3.801155    0.034215
  H      0.018474   -2.156501   -1.690018
  H      1.744165   -2.464400   -1.811518

 Total Charge           Charge          ....    0
 Multiplicity           Mult            ....    1
 Number of Electrons    NEL             ....   70
 Basis Dimension        Dim             ....  375

ORBITAL ENERGIES
----------------

  NO   OCC          E(Eh)            E(eV)
   0   2.0000     -11.225859      -305.4712
   1   2.0000     -11.217969      -305.2564
   2   2.0000     -11.215435      -305.1875
   3   2.0000     -11.213578      -305.1370
   4   2.0000     -11.212815      -305.1162
   5   2.0000     -11.212298      -305.1021
   6   2.0000     -11.209700      -305.0314
   7   2.0000     -11.208998      -305.0123
   8   2.0000     -11.206297      -304.9388
   9   2.0000      -1.161936       -31.6179
  10   2.0000      -1.029510       -28.0144
  11   2.0000      -1.009727       -27.4761
  12   2.0000      -0.963306       -26.2129
  13   2.0000      -0.920022       -25.0351
  14   2.0000      -0.859507       -23.3884
  15   2.0000      -0.798372       -21.7248
  16   2.0000      -0.773803       -21.0563
  17   2.0000      -0.688932       -18.7468
  18   2.0000      -0.647584       -17.6217
  19   2.0000      -0.630762       -17.1639
  20   2.0000      -0.598746       -16.2927
  21   2.0000      -0.592976       -16.1357
  22   2.0000      -0.567970       -15.4553
  23   2.0000      -0.543233       -14.7821
  24   2.0000      -0.540124       -14.6975
  25   2.0000      -0.528645       -14.3852
  26   2.0000      -0.518334       -14.1046
  27   2.0000      -0.511216       -13.9109
  28   2.0000      -0.503227       -13.6935
  29   2.0000      -0.473937       -12.8965
  30   2.0000      -0.461896       -12.5688
  31   2.0000      -0.426813       -11.6142
  32   2.0000      -0.414626       -11.2825
  33   2.0000      -0.406529       -11.0622
  34   2.0000      -0.392475       -10.6798
  35   0.0000       0.132328         3.6008
  36   0.0000       0.150707         4.1010
  37   0.0000       0.158979         4.3260
  38   0.0000       0.168660         4.5895
  39   0.0000       0.189157         5.1472

MULLIKEN ATOMIC CHARGES
-----------------------
   0 C :   -0.467584
   1 C :   -0.157992
   2 C :    0.075751
   3 C :   -0.382654
   4 C :    0.260677
   5 C :   -0.416892
   6 C :   -0.311031
   7 C :   -0.227600
   8 C :   -0.284554
   9 H :    0.129256
  10 H :    0.135381
  11 H :    0.136984
  12 H :    0.094986
  13 H :    0.103892
  14 H :    0.114875
  15 H :    0.118278
  16 H :    0.131892
  17 H :    0.129475
  18 H :    0.130772
  19 H :    0.112831
  20 H :    0.108855
  21 H :    0.118477
  22 H :    0.123099
  23 H :    0.108337
  24 H :    0.114491
Sum of atomic charges:    0.0000000

LOEWDIN ATOMIC CHARGES
----------------------
   0 C :   -0.294542
   1 C :   -0.193356
   2 C :   -0.199956
   3 C :   -0.176898
   4 C :   -0.254839
   5 C :   -0.276853
   6 C :   -0.216714
   7 C :   -0.255156
   8 C :   -0.240690
   9 H :    0.123787
  10 H :    0.124992
  11 H :    0.123951
  12 H :    0.141983
  13 H :    0.135914
  14 H :    0.127332
  15 H :    0.135356
  16 H :    0.124814
  17 H :    0.127087
  18 H :    0.126456
  19 H :    0.138209
  20 H :    0.137638
  21 H :    0.136063
  22 H :    0.133869
  23 H :    0.136195
  24 H :    0.135358

  Mayer bond orders larger than 0.1
B(  0-C ,  1-C ) :   0.8732 B(  0-C ,  9-H ) :   0.9387 B(  0-C , 10-H ) :   0.9415
B(  0-C , 11-H ) :   0.9455 B(  1-C ,  2-C ) :   0.8586 B(  1-C ,  4-C ) :   0.8405
B(  1-C , 12-H ) :   0.9283 B(  2-C ,  3-C ) :   0.8980 B(  2-C ,  8-C ) :   0.8779
B(  2-C , 13-H ) :   0.9299 B(  3-C ,  4-C ) :   0.8978 B(  3-C , 14-H ) :   0.9185
B(  3-C , 15-H ) :   0.9185 B(  4-C ,  5-C ) :   0.8676 B(  4-C ,  6-C ) :   0.8660
B(  5-C , 16-H ) :   0.9392 B(  5-C , 17-H ) :   0.9404 B(  5-C , 18-H ) :   0.9402
B(  6-C ,  7-C ) :   0.9459 B(  6-C , 19-H ) :   0.9284 B(  6-C , 20-H ) :   0.9303
B(  7-C ,  8-C ) :   0.9562 B(  7-C , 21-H ) :   0.9343 B(  7-C , 22-H ) :   0.9305
B(  8-C , 23-H ) :   0.9314 B(  8-C , 24-H ) :   0.9304

MP2 TOTAL ENERGY:     -351.727934648 Eh
FINAL SINGLE POINT ENERGY      -351.727934648207

DIPOLE MOMENT
-------------
                                X             Y             Z
Electronic contribution:      0.71278      -1.40212      -1.40566
Nuclear contribution   :     -0.72678       1.37788       1.39390
                        -----------------------------------------
Total Dipole Moment    :     -0.01400      -0.02423      -0.01176
                        -----------------------------------------
Magnitude (a.u.)       :      0.03036
Magnitude (Debye)      :      0.07716

                             ****ORCA TERMINATED NORMALLY****
TOTAL RUN TIME: 0 days 0 hours 23 minutes 8 seconds 113 msec
