                         Program Version 3.0.3 - RELEASE   -
|  1> ! RI-MP2 RIJK def2-TZVP def2-TZVP/C def2-TZVP/JK TIGHTSCF
|  2> % maxcore 2000
|  3> % mp2 density relaxed end
|  4> *xyz 0 1
|  5>  N        0.1383360822     0.8882272641    -0.8013283906
|  6>  C       -0.0435968478     0.0346188413     0.2393646510
|  7>  O        0.7415056684    -0.1095610389     1.1618505697
|  8>  C       -1.3166220104    -0.7355629431     0.1533434644
|  9>  C       -1.9223679046    -1.3963556353     1.3621572703
| 10>  C       -1.5020581662    -2.2486175239     0.2084480212
| 11>  C       -2.4087771735    -2.0902151449    -1.0247211781
| 12>  C       -3.5238562329    -1.1310260764    -0.8747310972
| 13>  N       -2.1635949395    -0.6065853733    -1.1045630916
| 14>  H        0.9921704491     1.4168990849    -0.8538193021
| 15>  H       -0.5193951596     0.8864252334    -1.5645457779
| 16>  H       -1.2140481983    -1.4013033433     2.1839617754
| 17>  H       -2.9564158361    -1.2618222833     1.6571797085
| 18>  H       -0.7233585592    -2.9954610887     0.2790106125
| 19>  H       -2.2948159567    -2.7110690661    -1.9071733868
| 20>  H       -4.1591705309    -0.9892329141    -1.7445178987
| 21>  H       -4.0292119241    -0.9666477825     0.0692701902
| 22> *
| 23>
| 24>                          ****END OF INPUT****

CARTESIAN COORDINATES (ANGSTROEM)
---------------------------------
  N      0.138336    0.888227   -0.801328
  C     -0.043597    0.034619    0.239365
  O      0.741506   -0.109561    1.161851
  C     -1.316622   -0.735563    0.153343
  C     -1.922368   -1.396356    1.362157
  C     -1.502058   -2.248618    0.208448
  C     -2.408777   -2.090215   -1.024721
  C     -3.523856   -1.131026   -0.874731
  N     -2.163595   -0.606585   -1.104563
  H      0.992170    1.416899   -0.853819
  H     -0.519395    0.886425   -1.564546
  H     -1.214048   -1.401303    2.183962
  H     -2.956416   -1.261822    1.657180
  H     -0.723359   -2.995461    0.279011
  H     -2.294816   -2.711069   -1.907173
  H     -4.159171   -0.989233   -1.744518
  H     -4.029212   -0.966648    0.069270

 Total Charge           Charge          ....    0
 Multiplicity           Mult            ....    1
 Number of Electrons    NEL             ....   66
 Basis Dimension        Dim             ....  327

ORBITAL ENERGIES
----------------

  NO   OCC          E(Eh)            E(eV)
   0   2.0000     -20.507611      -558.0405
   1   2.0000     -15.579920      -423.9512
   2   2.0000     -15.572893      -423.7600
   3   2.0000     -11.347715      -308.7870
   4   2.0000     -11.283628      -307.0431
   5   2.0000     -11.281591      -306.9877
   6   2.0000     -11.275577      -306.8241
   7   2.0000     -11.259072      -306.3749
   8   2.0000     -11.249833      -306.1235
   9   2.0000      -1.373850       -37.3844
  10   2.0000      -1.318123       -35.8679
  11   2.0000      -1.204481       -32.7756
  12   2.0000      -1.129055       -30.7232
  13   2.0000      -0.953537       -25.9471
  14   2.0000      -0.905580       -24.6421
  15   2.0000      -0.853509       -23.2252
  16   2.0000      -0.780741       -21.2450
  17   2.0000      -0.748020       -20.3547
  18   2.0000      -0.728513       -19.8238
  19   2.0000      -0.707152       -19.2426
  20   2.0000      -0.662642       -18.0314
  21   2.0000      -0.640926       -17.4405
  22   2.0000      -0.605093       -16.4654
  23   2.0000      -0.582647       -15.8546
  24   2.0000      -0.560293       -15.2464
  25   2.0000      -0.550572       -14.9818
  26   2.0000      -0.497895       -13.5484
  27   2.0000      -0.495813       -13.4918
  28   2.0000      -0.490498       -13.3471
  29   2.0000      -0.423763       -11.5312
  30   2.0000      -0.409353       -11.1391
  31   2.0000      -0.394189       -10.7264
  32   2.0000      -0.355562        -9.6753
  33   0.0000       0.145146         3.9496
  34   0.0000       0.147958         4.0261
  35   0.0000       0.154036         4.1915
  36   0.0000       0.172049         4.6817
  37   0.0000       0.179147         4.8749

MULLIKEN ATOMIC CHARGES
-----------------------
   0 N :   -0.459319
   1 C :    0.185042
   2 O :   -0.372353
   3 C :    0.151112
   4 C :   -0.243095
   5 C :   -0.162608
   6 C :   -0.042461
   7 C :   -0.163647
   8 N :   -0.289743
   9 H :    0.253952
  10 H :    0.277736
  11 H :    0.167252
  12 H :    0.132430
  13 H :    0.156866
  14 H :    0.141467
  15 H :    0.139362
  16 H :    0.128005
Sum of atomic charges:    0.0000000

LOEWDIN ATOMIC CHARGES
----------------------
   0 N :    0.000779
   1 C :   -0.461964
   2 O :    0.071016
   3 C :   -0.192312
   4 C :   -0.169465
   5 C :   -0.140987
   6 C :   -0.189065
   7 C :   -0.235249
   8 N :    0.125994
   9 H :    0.172303
  10 H :    0.174982
  11 H :    0.162617
  12 H :    0.131364
  13 H :    0.147830
  14 H :    0.137764
  15 H :    0.137169
  16 H :    0.127224

  Mayer bond orders larger than 0.1
B(  0-N ,  1-C ) :   1.2005 B(  0-N ,  9-H ) :   0.8609 B(  0-N , 10-H ) :   0.8459
B(  1-C ,  2-O ) :   1.9802 B(  1-C ,  3-C ) :   0.9143 B(  3-C ,  4-C ) :   0.8839
B(  3-C ,  5-C ) :   0.8199 B(  3-C ,  8-N ) :   0.8382 B(  4-C ,  5-C ) :   0.9242
B(  4-C , 11-H ) :   0.9048 B(  4-C , 12-H ) :   0.9018 B(  5-C ,  6-C ) :   0.9267
B(  5-C , 13-H ) :   0.9072 B(  6-C ,  7-C ) :   0.9660 B(  6-C ,  8-N ) :   0.8434
B(  6-C , 14-H ) :   0.9049 B(  7-C ,  8-N ) :   0.9067 B(  7-C , 15-H ) :   0.9255
B(  7-C , 16-H ) :   0.9022

MP2 TOTAL ENERGY:     -417.251736167 Eh
FINAL SINGLE POINT ENERGY      -417.251736166833

DIPOLE MOMENT
-------------
                                X             Y             Z
Electronic contribution:      3.31962       1.40620       0.36095
Nuclear contribution   :     -4.26114      -1.65489      -1.19737
                        -----------------------------------------
Total Dipole Moment    :     -0.94152      -0.24870      -0.83642
                        -----------------------------------------
Magnitude (a.u.)       :      1.28371
Magnitude (Debye)      :      3.26293

                             ****ORCA TERMINATED NORMALLY****
TOTAL RUN TIME: 0 days 0 hours 18 minutes 28 seconds 362 msec
