                         Program Version 3.0.3 - RELEASE   -
|  1> ! RI-MP2 RIJK def2-TZVP def2-TZVP/C def2-TZVP/JK TIGHTSCF
|  2> % maxcore 2000
|  3> % mp2 density relaxed end
|  4> *xyz 0 1
|  5>  O        0.0500467363     1.4151767124    -0.1360699451
|  6>  C       -0.0333672668     0.0403464346    -0.0038710409
|  7>  C       -0.4106555490    -0.6791340991     1.2681123936
|  8>  C       -1.1542580123     0.0815522810     2.3745274187
|  9>  C       -2.5302790350     0.4363503353     1.8119209488
| 10>  N       -2.5026161433     1.4021303466     0.6921354846
| 11>  C       -2.6195430401    -0.0599209068     0.4134714785
| 12>  C       -1.3311455599    -0.7513977432     0.0373463086
| 13>  H       -0.8260653388     1.7675454030     0.1188953804
| 14>  H        0.7652722587    -0.4399895066    -0.5649968970
| 15>  H        0.1901988763    -1.5315415552     1.5694119863
| 16>  H       -1.2777979016    -0.5640449754     3.2494911046
| 17>  H       -0.6125949384     0.9774517964     2.6987066677
| 18>  H       -3.3888089185     0.4669972244     2.4751264562
| 19>  H       -3.4070124784     1.8534593231     0.5906187416
| 20>  H       -3.5497107517    -0.4145127717    -0.0158941460
| 21>  H       -1.4207664175    -1.6498973087    -0.5630968006
| 22> *
| 23>
| 24>                          ****END OF INPUT****

CARTESIAN COORDINATES (ANGSTROEM)
---------------------------------
  O      0.050047    1.415177   -0.136070
  C     -0.033367    0.040346   -0.003871
  C     -0.410656   -0.679134    1.268112
  C     -1.154258    0.081552    2.374527
  C     -2.530279    0.436350    1.811921
  N     -2.502616    1.402130    0.692135
  C     -2.619543   -0.059921    0.413471
  C     -1.331146   -0.751398    0.037346
  H     -0.826065    1.767545    0.118895
  H      0.765272   -0.439990   -0.564997
  H      0.190199   -1.531542    1.569412
  H     -1.277798   -0.564045    3.249491
  H     -0.612595    0.977452    2.698707
  H     -3.388809    0.466997    2.475126
  H     -3.407012    1.853459    0.590619
  H     -3.549711   -0.414513   -0.015894
  H     -1.420766   -1.649897   -0.563097

 Total Charge           Charge          ....    0
 Multiplicity           Mult            ....    1
 Number of Electrons    NEL             ....   60
 Basis Dimension        Dim             ....  302

ORBITAL ENERGIES
----------------

  NO   OCC          E(Eh)            E(eV)
   0   2.0000     -20.525840      -558.5365
   1   2.0000     -15.572844      -423.7586
   2   2.0000     -11.275615      -306.8251
   3   2.0000     -11.272381      -306.7371
   4   2.0000     -11.268227      -306.6240
   5   2.0000     -11.231259      -305.6181
   6   2.0000     -11.229799      -305.5784
   7   2.0000     -11.224561      -305.4358
   8   2.0000      -1.347517       -36.6678
   9   2.0000      -1.277626       -34.7660
  10   2.0000      -1.129428       -30.7333
  11   2.0000      -0.994464       -27.0607
  12   2.0000      -0.922159       -25.0932
  13   2.0000      -0.832505       -22.6536
  14   2.0000      -0.769945       -20.9513
  15   2.0000      -0.765365       -20.8266
  16   2.0000      -0.736264       -20.0348
  17   2.0000      -0.662675       -18.0323
  18   2.0000      -0.642034       -17.4706
  19   2.0000      -0.598542       -16.2872
  20   2.0000      -0.577126       -15.7044
  21   2.0000      -0.569737       -15.5033
  22   2.0000      -0.531211       -14.4550
  23   2.0000      -0.522711       -14.2237
  24   2.0000      -0.502255       -13.6670
  25   2.0000      -0.479055       -13.0358
  26   2.0000      -0.471532       -12.8311
  27   2.0000      -0.415705       -11.3119
  28   2.0000      -0.375859       -10.2277
  29   2.0000      -0.361617        -9.8401
  30   0.0000       0.127258         3.4629
  31   0.0000       0.156324         4.2538
  32   0.0000       0.169721         4.6184
  33   0.0000       0.180270         4.9054
  34   0.0000       0.188296         5.1238

MULLIKEN ATOMIC CHARGES
-----------------------
   0 O :   -0.472457
   1 C :    0.023389
   2 C :   -0.122759
   3 C :   -0.195922
   4 C :   -0.061854
   5 N :   -0.430493
   6 C :   -0.094122
   7 C :   -0.102341
   8 H :    0.355504
   9 H :    0.110097
  10 H :    0.124336
  11 H :    0.121993
  12 H :    0.126388
  13 H :    0.134152
  14 H :    0.218400
  15 H :    0.141036
  16 H :    0.124653
Sum of atomic charges:   -0.0000000

LOEWDIN ATOMIC CHARGES
----------------------
   0 O :   -0.004540
   1 C :   -0.302273
   2 C :   -0.180614
   3 C :   -0.213065
   4 C :   -0.237718
   5 N :    0.003689
   6 C :   -0.217809
   7 C :   -0.175953
   8 H :    0.163257
   9 H :    0.142420
  10 H :    0.140840
  11 H :    0.145928
  12 H :    0.147787
  13 H :    0.135341
  14 H :    0.168483
  15 H :    0.139614
  16 H :    0.144611

  Mayer bond orders larger than 0.1
B(  0-O ,  1-C ) :   1.0365 B(  0-O ,  8-H ) :   0.7674 B(  1-C ,  2-C ) :   0.8734
B(  1-C ,  7-C ) :   0.8649 B(  1-C ,  9-H ) :   0.9589 B(  2-C ,  3-C ) :   0.9501
B(  2-C ,  7-C ) :   0.8168 B(  2-C , 10-H ) :   0.9153 B(  3-C ,  4-C ) :   0.9718
B(  3-C , 11-H ) :   0.9254 B(  3-C , 12-H ) :   0.9041 B(  4-C ,  5-N ) :   0.9073
B(  4-C ,  6-C ) :   0.9298 B(  4-C , 13-H ) :   0.9244 B(  5-N ,  6-C ) :   0.8471
B(  5-N , 14-H ) :   0.8721 B(  6-C ,  7-C ) :   0.9380 B(  6-C , 15-H ) :   0.9236
B(  7-C , 16-H ) :   0.9185

MP2 TOTAL ENERGY:     -363.211082180 Eh
FINAL SINGLE POINT ENERGY      -363.211082180280

DIPOLE MOMENT
-------------
                                X             Y             Z
Electronic contribution:      0.43683       1.29320      -1.76515
Nuclear contribution   :     -1.66734      -1.93754       2.26502
                        -----------------------------------------
Total Dipole Moment    :     -1.23051      -0.64433       0.49987
                        -----------------------------------------
Magnitude (a.u.)       :      1.47621
Magnitude (Debye)      :      3.75223

                             ****ORCA TERMINATED NORMALLY****
TOTAL RUN TIME: 0 days 0 hours 12 minutes 24 seconds 917 msec
