                         Program Version 3.0.3 - RELEASE   -
|  1> ! RI-MP2 RIJK def2-TZVP def2-TZVP/C def2-TZVP/JK TIGHTSCF
|  2> % maxcore 2000
|  3> % mp2 density relaxed end
|  4> *xyz 0 1
|  5>  O        0.1722776536     1.3381778257     0.2022283451
|  6>  C       -0.0453308230    -0.0637849233     0.0404461595
|  7>  C       -1.5445862327    -0.3420240241    -0.1375622918
|  8>  C       -1.7784389723    -0.4802579743    -1.6437403199
|  9>  C       -1.2836479731     0.6342984934    -2.4999410370
| 10>  C       -0.4283089114    -0.6264539553    -2.3330895210
| 11>  C        0.6187478928    -0.5340926246    -1.2808696055
| 12>  O        1.7973874178    -0.7758936855    -1.3902885757
| 13>  H        1.1260992509     1.4809418757     0.1784438199
| 14>  H        0.3868841578    -0.6194436993     0.8824230337
| 15>  H       -1.8037714398    -1.2802384651     0.3629774150
| 16>  H       -2.1421974885     0.4551328877     0.3139842924
| 17>  H       -2.6224171117    -1.0693838604    -1.9832063698
| 18>  H       -1.7244882710     0.7588467349    -3.4826461363
| 19>  H       -0.9467303865     1.5481933273    -2.0251429857
| 20>  H       -0.2482626527    -1.2529817729    -3.1970716431
| 21> *
| 22>
| 23>                          ****END OF INPUT****

CARTESIAN COORDINATES (ANGSTROEM)
---------------------------------
  O      0.172278    1.338178    0.202228
  C     -0.045331   -0.063785    0.040446
  C     -1.544586   -0.342024   -0.137562
  C     -1.778439   -0.480258   -1.643740
  C     -1.283648    0.634298   -2.499941
  C     -0.428309   -0.626454   -2.333090
  C      0.618748   -0.534093   -1.280870
  O      1.797387   -0.775894   -1.390289
  H      1.126099    1.480942    0.178444
  H      0.386884   -0.619444    0.882423
  H     -1.803771   -1.280238    0.362977
  H     -2.142197    0.455133    0.313984
  H     -2.622417   -1.069384   -1.983206
  H     -1.724488    0.758847   -3.482646
  H     -0.946730    1.548193   -2.025143
  H     -0.248263   -1.252982   -3.197072

 Total Charge           Charge          ....    0
 Multiplicity           Mult            ....    1
 Number of Electrons    NEL             ....   60
 Basis Dimension        Dim             ....  296

ORBITAL ENERGIES
----------------

  NO   OCC          E(Eh)            E(eV)
   0   2.0000     -20.572936      -559.8181
   1   2.0000     -20.549859      -559.1901
   2   2.0000     -11.330886      -308.3291
   3   2.0000     -11.296731      -307.3997
   4   2.0000     -11.254325      -306.2458
   5   2.0000     -11.246892      -306.0435
   6   2.0000     -11.246217      -306.0251
   7   2.0000     -11.240818      -305.8782
   8   2.0000      -1.397777       -38.0354
   9   2.0000      -1.370556       -37.2947
  10   2.0000      -1.188177       -32.3319
  11   2.0000      -1.029709       -28.0198
  12   2.0000      -0.939734       -25.5715
  13   2.0000      -0.860810       -23.4238
  14   2.0000      -0.792161       -21.5558
  15   2.0000      -0.757508       -20.6128
  16   2.0000      -0.720187       -19.5973
  17   2.0000      -0.686922       -18.6921
  18   2.0000      -0.634341       -17.2613
  19   2.0000      -0.626097       -17.0370
  20   2.0000      -0.604750       -16.4561
  21   2.0000      -0.572633       -15.5821
  22   2.0000      -0.565982       -15.4012
  23   2.0000      -0.546325       -14.8662
  24   2.0000      -0.534005       -14.5310
  25   2.0000      -0.514976       -14.0132
  26   2.0000      -0.474794       -12.9198
  27   2.0000      -0.435643       -11.8544
  28   2.0000      -0.419571       -11.4171
  29   2.0000      -0.395206       -10.7541
  30   0.0000       0.121929         3.3178
  31   0.0000       0.142434         3.8758
  32   0.0000       0.155120         4.2210
  33   0.0000       0.172026         4.6811
  34   0.0000       0.178303         4.8519

MULLIKEN ATOMIC CHARGES
-----------------------
   0 O :   -0.473722
   1 C :    0.163314
   2 C :   -0.246123
   3 C :   -0.091105
   4 C :   -0.292599
   5 C :   -0.094109
   6 C :    0.035069
   7 O :   -0.274985
   8 H :    0.326827
   9 H :    0.108053
  10 H :    0.129443
  11 H :    0.127954
  12 H :    0.134075
  13 H :    0.141938
  14 H :    0.163407
  15 H :    0.142563
Sum of atomic charges:    0.0000000

LOEWDIN ATOMIC CHARGES
----------------------
   0 O :   -0.018634
   1 C :   -0.291345
   2 C :   -0.206018
   3 C :   -0.189327
   4 C :   -0.179903
   5 C :   -0.158403
   6 C :   -0.298471
   7 O :    0.147295
   8 H :    0.182332
   9 H :    0.139225
  10 H :    0.146074
  11 H :    0.147137
  12 H :    0.146108
  13 H :    0.139206
  14 H :    0.143104
  15 H :    0.151620

  Mayer bond orders larger than 0.1
B(  0-O ,  1-C ) :   0.9232 B(  0-O ,  8-H ) :   0.8359 B(  1-C ,  2-C ) :   0.8989
B(  1-C ,  5-C ) :  -0.1284 B(  1-C ,  6-C ) :   0.8692 B(  1-C ,  9-H ) :   0.9114
B(  2-C ,  3-C ) :   0.9577 B(  2-C , 10-H ) :   0.9258 B(  2-C , 11-H ) :   0.9146
B(  3-C ,  4-C ) :   0.8989 B(  3-C ,  5-C ) :   0.8060 B(  3-C , 12-H ) :   0.9246
B(  4-C ,  5-C ) :   0.8389 B(  4-C , 13-H ) :   0.9308 B(  4-C , 14-H ) :   0.9111
B(  5-C ,  6-C ) :   0.9758 B(  5-C , 15-H ) :   0.9210 B(  6-C ,  7-O ) :   2.0205

MP2 TOTAL ENERGY:     -383.119937775 Eh
FINAL SINGLE POINT ENERGY      -383.119937774822

DIPOLE MOMENT
-------------
                                X             Y             Z
Electronic contribution:      4.60773      -0.67169       0.14344
Nuclear contribution   :     -5.42907       0.56206      -0.19101
                        -----------------------------------------
Total Dipole Moment    :     -0.82134      -0.10963      -0.04757
                        -----------------------------------------
Magnitude (a.u.)       :      0.82999
Magnitude (Debye)      :      2.10967

                             ****ORCA TERMINATED NORMALLY****
TOTAL RUN TIME: 0 days 0 hours 13 minutes 16 seconds 263 msec
