                         Program Version 3.0.3 - RELEASE   -
|  1> ! RI-MP2 RIJK def2-TZVP def2-TZVP/C def2-TZVP/JK TIGHTSCF
|  2> % maxcore 2000
|  3> % mp2 density relaxed end
|  4> *xyz 0 1
|  5>  C       -0.0102080298     1.3654820680     0.0781384383
|  6>  N       -0.0323224990    -0.0692574925    -0.1032644458
|  7>  C        0.6313797205    -0.6561586642    -1.1418231193
|  8>  N        1.1875008839     0.0334772137    -2.0678971175
|  9>  C        0.6331674838    -2.1408637232    -1.1015925640
| 10>  N        0.0860159525    -2.8384859931    -0.1137145034
| 11>  N        0.3329704674    -4.1123197999    -0.4886147529
| 12>  C        1.0022481603    -4.1314929097    -1.6603783219
| 13>  N        1.2107584923    -2.9018618248    -2.0778988145
| 14>  H        0.9990110088     1.7431910288     0.2902804707
| 15>  H       -0.3580716142     1.8615496250    -0.8320774584
| 16>  H       -0.6726624152     1.6290870666     0.9056388943
| 17>  H       -0.2872227982    -0.6606382121     0.6689968572
| 18>  H        1.5908651582    -0.5983408343    -2.7579204657
| 19>  H        0.0215325412    -4.8777983245     0.0873601615
| 20>  H        1.3061958575    -5.0419679938    -2.1544768687
| 21> *
| 22>
| 23>                          ****END OF INPUT****

CARTESIAN COORDINATES (ANGSTROEM)
---------------------------------
  C     -0.010208    1.365482    0.078138
  N     -0.032322   -0.069257   -0.103264
  C      0.631380   -0.656159   -1.141823
  N      1.187501    0.033477   -2.067897
  C      0.633167   -2.140864   -1.101593
  N      0.086016   -2.838486   -0.113715
  N      0.332970   -4.112320   -0.488615
  C      1.002248   -4.131493   -1.660378
  N      1.210758   -2.901862   -2.077899
  H      0.999011    1.743191    0.290280
  H     -0.358072    1.861550   -0.832077
  H     -0.672662    1.629087    0.905639
  H     -0.287223   -0.660638    0.668997
  H      1.590865   -0.598341   -2.757920
  H      0.021533   -4.877798    0.087360
  H      1.306196   -5.041968   -2.154477

 Total Charge           Charge          ....    0
 Multiplicity           Mult            ....    1
 Number of Electrons    NEL             ....   66
 Basis Dimension        Dim             ....  321

ORBITAL ENERGIES
----------------

  NO   OCC          E(Eh)            E(eV)
   0   2.0000     -15.670985      -426.4292
   1   2.0000     -15.616517      -424.9470
   2   2.0000     -15.575140      -423.8211
   3   2.0000     -15.560844      -423.4321
   4   2.0000     -15.512147      -422.1070
   5   2.0000     -11.336819      -308.4905
   6   2.0000     -11.310766      -307.7816
   7   2.0000     -11.309740      -307.7537
   8   2.0000     -11.243604      -305.9540
   9   2.0000      -1.433726       -39.0137
  10   2.0000      -1.267507       -34.4906
  11   2.0000      -1.217341       -33.1255
  12   2.0000      -1.143635       -31.1199
  13   2.0000      -1.131851       -30.7992
  14   2.0000      -0.948320       -25.8051
  15   2.0000      -0.886519       -24.1234
  16   2.0000      -0.858205       -23.3529
  17   2.0000      -0.789804       -21.4917
  18   2.0000      -0.772758       -21.0278
  19   2.0000      -0.682894       -18.5825
  20   2.0000      -0.659009       -17.9325
  21   2.0000      -0.653237       -17.7755
  22   2.0000      -0.620466       -16.8837
  23   2.0000      -0.600909       -16.3516
  24   2.0000      -0.579586       -15.7713
  25   2.0000      -0.538401       -14.6506
  26   2.0000      -0.523024       -14.2322
  27   2.0000      -0.495235       -13.4760
  28   2.0000      -0.468038       -12.7360
  29   2.0000      -0.432435       -11.7672
  30   2.0000      -0.418671       -11.3926
  31   2.0000      -0.383043       -10.4231
  32   2.0000      -0.340692        -9.2707
  33   0.0000       0.116476         3.1695
  34   0.0000       0.116801         3.1783
  35   0.0000       0.148306         4.0356
  36   0.0000       0.156004         4.2451
  37   0.0000       0.165423         4.5014

MULLIKEN ATOMIC CHARGES
-----------------------
   0 C :   -0.265106
   1 N :   -0.330008
   2 C :    0.031828
   3 N :   -0.415807
   4 C :    0.290040
   5 N :   -0.225429
   6 N :   -0.130865
   7 C :    0.053092
   8 N :   -0.322836
   9 H :    0.129803
  10 H :    0.151095
  11 H :    0.128244
  12 H :    0.245834
  13 H :    0.227017
  14 H :    0.268209
  15 H :    0.164891
Sum of atomic charges:   -0.0000000

LOEWDIN ATOMIC CHARGES
----------------------
   0 C :   -0.319008
   1 N :    0.077253
   2 C :   -0.377943
   3 N :   -0.073590
   4 C :   -0.318309
   5 N :    0.041082
   6 N :    0.130228
   7 C :   -0.306940
   8 N :    0.111824
   9 H :    0.114470
  10 H :    0.124492
  11 H :    0.115484
  12 H :    0.184225
  13 H :    0.165674
  14 H :    0.193416
  15 H :    0.137642

  Mayer bond orders larger than 0.1
B(  0-C ,  1-N ) :   0.8914 B(  0-C ,  9-H ) :   0.9371 B(  0-C , 10-H ) :   0.9351
B(  0-C , 11-H ) :   0.9319 B(  1-N ,  2-C ) :   1.1859 B(  1-N , 12-H ) :   0.8707
B(  2-C ,  3-N ) :   1.9278 B(  2-C ,  4-C ) :   0.8811 B(  3-N , 13-H ) :   0.8657
B(  4-C ,  5-N ) :   1.4900 B(  4-C ,  8-N ) :   1.2967 B(  5-N ,  6-N ) :   1.0865
B(  6-N ,  7-C ) :   1.2178 B(  6-N , 14-H ) :   0.8640 B(  7-C ,  8-N ) :   1.5060
B(  7-C , 15-H ) :   0.9215

MP2 TOTAL ENERGY:     -429.560202273 Eh
FINAL SINGLE POINT ENERGY      -429.560202273061

DIPOLE MOMENT
-------------
                                X             Y             Z
Electronic contribution:      0.72295      -7.39710      -1.57688
Nuclear contribution   :     -1.16804       5.50486       2.61983
                        -----------------------------------------
Total Dipole Moment    :     -0.44509      -1.89223       1.04296
                        -----------------------------------------
Magnitude (a.u.)       :      2.20599
Magnitude (Debye)      :      5.60719

                             ****ORCA TERMINATED NORMALLY****
TOTAL RUN TIME: 0 days 0 hours 15 minutes 13 seconds 834 msec
