                         Program Version 3.0.3 - RELEASE   -
|  1> ! RI-MP2 RIJK def2-TZVP def2-TZVP/C def2-TZVP/JK TIGHTSCF
|  2> % maxcore 2000
|  3> % mp2 density relaxed end
|  4> *xyz 0 1
|  5>  O        0.1111816559     1.2955076522    -0.2601235989
|  6>  C       -0.0364110282    -0.0880909115    -0.0131101108
|  7>  C       -1.5306685223    -0.3801187458     0.0683058395
|  8>  N       -2.2101510698    -0.1011542645    -1.1861578146
|  9>  N       -3.0247556020     0.9552701459    -1.3630596562
| 10>  N       -3.4229229225     0.9902628351    -2.5478642697
| 11>  O       -2.8446850404    -0.0984622964    -3.2496509113
| 12>  C       -2.0572880510    -0.7925842741    -2.3731014518
| 13>  O       -1.4012996780    -1.7692892421    -2.6061329415
| 14>  H        1.0230687745     1.4684830059    -0.5104598970
| 15>  H        0.4055804470    -0.7017179022    -0.8094478049
| 16>  H        0.4191645213    -0.3921334855     0.9424124798
| 17>  H       -1.6924226346    -1.4316034964     0.3220336068
| 18>  H       -2.0030269498     0.2503227396     0.8236532607
| 19> *
| 20>
| 21>                          ****END OF INPUT****

CARTESIAN COORDINATES (ANGSTROEM)
---------------------------------
  O      0.111182    1.295508   -0.260124
  C     -0.036411   -0.088091   -0.013110
  C     -1.530669   -0.380119    0.068306
  N     -2.210151   -0.101154   -1.186158
  N     -3.024756    0.955270   -1.363060
  N     -3.422923    0.990263   -2.547864
  O     -2.844685   -0.098462   -3.249651
  C     -2.057288   -0.792584   -2.373101
  O     -1.401300   -1.769289   -2.606133
  H      1.023069    1.468483   -0.510460
  H      0.405580   -0.701718   -0.809448
  H      0.419165   -0.392133    0.942412
  H     -1.692423   -1.431603    0.322034
  H     -2.003027    0.250323    0.823653

 Total Charge           Charge          ....    0
 Multiplicity           Mult            ....    1
 Number of Electrons    NEL             ....   68
 Basis Dimension        Dim             ....  309

ORBITAL ENERGIES
----------------

  NO   OCC          E(Eh)            E(eV)
   0   2.0000     -20.671580      -562.5023
   1   2.0000     -20.581896      -560.0619
   2   2.0000     -20.560640      -559.4835
   3   2.0000     -15.715180      -427.6318
   4   2.0000     -15.711386      -427.5285
   5   2.0000     -15.674588      -426.5272
   6   2.0000     -11.435920      -311.1872
   7   2.0000     -11.307730      -307.6990
   8   2.0000     -11.306252      -307.6588
   9   2.0000      -1.579145       -42.9707
  10   2.0000      -1.424793       -38.7706
  11   2.0000      -1.392514       -37.8922
  12   2.0000      -1.378399       -37.5082
  13   2.0000      -1.252701       -34.0877
  14   2.0000      -1.062307       -28.9069
  15   2.0000      -0.944307       -25.6959
  16   2.0000      -0.923832       -25.1388
  17   2.0000      -0.853821       -23.2337
  18   2.0000      -0.755627       -20.5617
  19   2.0000      -0.742773       -20.2119
  20   2.0000      -0.729147       -19.8411
  21   2.0000      -0.685031       -18.6406
  22   2.0000      -0.656631       -17.8678
  23   2.0000      -0.647701       -17.6249
  24   2.0000      -0.614694       -16.7267
  25   2.0000      -0.597921       -16.2703
  26   2.0000      -0.587612       -15.9897
  27   2.0000      -0.574209       -15.6250
  28   2.0000      -0.554294       -15.0831
  29   2.0000      -0.545461       -14.8428
  30   2.0000      -0.520030       -14.1507
  31   2.0000      -0.478588       -13.0230
  32   2.0000      -0.465702       -12.6724
  33   2.0000      -0.410319       -11.1654
  34   0.0000       0.108206         2.9444
  35   0.0000       0.120079         3.2675
  36   0.0000       0.148111         4.0303
  37   0.0000       0.176289         4.7971
  38   0.0000       0.180174         4.9028

MULLIKEN ATOMIC CHARGES
-----------------------
   0 O :   -0.471026
   1 C :   -0.103473
   2 C :   -0.131391
   3 N :    0.014803
   4 N :   -0.065416
   5 N :   -0.003688
   6 O :   -0.124777
   7 C :    0.309892
   8 O :   -0.332683
   9 H :    0.327208
  10 H :    0.145793
  11 H :    0.116363
  12 H :    0.155701
  13 H :    0.162695
Sum of atomic charges:   -0.0000000

LOEWDIN ATOMIC CHARGES
----------------------
   0 O :   -0.038119
   1 C :   -0.351632
   2 C :   -0.244315
   3 N :    0.154159
   4 N :   -0.000408
   5 N :   -0.021215
   6 O :    0.221956
   7 C :   -0.565732
   8 O :    0.107428
   9 H :    0.179934
  10 H :    0.128435
  11 H :    0.124300
  12 H :    0.151333
  13 H :    0.153877

  Mayer bond orders larger than 0.1
B(  0-O ,  1-C ) :   0.9917 B(  0-O ,  9-H ) :   0.8425 B(  1-C ,  2-C ) :   0.9290
B(  1-C , 10-H ) :   0.9231 B(  1-C , 11-H ) :   0.9259 B(  2-C ,  3-N ) :   0.8464
B(  2-C , 12-H ) :   0.9166 B(  2-C , 13-H ) :   0.9175 B(  3-N ,  4-N ) :   0.9947
B(  3-N ,  7-C ) :   1.0796 B(  4-N ,  5-N ) :   1.5009 B(  5-N ,  6-O ) :   0.8341
B(  6-O ,  7-C ) :   1.0955 B(  7-C ,  8-O ) :   1.9435

MP2 TOTAL ENERGY:     -506.334819486 Eh
FINAL SINGLE POINT ENERGY      -506.334819486067

DIPOLE MOMENT
-------------
                                X             Y             Z
Electronic contribution:     -5.66340       0.65785      -6.40283
Nuclear contribution   :      6.59691      -0.78127       7.71797
                        -----------------------------------------
Total Dipole Moment    :      0.93351      -0.12342       1.31515
                        -----------------------------------------
Magnitude (a.u.)       :      1.61749
Magnitude (Debye)      :      4.11134

                             ****ORCA TERMINATED NORMALLY****
TOTAL RUN TIME: 0 days 0 hours 15 minutes 2 seconds 938 msec
