                         Program Version 3.0.3 - RELEASE   -
|  1> ! RI-MP2 RIJK def2-TZVP def2-TZVP/C def2-TZVP/JK TIGHTSCF
|  2> % maxcore 2000
|  3> % mp2 density relaxed end
|  4> *xyz 0 1
|  5>  O        0.1246478652     1.3403225901    -0.3355177236
|  6>  C        0.0240686721    -0.0456940271    -0.0461438946
|  7>  C        0.7571731663    -0.4299307401     1.2563811489
|  8>  C        0.4844249704     0.4999080376     2.4503124984
|  9>  O       -0.8379992962     0.4872402455     2.9559920480
| 10>  C       -1.8033751030     1.0966240815     2.1075396258
| 11>  C       -2.3396051761     0.1038575154     1.0913624830
| 12>  O       -2.4516644816     0.5295509234    -0.2750919592
| 13>  C       -1.4550003069    -0.4284659804     0.0493326190
| 14>  H        1.0597373478     1.5511393651    -0.4272964233
| 15>  H        0.4582041923    -0.6286986252    -0.8735037513
| 16>  H        0.4966979417    -1.4615720673     1.5232727806
| 17>  H        1.8416457197    -0.4182800223     1.0753599448
| 18>  H        1.1178464285     0.1879173437     3.2870381549
| 19>  H        0.7707678283     1.5269597219     2.1783131192
| 20>  H       -2.6079156456     1.4440434420     2.7632104014
| 21>  H       -1.3822093042     1.9567078237     1.5747714559
| 22>  H       -3.1639280497    -0.5255984173     1.4279060237
| 23>  H       -1.6606543390    -1.4352635502    -0.3180590316
| 24> *
| 25>
| 26>                          ****END OF INPUT****

CARTESIAN COORDINATES (ANGSTROEM)
---------------------------------
  O      0.124648    1.340323   -0.335518
  C      0.024069   -0.045694   -0.046144
  C      0.757173   -0.429931    1.256381
  C      0.484425    0.499908    2.450312
  O     -0.837999    0.487240    2.955992
  C     -1.803375    1.096624    2.107540
  C     -2.339605    0.103858    1.091362
  O     -2.451664    0.529551   -0.275092
  C     -1.455000   -0.428466    0.049333
  H      1.059737    1.551139   -0.427296
  H      0.458204   -0.628699   -0.873504
  H      0.496698   -1.461572    1.523273
  H      1.841646   -0.418280    1.075360
  H      1.117846    0.187917    3.287038
  H      0.770768    1.526960    2.178313
  H     -2.607916    1.444043    2.763210
  H     -1.382209    1.956708    1.574771
  H     -3.163928   -0.525598    1.427906
  H     -1.660654   -1.435264   -0.318059

 Total Charge           Charge          ....    0
 Multiplicity           Mult            ....    1
 Number of Electrons    NEL             ....   70
 Basis Dimension        Dim             ....  339

ORBITAL ENERGIES
----------------

  NO   OCC          E(Eh)            E(eV)
   0   2.0000     -20.566079      -559.6315
   1   2.0000     -20.565354      -559.6117
   2   2.0000     -20.555954      -559.3559
   3   2.0000     -11.297025      -307.4077
   4   2.0000     -11.285785      -307.1018
   5   2.0000     -11.279803      -306.9390
   6   2.0000     -11.279699      -306.9362
   7   2.0000     -11.274251      -306.7880
   8   2.0000     -11.237090      -305.7768
   9   2.0000      -1.415428       -38.5158
  10   2.0000      -1.373220       -37.3672
  11   2.0000      -1.369417       -37.2637
  12   2.0000      -1.063683       -28.9443
  13   2.0000      -1.007940       -27.4274
  14   2.0000      -0.942717       -25.6526
  15   2.0000      -0.882983       -24.0272
  16   2.0000      -0.814551       -22.1651
  17   2.0000      -0.773351       -21.0439
  18   2.0000      -0.727325       -19.7915
  19   2.0000      -0.685702       -18.6589
  20   2.0000      -0.678718       -18.4689
  21   2.0000      -0.655251       -17.8303
  22   2.0000      -0.632846       -17.2206
  23   2.0000      -0.611597       -16.6424
  24   2.0000      -0.597312       -16.2537
  25   2.0000      -0.570441       -15.5225
  26   2.0000      -0.548941       -14.9374
  27   2.0000      -0.530630       -14.4392
  28   2.0000      -0.513478       -13.9725
  29   2.0000      -0.502444       -13.6722
  30   2.0000      -0.470461       -12.8019
  31   2.0000      -0.468470       -12.7477
  32   2.0000      -0.444991       -12.1088
  33   2.0000      -0.423915       -11.5353
  34   2.0000      -0.407253       -11.0819
  35   0.0000       0.120406         3.2764
  36   0.0000       0.151027         4.1097
  37   0.0000       0.169936         4.6242
  38   0.0000       0.172582         4.6962
  39   0.0000       0.190668         5.1883

MULLIKEN ATOMIC CHARGES
-----------------------
   0 O :   -0.449569
   1 C :    0.108459
   2 C :   -0.290513
   3 C :   -0.065380
   4 O :   -0.318411
   5 C :   -0.029675
   6 C :   -0.039339
   7 O :   -0.317268
   8 C :    0.030942
   9 H :    0.312327
  10 H :    0.101559
  11 H :    0.116781
  12 H :    0.123232
  13 H :    0.128263
  14 H :    0.092930
  15 H :    0.125153
  16 H :    0.138322
  17 H :    0.107665
  18 H :    0.124520
Sum of atomic charges:   -0.0000000

LOEWDIN ATOMIC CHARGES
----------------------
   0 O :   -0.001690
   1 C :   -0.336855
   2 C :   -0.258727
   3 C :   -0.325621
   4 O :    0.153196
   5 C :   -0.293658
   6 C :   -0.262472
   7 O :    0.182608
   8 C :   -0.256275
   9 H :    0.176094
  10 H :    0.137948
  11 H :    0.147535
  12 H :    0.140864
  13 H :    0.131747
  14 H :    0.121455
  15 H :    0.131057
  16 H :    0.136536
  17 H :    0.135865
  18 H :    0.140395

  Mayer bond orders larger than 0.1
B(  0-O ,  1-C ) :   1.0196 B(  0-O ,  9-H ) :   0.8413 B(  1-C ,  2-C ) :   0.9241
B(  1-C ,  8-C ) :   0.8729 B(  1-C , 10-H ) :   0.9459 B(  2-C ,  3-C ) :   0.9314
B(  2-C , 11-H ) :   0.9123 B(  2-C , 12-H ) :   0.9268 B(  3-C ,  4-O ) :   0.9404
B(  3-C , 13-H ) :   0.9330 B(  3-C , 14-H ) :   0.9380 B(  4-O ,  5-C ) :   0.9036
B(  5-C ,  6-C ) :   0.8520 B(  5-C , 15-H ) :   0.9357 B(  5-C , 16-H ) :   0.9266
B(  6-C ,  7-O ) :   0.9606 B(  6-C ,  8-C ) :   0.9737 B(  6-C , 17-H ) :   0.9304
B(  7-O ,  8-C ) :   0.9036 B(  8-C , 18-H ) :   0.9110

MP2 TOTAL ENERGY:     -459.400954808 Eh
FINAL SINGLE POINT ENERGY      -459.400954808192

DIPOLE MOMENT
-------------
                                X             Y             Z
Electronic contribution:     -3.69900       0.99623      -1.81198
Nuclear contribution   :      4.73376      -1.48820       1.87119
                        -----------------------------------------
Total Dipole Moment    :      1.03476      -0.49197       0.05920
                        -----------------------------------------
Magnitude (a.u.)       :      1.14729
Magnitude (Debye)      :      2.91618

                             ****ORCA TERMINATED NORMALLY****
TOTAL RUN TIME: 0 days 0 hours 18 minutes 34 seconds 386 msec
