                         Program Version 3.0.3 - RELEASE   -
|  1> ! RI-MP2 RIJK def2-TZVP def2-TZVP/C def2-TZVP/JK TIGHTSCF
|  2> % maxcore 2000
|  3> % mp2 density relaxed end
|  4> *xyz 0 1
|  5>  O        0.0458437119    -0.0008772218     0.0447613023
|  6>  C       -0.0120174006     1.1929400496     0.0018070321
|  7>  C       -1.1927555914     2.1715887142     0.0434908671
|  8>  C       -0.8619793886     2.9982163034     1.3063526901
|  9>  C       -0.3614399878     4.1628348867     0.4957881686
| 10>  C        0.6491503645     3.2105240884     1.0911593031
| 11>  C        1.0951287760     2.2734236937    -0.0547043831
| 12>  O        0.6762201217     2.9429768933    -1.2603759243
| 13>  C       -0.6088362039     3.3759249553    -0.8102107873
| 14>  H       -2.1964907158     1.8024287388    -0.1369343300
| 15>  H       -1.3421546690     2.9536388716     2.2737016075
| 16>  H       -0.3876635574     5.2290065726     0.6737281465
| 17>  H        1.2963033867     3.5032582892     1.9044847224
| 18>  H        2.1317264627     1.9567406347    -0.1123649631
| 19>  H       -1.1901162689     3.7958211202    -1.6264057719
| 20> *
| 21>
| 22>                          ****END OF INPUT****

CARTESIAN COORDINATES (ANGSTROEM)
---------------------------------
  O      0.045844   -0.000877    0.044761
  C     -0.012017    1.192940    0.001807
  C     -1.192756    2.171589    0.043491
  C     -0.861979    2.998216    1.306353
  C     -0.361440    4.162835    0.495788
  C      0.649150    3.210524    1.091159
  C      1.095129    2.273424   -0.054704
  O      0.676220    2.942977   -1.260376
  C     -0.608836    3.375925   -0.810211
  H     -2.196491    1.802429   -0.136934
  H     -1.342155    2.953639    2.273702
  H     -0.387664    5.229007    0.673728
  H      1.296303    3.503258    1.904485
  H      2.131726    1.956741   -0.112365
  H     -1.190116    3.795821   -1.626406

 Total Charge           Charge          ....    0
 Multiplicity           Mult            ....    1
 Number of Electrons    NEL             ....   64
 Basis Dimension        Dim             ....  315

ORBITAL ENERGIES
----------------

  NO   OCC          E(Eh)            E(eV)
   0   2.0000     -20.575069      -559.8761
   1   2.0000     -20.556811      -559.3793
   2   2.0000     -11.334679      -308.4323
   3   2.0000     -11.308111      -307.7093
   4   2.0000     -11.301127      -307.5193
   5   2.0000     -11.263901      -306.5063
   6   2.0000     -11.258599      -306.3621
   7   2.0000     -11.255837      -306.2869
   8   2.0000     -11.254774      -306.2580
   9   2.0000      -1.421254       -38.6743
  10   2.0000      -1.392909       -37.9030
  11   2.0000      -1.215877       -33.0857
  12   2.0000      -1.017540       -27.6887
  13   2.0000      -1.012885       -27.5620
  14   2.0000      -0.882363       -24.0103
  15   2.0000      -0.802877       -21.8474
  16   2.0000      -0.769838       -20.9484
  17   2.0000      -0.756645       -20.5893
  18   2.0000      -0.744019       -20.2458
  19   2.0000      -0.669545       -18.2192
  20   2.0000      -0.659306       -17.9406
  21   2.0000      -0.623315       -16.9613
  22   2.0000      -0.604535       -16.4502
  23   2.0000      -0.583087       -15.8666
  24   2.0000      -0.566236       -15.4081
  25   2.0000      -0.525342       -14.2953
  26   2.0000      -0.510898       -13.9023
  27   2.0000      -0.476290       -12.9605
  28   2.0000      -0.466608       -12.6970
  29   2.0000      -0.446874       -12.1601
  30   2.0000      -0.421603       -11.4724
  31   2.0000      -0.373678       -10.1683
  32   0.0000       0.135648         3.6912
  33   0.0000       0.141978         3.8634
  34   0.0000       0.162532         4.4227
  35   0.0000       0.169811         4.6208
  36   0.0000       0.184180         5.0118

MULLIKEN ATOMIC CHARGES
-----------------------
   0 O :   -0.242581
   1 C :    0.064152
   2 C :   -0.018502
   3 C :   -0.187787
   4 C :   -0.153649
   5 C :   -0.192566
   6 C :    0.110257
   7 O :   -0.292540
   8 C :    0.006815
   9 H :    0.154104
  10 H :    0.147448
  11 H :    0.152224
  12 H :    0.153965
  13 H :    0.154963
  14 H :    0.143698
Sum of atomic charges:   -0.0000000

LOEWDIN ATOMIC CHARGES
----------------------
   0 O :    0.172417
   1 C :   -0.267057
   2 C :   -0.133878
   3 C :   -0.126247
   4 C :   -0.140718
   5 C :   -0.136338
   6 C :   -0.225783
   7 O :    0.201765
   8 C :   -0.208026
   9 H :    0.149032
  10 H :    0.139167
  11 H :    0.139153
  12 H :    0.149727
  13 H :    0.146118
  14 H :    0.140668

  Mayer bond orders larger than 0.1
B(  0-O ,  1-C ) :   2.0638 B(  1-C ,  2-C ) :   0.8636 B(  1-C ,  6-C ) :   0.8526
B(  2-C ,  3-C ) :   0.8897 B(  2-C ,  6-C ) :  -0.1015 B(  2-C ,  8-C ) :   0.9126
B(  2-C ,  9-H ) :   0.9117 B(  3-C ,  4-C ) :   0.8171 B(  3-C ,  5-C ) :   0.8971
B(  3-C , 10-H ) :   0.9258 B(  4-C ,  5-C ) :   0.8434 B(  4-C ,  8-C ) :   0.9434
B(  4-C , 11-H ) :   0.9183 B(  5-C ,  6-C ) :   0.9047 B(  5-C , 12-H ) :   0.9246
B(  6-C ,  7-O ) :   0.9165 B(  6-C , 13-H ) :   0.8963 B(  7-O ,  8-C ) :   0.9641
B(  8-C , 14-H ) :   0.9231

MP2 TOTAL ENERGY:     -419.897015440 Eh
FINAL SINGLE POINT ENERGY      -419.897015440167

DIPOLE MOMENT
-------------
                                X             Y             Z
Electronic contribution:      0.93507      -3.11267      -1.77448
Nuclear contribution   :     -1.31030       4.22644       2.38231
                        -----------------------------------------
Total Dipole Moment    :     -0.37523       1.11377       0.60783
                        -----------------------------------------
Magnitude (a.u.)       :      1.32315
Magnitude (Debye)      :      3.36318

                             ****ORCA TERMINATED NORMALLY****
TOTAL RUN TIME: 0 days 0 hours 18 minutes 12 seconds 231 msec
