                         Program Version 3.0.3 - RELEASE   -
|  1> ! RI-MP2 RIJK def2-TZVP def2-TZVP/C def2-TZVP/JK TIGHTSCF
|  2> % maxcore 2000
|  3> % mp2 density relaxed end
|  4> *xyz 0 1
|  5>  C       -0.2890349939     1.5058682484     0.0018359837
|  6>  N        0.0684888317     0.1017303717     0.0094350734
|  7>  C        1.0592423884    -0.4615177579    -0.9547427634
|  8>  C        2.2869213093     0.4370569967    -1.1204928407
|  9>  N        3.0502620629     0.3329661059     0.1378069045
| 10>  C        2.9151029111    -1.0182794333     0.6506025822
| 11>  C        2.2727086460     0.1302751922     1.3776539884
| 12>  C        0.8463336646    -0.4612560243     1.1124013005
| 13>  C        1.5167528301    -1.4784202656     0.1604344475
| 14>  H        0.5512707868     2.1999616919     0.1739726812
| 15>  H       -0.7518561228     1.7642447488    -0.9567389502
| 16>  H       -1.0321945779     1.6852967732     0.7871452258
| 17>  H        0.6224196156    -0.8238924137    -1.8899732539
| 18>  H        2.9364542958     0.0814294937    -1.9286015077
| 19>  H        2.0328436048     1.4797346196    -1.3301041013
| 20>  H        3.7877469798    -1.6192633512     0.8755277262
| 21>  H        2.6020445202     0.6759654545     2.2553172232
| 22>  H        0.3038593739    -0.7422671154     2.0195605517
| 23>  H        1.2248183737    -2.5220377850     0.1034649490
| 24> *
| 25>
| 26>                          ****END OF INPUT****

CARTESIAN COORDINATES (ANGSTROEM)
---------------------------------
  C     -0.289035    1.505868    0.001836
  N      0.068489    0.101730    0.009435
  C      1.059242   -0.461518   -0.954743
  C      2.286921    0.437057   -1.120493
  N      3.050262    0.332966    0.137807
  C      2.915103   -1.018279    0.650603
  C      2.272709    0.130275    1.377654
  C      0.846334   -0.461256    1.112401
  C      1.516753   -1.478420    0.160434
  H      0.551271    2.199962    0.173973
  H     -0.751856    1.764245   -0.956739
  H     -1.032195    1.685297    0.787145
  H      0.622420   -0.823892   -1.889973
  H      2.936454    0.081429   -1.928602
  H      2.032844    1.479735   -1.330104
  H      3.787747   -1.619263    0.875528
  H      2.602045    0.675965    2.255317
  H      0.303859   -0.742267    2.019561
  H      1.224818   -2.522038    0.103465

 Total Charge           Charge          ....    0
 Multiplicity           Mult            ....    1
 Number of Electrons    NEL             ....   66
 Basis Dimension        Dim             ....  339

ORBITAL ENERGIES
----------------

  NO   OCC          E(Eh)            E(eV)
   0   2.0000     -15.561434      -423.4482
   1   2.0000     -15.543105      -422.9494
   2   2.0000     -11.261828      -306.4499
   3   2.0000     -11.259328      -306.3819
   4   2.0000     -11.258132      -306.3493
   5   2.0000     -11.257269      -306.3259
   6   2.0000     -11.246873      -306.0430
   7   2.0000     -11.240436      -305.8678
   8   2.0000     -11.234785      -305.7141
   9   2.0000      -1.319029       -35.8926
  10   2.0000      -1.220607       -33.2144
  11   2.0000      -1.046474       -28.4760
  12   2.0000      -1.020236       -27.7620
  13   2.0000      -0.904956       -24.6251
  14   2.0000      -0.871510       -23.7150
  15   2.0000      -0.828738       -22.5511
  16   2.0000      -0.775569       -21.1043
  17   2.0000      -0.715407       -19.4672
  18   2.0000      -0.697973       -18.9928
  19   2.0000      -0.645809       -17.5733
  20   2.0000      -0.630929       -17.1685
  21   2.0000      -0.613657       -16.6985
  22   2.0000      -0.599837       -16.3224
  23   2.0000      -0.560392       -15.2490
  24   2.0000      -0.556104       -15.1324
  25   2.0000      -0.503473       -13.7002
  26   2.0000      -0.488885       -13.3032
  27   2.0000      -0.472054       -12.8452
  28   2.0000      -0.456523       -12.4226
  29   2.0000      -0.430636       -11.7182
  30   2.0000      -0.428495       -11.6600
  31   2.0000      -0.375131       -10.2078
  32   2.0000      -0.338624        -9.2144
  33   0.0000       0.143885         3.9153
  34   0.0000       0.155977         4.2443
  35   0.0000       0.169153         4.6029
  36   0.0000       0.184595         5.0231
  37   0.0000       0.190219         5.1761

MULLIKEN ATOMIC CHARGES
-----------------------
   0 C :   -0.339722
   1 N :   -0.132144
   2 C :   -0.074587
   3 C :   -0.167523
   4 N :   -0.189662
   5 C :   -0.095864
   6 C :   -0.194271
   7 C :   -0.029250
   8 C :   -0.069858
   9 H :    0.113403
  10 H :    0.138916
  11 H :    0.140104
  12 H :    0.118331
  13 H :    0.122907
  14 H :    0.128414
  15 H :    0.137312
  16 H :    0.129394
  17 H :    0.119959
  18 H :    0.144142
Sum of atomic charges:   -0.0000000

LOEWDIN ATOMIC CHARGES
----------------------
   0 C :   -0.337998
   1 N :    0.105213
   2 C :   -0.212609
   3 C :   -0.257799
   4 N :    0.141334
   5 C :   -0.194204
   6 C :   -0.186733
   7 C :   -0.207882
   8 C :   -0.133224
   9 H :    0.103772
  10 H :    0.119423
  11 H :    0.120362
  12 H :    0.134096
  13 H :    0.137079
  14 H :    0.134331
  15 H :    0.130789
  16 H :    0.130093
  17 H :    0.135711
  18 H :    0.138246

  Mayer bond orders larger than 0.1
B(  0-C ,  1-N ) :   0.8936 B(  0-C ,  9-H ) :   0.9180 B(  0-C , 10-H ) :   0.9369
B(  0-C , 11-H ) :   0.9376 B(  1-N ,  2-C ) :   0.9806 B(  1-N ,  7-C ) :   1.0202
B(  2-C ,  3-C ) :   0.9501 B(  2-C ,  8-C ) :   0.8957 B(  2-C , 12-H ) :   0.9048
B(  3-C ,  4-N ) :   0.9090 B(  3-C , 13-H ) :   0.9316 B(  3-C , 14-H ) :   0.9258
B(  4-N ,  5-C ) :   0.9057 B(  4-N ,  6-C ) :   0.9420 B(  5-C ,  6-C ) :   0.8486
B(  5-C ,  8-C ) :   0.9016 B(  5-C , 15-H ) :   0.9198 B(  6-C ,  7-C ) :   0.8848
B(  6-C , 16-H ) :   0.9383 B(  7-C ,  8-C ) :   0.9437 B(  7-C , 17-H ) :   0.9001
B(  8-C , 18-H ) :   0.8897

MP2 TOTAL ENERGY:     -381.322201079 Eh
FINAL SINGLE POINT ENERGY      -381.322201079368

DIPOLE MOMENT
-------------
                                X             Y             Z
Electronic contribution:      2.39141      -2.82651       1.16931
Nuclear contribution   :     -2.57026       2.65303      -1.19714
                        -----------------------------------------
Total Dipole Moment    :     -0.17886      -0.17347      -0.02783
                        -----------------------------------------
Magnitude (a.u.)       :      0.25071
Magnitude (Debye)      :      0.63726

                             ****ORCA TERMINATED NORMALLY****
TOTAL RUN TIME: 0 days 0 hours 20 minutes 38 seconds 369 msec
