                         Program Version 3.0.3 - RELEASE   -
|  1> ! RI-MP2 RIJK def2-TZVP def2-TZVP/C def2-TZVP/JK TIGHTSCF
|  2> % maxcore 2000
|  3> % mp2 density relaxed end
|  4> *xyz 0 1
|  5>  C       -0.0764472932     1.4855538018     0.0414032794
|  6>  C       -0.0325134246     0.0300424304     0.0138093702
|  7>  C       -0.0038449193    -1.1753595853    -0.0039118896
|  8>  C        0.0380106273    -2.6154189885    -0.0302338079
|  9>  C       -0.4693967717    -3.3514754392     1.2048128296
| 10>  C       -1.2964855639    -3.3525643604    -0.0484373417
| 11>  C        1.1836238343    -3.2454158933    -0.7857443712
| 12>  C        1.7288709630    -2.6335593301    -2.0504439798
| 13>  C        2.5604827736    -2.6327370668    -0.7901142178
| 14>  H        0.7870258161     1.9166707241    -0.4772773814
| 15>  H       -0.9789985036     1.8697777288    -0.4473248552
| 16>  H       -0.0671458441     1.8678311910     1.0684563900
| 17>  H        0.0526055810    -4.2617173025     1.4803797477
| 18>  H       -0.8057355814    -2.7516222664     2.0419310070
| 19>  H       -2.1988893388    -2.7534367507    -0.0690749797
| 20>  H       -1.3438847152    -4.2635590269    -0.6356388810
| 21>  H        1.1477152916    -4.3315056422    -0.7613299380
| 22>  H        2.0111094394    -3.2962317726    -2.8611543156
| 23>  H        1.3068822143    -1.6859385635    -2.3661750236
| 24>  H        2.6842288334    -1.6845894508    -0.2787888401
| 25>  H        3.4172546818    -3.2948436369    -0.7300919111
| 26> *
| 27>
| 28>                          ****END OF INPUT****

CARTESIAN COORDINATES (ANGSTROEM)
---------------------------------
  C     -0.076447    1.485554    0.041403
  C     -0.032513    0.030042    0.013809
  C     -0.003845   -1.175360   -0.003912
  C      0.038011   -2.615419   -0.030234
  C     -0.469397   -3.351475    1.204813
  C     -1.296486   -3.352564   -0.048437
  C      1.183624   -3.245416   -0.785744
  C      1.728871   -2.633559   -2.050444
  C      2.560483   -2.632737   -0.790114
  H      0.787026    1.916671   -0.477277
  H     -0.978999    1.869778   -0.447325
  H     -0.067146    1.867831    1.068456
  H      0.052606   -4.261717    1.480380
  H     -0.805736   -2.751622    2.041931
  H     -2.198889   -2.753437   -0.069075
  H     -1.343885   -4.263559   -0.635639
  H      1.147715   -4.331506   -0.761330
  H      2.011109   -3.296232   -2.861154
  H      1.306882   -1.685939   -2.366175
  H      2.684229   -1.684589   -0.278789
  H      3.417255   -3.294844   -0.730092

 Total Charge           Charge          ....    0
 Multiplicity           Mult            ....    1
 Number of Electrons    NEL             ....   66
 Basis Dimension        Dim             ....  351

ORBITAL ENERGIES
----------------

  NO   OCC          E(Eh)            E(eV)
   0   2.0000     -11.257189      -306.3237
   1   2.0000     -11.243536      -305.9522
   2   2.0000     -11.232641      -305.6557
   3   2.0000     -11.229255      -305.5636
   4   2.0000     -11.228574      -305.5450
   5   2.0000     -11.217985      -305.2569
   6   2.0000     -11.216852      -305.2261
   7   2.0000     -11.216205      -305.2085
   8   2.0000     -11.213310      -305.1297
   9   2.0000      -1.172385       -31.9022
  10   2.0000      -1.114879       -30.3374
  11   2.0000      -1.047383       -28.5007
  12   2.0000      -0.957722       -26.0609
  13   2.0000      -0.873370       -23.7656
  14   2.0000      -0.828492       -22.5444
  15   2.0000      -0.811932       -22.0938
  16   2.0000      -0.791936       -21.5497
  17   2.0000      -0.677779       -18.4433
  18   2.0000      -0.667065       -18.1518
  19   2.0000      -0.635864       -17.3027
  20   2.0000      -0.616374       -16.7724
  21   2.0000      -0.586060       -15.9475
  22   2.0000      -0.583364       -15.8741
  23   2.0000      -0.581909       -15.8345
  24   2.0000      -0.519974       -14.1492
  25   2.0000      -0.513267       -13.9667
  26   2.0000      -0.508202       -13.8289
  27   2.0000      -0.489034       -13.3073
  28   2.0000      -0.454624       -12.3710
  29   2.0000      -0.409878       -11.1533
  30   2.0000      -0.398703       -10.8493
  31   2.0000      -0.362701        -9.8696
  32   2.0000      -0.333139        -9.0652
  33   0.0000       0.135607         3.6901
  34   0.0000       0.150582         4.0976
  35   0.0000       0.171625         4.6702
  36   0.0000       0.172500         4.6940
  37   0.0000       0.185856         5.0574

MULLIKEN ATOMIC CHARGES
-----------------------
   0 C :   -0.488820
   1 C :    0.069365
   2 C :   -0.027671
   3 C :   -0.004633
   4 C :   -0.278603
   5 C :   -0.278627
   6 C :   -0.098994
   7 C :   -0.276168
   8 C :   -0.276213
   9 H :    0.161700
  10 H :    0.162021
  11 H :    0.162044
  12 H :    0.128351
  13 H :    0.135444
  14 H :    0.135455
  15 H :    0.128341
  16 H :    0.114243
  17 H :    0.126126
  18 H :    0.140270
  19 H :    0.140244
  20 H :    0.126126
Sum of atomic charges:   -0.0000000

LOEWDIN ATOMIC CHARGES
----------------------
   0 C :   -0.297457
   1 C :   -0.098703
   2 C :   -0.041251
   3 C :   -0.218673
   4 C :   -0.185344
   5 C :   -0.185341
   6 C :   -0.182508
   7 C :   -0.221049
   8 C :   -0.221049
   9 H :    0.140819
  10 H :    0.139791
  11 H :    0.139918
  12 H :    0.134692
  13 H :    0.137071
  14 H :    0.137073
  15 H :    0.134688
  16 H :    0.153418
  17 H :    0.128904
  18 H :    0.138048
  19 H :    0.138048
  20 H :    0.128904

  Mayer bond orders larger than 0.1
B(  0-C ,  1-C ) :   0.8288 B(  0-C ,  9-H ) :   0.9487 B(  0-C , 10-H ) :   0.9508
B(  0-C , 11-H ) :   0.9508 B(  1-C ,  2-C ) :   2.6149 B(  1-C ,  3-C ) :  -0.1612
B(  2-C ,  3-C ) :   1.0863 B(  3-C ,  4-C ) :   0.8206 B(  3-C ,  5-C ) :   0.8206
B(  3-C ,  6-C ) :   0.9616 B(  4-C ,  5-C ) :   0.9393 B(  4-C , 12-H ) :   0.9210
B(  4-C , 13-H ) :   0.9260 B(  5-C , 14-H ) :   0.9260 B(  5-C , 15-H ) :   0.9210
B(  6-C ,  7-C ) :   0.8772 B(  6-C ,  8-C ) :   0.8771 B(  6-C , 16-H ) :   0.9087
B(  7-C ,  8-C ) :   0.9198 B(  7-C , 17-H ) :   0.9277 B(  7-C , 18-H ) :   0.9249
B(  8-C , 19-H ) :   0.9250 B(  8-C , 20-H ) :   0.9277

MP2 TOTAL ENERGY:     -349.243999978 Eh
FINAL SINGLE POINT ENERGY      -349.243999978313

DIPOLE MOMENT
-------------
                                X             Y             Z
Electronic contribution:     -1.03349      -0.46897       0.68173
Nuclear contribution   :      0.98644       0.55020      -0.65049
                        -----------------------------------------
Total Dipole Moment    :     -0.04705       0.08123       0.03124
                        -----------------------------------------
Magnitude (a.u.)       :      0.09894
Magnitude (Debye)      :      0.25148

                             ****ORCA TERMINATED NORMALLY****
TOTAL RUN TIME: 0 days 0 hours 19 minutes 48 seconds 475 msec
