                         Program Version 3.0.3 - RELEASE   -
|  1> ! RI-MP2 RIJK def2-TZVP def2-TZVP/C def2-TZVP/JK TIGHTSCF
|  2> % maxcore 2000
|  3> % mp2 density relaxed end
|  4> *xyz 0 1
|  5>  C       -0.1408053275     1.5543271989     0.2319605439
|  6>  C       -0.0617904318     0.0365962249     0.0472395771
|  7>  C       -1.4378530682    -0.6356421228    -0.0046878069
|  8>  C       -1.3664654919    -2.1552743898    -0.1896962970
|  9>  C       -2.7463529111    -2.8202733797    -0.2430061302
| 10>  C       -2.6564109507    -4.3298885978    -0.4302798066
| 11>  O       -3.9633972300    -4.9059159068    -0.5698324124
| 12>  C       -4.4651026679    -5.5967082896     0.4683275604
| 13>  O       -5.5581556984    -6.0776018844     0.4616518962
| 14>  H        0.8557784971     2.0052408053     0.2653276663
| 15>  H       -0.6918484440     2.0250570868    -0.5897832222
| 16>  H       -0.6548891745     1.8135929198     1.1641861573
| 17>  H        0.4875635205    -0.1927899670    -0.8755007539
| 18>  H        0.5246321921    -0.4027029120     0.8652089245
| 19>  H       -1.9890144428    -0.4076044843     0.9181518089
| 20>  H       -2.0259757588    -0.1980912983    -0.8231542623
| 21>  H       -0.8156661867    -2.3829999967    -1.1128476132
| 22>  H       -0.7785494980    -2.5929575652     0.6292677168
| 23>  H       -3.3020540307    -2.6082316745     0.6794260981
| 24>  H       -3.3371378061    -2.4012756180    -1.0660803137
| 25>  H       -2.1133812008    -4.5811823487    -1.3465911681
| 26>  H       -2.1301041245    -4.8005989363     0.4111953368
| 27>  H       -3.7535414453    -5.6740350239     1.3152274003
| 28> *
| 29>
| 30>                          ****END OF INPUT****

CARTESIAN COORDINATES (ANGSTROEM)
---------------------------------
  C     -0.140805    1.554327    0.231961
  C     -0.061790    0.036596    0.047240
  C     -1.437853   -0.635642   -0.004688
  C     -1.366465   -2.155274   -0.189696
  C     -2.746353   -2.820273   -0.243006
  C     -2.656411   -4.329889   -0.430280
  O     -3.963397   -4.905916   -0.569832
  C     -4.465103   -5.596708    0.468328
  O     -5.558156   -6.077602    0.461652
  H      0.855778    2.005241    0.265328
  H     -0.691848    2.025057   -0.589783
  H     -0.654889    1.813593    1.164186
  H      0.487564   -0.192790   -0.875501
  H      0.524632   -0.402703    0.865209
  H     -1.989014   -0.407604    0.918152
  H     -2.025976   -0.198091   -0.823154
  H     -0.815666   -2.383000   -1.112848
  H     -0.778549   -2.592958    0.629268
  H     -3.302054   -2.608232    0.679426
  H     -3.337138   -2.401276   -1.066080
  H     -2.113381   -4.581182   -1.346591
  H     -2.130104   -4.800599    0.411195
  H     -3.753541   -5.674035    1.315227

 Total Charge           Charge          ....    0
 Multiplicity           Mult            ....    1
 Number of Electrons    NEL             ....   72
 Basis Dimension        Dim             ....  363

ORBITAL ENERGIES
----------------

  NO   OCC          E(Eh)            E(eV)
   0   2.0000     -20.606488      -560.7310
   1   2.0000     -20.547557      -559.1275
   2   2.0000     -11.381316      -309.7014
   3   2.0000     -11.304964      -307.6237
   4   2.0000     -11.238144      -305.8054
   5   2.0000     -11.235475      -305.7328
   6   2.0000     -11.228286      -305.5372
   7   2.0000     -11.226585      -305.4909
   8   2.0000     -11.218232      -305.2636
   9   2.0000      -1.460140       -39.7324
  10   2.0000      -1.370636       -37.2969
  11   2.0000      -1.102154       -29.9911
  12   2.0000      -1.053508       -28.6674
  13   2.0000      -0.981136       -26.6981
  14   2.0000      -0.901007       -24.5177
  15   2.0000      -0.844906       -22.9911
  16   2.0000      -0.825706       -22.4686
  17   2.0000      -0.800001       -21.7691
  18   2.0000      -0.723836       -19.6966
  19   2.0000      -0.689042       -18.7498
  20   2.0000      -0.660367       -17.9695
  21   2.0000      -0.652531       -17.7563
  22   2.0000      -0.622694       -16.9444
  23   2.0000      -0.597628       -16.2623
  24   2.0000      -0.582881       -15.8610
  25   2.0000      -0.567280       -15.4365
  26   2.0000      -0.552453       -15.0330
  27   2.0000      -0.546183       -14.8624
  28   2.0000      -0.517122       -14.0716
  29   2.0000      -0.508211       -13.8291
  30   2.0000      -0.488720       -13.2987
  31   2.0000      -0.481556       -13.1038
  32   2.0000      -0.475439       -12.9374
  33   2.0000      -0.472936       -12.8693
  34   2.0000      -0.455445       -12.3933
  35   2.0000      -0.443980       -12.0813
  36   0.0000       0.123106         3.3499
  37   0.0000       0.137972         3.7544
  38   0.0000       0.143098         3.8939
  39   0.0000       0.157024         4.2728
  40   0.0000       0.163251         4.4423

MULLIKEN ATOMIC CHARGES
-----------------------
   0 C :   -0.384542
   1 C :   -0.180802
   2 C :   -0.231172
   3 C :   -0.248688
   4 C :   -0.189213
   5 C :   -0.087915
   6 O :   -0.202662
   7 C :    0.199799
   8 O :   -0.274132
   9 H :    0.134615
  10 H :    0.123373
  11 H :    0.122846
  12 H :    0.105845
  13 H :    0.105088
  14 H :    0.109433
  15 H :    0.110914
  16 H :    0.113665
  17 H :    0.111840
  18 H :    0.115435
  19 H :    0.129134
  20 H :    0.133663
  21 H :    0.114760
  22 H :    0.068715
Sum of atomic charges:    0.0000000

LOEWDIN ATOMIC CHARGES
----------------------
   0 C :   -0.320959
   1 C :   -0.297790
   2 C :   -0.272340
   3 C :   -0.268305
   4 C :   -0.272175
   5 C :   -0.294424
   6 O :    0.245269
   7 C :   -0.457840
   8 O :    0.116769
   9 H :    0.120888
  10 H :    0.120593
  11 H :    0.120436
  12 H :    0.134458
  13 H :    0.134203
  14 H :    0.137534
  15 H :    0.138110
  16 H :    0.138616
  17 H :    0.137442
  18 H :    0.139803
  19 H :    0.144064
  20 H :    0.132637
  21 H :    0.123183
  22 H :    0.099828

  Mayer bond orders larger than 0.1
B(  0-C ,  1-C ) :   0.9247 B(  0-C ,  9-H ) :   0.9430 B(  0-C , 10-H ) :   0.9393
B(  0-C , 11-H ) :   0.9393 B(  1-C ,  2-C ) :   0.9330 B(  1-C , 12-H ) :   0.9332
B(  1-C , 13-H ) :   0.9332 B(  2-C ,  3-C ) :   0.9359 B(  2-C , 14-H ) :   0.9306
B(  2-C , 15-H ) :   0.9307 B(  3-C ,  4-C ) :   0.9216 B(  3-C , 16-H ) :   0.9267
B(  3-C , 17-H ) :   0.9287 B(  4-C ,  5-C ) :   0.9319 B(  4-C , 18-H ) :   0.9269
B(  4-C , 19-H ) :   0.9253 B(  5-C ,  6-O ) :   0.8591 B(  5-C , 20-H ) :   0.9286
B(  5-C , 21-H ) :   0.9518 B(  6-O ,  7-C ) :   1.0792 B(  7-C ,  8-O ) :   2.0194
B(  7-C , 22-H ) :   0.9137

MP2 TOTAL ENERGY:     -424.748210268 Eh
FINAL SINGLE POINT ENERGY      -424.748210268240

DIPOLE MOMENT
-------------
                                X             Y             Z
Electronic contribution:    -12.83872     -16.67322      -0.48144
Nuclear contribution   :     14.40497      17.48655       0.68229
                        -----------------------------------------
Total Dipole Moment    :      1.56625       0.81334       0.20084
                        -----------------------------------------
Magnitude (a.u.)       :      1.77623
Magnitude (Debye)      :      4.51481

                             ****ORCA TERMINATED NORMALLY****
TOTAL RUN TIME: 0 days 0 hours 15 minutes 51 seconds 333 msec
