                         Program Version 3.0.3 - RELEASE   -
|  1> ! RI-MP2 RIJK def2-TZVP def2-TZVP/C def2-TZVP/JK TIGHTSCF
|  2> % maxcore 2000
|  3> % mp2 density relaxed end
|  4> *xyz 0 1
|  5>  C       -0.1018926817     1.5321427452     0.2783190526
|  6>  C        0.0800039613     0.0598245570    -0.0340955178
|  7>  C       -1.1852329246    -0.8546362729     0.0628193915
|  8>  C       -0.5157178309    -1.6464149222     1.2352778107
|  9>  O       -0.4449726417    -3.0423217757     1.1728280964
| 10>  C        0.8010775925    -0.8613256456     1.0064792641
| 11>  O        1.7462204119    -1.6064765642     0.2025280016
| 12>  C        1.6676496426    -1.0623596296    -1.0502088764
| 13>  N        0.8234341911    -0.1530013965    -1.2920593015
| 14>  H        0.8646443669     2.0430609240     0.3280600482
| 15>  H       -0.6997553067     2.0117488625    -0.5023940051
| 16>  H       -0.6152853703     1.6684582890     1.2358082643
| 17>  H       -2.1221074578    -0.3505796953     0.3118686686
| 18>  H       -1.3322379420    -1.4582264229    -0.8351766244
| 19>  H       -0.9636292045    -1.3889520678     2.2001323805
| 20>  H        0.2769531509    -3.2590470914     0.5696956290
| 21>  H        1.3312952019    -0.4529487000     1.8695251207
| 22>  H        2.3727306011    -1.4835609637    -1.7581689729
| 23> *
| 24>
| 25>                          ****END OF INPUT****

CARTESIAN COORDINATES (ANGSTROEM)
---------------------------------
  C     -0.101893    1.532143    0.278319
  C      0.080004    0.059825   -0.034096
  C     -1.185233   -0.854636    0.062819
  C     -0.515718   -1.646415    1.235278
  O     -0.444973   -3.042322    1.172828
  C      0.801078   -0.861326    1.006479
  O      1.746220   -1.606477    0.202528
  C      1.667650   -1.062360   -1.050209
  N      0.823434   -0.153001   -1.292059
  H      0.864644    2.043061    0.328060
  H     -0.699755    2.011749   -0.502394
  H     -0.615285    1.668458    1.235808
  H     -2.122107   -0.350580    0.311869
  H     -1.332238   -1.458226   -0.835177
  H     -0.963629   -1.388952    2.200132
  H      0.276953   -3.259047    0.569696
  H      1.331295   -0.452949    1.869525
  H      2.372731   -1.483561   -1.758169

 Total Charge           Charge          ....    0
 Multiplicity           Mult            ....    1
 Number of Electrons    NEL             ....   68
 Basis Dimension        Dim             ....  333

ORBITAL ENERGIES
----------------

  NO   OCC          E(Eh)            E(eV)
   0   2.0000     -20.608178      -560.7770
   1   2.0000     -20.560654      -559.4838
   2   2.0000     -15.557365      -423.3374
   3   2.0000     -11.339979      -308.5765
   4   2.0000     -11.295373      -307.3627
   5   2.0000     -11.291178      -307.2486
   6   2.0000     -11.278208      -306.8956
   7   2.0000     -11.228021      -305.5300
   8   2.0000     -11.226124      -305.4784
   9   2.0000      -1.448126       -39.4055
  10   2.0000      -1.369718       -37.2719
  11   2.0000      -1.228902       -33.4401
  12   2.0000      -1.119499       -30.4631
  13   2.0000      -0.988712       -26.9042
  14   2.0000      -0.932661       -25.3790
  15   2.0000      -0.873904       -23.7801
  16   2.0000      -0.799317       -21.7505
  17   2.0000      -0.775327       -21.0977
  18   2.0000      -0.719370       -19.5751
  19   2.0000      -0.707222       -19.2445
  20   2.0000      -0.649841       -17.6831
  21   2.0000      -0.628942       -17.1144
  22   2.0000      -0.612895       -16.6777
  23   2.0000      -0.586013       -15.9462
  24   2.0000      -0.579531       -15.7698
  25   2.0000      -0.578194       -15.7334
  26   2.0000      -0.551348       -15.0029
  27   2.0000      -0.534400       -14.5418
  28   2.0000      -0.513843       -13.9824
  29   2.0000      -0.488206       -13.2848
  30   2.0000      -0.477150       -12.9839
  31   2.0000      -0.429885       -11.6978
  32   2.0000      -0.418488       -11.3876
  33   2.0000      -0.385879       -10.5003
  34   0.0000       0.133067         3.6209
  35   0.0000       0.150377         4.0920
  36   0.0000       0.161480         4.3941
  37   0.0000       0.168206         4.5771
  38   0.0000       0.176203         4.7947

MULLIKEN ATOMIC CHARGES
-----------------------
   0 C :   -0.423521
   1 C :    0.138528
   2 C :   -0.189838
   3 C :   -0.002455
   4 O :   -0.450250
   5 C :    0.065257
   6 O :   -0.305277
   7 C :    0.075347
   8 N :   -0.258119
   9 H :    0.133768
  10 H :    0.146518
  11 H :    0.125436
  12 H :    0.126364
  13 H :    0.115289
  14 H :    0.101043
  15 H :    0.326282
  16 H :    0.125217
  17 H :    0.150412
Sum of atomic charges:   -0.0000000

LOEWDIN ATOMIC CHARGES
----------------------
   0 C :   -0.268019
   1 C :   -0.291520
   2 C :   -0.175424
   3 C :   -0.313662
   4 O :   -0.005785
   5 C :   -0.199040
   6 O :    0.218662
   7 C :   -0.337597
   8 N :    0.115023
   9 H :    0.129503
  10 H :    0.134032
  11 H :    0.128156
  12 H :    0.132722
  13 H :    0.141917
  14 H :    0.142854
  15 H :    0.178782
  16 H :    0.134623
  17 H :    0.134772

  Mayer bond orders larger than 0.1
B(  0-C ,  1-C ) :   0.9077 B(  0-C ,  9-H ) :   0.9374 B(  0-C , 10-H ) :   0.9412
B(  0-C , 11-H ) :   0.9299 B(  1-C ,  2-C ) :   0.8974 B(  1-C ,  5-C ) :   0.9455
B(  1-C ,  8-N ) :   0.9081 B(  2-C ,  3-C ) :   0.8771 B(  2-C , 12-H ) :   0.9149
B(  2-C , 13-H ) :   0.8831 B(  3-C ,  4-O ) :   1.0304 B(  3-C ,  5-C ) :   0.9396
B(  3-C , 14-H ) :   0.9374 B(  4-O , 15-H ) :   0.8249 B(  5-C ,  6-O ) :   0.8206
B(  5-C , 16-H ) :   0.9345 B(  6-O ,  7-C ) :   1.0287 B(  7-C ,  8-N ) :   1.8387
B(  7-C , 17-H ) :   0.9223

MP2 TOTAL ENERGY:     -438.371369006 Eh
FINAL SINGLE POINT ENERGY      -438.371369005771

DIPOLE MOMENT
-------------
                                X             Y             Z
Electronic contribution:      3.69975      -4.57546      -1.31574
Nuclear contribution   :     -3.50400       4.97663       1.53050
                        -----------------------------------------
Total Dipole Moment    :      0.19576       0.40117       0.21476
                        -----------------------------------------
Magnitude (a.u.)       :      0.49536
Magnitude (Debye)      :      1.25911

                             ****ORCA TERMINATED NORMALLY****
TOTAL RUN TIME: 0 days 0 hours 17 minutes 30 seconds 49 msec
