                         Program Version 3.0.3 - RELEASE   -
|  1> ! RI-MP2 RIJK def2-TZVP def2-TZVP/C def2-TZVP/JK TIGHTSCF
|  2> % maxcore 2000
|  3> % mp2 density relaxed end
|  4> *xyz 0 1
|  5>  C       -0.1986399293     1.1933922503    -0.4156484940
|  6>  C        1.1982934026     1.1618456305     0.1004642119
|  7>  N        0.3699399655    -0.0416422317     0.1133007349
|  8>  C       -0.0934896511    -0.5282868639     1.3476636685
|  9>  C       -1.4006735740    -0.7543827668     1.7402177162
| 10>  N       -1.3275481163    -1.3150929892     2.9772340139
| 11>  N       -0.0707200309    -1.4659171847     3.4212701643
| 12>  C        0.6867244698    -0.9929510165     2.4344047104
| 13>  H       -0.9391175620     1.7074888527     0.1937291097
| 14>  H       -0.3924387468     1.2007795240    -1.4841239059
| 15>  H        2.0392539977     1.1421840765    -0.5861816312
| 16>  H        1.3870461138     1.6536789692     1.0521068740
| 17>  H       -2.3397546659    -0.5762260157     1.2423834538
| 18>  H       -2.0901888522    -1.6056809733     3.5640839230
| 19>  H        1.7627842192    -0.9988847615     2.5246512204
| 20> *
| 21>
| 22>                          ****END OF INPUT****

CARTESIAN COORDINATES (ANGSTROEM)
---------------------------------
  C     -0.198640    1.193392   -0.415648
  C      1.198293    1.161846    0.100464
  N      0.369940   -0.041642    0.113301
  C     -0.093490   -0.528287    1.347664
  C     -1.400674   -0.754383    1.740218
  N     -1.327548   -1.315093    2.977234
  N     -0.070720   -1.465917    3.421270
  C      0.686724   -0.992951    2.434405
  H     -0.939118    1.707489    0.193729
  H     -0.392439    1.200780   -1.484124
  H      2.039254    1.142184   -0.586182
  H      1.387046    1.653679    1.052107
  H     -2.339755   -0.576226    1.242383
  H     -2.090189   -1.605681    3.564084
  H      1.762784   -0.998885    2.524651

 Total Charge           Charge          ....    0
 Multiplicity           Mult            ....    1
 Number of Electrons    NEL             ....   58
 Basis Dimension        Dim             ....  290

ORBITAL ENERGIES
----------------

  NO   OCC          E(Eh)            E(eV)
   0   2.0000     -15.633141      -425.3994
   1   2.0000     -15.586247      -424.1233
   2   2.0000     -15.572681      -423.7542
   3   2.0000     -11.266132      -306.5670
   4   2.0000     -11.264717      -306.5285
   5   2.0000     -11.263617      -306.4986
   6   2.0000     -11.254752      -306.2574
   7   2.0000     -11.245316      -306.0006
   8   2.0000      -1.372164       -37.3385
   9   2.0000      -1.286529       -35.0082
  10   2.0000      -1.091959       -29.7137
  11   2.0000      -1.059561       -28.8321
  12   2.0000      -0.920318       -25.0431
  13   2.0000      -0.856597       -23.3092
  14   2.0000      -0.810948       -22.0670
  15   2.0000      -0.775347       -21.0983
  16   2.0000      -0.737726       -20.0745
  17   2.0000      -0.679564       -18.4919
  18   2.0000      -0.653269       -17.7764
  19   2.0000      -0.610805       -16.6208
  20   2.0000      -0.604294       -16.4437
  21   2.0000      -0.576277       -15.6813
  22   2.0000      -0.536048       -14.5866
  23   2.0000      -0.500324       -13.6145
  24   2.0000      -0.482933       -13.1413
  25   2.0000      -0.445912       -12.1339
  26   2.0000      -0.442490       -12.0408
  27   2.0000      -0.356604        -9.7037
  28   2.0000      -0.307537        -8.3685
  29   0.0000       0.135862         3.6970
  30   0.0000       0.149549         4.0694
  31   0.0000       0.156909         4.2697
  32   0.0000       0.165325         4.4987
  33   0.0000       0.185498         5.0477

MULLIKEN ATOMIC CHARGES
-----------------------
   0 C :   -0.167734
   1 C :   -0.171673
   2 N :   -0.233199
   3 C :    0.135912
   4 C :   -0.170187
   5 N :   -0.089383
   6 N :   -0.213481
   7 C :   -0.160162
   8 H :    0.126860
   9 H :    0.133238
  10 H :    0.132181
  11 H :    0.134364
  12 H :    0.155355
  13 H :    0.254853
  14 H :    0.133058
Sum of atomic charges:   -0.0000000

LOEWDIN ATOMIC CHARGES
----------------------
   0 C :   -0.250937
   1 C :   -0.246536
   2 N :    0.148103
   3 C :   -0.268388
   4 C :   -0.227804
   5 N :    0.122607
   6 N :    0.015590
   7 C :   -0.254715
   8 H :    0.124467
   9 H :    0.125170
  10 H :    0.125296
  11 H :    0.126507
  12 H :    0.137602
  13 H :    0.187147
  14 H :    0.135892

  Mayer bond orders larger than 0.1
B(  0-C ,  1-C ) :   0.9507 B(  0-C ,  2-N ) :   0.8752 B(  0-C ,  8-H ) :   0.9197
B(  0-C ,  9-H ) :   0.9263 B(  1-C ,  2-N ) :   0.8721 B(  1-C , 10-H ) :   0.9277
B(  1-C , 11-H ) :   0.9202 B(  2-N ,  3-C ) :   0.9896 B(  3-C ,  4-C ) :   1.4034
B(  3-C ,  7-C ) :   1.2821 B(  4-C ,  5-N ) :   1.1719 B(  4-C ,  6-N ) :   0.1246
B(  4-C , 12-H ) :   0.9020 B(  5-N ,  6-N ) :   1.0797 B(  5-N , 13-H ) :   0.8753
B(  6-N ,  7-C ) :   1.5192 B(  7-C , 14-H ) :   0.9393

MP2 TOTAL ENERGY:     -358.198780532 Eh
FINAL SINGLE POINT ENERGY      -358.198780532482

DIPOLE MOMENT
-------------
                                X             Y             Z
Electronic contribution:     -1.00978      -3.86556       3.23799
Nuclear contribution   :      0.22180       4.52585      -3.53112
                        -----------------------------------------
Total Dipole Moment    :     -0.78799       0.66029      -0.29313
                        -----------------------------------------
Magnitude (a.u.)       :      1.06903
Magnitude (Debye)      :      2.71727

                             ****ORCA TERMINATED NORMALLY****
TOTAL RUN TIME: 0 days 0 hours 10 minutes 47 seconds 985 msec
