                         Program Version 3.0.3 - RELEASE   -
|  1> ! RI-MP2 RIJK def2-TZVP def2-TZVP/C def2-TZVP/JK TIGHTSCF
|  2> % maxcore 2000
|  3> % mp2 density relaxed end
|  4> *xyz 0 1
|  5>  N       -0.0070514675     1.3978746099    -0.0091943469
|  6>  C       -0.0050772100    -0.0093856431    -0.0089875062
|  7>  C       -1.0957215533    -0.8426201536     0.1182810048
|  8>  N       -0.6036036233    -2.1498421594     0.0734884481
|  9>  C       -1.1205941052    -3.4588992537    -0.2630925291
| 10>  C        0.1932075702    -4.2727528852    -0.1572667620
| 11>  O        1.2574571172    -3.3331647067    -0.4134747414
| 12>  C        0.7353915619    -2.1045199280    -0.1600637671
| 13>  C        1.1775851546    -0.8106220560    -0.2007827146
| 14>  H        0.8015076984     1.7820006561     0.4636917366
| 15>  H       -0.8430333850     1.7831002148     0.4116513824
| 16>  H       -2.1256925316    -0.6315486936     0.3515457694
| 17>  H       -1.8775220661    -3.8111043027     0.4434851812
| 18>  H       -1.5465546889    -3.4824601254    -1.2759847102
| 19>  H        0.3149856365    -4.6795110680     0.8537308855
| 20>  H        0.2685420069    -5.0811950661    -0.8858239997
| 21>  H        2.1850493451    -0.4624095192    -0.3568209110
| 22> *
| 23>
| 24>                          ****END OF INPUT****

CARTESIAN COORDINATES (ANGSTROEM)
---------------------------------
  N     -0.007051    1.397875   -0.009194
  C     -0.005077   -0.009386   -0.008988
  C     -1.095722   -0.842620    0.118281
  N     -0.603604   -2.149842    0.073488
  C     -1.120594   -3.458899   -0.263093
  C      0.193208   -4.272753   -0.157267
  O      1.257457   -3.333165   -0.413475
  C      0.735392   -2.104520   -0.160064
  C      1.177585   -0.810622   -0.200783
  H      0.801508    1.782001    0.463692
  H     -0.843033    1.783100    0.411651
  H     -2.125693   -0.631549    0.351546
  H     -1.877522   -3.811104    0.443485
  H     -1.546555   -3.482460   -1.275985
  H      0.314986   -4.679511    0.853731
  H      0.268542   -5.081195   -0.885824
  H      2.185049   -0.462410   -0.356821

 Total Charge           Charge          ....    0
 Multiplicity           Mult            ....    1
 Number of Electrons    NEL             ....   66
 Basis Dimension        Dim             ....  327

ORBITAL ENERGIES
----------------

  NO   OCC          E(Eh)            E(eV)
   0   2.0000     -20.593082      -560.3662
   1   2.0000     -15.588929      -424.1963
   2   2.0000     -15.549689      -423.1285
   3   2.0000     -11.312132      -307.8188
   4   2.0000     -11.302631      -307.5602
   5   2.0000     -11.284569      -307.0687
   6   2.0000     -11.254339      -306.2461
   7   2.0000     -11.224784      -305.4419
   8   2.0000     -11.196138      -304.6624
   9   2.0000      -1.435515       -39.0624
  10   2.0000      -1.280393       -34.8413
  11   2.0000      -1.192154       -32.4402
  12   2.0000      -1.083466       -29.4826
  13   2.0000      -0.972622       -26.4664
  14   2.0000      -0.958727       -26.0883
  15   2.0000      -0.862607       -23.4727
  16   2.0000      -0.779203       -21.2032
  17   2.0000      -0.760900       -20.7051
  18   2.0000      -0.711075       -19.3493
  19   2.0000      -0.681921       -18.5560
  20   2.0000      -0.660328       -17.9684
  21   2.0000      -0.643274       -17.5044
  22   2.0000      -0.596453       -16.2303
  23   2.0000      -0.594506       -16.1773
  24   2.0000      -0.583839       -15.8871
  25   2.0000      -0.563036       -15.3210
  26   2.0000      -0.539048       -14.6682
  27   2.0000      -0.523853       -14.2548
  28   2.0000      -0.515373       -14.0240
  29   2.0000      -0.490868       -13.3572
  30   2.0000      -0.439908       -11.9705
  31   2.0000      -0.317334        -8.6351
  32   2.0000      -0.266904        -7.2628
  33   0.0000       0.137230         3.7342
  34   0.0000       0.143647         3.9088
  35   0.0000       0.163891         4.4597
  36   0.0000       0.170090         4.6284
  37   0.0000       0.187158         5.0928

MULLIKEN ATOMIC CHARGES
-----------------------
   0 N :   -0.527011
   1 C :    0.239931
   2 C :   -0.285809
   3 N :   -0.037888
   4 C :   -0.170119
   5 C :   -0.017565
   6 O :   -0.278072
   7 C :    0.225154
   8 C :   -0.381911
   9 H :    0.245637
  10 H :    0.235590
  11 H :    0.131002
  12 H :    0.138862
  13 H :    0.116090
  14 H :    0.105404
  15 H :    0.130695
  16 H :    0.130012
Sum of atomic charges:   -0.0000000

LOEWDIN ATOMIC CHARGES
----------------------
   0 N :   -0.100036
   1 C :   -0.280673
   2 C :   -0.236336
   3 N :    0.246890
   4 C :   -0.236406
   5 C :   -0.251750
   6 O :    0.229005
   7 C :   -0.322075
   8 C :   -0.169426
   9 H :    0.165287
  10 H :    0.163770
  11 H :    0.129247
  12 H :    0.135646
  13 H :    0.131402
  14 H :    0.126514
  15 H :    0.128695
  16 H :    0.140245

  Mayer bond orders larger than 0.1
B(  0-N ,  1-C ) :   0.9644 B(  0-N ,  9-H ) :   0.8775 B(  0-N , 10-H ) :   0.8854
B(  1-C ,  2-C ) :   1.5003 B(  1-C ,  8-C ) :   1.2025 B(  2-C ,  3-N ) :   1.0659
B(  2-C , 11-H ) :   0.9186 B(  3-N ,  4-C ) :   0.8935 B(  3-N ,  7-C ) :   1.1256
B(  4-C ,  5-C ) :   0.9502 B(  4-C , 12-H ) :   0.9211 B(  4-C , 13-H ) :   0.9061
B(  5-C ,  6-O ) :   0.8864 B(  5-C , 14-H ) :   0.9215 B(  5-C , 15-H ) :   0.9271
B(  6-O ,  7-C ) :   1.0632 B(  7-C ,  8-C ) :   1.4815 B(  8-C , 16-H ) :   0.9272

MP2 TOTAL ENERGY:     -417.315133795 Eh
FINAL SINGLE POINT ENERGY      -417.315133795045

DIPOLE MOMENT
-------------
                                X             Y             Z
Electronic contribution:      2.30248      -0.02028      -0.31565
Nuclear contribution   :     -3.07799      -0.59044       0.83531
                        -----------------------------------------
Total Dipole Moment    :     -0.77551      -0.61072       0.51967
                        -----------------------------------------
Magnitude (a.u.)       :      1.11554
Magnitude (Debye)      :      2.83549

                             ****ORCA TERMINATED NORMALLY****
TOTAL RUN TIME: 0 days 0 hours 16 minutes 51 seconds 120 msec
