                         Program Version 3.0.3 - RELEASE   -
|  1> ! RI-MP2 RIJK def2-TZVP def2-TZVP/C def2-TZVP/JK TIGHTSCF
|  2> % maxcore 2000
|  3> % mp2 density relaxed end
|  4> *xyz 0 1
|  5>  N       -0.0760842279     1.3398654342    -0.0726555085
|  6>  C        0.0915155526    -0.0000844202     0.1086374322
|  7>  O        1.1627077978    -0.5243790142     0.3005888727
|  8>  C       -1.2380829382    -0.7858674199     0.1008744726
|  9>  C       -1.0452297812    -2.2156432705    -0.1035166337
| 10>  N       -0.9345910813    -3.3518601970    -0.2735298822
| 11>  H        0.7467810826     1.9202780374    -0.0840490784
| 12>  H       -0.9590405591     1.7529160228    -0.3158744486
| 13>  H       -1.7331970706    -0.6256560448     1.0665319221
| 14>  H       -1.9164666247    -0.4007100678    -0.6685858783
| 15> *
| 16>
| 17>                          ****END OF INPUT****

CARTESIAN COORDINATES (ANGSTROEM)
---------------------------------
  N     -0.076084    1.339865   -0.072656
  C      0.091516   -0.000084    0.108637
  O      1.162708   -0.524379    0.300589
  C     -1.238083   -0.785867    0.100874
  C     -1.045230   -2.215643   -0.103517
  N     -0.934591   -3.351860   -0.273530
  H      0.746781    1.920278   -0.084049
  H     -0.959041    1.752916   -0.315874
  H     -1.733197   -0.625656    1.066532
  H     -1.916467   -0.400710   -0.668586

 Total Charge           Charge          ....    0
 Multiplicity           Mult            ....    1
 Number of Electrons    NEL             ....   44
 Basis Dimension        Dim             ....  210

ORBITAL ENERGIES
----------------

  NO   OCC          E(Eh)            E(eV)
   0   2.0000     -20.546549      -559.1000
   1   2.0000     -15.611032      -424.7978
   2   2.0000     -15.575175      -423.8220
   3   2.0000     -11.387556      -309.8711
   4   2.0000     -11.310317      -307.7694
   5   2.0000     -11.280072      -306.9464
   6   2.0000      -1.414291       -38.4848
   7   2.0000      -1.241796       -33.7910
   8   2.0000      -1.223220       -33.2855
   9   2.0000      -1.072898       -29.1950
  10   2.0000      -0.846614       -23.0375
  11   2.0000      -0.765739       -20.8368
  12   2.0000      -0.712566       -19.3899
  13   2.0000      -0.688875       -18.7452
  14   2.0000      -0.662890       -18.0382
  15   2.0000      -0.627295       -17.0696
  16   2.0000      -0.574556       -15.6345
  17   2.0000      -0.558945       -15.2097
  18   2.0000      -0.477004       -12.9800
  19   2.0000      -0.465984       -12.6801
  20   2.0000      -0.450783       -12.2664
  21   2.0000      -0.441869       -12.0239
  22   0.0000       0.096179         2.6172
  23   0.0000       0.135401         3.6845
  24   0.0000       0.147248         4.0068
  25   0.0000       0.163874         4.4592
  26   0.0000       0.186004         5.0614

MULLIKEN ATOMIC CHARGES
-----------------------
   0 N :   -0.481864
   1 C :    0.273166
   2 O :   -0.306117
   3 C :   -0.138189
   4 C :   -0.171682
   5 N :   -0.050507
   6 H :    0.271535
   7 H :    0.263368
   8 H :    0.177782
   9 H :    0.162507
Sum of atomic charges:    0.0000000

LOEWDIN ATOMIC CHARGES
----------------------
   0 N :   -0.015021
   1 C :   -0.472930
   2 O :    0.121397
   3 C :   -0.218501
   4 C :   -0.182494
   5 N :    0.071731
   6 H :    0.179614
   7 H :    0.172460
   8 H :    0.177037
   9 H :    0.166705

  Mayer bond orders larger than 0.1
B(  0-N ,  1-C ) :   1.1614 B(  0-N ,  6-H ) :   0.8552 B(  0-N ,  7-H ) :   0.8698
B(  1-C ,  2-O ) :   2.0035 B(  1-C ,  3-C ) :   0.8765 B(  3-C ,  4-C ) :   0.9528
B(  3-C ,  8-H ) :   0.8793 B(  3-C ,  9-H ) :   0.9017 B(  4-C ,  5-N ) :   2.8549

MP2 TOTAL ENERGY:     -300.903630010 Eh
FINAL SINGLE POINT ENERGY      -300.903630009625

DIPOLE MOMENT
-------------
                                X             Y             Z
Electronic contribution:      1.32215      -3.18042      -0.02281
Nuclear contribution   :     -2.45329       5.60820      -0.05465
                        -----------------------------------------
Total Dipole Moment    :     -1.13114       2.42778      -0.07746
                        -----------------------------------------
Magnitude (a.u.)       :      2.67948
Magnitude (Debye)      :      6.81069

                             ****ORCA TERMINATED NORMALLY****
TOTAL RUN TIME: 0 days 0 hours 3 minutes 39 seconds 686 msec
