                         Program Version 3.0.3 - RELEASE   -
|  1> ! RI-MP2 RIJK def2-TZVP def2-TZVP/C def2-TZVP/JK TIGHTSCF
|  2> % maxcore 2000
|  3> % mp2 density relaxed end
|  4> *xyz 0 1
|  5>  C        0.0752737034     1.4098504135     0.1104004287
|  6>  N        0.1034692231    -0.0409576417     0.0383484248
|  7>  C        0.5403801866    -0.6101537639    -1.0019009756
|  8>  O        1.0417175117     0.0714077055    -2.0788482539
|  9>  C        0.8137009543    -0.5135672526    -3.3692253221
| 10>  C        1.4421686169    -1.8977372732    -3.5034242940
| 11>  C        1.0425221778    -2.7744081638    -2.3239923180
| 12>  N        1.9396181271    -2.6927426053    -1.1666588471
| 13>  C        0.5826377378    -2.0985097638    -1.0762428283
| 14>  H        0.9183553708     1.7601702179     0.7189554462
| 15>  H        0.1307186057     1.9074654977    -0.8641178639
| 16>  H       -0.8395492016     1.7194282196     0.6259754207
| 17>  H       -0.2690548765    -0.5678375254    -3.5489003517
| 18>  H        1.2403267231     0.1939354511    -4.0840052830
| 19>  H        1.1137415394    -2.3433480708    -4.4484502604
| 20>  H        2.5324316562    -1.8136097117    -3.5319361956
| 21>  H        0.5980739417    -3.7389898276    -2.5554054821
| 22>  H        1.9458168633    -3.5721124422    -0.6560726974
| 23>  H       -0.1439840508    -2.5843126135    -0.4349232573
| 24> *
| 25>
| 26>                          ****END OF INPUT****

CARTESIAN COORDINATES (ANGSTROEM)
---------------------------------
  C      0.075274    1.409850    0.110400
  N      0.103469   -0.040958    0.038348
  C      0.540380   -0.610154   -1.001901
  O      1.041718    0.071408   -2.078848
  C      0.813701   -0.513567   -3.369225
  C      1.442169   -1.897737   -3.503424
  C      1.042522   -2.774408   -2.323992
  N      1.939618   -2.692743   -1.166659
  C      0.582638   -2.098510   -1.076243
  H      0.918355    1.760170    0.718955
  H      0.130719    1.907465   -0.864118
  H     -0.839549    1.719428    0.625975
  H     -0.269055   -0.567838   -3.548900
  H      1.240327    0.193935   -4.084005
  H      1.113742   -2.343348   -4.448450
  H      2.532432   -1.813610   -3.531936
  H      0.598074   -3.738990   -2.555405
  H      1.945817   -3.572112   -0.656073
  H     -0.143984   -2.584313   -0.434923

 Total Charge           Charge          ....    0
 Multiplicity           Mult            ....    1
 Number of Electrons    NEL             ....   68
 Basis Dimension        Dim             ....  339

ORBITAL ENERGIES
----------------

  NO   OCC          E(Eh)            E(eV)
   0   2.0000     -20.581252      -560.0443
   1   2.0000     -15.569395      -423.6648
   2   2.0000     -15.534151      -422.7057
   3   2.0000     -11.324467      -308.1544
   4   2.0000     -11.293825      -307.3206
   5   2.0000     -11.275564      -306.8237
   6   2.0000     -11.271205      -306.7051
   7   2.0000     -11.237820      -305.7966
   8   2.0000     -11.230534      -305.5984
   9   2.0000      -1.415049       -38.5054
  10   2.0000      -1.274436       -34.6792
  11   2.0000      -1.206370       -32.8270
  12   2.0000      -1.048806       -28.5395
  13   2.0000      -0.972946       -26.4752
  14   2.0000      -0.908345       -24.7173
  15   2.0000      -0.885002       -24.0821
  16   2.0000      -0.815475       -22.1902
  17   2.0000      -0.731938       -19.9171
  18   2.0000      -0.725766       -19.7491
  19   2.0000      -0.679580       -18.4923
  20   2.0000      -0.658416       -17.9164
  21   2.0000      -0.630847       -17.1662
  22   2.0000      -0.600287       -16.3346
  23   2.0000      -0.592041       -16.1103
  24   2.0000      -0.564586       -15.3632
  25   2.0000      -0.555320       -15.1110
  26   2.0000      -0.541488       -14.7346
  27   2.0000      -0.508867       -13.8470
  28   2.0000      -0.485952       -13.2234
  29   2.0000      -0.479234       -13.0406
  30   2.0000      -0.457187       -12.4407
  31   2.0000      -0.413746       -11.2586
  32   2.0000      -0.395414       -10.7598
  33   2.0000      -0.369315       -10.0496
  34   0.0000       0.128713         3.5025
  35   0.0000       0.139365         3.7923
  36   0.0000       0.164755         4.4832
  37   0.0000       0.171312         4.6616
  38   0.0000       0.184279         5.0145

MULLIKEN ATOMIC CHARGES
-----------------------
   0 C :   -0.273691
   1 N :   -0.239160
   2 C :    0.153053
   3 O :   -0.282201
   4 C :   -0.072037
   5 C :   -0.205954
   6 C :   -0.027676
   7 N :   -0.389694
   8 C :   -0.038520
   9 H :    0.136164
  10 H :    0.123605
  11 H :    0.133774
  12 H :    0.112282
  13 H :    0.131592
  14 H :    0.116583
  15 H :    0.127215
  16 H :    0.134159
  17 H :    0.221284
  18 H :    0.139223
Sum of atomic charges:   -0.0000000

LOEWDIN ATOMIC CHARGES
----------------------
   0 C :   -0.333887
   1 N :    0.087063
   2 C :   -0.365572
   3 O :    0.235396
   4 C :   -0.280151
   5 C :   -0.249405
   6 C :   -0.250646
   7 N :    0.017682
   8 C :   -0.213434
   9 H :    0.120919
  10 H :    0.108509
  11 H :    0.115101
  12 H :    0.126630
  13 H :    0.132167
  14 H :    0.144536
  15 H :    0.148564
  16 H :    0.137233
  17 H :    0.170096
  18 H :    0.149198

  Mayer bond orders larger than 0.1
B(  0-C ,  1-N ) :   0.8665 B(  0-C ,  9-H ) :   0.9294 B(  0-C , 10-H ) :   0.9278
B(  0-C , 11-H ) :   0.9392 B(  1-N ,  2-C ) :   1.9470 B(  2-C ,  3-O ) :   1.0570
B(  2-C ,  8-C ) :   0.9441 B(  3-O ,  4-C ) :   0.8655 B(  4-C ,  5-C ) :   0.9625
B(  4-C , 12-H ) :   0.9315 B(  4-C , 13-H ) :   0.9316 B(  5-C ,  6-C ) :   0.9015
B(  5-C , 14-H ) :   0.9243 B(  5-C , 15-H ) :   0.9155 B(  6-C ,  7-N ) :   0.9637
B(  6-C ,  8-C ) :   0.8982 B(  6-C , 16-H ) :   0.9212 B(  7-N ,  8-C ) :   0.8582
B(  7-N , 17-H ) :   0.8677 B(  8-C , 18-H ) :   0.9337

MP2 TOTAL ENERGY:     -418.480646250 Eh
FINAL SINGLE POINT ENERGY      -418.480646249581

DIPOLE MOMENT
-------------
                                X             Y             Z
Electronic contribution:      0.78820      -1.44361       1.60403
Nuclear contribution   :     -1.14071       0.76306      -2.58531
                        -----------------------------------------
Total Dipole Moment    :     -0.35251      -0.68054      -0.98129
                        -----------------------------------------
Magnitude (a.u.)       :      1.24512
Magnitude (Debye)      :      3.16484

                             ****ORCA TERMINATED NORMALLY****
TOTAL RUN TIME: 0 days 0 hours 16 minutes 58 seconds 629 msec
