                         Program Version 3.0.3 - RELEASE   -
|  1> ! RI-MP2 RIJK def2-TZVP def2-TZVP/C def2-TZVP/JK TIGHTSCF
|  2> % maxcore 2000
|  3> % mp2 density relaxed end
|  4> *xyz 0 1
|  5>  C       -0.5587158473     0.5021963972    -0.8211425462
|  6>  C        0.0982401420    -0.7669343666    -0.2612985034
|  7>  C        0.5083888982    -0.6333963486     1.1983240194
|  8>  C        1.4885393155     0.4994115362     1.5209615889
|  9>  O        0.8328870549     1.6824708002     1.9592834316
| 10>  N       -0.5441933536    -0.8677102153     2.1807601016
| 11>  C        0.5687668425    -1.8331452011     2.1170119027
| 12>  C        0.2167935094    -3.2129129224     1.6763533827
| 13>  O        0.9148510739    -4.1741332344     1.8837865267
| 14>  H        0.1383158949     1.3484612167    -0.8495873113
| 15>  H       -0.8997891505     0.3424484243    -1.8480032707
| 16>  H       -1.4293304614     0.7850851076    -0.2203892706
| 17>  H       -0.6032498418    -1.5989572008    -0.3617804163
| 18>  H        0.9826585194    -1.0228714115    -0.8581956518
| 19>  H        2.1415262254     0.2152503626     2.3508637756
| 20>  H        2.1308506042     0.6936771032     0.6498676412
| 21>  H        0.2871503519     2.0107165162     1.2376814907
| 22>  H       -0.4300609843    -0.2329573761     2.9684661293
| 23>  H        1.3429690924    -1.8129546533     2.8807898864
| 24>  H       -0.7566867755    -3.2958043940     1.1467117034
| 25> *
| 26>
| 27>                          ****END OF INPUT****

CARTESIAN COORDINATES (ANGSTROEM)
---------------------------------
  C     -0.558716    0.502196   -0.821143
  C      0.098240   -0.766934   -0.261299
  C      0.508389   -0.633396    1.198324
  C      1.488539    0.499412    1.520962
  O      0.832887    1.682471    1.959283
  N     -0.544193   -0.867710    2.180760
  C      0.568767   -1.833145    2.117012
  C      0.216794   -3.212913    1.676353
  O      0.914851   -4.174133    1.883787
  H      0.138316    1.348461   -0.849587
  H     -0.899789    0.342448   -1.848003
  H     -1.429330    0.785085   -0.220389
  H     -0.603250   -1.598957   -0.361780
  H      0.982659   -1.022871   -0.858196
  H      2.141526    0.215250    2.350864
  H      2.130851    0.693677    0.649868
  H      0.287150    2.010717    1.237681
  H     -0.430061   -0.232957    2.968466
  H      1.342969   -1.812955    2.880790
  H     -0.756687   -3.295804    1.146712

 Total Charge           Charge          ....    0
 Multiplicity           Mult            ....    1
 Number of Electrons    NEL             ....   70
 Basis Dimension        Dim             ....  345

ORBITAL ENERGIES
----------------

  NO   OCC          E(Eh)            E(eV)
   0   2.0000     -20.574048      -559.8483
   1   2.0000     -20.558546      -559.4265
   2   2.0000     -15.578749      -423.9193
   3   2.0000     -11.333411      -308.3978
   4   2.0000     -11.298014      -307.4346
   5   2.0000     -11.290288      -307.2244
   6   2.0000     -11.279238      -306.9237
   7   2.0000     -11.244985      -305.9916
   8   2.0000     -11.236841      -305.7700
   9   2.0000      -1.397258       -38.0213
  10   2.0000      -1.380076       -37.5538
  11   2.0000      -1.288204       -35.0538
  12   2.0000      -1.064959       -28.9790
  13   2.0000      -0.977037       -26.5865
  14   2.0000      -0.958165       -26.0730
  15   2.0000      -0.891025       -24.2460
  16   2.0000      -0.814234       -22.1564
  17   2.0000      -0.773603       -21.0508
  18   2.0000      -0.729936       -19.8626
  19   2.0000      -0.692303       -18.8385
  20   2.0000      -0.674508       -18.3543
  21   2.0000      -0.639988       -17.4149
  22   2.0000      -0.626488       -17.0476
  23   2.0000      -0.611219       -16.6321
  24   2.0000      -0.601717       -16.3735
  25   2.0000      -0.570245       -15.5172
  26   2.0000      -0.551137       -14.9972
  27   2.0000      -0.536685       -14.6039
  28   2.0000      -0.528758       -14.3882
  29   2.0000      -0.503465       -13.7000
  30   2.0000      -0.498376       -13.5615
  31   2.0000      -0.478742       -13.0272
  32   2.0000      -0.451682       -12.2909
  33   2.0000      -0.430374       -11.7111
  34   2.0000      -0.401216       -10.9176
  35   0.0000       0.118418         3.2223
  36   0.0000       0.121667         3.3107
  37   0.0000       0.150465         4.0943
  38   0.0000       0.151377         4.1192
  39   0.0000       0.168086         4.5738

MULLIKEN ATOMIC CHARGES
-----------------------
   0 C :   -0.476254
   1 C :   -0.168768
   2 C :    0.073765
   3 C :   -0.023985
   4 O :   -0.466195
   5 N :   -0.380387
   6 C :   -0.039284
   7 C :    0.040143
   8 O :   -0.265001
   9 H :    0.128392
  10 H :    0.149313
  11 H :    0.158139
  12 H :    0.110921
  13 H :    0.124050
  14 H :    0.122840
  15 H :    0.118585
  16 H :    0.321731
  17 H :    0.238587
  18 H :    0.133349
  19 H :    0.100061
Sum of atomic charges:    0.0000000

LOEWDIN ATOMIC CHARGES
----------------------
   0 C :   -0.315603
   1 C :   -0.250023
   2 C :   -0.293561
   3 C :   -0.302438
   4 O :   -0.041465
   5 N :    0.048930
   6 C :   -0.231200
   7 C :   -0.285050
   8 O :    0.133702
   9 H :    0.116779
  10 H :    0.126561
  11 H :    0.127593
  12 H :    0.145074
  13 H :    0.144420
  14 H :    0.135860
  15 H :    0.127816
  16 H :    0.171353
  17 H :    0.176824
  18 H :    0.148220
  19 H :    0.116208

  Mayer bond orders larger than 0.1
B(  0-C ,  1-C ) :   0.9007 B(  0-C ,  9-H ) :   0.9351 B(  0-C , 10-H ) :   0.9366
B(  0-C , 11-H ) :   0.9347 B(  1-C ,  2-C ) :   0.9439 B(  1-C , 12-H ) :   0.9250
B(  1-C , 13-H ) :   0.9344 B(  2-C ,  3-C ) :   0.9219 B(  2-C ,  5-N ) :   0.8292
B(  2-C ,  6-C ) :   0.8256 B(  3-C ,  4-O ) :   0.9045 B(  3-C , 14-H ) :   0.9211
B(  3-C , 15-H ) :   0.9323 B(  4-O , 16-H ) :   0.8452 B(  5-N ,  6-C ) :   0.9430
B(  5-N , 17-H ) :   0.8613 B(  6-C ,  7-C ) :   0.8377 B(  6-C , 18-H ) :   0.9112
B(  7-C ,  8-O ) :   1.9893 B(  7-C , 19-H ) :   0.9576

MP2 TOTAL ENERGY:     -439.546918005 Eh
FINAL SINGLE POINT ENERGY      -439.546918005366

DIPOLE MOMENT
-------------
                                X             Y             Z
Electronic contribution:      1.29973      -6.17985       5.76405
Nuclear contribution   :     -1.35373       7.17025      -6.45438
                        -----------------------------------------
Total Dipole Moment    :     -0.05400       0.99040      -0.69033
                        -----------------------------------------
Magnitude (a.u.)       :      1.20846
Magnitude (Debye)      :      3.07165

                             ****ORCA TERMINATED NORMALLY****
TOTAL RUN TIME: 0 days 0 hours 17 minutes 57 seconds 390 msec
