                         Program Version 3.0.3 - RELEASE   -
|  1> ! RI-MP2 RIJK def2-TZVP def2-TZVP/C def2-TZVP/JK TIGHTSCF
|  2> % maxcore 2000
|  3> % mp2 density relaxed end
|  4> *xyz 0 1
|  5>  O        0.5910692045     0.7965075361    -0.8515145647
|  6>  C        0.0994393318    -0.2147435192    -0.0320979649
|  7>  C        0.0883722190    -0.0519176642     1.5101632783
|  8>  C       -1.2567544642    -0.8229587894     1.5474752900
|  9>  O       -2.2504309840    -0.4778265013     2.4581325858
| 10>  C       -1.4545868056    -0.5009660446     0.0125882342
| 11>  C       -2.2132628894     0.7201251915    -0.1685238652
| 12>  N       -2.7652563309     1.7345235400    -0.2528187361
| 13>  H        0.1138380775     1.6131889009    -0.6602002553
| 14>  H        0.6154248950    -1.1294137076    -0.3329818583
| 15>  H        0.9302552333    -0.4455272338     2.0814085329
| 16>  H       -0.0667212012     0.9989779040     1.7816881391
| 17>  H       -1.0975525560    -1.8976245743     1.6620715909
| 18>  H       -2.4666899550     0.4558868854     2.3453054448
| 19>  H       -1.8440038250    -1.2946074936    -0.6273405815
| 20> *
| 21>
| 22>                          ****END OF INPUT****

CARTESIAN COORDINATES (ANGSTROEM)
---------------------------------
  O      0.591069    0.796508   -0.851515
  C      0.099439   -0.214744   -0.032098
  C      0.088372   -0.051918    1.510163
  C     -1.256754   -0.822959    1.547475
  O     -2.250431   -0.477827    2.458133
  C     -1.454587   -0.500966    0.012588
  C     -2.213263    0.720125   -0.168524
  N     -2.765256    1.734524   -0.252819
  H      0.113838    1.613189   -0.660200
  H      0.615425   -1.129414   -0.332982
  H      0.930255   -0.445527    2.081409
  H     -0.066721    0.998978    1.781688
  H     -1.097553   -1.897625    1.662072
  H     -2.466690    0.455887    2.345305
  H     -1.844004   -1.294607   -0.627341

 Total Charge           Charge          ....    0
 Multiplicity           Mult            ....    1
 Number of Electrons    NEL             ....   60
 Basis Dimension        Dim             ....  290

ORBITAL ENERGIES
----------------

  NO   OCC          E(Eh)            E(eV)
   0   2.0000     -20.582912      -560.0895
   1   2.0000     -20.582904      -560.0893
   2   2.0000     -15.588424      -424.1826
   3   2.0000     -11.321597      -308.0763
   4   2.0000     -11.321583      -308.0759
   5   2.0000     -11.291388      -307.2543
   6   2.0000     -11.290195      -307.2218
   7   2.0000     -11.250712      -306.1474
   8   2.0000      -1.399273       -38.0762
   9   2.0000      -1.392733       -37.8982
  10   2.0000      -1.238413       -33.6989
  11   2.0000      -1.153690       -31.3935
  12   2.0000      -0.982471       -26.7344
  13   2.0000      -0.907704       -24.6999
  14   2.0000      -0.847105       -23.0509
  15   2.0000      -0.745986       -20.2993
  16   2.0000      -0.715799       -19.4779
  17   2.0000      -0.689848       -18.7717
  18   2.0000      -0.641455       -17.4549
  19   2.0000      -0.634441       -17.2640
  20   2.0000      -0.623162       -16.9571
  21   2.0000      -0.586297       -15.9540
  22   2.0000      -0.583075       -15.8663
  23   2.0000      -0.572198       -15.5703
  24   2.0000      -0.529288       -14.4027
  25   2.0000      -0.506258       -13.7760
  26   2.0000      -0.500918       -13.6307
  27   2.0000      -0.461264       -12.5516
  28   2.0000      -0.445164       -12.1135
  29   2.0000      -0.436178       -11.8690
  30   0.0000       0.116056         3.1580
  31   0.0000       0.132924         3.6171
  32   0.0000       0.146508         3.9867
  33   0.0000       0.161896         4.4054
  34   0.0000       0.173957         4.7336

MULLIKEN ATOMIC CHARGES
-----------------------
   0 O :   -0.433872
   1 C :   -0.020307
   2 C :   -0.208718
   3 C :   -0.020321
   4 O :   -0.433869
   5 C :    0.150369
   6 C :   -0.327675
   7 N :   -0.034883
   8 H :    0.331148
   9 H :    0.120369
  10 H :    0.137253
  11 H :    0.128232
  12 H :    0.120358
  13 H :    0.331141
  14 H :    0.160774
Sum of atomic charges:    0.0000000

LOEWDIN ATOMIC CHARGES
----------------------
   0 O :    0.013646
   1 C :   -0.302778
   2 C :   -0.210286
   3 C :   -0.302802
   4 O :    0.013635
   5 C :   -0.188466
   6 C :   -0.194017
   7 N :    0.062411
   8 H :    0.183820
   9 H :    0.149937
  10 H :    0.131478
  11 H :    0.144705
  12 H :    0.149933
  13 H :    0.183815
  14 H :    0.164970

  Mayer bond orders larger than 0.1
B(  0-O ,  1-C ) :   1.0326 B(  0-O ,  8-H ) :   0.8245 B(  1-C ,  2-C ) :   0.9058
B(  1-C ,  5-C ) :   0.8055 B(  1-C ,  9-H ) :   0.9339 B(  2-C ,  3-C ) :   0.9058
B(  2-C , 10-H ) :   0.9282 B(  2-C , 11-H ) :   0.9131 B(  3-C ,  4-O ) :   1.0326
B(  3-C ,  5-C ) :   0.8055 B(  3-C , 12-H ) :   0.9339 B(  4-O , 13-H ) :   0.8245
B(  5-C ,  6-C ) :   0.9101 B(  5-C , 14-H ) :   0.8947 B(  6-C ,  7-N ) :   2.8243

MP2 TOTAL ENERGY:     -399.156436396 Eh
FINAL SINGLE POINT ENERGY      -399.156436396167

DIPOLE MOMENT
-------------
                                X             Y             Z
Electronic contribution:     -3.08162       1.87156      -1.92531
Nuclear contribution   :      3.73620      -2.58526       2.21286
                        -----------------------------------------
Total Dipole Moment    :      0.65458      -0.71370       0.28755
                        -----------------------------------------
Magnitude (a.u.)       :      1.01021
Magnitude (Debye)      :      2.56776

                             ****ORCA TERMINATED NORMALLY****
TOTAL RUN TIME: 0 days 0 hours 11 minutes 27 seconds 562 msec
