                         Program Version 3.0.3 - RELEASE   -
|  1> ! RI-MP2 RIJK def2-TZVP def2-TZVP/C def2-TZVP/JK TIGHTSCF
|  2> % maxcore 2000
|  3> % mp2 density relaxed end
|  4> *xyz 0 1
|  5>  C       -0.1053922681     1.5136247477    -0.0051974383
|  6>  N        0.1096777488     0.0739201534     0.1317441951
|  7>  C        1.3540505538    -0.5736086259    -0.1090700695
|  8>  C        2.5782902467     0.2567690316     0.3139821341
|  9>  C        1.9613771014     0.3201330179     1.7355452701
| 10>  O        2.3526282099     0.7470497276     2.7788333650
| 11>  C        0.7454841894    -0.5052794282     1.3190898736
| 12>  C        0.0122231009    -1.5584256688     2.0607536819
| 13>  O        0.2773786453    -1.9138144124     3.1802491730
| 14>  H        0.7393346454     2.1459260665     0.2946882518
| 15>  H       -0.3415408696     1.7210722981    -1.0527091410
| 16>  H       -0.9714271195     1.7868721651     0.6024549212
| 17>  H        1.3728686858    -1.4543847871    -0.7414818869
| 18>  H        3.5060944268    -0.3221359546     0.3410455776
| 19>  H        2.7577074650     1.1936808576    -0.2186400121
| 20>  H       -0.8155844320    -2.0072947684     1.4683942743
| 21> *
| 22>
| 23>                          ****END OF INPUT****

CARTESIAN COORDINATES (ANGSTROEM)
---------------------------------
  C     -0.105392    1.513625   -0.005197
  N      0.109678    0.073920    0.131744
  C      1.354051   -0.573609   -0.109070
  C      2.578290    0.256769    0.313982
  C      1.961377    0.320133    1.735545
  O      2.352628    0.747050    2.778833
  C      0.745484   -0.505279    1.319090
  C      0.012223   -1.558426    2.060754
  O      0.277379   -1.913814    3.180249
  H      0.739335    2.145926    0.294688
  H     -0.341541    1.721072   -1.052709
  H     -0.971427    1.786872    0.602455
  H      1.372869   -1.454385   -0.741482
  H      3.506094   -0.322136    0.341046
  H      2.757707    1.193681   -0.218640
  H     -0.815584   -2.007295    1.468394

 Total Charge           Charge          ....    0
 Multiplicity           Mult            ....    1
 Number of Electrons    NEL             ....   66
 Basis Dimension        Dim             ....  321

ORBITAL ENERGIES
----------------

  NO   OCC          E(Eh)            E(eV)
   0   2.0000     -20.568345      -559.6931
   1   2.0000     -20.563876      -559.5715
   2   2.0000     -15.610706      -424.7889
   3   2.0000     -11.355344      -308.9946
   4   2.0000     -11.343700      -308.6778
   5   2.0000     -11.313574      -307.8580
   6   2.0000     -11.298504      -307.4479
   7   2.0000     -11.276061      -306.8372
   8   2.0000     -11.267773      -306.6117
   9   2.0000      -1.415071       -38.5060
  10   2.0000      -1.402045       -38.1516
  11   2.0000      -1.334960       -36.3261
  12   2.0000      -1.089098       -29.6359
  13   2.0000      -1.008231       -27.4354
  14   2.0000      -0.945317       -25.7234
  15   2.0000      -0.860098       -23.4045
  16   2.0000      -0.816417       -22.2158
  17   2.0000      -0.725556       -19.7434
  18   2.0000      -0.711785       -19.3686
  19   2.0000      -0.686950       -18.6928
  20   2.0000      -0.668871       -18.2009
  21   2.0000      -0.649030       -17.6610
  22   2.0000      -0.631269       -17.1777
  23   2.0000      -0.614638       -16.7251
  24   2.0000      -0.589123       -16.0309
  25   2.0000      -0.569902       -15.5078
  26   2.0000      -0.553190       -15.0531
  27   2.0000      -0.533538       -14.5183
  28   2.0000      -0.508534       -13.8379
  29   2.0000      -0.465098       -12.6560
  30   2.0000      -0.440198       -11.9784
  31   2.0000      -0.427219       -11.6252
  32   2.0000      -0.391946       -10.6654
  33   0.0000       0.105048         2.8585
  34   0.0000       0.120217         3.2713
  35   0.0000       0.129737         3.5303
  36   0.0000       0.159616         4.3434
  37   0.0000       0.161771         4.4020

MULLIKEN ATOMIC CHARGES
-----------------------
   0 C :   -0.301894
   1 N :   -0.195189
   2 C :   -0.069644
   3 C :   -0.229852
   4 C :    0.107788
   5 O :   -0.219430
   6 C :    0.153806
   7 C :    0.014811
   8 O :   -0.244013
   9 H :    0.127556
  10 H :    0.149087
  11 H :    0.154779
  12 H :    0.157182
  13 H :    0.148092
  14 H :    0.149944
  15 H :    0.096976
Sum of atomic charges:    0.0000000

LOEWDIN ATOMIC CHARGES
----------------------
   0 C :   -0.302896
   1 N :    0.158707
   2 C :   -0.172429
   3 C :   -0.194871
   4 C :   -0.283298
   5 O :    0.190153
   6 C :   -0.195582
   7 C :   -0.272147
   8 O :    0.150555
   9 H :    0.114681
  10 H :    0.124100
  11 H :    0.126857
  12 H :    0.141309
  13 H :    0.154482
  14 H :    0.138392
  15 H :    0.121988

  Mayer bond orders larger than 0.1
B(  0-C ,  1-N ) :   0.8669 B(  0-C ,  9-H ) :   0.9192 B(  0-C , 10-H ) :   0.9325
B(  0-C , 11-H ) :   0.9365 B(  1-N ,  2-C ) :   0.9499 B(  1-N ,  6-C ) :   0.7878
B(  2-C ,  3-C ) :   0.9073 B(  2-C ,  6-C ) :   0.7941 B(  2-C , 12-H ) :   0.9083
B(  3-C ,  4-C ) :   0.9397 B(  3-C ,  6-C ) :  -0.1298 B(  3-C , 13-H ) :   0.8971
B(  3-C , 14-H ) :   0.9056 B(  4-C ,  5-O ) :   2.0692 B(  4-C ,  6-C ) :   0.7991
B(  6-C ,  7-C ) :   0.8305 B(  7-C ,  8-O ) :   2.0354 B(  7-C , 15-H ) :   0.9713

MP2 TOTAL ENERGY:     -437.125452344 Eh
FINAL SINGLE POINT ENERGY      -437.125452343625

DIPOLE MOMENT
-------------
                                X             Y             Z
Electronic contribution:      0.84694      -3.60080       5.92479
Nuclear contribution   :     -0.88146       3.97139      -7.79363
                        -----------------------------------------
Total Dipole Moment    :     -0.03452       0.37059      -1.86884
                        -----------------------------------------
Magnitude (a.u.)       :      1.90554
Magnitude (Debye)      :      4.84350

                             ****ORCA TERMINATED NORMALLY****
TOTAL RUN TIME: 0 days 0 hours 16 minutes 17 seconds 584 msec
