                         Program Version 3.0.3 - RELEASE   -
|  1> ! RI-MP2 RIJK def2-TZVP def2-TZVP/C def2-TZVP/JK TIGHTSCF
|  2> % maxcore 2000
|  3> % mp2 density relaxed end
|  4> *xyz 0 1
|  5>  C       -0.2345248644     1.2862017079     0.4518696078
|  6>  C        0.2560498240    -0.1421668287     0.1855213161
|  7>  C        0.7473862303    -0.3536712389    -1.2335394262
|  8>  C        0.5273423833    -1.6743005978    -1.8944836286
|  9>  N       -0.2195437261    -0.4914210566    -2.3448223409
| 10>  C        2.0159621399     0.4053200172    -1.5849157517
| 11>  N        2.1501401993     0.6910109427    -2.9072546498
| 12>  O        2.8429147162     0.6894132181    -0.7362662406
| 13>  H        0.5791061220     2.0032576445     0.3140767030
| 14>  H       -1.0532985548     1.5641510627    -0.2212785340
| 15>  H       -0.5993196829     1.3845353517     1.4784947726
| 16>  H        1.0814155421    -0.3761019486     0.8642121131
| 17>  H       -0.5470676376    -0.8616484014     0.3889113681
| 18>  H        1.2554424415    -2.0521512568    -2.6059497509
| 19>  H        0.0044304866    -2.4368425449    -1.3231141372
| 20>  H       -1.1682061227    -0.5072269744    -1.9786986427
| 21>  H        1.3448555169     0.5909692116    -3.5057310054
| 22>  H        2.9342656463     1.2523318017    -3.1942032129
| 23> *
| 24>
| 25>                          ****END OF INPUT****

CARTESIAN COORDINATES (ANGSTROEM)
---------------------------------
  C     -0.234525    1.286202    0.451870
  C      0.256050   -0.142167    0.185521
  C      0.747386   -0.353671   -1.233539
  C      0.527342   -1.674301   -1.894484
  N     -0.219544   -0.491421   -2.344822
  C      2.015962    0.405320   -1.584916
  N      2.150140    0.691011   -2.907255
  O      2.842915    0.689413   -0.736266
  H      0.579106    2.003258    0.314077
  H     -1.053299    1.564151   -0.221279
  H     -0.599320    1.384535    1.478495
  H      1.081416   -0.376102    0.864212
  H     -0.547068   -0.861648    0.388911
  H      1.255442   -2.052151   -2.605950
  H      0.004430   -2.436843   -1.323114
  H     -1.168206   -0.507227   -1.978699
  H      1.344856    0.590969   -3.505731
  H      2.934266    1.252332   -3.194203

 Total Charge           Charge          ....    0
 Multiplicity           Mult            ....    1
 Number of Electrons    NEL             ....   62
 Basis Dimension        Dim             ....  308

ORBITAL ENERGIES
----------------

  NO   OCC          E(Eh)            E(eV)
   0   2.0000     -20.513525      -558.2014
   1   2.0000     -15.577410      -423.8829
   2   2.0000     -15.572783      -423.7570
   3   2.0000     -11.346935      -308.7658
   4   2.0000     -11.281042      -306.9728
   5   2.0000     -11.273186      -306.7590
   6   2.0000     -11.233289      -305.6733
   7   2.0000     -11.216587      -305.2189
   8   2.0000      -1.378324       -37.5061
   9   2.0000      -1.283557       -34.9274
  10   2.0000      -1.201145       -32.6848
  11   2.0000      -1.047233       -28.4967
  12   2.0000      -0.936513       -25.4838
  13   2.0000      -0.882591       -24.0165
  14   2.0000      -0.853838       -23.2341
  15   2.0000      -0.761109       -20.7108
  16   2.0000      -0.719916       -19.5899
  17   2.0000      -0.692986       -18.8571
  18   2.0000      -0.662764       -18.0347
  19   2.0000      -0.616194       -16.7675
  20   2.0000      -0.604776       -16.4568
  21   2.0000      -0.593088       -16.1388
  22   2.0000      -0.561417       -15.2769
  23   2.0000      -0.531762       -14.4700
  24   2.0000      -0.523400       -14.2424
  25   2.0000      -0.497736       -13.5441
  26   2.0000      -0.489400       -13.3172
  27   2.0000      -0.472239       -12.8503
  28   2.0000      -0.431388       -11.7387
  29   2.0000      -0.409519       -11.1436
  30   2.0000      -0.395683       -10.7671
  31   0.0000       0.129031         3.5111
  32   0.0000       0.151022         4.1095
  33   0.0000       0.159932         4.3520
  34   0.0000       0.167485         4.5575
  35   0.0000       0.184015         5.0073

MULLIKEN ATOMIC CHARGES
-----------------------
   0 C :   -0.418371
   1 C :   -0.179226
   2 C :    0.141020
   3 C :   -0.185618
   4 N :   -0.424775
   5 C :    0.225807
   6 N :   -0.482709
   7 O :   -0.358990
   8 H :    0.154093
   9 H :    0.117359
  10 H :    0.135203
  11 H :    0.137523
  12 H :    0.104720
  13 H :    0.136492
  14 H :    0.135907
  15 H :    0.223635
  16 H :    0.285938
  17 H :    0.251992
Sum of atomic charges:    0.0000000

LOEWDIN ATOMIC CHARGES
----------------------
   0 C :   -0.309323
   1 C :   -0.252979
   2 C :   -0.270566
   3 C :   -0.231714
   4 N :   -0.003558
   5 C :   -0.448979
   6 N :   -0.005342
   7 O :    0.082006
   8 H :    0.129655
   9 H :    0.118233
  10 H :    0.122618
  11 H :    0.154700
  12 H :    0.138875
  13 H :    0.130206
  14 H :    0.125668
  15 H :    0.169412
  16 H :    0.179046
  17 H :    0.172042

  Mayer bond orders larger than 0.1
B(  0-C ,  1-C ) :   0.9146 B(  0-C ,  8-H ) :   0.9340 B(  0-C ,  9-H ) :   0.9368
B(  0-C , 10-H ) :   0.9386 B(  1-C ,  2-C ) :   0.9474 B(  1-C , 11-H ) :   0.9157
B(  1-C , 12-H ) :   0.9298 B(  2-C ,  3-C ) :   0.9017 B(  2-C ,  4-N ) :   0.8511
B(  2-C ,  5-C ) :   0.8761 B(  3-C ,  4-N ) :   0.9098 B(  3-C , 13-H ) :   0.9130
B(  3-C , 14-H ) :   0.9217 B(  4-N , 15-H ) :   0.8698 B(  5-C ,  6-N ) :   1.1986
B(  5-C ,  7-O ) :   1.9744 B(  6-N , 16-H ) :   0.8424 B(  6-N , 17-H ) :   0.8625

MP2 TOTAL ENERGY:     -380.509608737 Eh
FINAL SINGLE POINT ENERGY      -380.509608737157

DIPOLE MOMENT
-------------
                                X             Y             Z
Electronic contribution:      4.96412      -0.19378      -3.17092
Nuclear contribution   :     -5.92687      -0.17442       2.66263
                        -----------------------------------------
Total Dipole Moment    :     -0.96275      -0.36820      -0.50829
                        -----------------------------------------
Magnitude (a.u.)       :      1.14927
Magnitude (Debye)      :      2.92122

                             ****ORCA TERMINATED NORMALLY****
TOTAL RUN TIME: 0 days 0 hours 12 minutes 41 seconds 317 msec
