                         Program Version 3.0.3 - RELEASE   -
|  1> ! RI-MP2 RIJK def2-TZVP def2-TZVP/C def2-TZVP/JK TIGHTSCF
|  2> % maxcore 2000
|  3> % mp2 density relaxed end
|  4> *xyz 0 1
|  5>  O        0.2017936146     1.3636345464     0.1294897967
|  6>  C        0.1544190204    -0.0069010622     0.0081991931
|  7>  C        0.3729424038    -0.9984905269     1.1715578220
|  8>  C       -1.1365140124    -0.9520970056     1.5845492037
|  9>  C       -1.1478183387    -0.9169969036     0.0410236341
| 10>  C       -1.7838790823    -0.8002601767    -1.3229229299
| 11>  O       -0.5667978344    -0.8044588416    -2.1247083844
| 12>  C        0.5211167275    -0.9143608385    -1.1678384318
| 13>  C        0.0666845264    -1.8916515846    -0.0759411999
| 14>  H       -0.0861646392     1.7474155167    -0.7074775113
| 15>  H        1.2437044917    -1.0686014936     1.8228205684
| 16>  H       -1.5473320902    -1.8463252181     2.0619026299
| 17>  H       -1.4707248875    -0.0466268980     2.0971447552
| 18>  H       -2.4187782268    -1.6426415645    -1.6181238533
| 19>  H       -2.3315820551     0.1368261569    -1.4850687628
| 20>  H        1.4623839802    -0.9380050641    -1.7165525783
| 21>  H       -0.0144697880    -2.9752636722    -0.1070250716
| 22> *
| 23>
| 24>                          ****END OF INPUT****

CARTESIAN COORDINATES (ANGSTROEM)
---------------------------------
  O      0.201794    1.363635    0.129490
  C      0.154419   -0.006901    0.008199
  C      0.372942   -0.998491    1.171558
  C     -1.136514   -0.952097    1.584549
  C     -1.147818   -0.916997    0.041024
  C     -1.783879   -0.800260   -1.322923
  O     -0.566798   -0.804459   -2.124708
  C      0.521117   -0.914361   -1.167838
  C      0.066685   -1.891652   -0.075941
  H     -0.086165    1.747416   -0.707478
  H      1.243704   -1.068601    1.822821
  H     -1.547332   -1.846325    2.061903
  H     -1.470725   -0.046627    2.097145
  H     -2.418778   -1.642642   -1.618124
  H     -2.331582    0.136826   -1.485069
  H      1.462384   -0.938005   -1.716553
  H     -0.014470   -2.975264   -0.107025

 Total Charge           Charge          ....    0
 Multiplicity           Mult            ....    1
 Number of Electrons    NEL             ....   66
 Basis Dimension        Dim             ....  327

ORBITAL ENERGIES
----------------

  NO   OCC          E(Eh)            E(eV)
   0   2.0000     -20.574617      -559.8638
   1   2.0000     -20.554495      -559.3162
   2   2.0000     -11.294434      -307.3372
   3   2.0000     -11.287892      -307.1591
   4   2.0000     -11.283192      -307.0313
   5   2.0000     -11.252986      -306.2093
   6   2.0000     -11.250899      -306.1525
   7   2.0000     -11.244078      -305.9669
   8   2.0000     -11.241197      -305.8885
   9   2.0000      -1.398032       -38.0424
  10   2.0000      -1.367648       -37.2156
  11   2.0000      -1.233567       -33.5671
  12   2.0000      -1.007559       -27.4171
  13   2.0000      -0.964414       -26.2430
  14   2.0000      -0.869647       -23.6643
  15   2.0000      -0.857517       -23.3342
  16   2.0000      -0.792996       -21.5785
  17   2.0000      -0.738568       -20.0975
  18   2.0000      -0.692584       -18.8462
  19   2.0000      -0.677995       -18.4492
  20   2.0000      -0.655945       -17.8492
  21   2.0000      -0.623763       -16.9734
  22   2.0000      -0.604451       -16.4479
  23   2.0000      -0.565471       -15.3872
  24   2.0000      -0.555241       -15.1089
  25   2.0000      -0.546057       -14.8590
  26   2.0000      -0.508697       -13.8423
  27   2.0000      -0.473298       -12.8791
  28   2.0000      -0.466521       -12.6947
  29   2.0000      -0.460311       -12.5257
  30   2.0000      -0.422609       -11.4998
  31   2.0000      -0.402869       -10.9626
  32   2.0000      -0.372167       -10.1272
  33   0.0000       0.137068         3.7298
  34   0.0000       0.153023         4.1640
  35   0.0000       0.166347         4.5265
  36   0.0000       0.175287         4.7698
  37   0.0000       0.195434         5.3180

MULLIKEN ATOMIC CHARGES
-----------------------
   0 O :   -0.454485
   1 C :    0.082273
   2 C :   -0.103837
   3 C :   -0.203780
   4 C :    0.021743
   5 C :   -0.079439
   6 O :   -0.330339
   7 C :    0.060736
   8 C :   -0.189135
   9 H :    0.333456
  10 H :    0.134949
  11 H :    0.118890
  12 H :    0.123158
  13 H :    0.113821
  14 H :    0.107712
  15 H :    0.125595
  16 H :    0.138682
Sum of atomic charges:   -0.0000000

LOEWDIN ATOMIC CHARGES
----------------------
   0 O :    0.041469
   1 C :   -0.269941
   2 C :   -0.113489
   3 C :   -0.170559
   4 C :   -0.155561
   5 C :   -0.253908
   6 O :    0.135051
   7 C :   -0.221774
   8 C :   -0.094621
   9 H :    0.192458
  10 H :    0.128815
  11 H :    0.129084
  12 H :    0.133228
  13 H :    0.126562
  14 H :    0.123934
  15 H :    0.132997
  16 H :    0.136254

  Mayer bond orders larger than 0.1
B(  0-O ,  1-C ) :   1.0829 B(  0-O ,  9-H ) :   0.8276 B(  1-C ,  2-C ) :   0.8753
B(  1-C ,  4-C ) :   0.7561 B(  1-C ,  7-C ) :   0.9447 B(  2-C ,  3-C ) :   0.9241
B(  2-C ,  8-C ) :   0.8498 B(  2-C , 10-H ) :   0.8970 B(  3-C ,  4-C ) :   0.8555
B(  3-C , 11-H ) :   0.9190 B(  3-C , 12-H ) :   0.9138 B(  4-C ,  5-C ) :   0.9437
B(  4-C ,  8-C ) :   0.8392 B(  5-C ,  6-O ) :   0.9510 B(  5-C , 13-H ) :   0.9157
B(  5-C , 14-H ) :   0.9239 B(  6-O ,  7-C ) :   0.9112 B(  7-C ,  8-C ) :   0.9129
B(  7-C , 15-H ) :   0.9209 B(  8-C , 16-H ) :   0.9077

MP2 TOTAL ENERGY:     -421.031047835 Eh
FINAL SINGLE POINT ENERGY      -421.031047834823

DIPOLE MOMENT
-------------
                                X             Y             Z
Electronic contribution:      1.78263       1.40937      -1.82869
Nuclear contribution   :     -2.02592      -1.62728       2.03895
                        -----------------------------------------
Total Dipole Moment    :     -0.24329      -0.21791       0.21026
                        -----------------------------------------
Magnitude (a.u.)       :      0.38844
Magnitude (Debye)      :      0.98734

                             ****ORCA TERMINATED NORMALLY****
TOTAL RUN TIME: 0 days 0 hours 16 minutes 40 seconds 460 msec
