                         Program Version 3.0.3 - RELEASE   -
|  1> ! RI-MP2 RIJK def2-TZVP def2-TZVP/C def2-TZVP/JK TIGHTSCF
|  2> % maxcore 2000
|  3> % mp2 density relaxed end
|  4> *xyz 0 1
|  5>  O       -0.0752875506     1.3493510855     0.0663729803
|  6>  C       -0.0140705069    -0.0549185344     0.0694993822
|  7>  C       -0.2126478355    -0.6637381850     1.4177179590
|  8>  C        1.1734932866    -0.6971807999     0.7644870704
|  9>  C        1.7275772240    -1.9435361827     0.1912832536
| 10>  C        1.2856784691    -2.4909723679    -0.9470056660
| 11>  C        0.1859672856    -1.9175372013    -1.7559895692
| 12>  C       -1.2503184858    -2.0063983268    -1.2630836106
| 13>  C       -0.5211534767    -0.6916134009    -1.2049457513
| 14>  H        0.5739377734     1.6686436266    -0.5704456893
| 15>  H       -0.3464573836     0.0331749295     2.2369702586
| 16>  H       -0.7568534114    -1.5962613926     1.5073224929
| 17>  H        1.8905856029    -0.0140712037     1.2111174410
| 18>  H        2.5402060100    -2.4191228954     0.7350099022
| 19>  H        1.7441612347    -3.4044216662    -1.3169718605
| 20>  H        0.3178762986    -1.9814991163    -2.8325060206
| 21>  H       -2.0338343495    -2.1117528488    -2.0055904409
| 22>  H       -1.4298728362    -2.5492795144    -0.3423514250
| 23>  H       -0.8386276588     0.0549736146    -1.9247649367
| 24> *
| 25>
| 26>                          ****END OF INPUT****

CARTESIAN COORDINATES (ANGSTROEM)
---------------------------------
  O     -0.075288    1.349351    0.066373
  C     -0.014071   -0.054919    0.069499
  C     -0.212648   -0.663738    1.417718
  C      1.173493   -0.697181    0.764487
  C      1.727577   -1.943536    0.191283
  C      1.285678   -2.490972   -0.947006
  C      0.185967   -1.917537   -1.755990
  C     -1.250318   -2.006398   -1.263084
  C     -0.521153   -0.691613   -1.204946
  H      0.573938    1.668644   -0.570446
  H     -0.346457    0.033175    2.236970
  H     -0.756853   -1.596261    1.507322
  H      1.890586   -0.014071    1.211117
  H      2.540206   -2.419123    0.735010
  H      1.744161   -3.404422   -1.316972
  H      0.317876   -1.981499   -2.832506
  H     -2.033834   -2.111753   -2.005590
  H     -1.429873   -2.549280   -0.342351
  H     -0.838628    0.054974   -1.924765

 Total Charge           Charge          ....    0
 Multiplicity           Mult            ....    1
 Number of Electrons    NEL             ....   66
 Basis Dimension        Dim             ....  339

ORBITAL ENERGIES
----------------

  NO   OCC          E(Eh)            E(eV)
   0   2.0000     -20.560975      -559.4926
   1   2.0000     -11.289315      -307.1979
   2   2.0000     -11.236075      -305.7491
   3   2.0000     -11.235364      -305.7298
   4   2.0000     -11.230554      -305.5989
   5   2.0000     -11.229098      -305.5593
   6   2.0000     -11.228506      -305.5432
   7   2.0000     -11.226841      -305.4979
   8   2.0000     -11.223853      -305.4166
   9   2.0000      -1.372106       -37.3369
  10   2.0000      -1.176510       -32.0145
  11   2.0000      -1.113230       -30.2925
  12   2.0000      -1.035148       -28.1678
  13   2.0000      -0.879443       -23.9309
  14   2.0000      -0.872030       -23.7291
  15   2.0000      -0.819839       -22.3090
  16   2.0000      -0.772382       -21.0176
  17   2.0000      -0.723309       -19.6822
  18   2.0000      -0.688317       -18.7300
  19   2.0000      -0.662052       -18.0153
  20   2.0000      -0.647042       -17.6069
  21   2.0000      -0.617485       -16.8026
  22   2.0000      -0.605553       -16.4779
  23   2.0000      -0.556085       -15.1318
  24   2.0000      -0.533142       -14.5075
  25   2.0000      -0.524111       -14.2618
  26   2.0000      -0.517336       -14.0774
  27   2.0000      -0.492560       -13.4032
  28   2.0000      -0.465785       -12.6747
  29   2.0000      -0.441322       -12.0090
  30   2.0000      -0.427510       -11.6331
  31   2.0000      -0.367095        -9.9892
  32   2.0000      -0.324988        -8.8434
  33   0.0000       0.144736         3.9385
  34   0.0000       0.147819         4.0224
  35   0.0000       0.158488         4.3127
  36   0.0000       0.170158         4.6302
  37   0.0000       0.172978         4.7070

MULLIKEN ATOMIC CHARGES
-----------------------
   0 O :   -0.462801
   1 C :    0.241929
   2 C :   -0.277409
   3 C :   -0.097362
   4 C :   -0.215147
   5 C :   -0.185536
   6 C :   -0.041559
   7 C :   -0.271135
   8 C :   -0.154731
   9 H :    0.320350
  10 H :    0.135096
  11 H :    0.129815
  12 H :    0.128391
  13 H :    0.117574
  14 H :    0.119787
  15 H :    0.123191
  16 H :    0.132482
  17 H :    0.128745
  18 H :    0.128321
Sum of atomic charges:   -0.0000000

LOEWDIN ATOMIC CHARGES
----------------------
   0 O :    0.024300
   1 C :   -0.317508
   2 C :   -0.167746
   3 C :   -0.176705
   4 C :   -0.150661
   5 C :   -0.150853
   6 C :   -0.187478
   7 C :   -0.188695
   8 C :   -0.160588
   9 H :    0.181362
  10 H :    0.141334
  11 H :    0.134171
  12 H :    0.153942
  13 H :    0.145359
  14 H :    0.145663
  15 H :    0.150180
  16 H :    0.133609
  17 H :    0.134368
  18 H :    0.155945

  Mayer bond orders larger than 0.1
B(  0-O ,  1-C ) :   0.9140 B(  0-O ,  9-H ) :   0.8427 B(  1-C ,  2-C ) :   0.8852
B(  1-C ,  3-C ) :   0.8680 B(  1-C ,  8-C ) :   0.9438 B(  2-C ,  3-C ) :   0.8584
B(  2-C , 10-H ) :   0.9207 B(  2-C , 11-H ) :   0.9289 B(  3-C ,  4-C ) :   0.9389
B(  3-C , 12-H ) :   0.9333 B(  4-C ,  5-C ) :   1.7701 B(  4-C , 13-H ) :   0.9309
B(  5-C ,  6-C ) :   0.9565 B(  5-C , 14-H ) :   0.9328 B(  6-C ,  7-C ) :   0.8553
B(  6-C ,  8-C ) :   0.8312 B(  6-C , 15-H ) :   0.9287 B(  7-C ,  8-C ) :   0.8713
B(  7-C , 16-H ) :   0.9251 B(  7-C , 17-H ) :   0.9309 B(  8-C , 18-H ) :   0.9420

MP2 TOTAL ENERGY:     -385.190191972 Eh
FINAL SINGLE POINT ENERGY      -385.190191972046

DIPOLE MOMENT
-------------
                                X             Y             Z
Electronic contribution:      0.96111       2.37086       0.00553
Nuclear contribution   :     -0.67250      -2.57459      -0.40247
                        -----------------------------------------
Total Dipole Moment    :      0.28861      -0.20374      -0.39694
                        -----------------------------------------
Magnitude (a.u.)       :      0.53138
Magnitude (Debye)      :      1.35067

                             ****ORCA TERMINATED NORMALLY****
TOTAL RUN TIME: 0 days 0 hours 18 minutes 29 seconds 385 msec
