                         Program Version 3.0.3 - RELEASE   -
|  1> ! RI-MP2 RIJK def2-TZVP def2-TZVP/C def2-TZVP/JK TIGHTSCF
|  2> % maxcore 2000
|  3> % mp2 density relaxed end
|  4> *xyz 0 1
|  5>  C        0.1016404728     1.4447427872    -0.3417332525
|  6>  C       -0.0199784641     0.0554418176     0.2982145246
|  7>  C       -1.4200685483    -0.5006784775     0.2323061039
|  8>  C       -2.5659475524     0.1421600935     0.9909103073
|  9>  C       -3.6554287808    -0.9424458461     1.0682603053
| 10>  O       -4.7817499021    -0.7687092254     1.4472049811
| 11>  C       -3.0684422419    -2.2892943647     0.6071737726
| 12>  C       -1.7349291414    -1.9265079689     0.0039115380
| 13>  O       -1.8528104521    -0.9712860182    -1.0604071818
| 14>  H        1.1373532722     1.7949446582    -0.3156164647
| 15>  H       -0.2221037967     1.4150012624    -1.3862801727
| 16>  H       -0.5126875124     2.1845015044     0.1816216072
| 17>  H        0.6520166414    -0.6446036156    -0.2103232529
| 18>  H        0.2961134818     0.0962281223     1.3484567246
| 19>  H       -2.2730175898     0.4264047706     2.0096944063
| 20>  H       -2.9637566143     1.0359059924     0.5026986214
| 21>  H       -2.9597695257    -2.9511589894     1.4756701584
| 22>  H       -3.7481982936    -2.7778698380    -0.0965638911
| 23>  H       -0.9556793728    -2.6741981246    -0.1235911651
| 24> *
| 25>
| 26>                          ****END OF INPUT****

CARTESIAN COORDINATES (ANGSTROEM)
---------------------------------
  C      0.101640    1.444743   -0.341733
  C     -0.019978    0.055442    0.298215
  C     -1.420069   -0.500678    0.232306
  C     -2.565948    0.142160    0.990910
  C     -3.655429   -0.942446    1.068260
  O     -4.781750   -0.768709    1.447205
  C     -3.068442   -2.289294    0.607174
  C     -1.734929   -1.926508    0.003912
  O     -1.852810   -0.971286   -1.060407
  H      1.137353    1.794945   -0.315616
  H     -0.222104    1.415001   -1.386280
  H     -0.512688    2.184502    0.181622
  H      0.652017   -0.644604   -0.210323
  H      0.296113    0.096228    1.348457
  H     -2.273018    0.426405    2.009694
  H     -2.963757    1.035906    0.502699
  H     -2.959770   -2.951159    1.475670
  H     -3.748198   -2.777870   -0.096564
  H     -0.955679   -2.674198   -0.123591

 Total Charge           Charge          ....    0
 Multiplicity           Mult            ....    1
 Number of Electrons    NEL             ....   68
 Basis Dimension        Dim             ....  339

ORBITAL ENERGIES
----------------

  NO   OCC          E(Eh)            E(eV)
   0   2.0000     -20.575074      -559.8762
   1   2.0000     -20.550758      -559.2145
   2   2.0000     -11.338205      -308.5283
   3   2.0000     -11.302127      -307.5465
   4   2.0000     -11.297298      -307.4151
   5   2.0000     -11.247473      -306.0593
   6   2.0000     -11.246581      -306.0350
   7   2.0000     -11.242286      -305.9182
   8   2.0000     -11.225552      -305.4628
   9   2.0000      -1.424591       -38.7651
  10   2.0000      -1.395461       -37.9724
  11   2.0000      -1.093874       -29.7658
  12   2.0000      -1.061002       -28.8713
  13   2.0000      -0.997283       -27.1375
  14   2.0000      -0.915443       -24.9105
  15   2.0000      -0.851945       -23.1826
  16   2.0000      -0.782359       -21.2891
  17   2.0000      -0.756861       -20.5952
  18   2.0000      -0.697764       -18.9871
  19   2.0000      -0.646249       -17.5853
  20   2.0000      -0.644182       -17.5291
  21   2.0000      -0.629223       -17.1220
  22   2.0000      -0.612691       -16.6722
  23   2.0000      -0.594524       -16.1778
  24   2.0000      -0.590102       -16.0575
  25   2.0000      -0.568452       -15.4684
  26   2.0000      -0.539039       -14.6680
  27   2.0000      -0.525728       -14.3058
  28   2.0000      -0.510560       -13.8930
  29   2.0000      -0.501723       -13.6526
  30   2.0000      -0.495619       -13.4865
  31   2.0000      -0.453462       -12.3393
  32   2.0000      -0.423481       -11.5235
  33   2.0000      -0.407157       -11.0793
  34   0.0000       0.124651         3.3919
  35   0.0000       0.133994         3.6462
  36   0.0000       0.150528         4.0961
  37   0.0000       0.160215         4.3597
  38   0.0000       0.169754         4.6192

MULLIKEN ATOMIC CHARGES
-----------------------
   0 C :   -0.418886
   1 C :   -0.210280
   2 C :    0.196261
   3 C :   -0.207212
   4 C :    0.090188
   5 O :   -0.251350
   6 C :   -0.133240
   7 C :   -0.063498
   8 O :   -0.334069
   9 H :    0.138104
  10 H :    0.148736
  11 H :    0.129936
  12 H :    0.121288
  13 H :    0.114626
  14 H :    0.135898
  15 H :    0.143328
  16 H :    0.134204
  17 H :    0.138831
  18 H :    0.127135
Sum of atomic charges:    0.0000000

LOEWDIN ATOMIC CHARGES
----------------------
   0 C :   -0.307839
   1 C :   -0.251699
   2 C :   -0.296246
   3 C :   -0.182157
   4 C :   -0.292939
   5 O :    0.160769
   6 C :   -0.208816
   7 C :   -0.238788
   8 O :    0.186840
   9 H :    0.122875
  10 H :    0.128522
  11 H :    0.121521
  12 H :    0.147133
  13 H :    0.144424
  14 H :    0.158450
  15 H :    0.157890
  16 H :    0.156871
  17 H :    0.156127
  18 H :    0.137061

  Mayer bond orders larger than 0.1
B(  0-C ,  1-C ) :   0.9216 B(  0-C ,  9-H ) :   0.9393 B(  0-C , 10-H ) :   0.9377
B(  0-C , 11-H ) :   0.9355 B(  1-C ,  2-C ) :   0.8928 B(  1-C , 12-H ) :   0.9353
B(  1-C , 13-H ) :   0.9283 B(  2-C ,  3-C ) :   0.9038 B(  2-C ,  7-C ) :   0.8971
B(  2-C ,  8-O ) :   0.8469 B(  3-C ,  4-C ) :   0.9184 B(  3-C ,  6-C ) :  -0.1205
B(  3-C , 14-H ) :   0.9017 B(  3-C , 15-H ) :   0.8916 B(  4-C ,  5-O ) :   2.0880
B(  4-C ,  6-C ) :   0.9185 B(  6-C ,  7-C ) :   0.8974 B(  6-C , 16-H ) :   0.8913
B(  6-C , 17-H ) :   0.8873 B(  7-C ,  8-O ) :   0.9213 B(  7-C , 18-H ) :   0.9141

MP2 TOTAL ENERGY:     -422.341111462 Eh
FINAL SINGLE POINT ENERGY      -422.341111461748

DIPOLE MOMENT
-------------
                                X             Y             Z
Electronic contribution:     -7.70907      -4.05028       0.46587
Nuclear contribution   :      8.93124       3.84224      -0.09591
                        -----------------------------------------
Total Dipole Moment    :      1.22217      -0.20805       0.36996
                        -----------------------------------------
Magnitude (a.u.)       :      1.29377
Magnitude (Debye)      :      3.28851

                             ****ORCA TERMINATED NORMALLY****
TOTAL RUN TIME: 0 days 0 hours 17 minutes 20 seconds 97 msec
