                         Program Version 3.0.3 - RELEASE   -
|  1> ! RI-MP2 RIJK def2-TZVP def2-TZVP/C def2-TZVP/JK TIGHTSCF
|  2> % maxcore 2000
|  3> % mp2 density relaxed end
|  4> *xyz 0 1
|  5>  N       -0.1402298833     1.3217288125     0.0095830064
|  6>  C        0.0404481300    -0.0291566961     0.0008079724
|  7>  O        1.1432963933    -0.5430265196    -0.0122706416
|  8>  C       -1.2485006491    -0.8457286830     0.0086681821
|  9>  C       -0.9562545087    -2.3374668494    -0.0017955278
| 10>  O       -2.2051949990    -3.0146671713     0.0063921189
| 11>  C       -2.0519972650    -4.4100595729    -0.0022809979
| 12>  C       -3.3756651578    -5.0409323279     0.0068507771
| 13>  N       -4.4044133681    -5.5645930241     0.0137754397
| 14>  H        0.6738010280     1.9137955889     0.0050265163
| 15>  H       -1.0506496633     1.7463145912     0.0204050982
| 16>  H       -1.8438900906    -0.5917828595     0.8935077012
| 17>  H       -1.8603435026    -0.5826955613    -0.8621821602
| 18>  H       -0.3724480606    -2.6085543991    -0.8928304223
| 19>  H       -0.3558912852    -2.6177162637     0.8752950331
| 20>  H       -1.5049702139    -4.7547246171    -0.8954418183
| 21>  H       -1.4883630241    -4.7639169975     0.8768496326
| 22> *
| 23>
| 24>                          ****END OF INPUT****

CARTESIAN COORDINATES (ANGSTROEM)
---------------------------------
  N     -0.140230    1.321729    0.009583
  C      0.040448   -0.029157    0.000808
  O      1.143296   -0.543027   -0.012271
  C     -1.248501   -0.845729    0.008668
  C     -0.956255   -2.337467   -0.001796
  O     -2.205195   -3.014667    0.006392
  C     -2.051997   -4.410060   -0.002281
  C     -3.375665   -5.040932    0.006851
  N     -4.404413   -5.564593    0.013775
  H      0.673801    1.913796    0.005027
  H     -1.050650    1.746315    0.020405
  H     -1.843890   -0.591783    0.893508
  H     -1.860344   -0.582696   -0.862182
  H     -0.372448   -2.608554   -0.892830
  H     -0.355891   -2.617716    0.875295
  H     -1.504970   -4.754725   -0.895442
  H     -1.488363   -4.763917    0.876850

 Total Charge           Charge          ....    0
 Multiplicity           Mult            ....    1
 Number of Electrons    NEL             ....   68
 Basis Dimension        Dim             ....  327

ORBITAL ENERGIES
----------------

  NO   OCC          E(Eh)            E(eV)
   0   2.0000     -20.593060      -560.3656
   1   2.0000     -20.531330      -558.6859
   2   2.0000     -15.594651      -424.3520
   3   2.0000     -15.578073      -423.9009
   4   2.0000     -11.366463      -309.2972
   5   2.0000     -11.342778      -308.6527
   6   2.0000     -11.300539      -307.5033
   7   2.0000     -11.278164      -306.8944
   8   2.0000     -11.257766      -306.3394
   9   2.0000      -1.417262       -38.5657
  10   2.0000      -1.395844       -37.9829
  11   2.0000      -1.223930       -33.3048
  12   2.0000      -1.223393       -33.2902
  13   2.0000      -1.078000       -29.3339
  14   2.0000      -1.002340       -27.2751
  15   2.0000      -0.892350       -24.2821
  16   2.0000      -0.803581       -21.8666
  17   2.0000      -0.746845       -20.3227
  18   2.0000      -0.719867       -19.5886
  19   2.0000      -0.715519       -19.4703
  20   2.0000      -0.706647       -19.2289
  21   2.0000      -0.663383       -18.0516
  22   2.0000      -0.650112       -17.6905
  23   2.0000      -0.595475       -16.2037
  24   2.0000      -0.585073       -15.9206
  25   2.0000      -0.584060       -15.8931
  26   2.0000      -0.551750       -15.0139
  27   2.0000      -0.529114       -14.3979
  28   2.0000      -0.517705       -14.0875
  29   2.0000      -0.477369       -12.9899
  30   2.0000      -0.475205       -12.9310
  31   2.0000      -0.451994       -12.2994
  32   2.0000      -0.439872       -11.9695
  33   2.0000      -0.428008       -11.6467
  34   0.0000       0.113207         3.0805
  35   0.0000       0.122180         3.3247
  36   0.0000       0.156479         4.2580
  37   0.0000       0.160988         4.3807
  38   0.0000       0.161179         4.3859

MULLIKEN ATOMIC CHARGES
-----------------------
   0 N :   -0.483213
   1 C :    0.273734
   2 O :   -0.354728
   3 C :   -0.228076
   4 C :   -0.084737
   5 O :   -0.274541
   6 C :    0.026133
   7 C :   -0.147801
   8 N :   -0.057135
   9 H :    0.263153
  10 H :    0.262481
  11 H :    0.146260
  12 H :    0.146264
  13 H :    0.115696
  14 H :    0.115691
  15 H :    0.140410
  16 H :    0.140410
Sum of atomic charges:   -0.0000000

LOEWDIN ATOMIC CHARGES
----------------------
   0 N :   -0.018753
   1 C :   -0.475110
   2 O :    0.084997
   3 C :   -0.237320
   4 C :   -0.305803
   5 O :    0.170636
   6 C :   -0.314702
   7 C :   -0.178286
   8 N :    0.071170
   9 H :    0.174927
  10 H :    0.172060
  11 H :    0.153152
  12 H :    0.153154
  13 H :    0.128986
  14 H :    0.128985
  15 H :    0.145953
  16 H :    0.145953

  Mayer bond orders larger than 0.1
B(  0-N ,  1-C ) :   1.1792 B(  0-N ,  9-H ) :   0.8569 B(  0-N , 10-H ) :   0.8709
B(  1-C ,  2-O ) :   1.9468 B(  1-C ,  3-C ) :   0.9126 B(  3-C ,  4-C ) :   0.9846
B(  3-C , 11-H ) :   0.9000 B(  3-C , 12-H ) :   0.9000 B(  4-C ,  5-O ) :   0.9215
B(  4-C , 13-H ) :   0.9242 B(  4-C , 14-H ) :   0.9242 B(  5-O ,  6-C ) :   0.9719
B(  6-C ,  7-C ) :   0.9324 B(  6-C , 15-H ) :   0.9077 B(  6-C , 16-H ) :   0.9077
B(  7-C ,  8-N ) :   2.8495

MP2 TOTAL ENERGY:     -454.440288553 Eh
FINAL SINGLE POINT ENERGY      -454.440288552949

DIPOLE MOMENT
-------------
                                X             Y             Z
Electronic contribution:     -2.57630      -3.44850       0.00613
Nuclear contribution   :      3.22187       4.96013      -0.00422
                        -----------------------------------------
Total Dipole Moment    :      0.64557       1.51164       0.00190
                        -----------------------------------------
Magnitude (a.u.)       :      1.64372
Magnitude (Debye)      :      4.17800

                             ****ORCA TERMINATED NORMALLY****
TOTAL RUN TIME: 0 days 0 hours 13 minutes 27 seconds 135 msec
