                         Program Version 3.0.3 - RELEASE   -
|  1> ! RI-MP2 RIJK def2-TZVP def2-TZVP/C def2-TZVP/JK TIGHTSCF
|  2> % maxcore 2000
|  3> % mp2 density relaxed end
|  4> *xyz 0 1
|  5>  O        0.3501733019     0.1163862424     0.2101132801
|  6>  C        0.1334762277     1.2583237116    -0.0338373085
|  7>  O       -1.0316952125     1.8093022195    -0.5106112761
|  8>  C       -0.4740576905     3.1620033358    -0.4709101184
|  9>  C        0.8759326628     2.6055171374     0.0312803708
| 10>  C        1.3947952833     3.0384954742     1.3752007346
| 11>  C        2.8093573973     2.7077707724     1.7781795356
| 12>  C        2.4305789658     4.1343783410     1.4755755486
| 13>  H       -0.4839572441     3.6145102005    -1.4643093840
| 14>  H       -1.0214584151     3.7840353374     0.2409444261
| 15>  H        1.6679906448     2.6543020640    -0.7224651976
| 16>  H        0.6532246327     3.0066379393     2.1693149416
| 17>  H        2.9910747101     2.4270126927     2.8089628807
| 18>  H        3.4285455120     2.1805701242     1.0606766639
| 19>  H        2.7962773644     4.5736437413     0.5532146605
| 20>  H        2.3524546993     4.8349805764     2.2991457122
| 21> *
| 22>
| 23>                          ****END OF INPUT****

CARTESIAN COORDINATES (ANGSTROEM)
---------------------------------
  O      0.350173    0.116386    0.210113
  C      0.133476    1.258324   -0.033837
  O     -1.031695    1.809302   -0.510611
  C     -0.474058    3.162003   -0.470910
  C      0.875933    2.605517    0.031280
  C      1.394795    3.038495    1.375201
  C      2.809357    2.707771    1.778180
  C      2.430579    4.134378    1.475576
  H     -0.483957    3.614510   -1.464309
  H     -1.021458    3.784035    0.240944
  H      1.667991    2.654302   -0.722465
  H      0.653225    3.006638    2.169315
  H      2.991075    2.427013    2.808963
  H      3.428546    2.180570    1.060677
  H      2.796277    4.573644    0.553215
  H      2.352455    4.834981    2.299146

 Total Charge           Charge          ....    0
 Multiplicity           Mult            ....    1
 Number of Electrons    NEL             ....   60
 Basis Dimension        Dim             ....  296

ORBITAL ENERGIES
----------------

  NO   OCC          E(Eh)            E(eV)
   0   2.0000     -20.600774      -560.5756
   1   2.0000     -20.551541      -559.2359
   2   2.0000     -11.380908      -309.6902
   3   2.0000     -11.308195      -307.7116
   4   2.0000     -11.270940      -306.6979
   5   2.0000     -11.256530      -306.3058
   6   2.0000     -11.244141      -305.9686
   7   2.0000     -11.241327      -305.8921
   8   2.0000      -1.462198       -39.7884
   9   2.0000      -1.378459       -37.5098
  10   2.0000      -1.167696       -31.7746
  11   2.0000      -1.049008       -28.5450
  12   2.0000      -0.920645       -25.0520
  13   2.0000      -0.839332       -22.8394
  14   2.0000      -0.834400       -22.7052
  15   2.0000      -0.756498       -20.5854
  16   2.0000      -0.701983       -19.1019
  17   2.0000      -0.695226       -18.9181
  18   2.0000      -0.678160       -18.4537
  19   2.0000      -0.659131       -17.9359
  20   2.0000      -0.619370       -16.8539
  21   2.0000      -0.568894       -15.4804
  22   2.0000      -0.567019       -15.4294
  23   2.0000      -0.533392       -14.5143
  24   2.0000      -0.529501       -14.4085
  25   2.0000      -0.519641       -14.1401
  26   2.0000      -0.468503       -12.7486
  27   2.0000      -0.460289       -12.5251
  28   2.0000      -0.432344       -11.7647
  29   2.0000      -0.413666       -11.2564
  30   0.0000       0.130470         3.5503
  31   0.0000       0.142372         3.8741
  32   0.0000       0.153360         4.1731
  33   0.0000       0.162928         4.4335
  34   0.0000       0.172192         4.6856

MULLIKEN ATOMIC CHARGES
-----------------------
   0 O :   -0.261278
   1 C :    0.255473
   2 O :   -0.236117
   3 C :   -0.021170
   4 C :   -0.143395
   5 C :   -0.123908
   6 C :   -0.262795
   7 C :   -0.256841
   8 H :    0.118757
   9 H :    0.120015
  10 H :    0.134645
  11 H :    0.133081
  12 H :    0.139623
  13 H :    0.136829
  14 H :    0.129795
  15 H :    0.137289
Sum of atomic charges:   -0.0000000

LOEWDIN ATOMIC CHARGES
----------------------
   0 O :    0.157954
   1 C :   -0.438159
   2 O :    0.228355
   3 C :   -0.211532
   4 C :   -0.195520
   5 C :   -0.209894
   6 C :   -0.215176
   7 C :   -0.223905
   8 H :    0.122820
   9 H :    0.125927
  10 H :    0.166758
  11 H :    0.154457
  12 H :    0.134979
  13 H :    0.136561
  14 H :    0.133125
  15 H :    0.133251

  Mayer bond orders larger than 0.1
B(  0-O ,  1-C ) :   2.0547 B(  1-C ,  2-O ) :   1.0959 B(  1-C ,  4-C ) :   0.9016
B(  2-O ,  3-C ) :   0.8939 B(  3-C ,  4-C ) :   0.9471 B(  3-C ,  8-H ) :   0.9170
B(  3-C ,  9-H ) :   0.9163 B(  4-C ,  5-C ) :   0.9241 B(  4-C , 10-H ) :   0.8902
B(  5-C ,  6-C ) :   0.8876 B(  5-C ,  7-C ) :   0.8805 B(  5-C , 11-H ) :   0.9124
B(  6-C ,  7-C ) :   0.8998 B(  6-C , 12-H ) :   0.9301 B(  6-C , 13-H ) :   0.9300
B(  7-C , 14-H ) :   0.9288 B(  7-C , 15-H ) :   0.9293

MP2 TOTAL ENERGY:     -383.110002202 Eh
FINAL SINGLE POINT ENERGY      -383.110002202441

DIPOLE MOMENT
-------------
                                X             Y             Z
Electronic contribution:     -5.19337      -6.30689      -2.95172
Nuclear contribution   :      5.71505       7.87998       3.01020
                        -----------------------------------------
Total Dipole Moment    :      0.52167       1.57309       0.05848
                        -----------------------------------------
Magnitude (a.u.)       :      1.65837
Magnitude (Debye)      :      4.21523

                             ****ORCA TERMINATED NORMALLY****
TOTAL RUN TIME: 0 days 0 hours 11 minutes 44 seconds 730 msec
