                         Program Version 3.0.3 - RELEASE   -
|  1> ! RI-MP2 RIJK def2-TZVP def2-TZVP/C def2-TZVP/JK TIGHTSCF
|  2> % maxcore 2000
|  3> % mp2 density relaxed end
|  4> *xyz 0 1
|  5>  C       -0.0461323060     1.4825063575     0.0648205139
|  6>  C       -0.0198177953    -0.0195010419    -0.0674427921
|  7>  C        0.9574060043    -0.7186180898    -0.9375200357
|  8>  C        0.5670786535    -1.9830170330    -1.1588996303
|  9>  C       -0.6483682580    -2.2313407231    -0.3109716790
| 10>  O       -0.1507175426    -2.2229535338     1.0993840460
| 11>  C       -0.5068408158    -0.8673706611     1.1834096889
| 12>  C       -1.3065924041    -0.8315745585    -0.0716866358
| 13>  C       -2.6844605335    -0.3780540655    -0.4459855414
| 14>  H        0.9248100769     1.8644105816     0.3986205564
| 15>  H       -0.2865942255     1.9686013359    -0.8878657661
| 16>  H       -0.7923617548     1.8082067550     0.7973983828
| 17>  H        1.8892860050    -0.2690499890    -1.2618838010
| 18>  H        1.1221938244    -2.7574022213    -1.6714611352
| 19>  H       -1.2635591153    -3.1121868339    -0.4915688057
| 20>  H       -0.6060307502    -0.4247027936     2.1686671090
| 21>  H       -2.8823612591     0.6291332112    -0.0664256573
| 22>  H       -2.8103736215    -0.3519058143    -1.5347496159
| 23>  H       -3.4501078723    -1.0446819422    -0.0340656313
| 24> *
| 25>
| 26>                          ****END OF INPUT****

CARTESIAN COORDINATES (ANGSTROEM)
---------------------------------
  C     -0.046132    1.482506    0.064821
  C     -0.019818   -0.019501   -0.067443
  C      0.957406   -0.718618   -0.937520
  C      0.567079   -1.983017   -1.158900
  C     -0.648368   -2.231341   -0.310972
  O     -0.150718   -2.222954    1.099384
  C     -0.506841   -0.867371    1.183410
  C     -1.306592   -0.831575   -0.071687
  C     -2.684461   -0.378054   -0.445986
  H      0.924810    1.864411    0.398621
  H     -0.286594    1.968601   -0.887866
  H     -0.792362    1.808207    0.797398
  H      1.889286   -0.269050   -1.261884
  H      1.122194   -2.757402   -1.671461
  H     -1.263559   -3.112187   -0.491569
  H     -0.606031   -0.424703    2.168667
  H     -2.882361    0.629133   -0.066426
  H     -2.810374   -0.351906   -1.534750
  H     -3.450108   -1.044682   -0.034066

 Total Charge           Charge          ....    0
 Multiplicity           Mult            ....    1
 Number of Electrons    NEL             ....   66
 Basis Dimension        Dim             ....  339

ORBITAL ENERGIES
----------------

  NO   OCC          E(Eh)            E(eV)
   0   2.0000     -20.548769      -559.1604
   1   2.0000     -11.290072      -307.2185
   2   2.0000     -11.286257      -307.1147
   3   2.0000     -11.241249      -305.8899
   4   2.0000     -11.240603      -305.8724
   5   2.0000     -11.231638      -305.6284
   6   2.0000     -11.228919      -305.5544
   7   2.0000     -11.226575      -305.4906
   8   2.0000     -11.220294      -305.3197
   9   2.0000      -1.390014       -37.8242
  10   2.0000      -1.156523       -31.4706
  11   2.0000      -1.048013       -28.5179
  12   2.0000      -1.003837       -27.3158
  13   2.0000      -0.948724       -25.8161
  14   2.0000      -0.908975       -24.7345
  15   2.0000      -0.809049       -22.0154
  16   2.0000      -0.732302       -19.9269
  17   2.0000      -0.720718       -19.6117
  18   2.0000      -0.684637       -18.6299
  19   2.0000      -0.648498       -17.6465
  20   2.0000      -0.615181       -16.7399
  21   2.0000      -0.585204       -15.9242
  22   2.0000      -0.576448       -15.6860
  23   2.0000      -0.567463       -15.4415
  24   2.0000      -0.550794       -14.9879
  25   2.0000      -0.550029       -14.9670
  26   2.0000      -0.537532       -14.6270
  27   2.0000      -0.508747       -13.8437
  28   2.0000      -0.498323       -13.5601
  29   2.0000      -0.450104       -12.2480
  30   2.0000      -0.408032       -11.1031
  31   2.0000      -0.367368        -9.9966
  32   2.0000      -0.328165        -8.9298
  33   0.0000       0.126446         3.4408
  34   0.0000       0.136474         3.7136
  35   0.0000       0.162778         4.4294
  36   0.0000       0.172718         4.6999
  37   0.0000       0.182521         4.9667

MULLIKEN ATOMIC CHARGES
-----------------------
   0 C :   -0.456096
   1 C :    0.109829
   2 C :   -0.175249
   3 C :   -0.231147
   4 C :    0.130122
   5 O :   -0.312462
   6 C :    0.002738
   7 C :   -0.016688
   8 C :   -0.412337
   9 H :    0.145044
  10 H :    0.141253
  11 H :    0.133152
  12 H :    0.128456
  13 H :    0.132906
  14 H :    0.124016
  15 H :    0.133532
  16 H :    0.136381
  17 H :    0.142581
  18 H :    0.143971
Sum of atomic charges:    0.0000000

LOEWDIN ATOMIC CHARGES
----------------------
   0 C :   -0.265977
   1 C :   -0.196648
   2 C :   -0.101991
   3 C :   -0.144392
   4 C :   -0.158136
   5 O :    0.176876
   6 C :   -0.206770
   7 C :   -0.169845
   8 C :   -0.270381
   9 H :    0.131195
  10 H :    0.129356
  11 H :    0.130205
  12 H :    0.141334
  13 H :    0.136604
  14 H :    0.136958
  15 H :    0.135161
  16 H :    0.132641
  17 H :    0.132659
  18 H :    0.131151

  Mayer bond orders larger than 0.1
B(  0-C ,  1-C ) :   0.8697 B(  0-C ,  9-H ) :   0.9425 B(  0-C , 10-H ) :   0.9357
B(  0-C , 11-H ) :   0.9384 B(  1-C ,  2-C ) :   0.9700 B(  1-C ,  6-C ) :   0.7840
B(  1-C ,  7-C ) :   0.8343 B(  2-C ,  3-C ) :   1.7404 B(  2-C , 12-H ) :   0.9226
B(  3-C ,  4-C ) :   0.9644 B(  3-C , 13-H ) :   0.9243 B(  4-C ,  5-O ) :   0.8621
B(  4-C ,  7-C ) :   0.9211 B(  4-C , 14-H ) :   0.9231 B(  5-O ,  6-C ) :   1.0257
B(  6-C ,  7-C ) :   0.9158 B(  6-C , 15-H ) :   0.9205 B(  7-C ,  8-C ) :   0.8385
B(  8-C , 16-H ) :   0.9357 B(  8-C , 17-H ) :   0.9378 B(  8-C , 18-H ) :   0.9429

MP2 TOTAL ENERGY:     -385.170885263 Eh
FINAL SINGLE POINT ENERGY      -385.170885263409

DIPOLE MOMENT
-------------
                                X             Y             Z
Electronic contribution:      3.03387      -5.81113       1.61785
Nuclear contribution   :     -3.42856       6.37298      -1.94853
                        -----------------------------------------
Total Dipole Moment    :     -0.39469       0.56185      -0.33068
                        -----------------------------------------
Magnitude (a.u.)       :      0.76211
Magnitude (Debye)      :      1.93713

                             ****ORCA TERMINATED NORMALLY****
TOTAL RUN TIME: 0 days 0 hours 19 minutes 51 seconds 525 msec
