                         Program Version 3.0.3 - RELEASE   -
|  1> ! RI-MP2 RIJK def2-TZVP def2-TZVP/C def2-TZVP/JK TIGHTSCF
|  2> % maxcore 2000
|  3> % mp2 density relaxed end
|  4> *xyz 0 1
|  5>  C       -0.0209187453     1.4355975635    -0.0144055583
|  6>  N        0.0058927232    -0.0114587602    -0.0274575467
|  7>  C        0.0416195120    -0.7961443662    -1.1784850759
|  8>  N        0.0546885773    -0.2878213819    -2.3469341459
|  9>  C        0.0578603829    -2.2053470836    -0.7155870222
| 10>  C        0.0328338831    -2.2356159568     0.6225048195
| 11>  C        0.0346566741    -3.3715914354     1.5832058214
| 12>  C       -0.0018797048    -0.8082534302     1.1089196954
| 13>  O       -0.0308472535    -0.4219562017     2.2564177953
| 14>  H        0.8676081266     1.8432947770    -0.5043669412
| 15>  H       -0.9048377781     1.8107943452    -0.5375632478
| 16>  H       -0.0462320355     1.7497254529     1.0300019534
| 17>  H        0.0811091480    -1.0250428637    -3.0510777056
| 18>  H        0.0858900971    -3.0415528975    -1.4019219256
| 19>  H        0.0620476534    -4.3350016547     1.0696159987
| 20>  H        0.8964607024    -3.3023873247     2.2560031066
| 21>  H       -0.8546241229    -3.3340320119     2.2219009490
| 22> *
| 23>
| 24>                          ****END OF INPUT****

CARTESIAN COORDINATES (ANGSTROEM)
---------------------------------
  C     -0.020919    1.435598   -0.014406
  N      0.005893   -0.011459   -0.027458
  C      0.041620   -0.796144   -1.178485
  N      0.054689   -0.287821   -2.346934
  C      0.057860   -2.205347   -0.715587
  C      0.032834   -2.235616    0.622505
  C      0.034657   -3.371591    1.583206
  C     -0.001880   -0.808253    1.108920
  O     -0.030847   -0.421956    2.256418
  H      0.867608    1.843295   -0.504367
  H     -0.904838    1.810794   -0.537563
  H     -0.046232    1.749725    1.030002
  H      0.081109   -1.025043   -3.051078
  H      0.085890   -3.041553   -1.401922
  H      0.062048   -4.335002    1.069616
  H      0.896461   -3.302387    2.256003
  H     -0.854624   -3.334032    2.221901

 Total Charge           Charge          ....    0
 Multiplicity           Mult            ....    1
 Number of Electrons    NEL             ....   66
 Basis Dimension        Dim             ....  327

ORBITAL ENERGIES
----------------

  NO   OCC          E(Eh)            E(eV)
   0   2.0000     -20.544165      -559.0352
   1   2.0000     -15.600529      -424.5120
   2   2.0000     -15.553268      -423.2259
   3   2.0000     -11.366488      -309.2979
   4   2.0000     -11.334491      -308.4272
   5   2.0000     -11.279148      -306.9212
   6   2.0000     -11.268303      -306.6261
   7   2.0000     -11.260243      -306.4068
   8   2.0000     -11.245880      -306.0159
   9   2.0000      -1.406363       -38.2691
  10   2.0000      -1.309705       -35.6389
  11   2.0000      -1.189819       -32.3766
  12   2.0000      -1.125679       -30.6313
  13   2.0000      -1.003667       -27.3112
  14   2.0000      -0.944392       -25.6982
  15   2.0000      -0.886422       -24.1208
  16   2.0000      -0.805136       -21.9089
  17   2.0000      -0.745305       -20.2808
  18   2.0000      -0.694681       -18.9032
  19   2.0000      -0.660936       -17.9850
  20   2.0000      -0.655643       -17.8409
  21   2.0000      -0.629472       -17.1288
  22   2.0000      -0.609388       -16.5823
  23   2.0000      -0.593483       -16.1495
  24   2.0000      -0.586889       -15.9701
  25   2.0000      -0.559629       -15.2283
  26   2.0000      -0.550361       -14.9761
  27   2.0000      -0.546606       -14.8739
  28   2.0000      -0.507415       -13.8075
  29   2.0000      -0.453426       -12.3384
  30   2.0000      -0.436101       -11.8669
  31   2.0000      -0.386700       -10.5226
  32   2.0000      -0.375869       -10.2279
  33   0.0000       0.059849         1.6286
  34   0.0000       0.132409         3.6030
  35   0.0000       0.147761         4.0208
  36   0.0000       0.156902         4.2695
  37   0.0000       0.184826         5.0294

MULLIKEN ATOMIC CHARGES
-----------------------
   0 C :   -0.308560
   1 N :   -0.066617
   2 C :    0.146681
   3 N :   -0.351551
   4 C :   -0.201635
   5 C :    0.014953
   6 C :   -0.397317
   7 C :    0.191511
   8 O :   -0.323150
   9 H :    0.147017
  10 H :    0.146981
  11 H :    0.172056
  12 H :    0.222259
  13 H :    0.149958
  14 H :    0.142654
  15 H :    0.157387
  16 H :    0.157373
Sum of atomic charges:    0.0000000

LOEWDIN ATOMIC CHARGES
----------------------
   0 C :   -0.271471
   1 N :    0.223222
   2 C :   -0.321556
   3 N :   -0.033290
   4 C :   -0.086005
   5 C :   -0.132092
   6 C :   -0.258240
   7 C :   -0.359361
   8 O :    0.119398
   9 H :    0.124998
  10 H :    0.124988
  11 H :    0.133869
  12 H :    0.168711
  13 H :    0.146425
  14 H :    0.132724
  15 H :    0.143839
  16 H :    0.143840

  Mayer bond orders larger than 0.1
B(  0-C ,  1-N ) :   0.8523 B(  0-C ,  9-H ) :   0.9315 B(  0-C , 10-H ) :   0.9315
B(  0-C , 11-H ) :   0.9219 B(  1-N ,  2-C ) :   1.0390 B(  1-N ,  7-C ) :   1.1025
B(  2-C ,  3-N ) :   1.9298 B(  2-C ,  4-C ) :   0.9778 B(  3-N , 12-H ) :   0.8605
B(  4-C ,  5-C ) :   1.6955 B(  4-C , 13-H ) :   0.9015 B(  5-C ,  6-C ) :   0.8849
B(  5-C ,  7-C ) :   0.9106 B(  6-C , 14-H ) :   0.9531 B(  6-C , 15-H ) :   0.9213
B(  6-C , 16-H ) :   0.9213 B(  7-C ,  8-O ) :   1.9912

MP2 TOTAL ENERGY:     -417.358395767 Eh
FINAL SINGLE POINT ENERGY      -417.358395766572

DIPOLE MOMENT
-------------
                                X             Y             Z
Electronic contribution:     -0.01088       1.04048      -0.31263
Nuclear contribution   :      0.03766      -1.97782      -0.22727
                        -----------------------------------------
Total Dipole Moment    :      0.02678      -0.93734      -0.53990
                        -----------------------------------------
Magnitude (a.u.)       :      1.08205
Magnitude (Debye)      :      2.75034

                             ****ORCA TERMINATED NORMALLY****
TOTAL RUN TIME: 0 days 0 hours 16 minutes 39 seconds 548 msec
