                         Program Version 3.0.3 - RELEASE   -
|  1> ! RI-MP2 RIJK def2-TZVP def2-TZVP/C def2-TZVP/JK TIGHTSCF
|  2> % maxcore 2000
|  3> % mp2 density relaxed end
|  4> *xyz 0 1
|  5>  C       -0.4470987670     1.6240334775    -0.2713662959
|  6>  C        0.1452073093     0.2626709779     0.0340699782
|  7>  C        0.7863480886    -0.5880540853    -1.1406818739
|  8>  C        2.0433723023    -0.5860951720    -0.2866618118
|  9>  C        3.2016301263    -1.0993390819     0.2574272212
| 10>  C        3.2274389995    -0.4647274004     1.5357385685
| 11>  O        4.2221690015    -0.6116514507     2.4348409786
| 12>  N        2.1797564122     0.3252696959     1.7896184202
| 13>  N        1.5108718041     0.2627887775     0.6101227114
| 14>  H        0.2413853759     2.2207748033    -0.8768667368
| 15>  H       -1.3883707680     1.5113854467    -0.8192469083
| 16>  H       -0.6559622433     2.1713115907     0.6528293192
| 17>  H       -0.5405185014    -0.3444519004     0.6351433377
| 18>  H        0.3235687978    -1.5655043521    -1.2924105818
| 19>  H        0.8504279602    -0.0642603547    -2.0979226305
| 20>  H        3.9266236908    -1.7861291031    -0.1431005024
| 21>  H        3.9853629712    -0.0766156989     3.2029823466
| 22> *
| 23>
| 24>                          ****END OF INPUT****

CARTESIAN COORDINATES (ANGSTROEM)
---------------------------------
  C     -0.447099    1.624033   -0.271366
  C      0.145207    0.262671    0.034070
  C      0.786348   -0.588054   -1.140682
  C      2.043372   -0.586095   -0.286662
  C      3.201630   -1.099339    0.257427
  C      3.227439   -0.464727    1.535739
  O      4.222169   -0.611651    2.434841
  N      2.179756    0.325270    1.789618
  N      1.510872    0.262789    0.610123
  H      0.241385    2.220775   -0.876867
  H     -1.388371    1.511385   -0.819247
  H     -0.655962    2.171312    0.652829
  H     -0.540519   -0.344452    0.635143
  H      0.323569   -1.565504   -1.292411
  H      0.850428   -0.064260   -2.097923
  H      3.926624   -1.786129   -0.143101
  H      3.985363   -0.076616    3.202982

 Total Charge           Charge          ....    0
 Multiplicity           Mult            ....    1
 Number of Electrons    NEL             ....   66
 Basis Dimension        Dim             ....  327

ORBITAL ENERGIES
----------------

  NO   OCC          E(Eh)            E(eV)
   0   2.0000     -20.585256      -560.1533
   1   2.0000     -15.613873      -424.8751
   2   2.0000     -15.567240      -423.6061
   3   2.0000     -11.317963      -307.9774
   4   2.0000     -11.298866      -307.4578
   5   2.0000     -11.277409      -306.8739
   6   2.0000     -11.264890      -306.5332
   7   2.0000     -11.231289      -305.6189
   8   2.0000     -11.216522      -305.2171
   9   2.0000      -1.417560       -38.5738
  10   2.0000      -1.367516       -37.2120
  11   2.0000      -1.171777       -31.8857
  12   2.0000      -1.050997       -28.5991
  13   2.0000      -1.001930       -27.2639
  14   2.0000      -0.948771       -25.8174
  15   2.0000      -0.852696       -23.2030
  16   2.0000      -0.794307       -21.6142
  17   2.0000      -0.768921       -20.9234
  18   2.0000      -0.695572       -18.9275
  19   2.0000      -0.676503       -18.4086
  20   2.0000      -0.644671       -17.5424
  21   2.0000      -0.609812       -16.5938
  22   2.0000      -0.603532       -16.4229
  23   2.0000      -0.589924       -16.0527
  24   2.0000      -0.577207       -15.7066
  25   2.0000      -0.549645       -14.9566
  26   2.0000      -0.534058       -14.5324
  27   2.0000      -0.520579       -14.1657
  28   2.0000      -0.509817       -13.8728
  29   2.0000      -0.489206       -13.3120
  30   2.0000      -0.446072       -12.1382
  31   2.0000      -0.342459        -9.3188
  32   2.0000      -0.327041        -8.8992
  33   0.0000       0.130273         3.5449
  34   0.0000       0.153008         4.1635
  35   0.0000       0.162551         4.4232
  36   0.0000       0.166701         4.5362
  37   0.0000       0.173916         4.7325

MULLIKEN ATOMIC CHARGES
-----------------------
   0 C :   -0.393235
   1 C :    0.004727
   2 C :   -0.183536
   3 C :    0.020423
   4 C :   -0.313166
   5 C :    0.242443
   6 O :   -0.430678
   7 N :   -0.308487
   8 N :    0.078320
   9 H :    0.135442
  10 H :    0.133196
  11 H :    0.147830
  12 H :    0.116394
  13 H :    0.135138
  14 H :    0.133371
  15 H :    0.143761
  16 H :    0.338057
Sum of atomic charges:    0.0000000

LOEWDIN ATOMIC CHARGES
----------------------
   0 C :   -0.292063
   1 C :   -0.215221
   2 C :   -0.173026
   3 C :   -0.206931
   4 C :   -0.170124
   5 C :   -0.411231
   6 O :    0.069563
   7 N :    0.013113
   8 N :    0.229453
   9 H :    0.129427
  10 H :    0.130108
  11 H :    0.132465
  12 H :    0.147265
  13 H :    0.139052
  14 H :    0.137544
  15 H :    0.142453
  16 H :    0.198154

  Mayer bond orders larger than 0.1
B(  0-C ,  1-C ) :   0.9113 B(  0-C ,  9-H ) :   0.9355 B(  0-C , 10-H ) :   0.9299
B(  0-C , 11-H ) :   0.9331 B(  1-C ,  2-C ) :   0.9288 B(  1-C ,  8-N ) :   0.8522
B(  1-C , 12-H ) :   0.9170 B(  2-C ,  3-C ) :   0.9232 B(  2-C , 13-H ) :   0.8972
B(  2-C , 14-H ) :   0.9212 B(  3-C ,  4-C ) :   1.4248 B(  3-C ,  7-N ) :   0.1026
B(  3-C ,  8-N ) :   1.1925 B(  4-C ,  5-C ) :   1.2866 B(  4-C , 15-H ) :   0.9251
B(  5-C ,  6-O ) :   1.0901 B(  5-C ,  7-N ) :   1.5129 B(  6-O , 16-H ) :   0.8197
B(  7-N ,  8-N ) :   1.0084

MP2 TOTAL ENERGY:     -417.292883250 Eh
FINAL SINGLE POINT ENERGY      -417.292883249637

DIPOLE MOMENT
-------------
                                X             Y             Z
Electronic contribution:      6.76095      -2.48495       4.46623
Nuclear contribution   :     -7.76444       2.52100      -5.09459
                        -----------------------------------------
Total Dipole Moment    :     -1.00349       0.03605      -0.62835
                        -----------------------------------------
Magnitude (a.u.)       :      1.18453
Magnitude (Debye)      :      3.01085

                             ****ORCA TERMINATED NORMALLY****
TOTAL RUN TIME: 0 days 0 hours 16 minutes 1 seconds 627 msec
