                         Program Version 3.0.3 - RELEASE   -
|  1> ! RI-MP2 RIJK def2-TZVP def2-TZVP/C def2-TZVP/JK TIGHTSCF
|  2> % maxcore 2000
|  3> % mp2 density relaxed end
|  4> *xyz 0 1
|  5>  C        0.0213983353     1.4559657874     0.0389330760
|  6>  C        0.0064929806    -0.0329469845    -0.0055797378
|  7>  C       -0.0126692473    -0.8870770821    -1.0341609798
|  8>  C       -0.0189003458    -2.2655908545    -0.3619038075
|  9>  C        1.0609788924    -2.0391131292     0.7480537541
| 10>  C        0.0106935206    -0.9728872642     1.2306940473
| 11>  C        0.0313509639    -0.3762685053     2.6201026438
| 12>  C       -1.0701512399    -2.0184397944     0.7709054978
| 13>  H        0.9096580211     1.8380687632     0.5588332589
| 14>  H        0.0137417044     1.8801374590    -0.9693167065
| 15>  H       -0.8468908154     1.8550577895     0.5793785422
| 16>  H       -0.0220627284    -0.6851638046    -2.0966714298
| 17>  H       -0.0342655950    -3.1563466581    -0.9891043961
| 18>  H        1.1640233830    -2.8823855482     1.4405075035
| 19>  H        2.0412125269    -1.6736092839     0.4308172448
| 20>  H        0.9231483788     0.2410052092     2.7787001233
| 21>  H       -0.8452887541     0.2572490130     2.7979910027
| 22>  H        0.0324684201    -1.1606807947     3.3839660363
| 23>  H       -2.0496859296    -1.6339204725     0.4746847615
| 24>  H       -1.1746628714    -2.8596912954     1.4655938153
| 25> *
| 26>
| 27>                          ****END OF INPUT****

CARTESIAN COORDINATES (ANGSTROEM)
---------------------------------
  C      0.021398    1.455966    0.038933
  C      0.006493   -0.032947   -0.005580
  C     -0.012669   -0.887077   -1.034161
  C     -0.018900   -2.265591   -0.361904
  C      1.060979   -2.039113    0.748054
  C      0.010694   -0.972887    1.230694
  C      0.031351   -0.376269    2.620103
  C     -1.070151   -2.018440    0.770905
  H      0.909658    1.838069    0.558833
  H      0.013742    1.880137   -0.969317
  H     -0.846891    1.855058    0.579379
  H     -0.022063   -0.685164   -2.096671
  H     -0.034266   -3.156347   -0.989104
  H      1.164023   -2.882386    1.440508
  H      2.041213   -1.673609    0.430817
  H      0.923148    0.241005    2.778700
  H     -0.845289    0.257249    2.797991
  H      0.032468   -1.160681    3.383966
  H     -2.049686   -1.633920    0.474685
  H     -1.174663   -2.859691    1.465594

 Total Charge           Charge          ....    0
 Multiplicity           Mult            ....    1
 Number of Electrons    NEL             ....   60
 Basis Dimension        Dim             ....  320

ORBITAL ENERGIES
----------------

  NO   OCC          E(Eh)            E(eV)
   0   2.0000     -11.237825      -305.7968
   1   2.0000     -11.229656      -305.5745
   2   2.0000     -11.222473      -305.3790
   3   2.0000     -11.220982      -305.3384
   4   2.0000     -11.218678      -305.2758
   5   2.0000     -11.218660      -305.2753
   6   2.0000     -11.213100      -305.1240
   7   2.0000     -11.207106      -304.9609
   8   2.0000      -1.189207       -32.3600
   9   2.0000      -1.022628       -27.8271
  10   2.0000      -0.994350       -27.0576
  11   2.0000      -0.918303       -24.9883
  12   2.0000      -0.890109       -24.2211
  13   2.0000      -0.847227       -23.0542
  14   2.0000      -0.739122       -20.1125
  15   2.0000      -0.674048       -18.3418
  16   2.0000      -0.649631       -17.6774
  17   2.0000      -0.630972       -17.1696
  18   2.0000      -0.584850       -15.9146
  19   2.0000      -0.571482       -15.5508
  20   2.0000      -0.557528       -15.1711
  21   2.0000      -0.543708       -14.7950
  22   2.0000      -0.543625       -14.7928
  23   2.0000      -0.533163       -14.5081
  24   2.0000      -0.471777       -12.8377
  25   2.0000      -0.457493       -12.4490
  26   2.0000      -0.452466       -12.3122
  27   2.0000      -0.439493       -11.9592
  28   2.0000      -0.413768       -11.2592
  29   2.0000      -0.313433        -8.5290
  30   0.0000       0.132781         3.6131
  31   0.0000       0.160220         4.3598
  32   0.0000       0.161391         4.3917
  33   0.0000       0.170325         4.6348
  34   0.0000       0.193094         5.2544

MULLIKEN ATOMIC CHARGES
-----------------------
   0 C :   -0.452385
   1 C :   -0.042336
   2 C :   -0.226056
   3 C :   -0.049814
   4 C :   -0.212661
   5 C :    0.107729
   6 C :   -0.415788
   7 C :   -0.212651
   8 H :    0.139576
   9 H :    0.142551
  10 H :    0.139555
  11 H :    0.121952
  12 H :    0.126469
  13 H :    0.108090
  14 H :    0.107717
  15 H :    0.133762
  16 H :    0.133770
  17 H :    0.134708
  18 H :    0.107716
  19 H :    0.108093
Sum of atomic charges:    0.0000000

LOEWDIN ATOMIC CHARGES
----------------------
   0 C :   -0.277097
   1 C :   -0.143273
   2 C :   -0.120597
   3 C :   -0.189879
   4 C :   -0.164822
   5 C :   -0.218130
   6 C :   -0.277129
   7 C :   -0.164823
   8 H :    0.131277
   9 H :    0.132272
  10 H :    0.131270
  11 H :    0.132629
  12 H :    0.129693
  13 H :    0.130771
  14 H :    0.126650
  15 H :    0.128180
  16 H :    0.128179
  17 H :    0.127406
  18 H :    0.126650
  19 H :    0.130773

  Mayer bond orders larger than 0.1
B(  0-C ,  1-C ) :   0.8684 B(  0-C ,  8-H ) :   0.9405 B(  0-C ,  9-H ) :   0.9478
B(  0-C , 10-H ) :   0.9405 B(  1-C ,  2-C ) :   1.7526 B(  1-C ,  5-C ) :   0.9153
B(  2-C ,  3-C ) :   0.9064 B(  2-C , 11-H ) :   0.9402 B(  3-C ,  4-C ) :   0.9247
B(  3-C ,  7-C ) :   0.9247 B(  3-C , 12-H ) :   0.9160 B(  4-C ,  5-C ) :   0.9054
B(  4-C , 13-H ) :   0.9225 B(  4-C , 14-H ) :   0.9174 B(  5-C ,  6-C ) :   0.8249
B(  5-C ,  7-C ) :   0.9054 B(  6-C , 15-H ) :   0.9482 B(  6-C , 16-H ) :   0.9482
B(  6-C , 17-H ) :   0.9450 B(  7-C , 18-H ) :   0.9174 B(  7-C , 19-H ) :   0.9225

MP2 TOTAL ENERGY:     -311.271737833 Eh
FINAL SINGLE POINT ENERGY      -311.271737833227

DIPOLE MOMENT
-------------
                                X             Y             Z
Electronic contribution:     -0.05409      -2.19364      -3.06598
Nuclear contribution   :      0.05633       2.27007       3.20380
                        -----------------------------------------
Total Dipole Moment    :      0.00225       0.07643       0.13782
                        -----------------------------------------
Magnitude (a.u.)       :      0.15761
Magnitude (Debye)      :      0.40062

                             ****ORCA TERMINATED NORMALLY****
TOTAL RUN TIME: 0 days 0 hours 16 minutes 18 seconds 215 msec
