                         Program Version 3.0.3 - RELEASE   -
|  1> ! RI-MP2 RIJK def2-TZVP def2-TZVP/C def2-TZVP/JK TIGHTSCF
|  2> % maxcore 2000
|  3> % mp2 density relaxed end
|  4> *xyz 0 1
|  5>  O        0.0176831496     0.1601940014     0.6322170814
|  6>  C        0.0865705615     1.3342357438     0.3348991485
|  7>  N        1.2086066039     1.9654132687    -0.0991089574
|  8>  C        1.3138094450     3.3842162753    -0.4191633728
|  9>  C        2.6986532693     3.7812817522     0.1092311629
| 10>  C        2.8381921351     3.8947667028     1.6411005749
| 11>  O        3.5061719653     2.6200655727     1.7275602679
| 12>  C        3.4714906547     2.4426193972     0.2972712034
| 13>  C        2.5206854313     1.3276423134    -0.1375816456
| 14>  H       -0.7789703734     2.0252393645     0.3891406868
| 15>  H        1.2623601827     3.5487928261    -1.5052171770
| 16>  H        0.4951262581     3.9439968227     0.0430332248
| 17>  H        3.1694755427     4.5714435524    -0.4742045237
| 18>  H        3.4780036760     4.7146000031     1.9894361774
| 19>  H        1.8989525973     3.9070951003     2.2084944550
| 20>  H        4.4758264057     2.3447695237    -0.1260318176
| 21>  H        2.5330278236     0.4677588241     0.5338054630
| 22>  H        2.7661501016     0.9863878256    -1.1535396819
| 23> *
| 24>
| 25>                          ****END OF INPUT****

CARTESIAN COORDINATES (ANGSTROEM)
---------------------------------
  O      0.017683    0.160194    0.632217
  C      0.086571    1.334236    0.334899
  N      1.208607    1.965413   -0.099109
  C      1.313809    3.384216   -0.419163
  C      2.698653    3.781282    0.109231
  C      2.838192    3.894767    1.641101
  O      3.506172    2.620066    1.727560
  C      3.471491    2.442619    0.297271
  C      2.520685    1.327642   -0.137582
  H     -0.778970    2.025239    0.389141
  H      1.262360    3.548793   -1.505217
  H      0.495126    3.943997    0.043033
  H      3.169476    4.571444   -0.474205
  H      3.478004    4.714600    1.989436
  H      1.898953    3.907095    2.208494
  H      4.475826    2.344770   -0.126032
  H      2.533028    0.467759    0.533805
  H      2.766150    0.986388   -1.153540

 Total Charge           Charge          ....    0
 Multiplicity           Mult            ....    1
 Number of Electrons    NEL             ....   68
 Basis Dimension        Dim             ....  333

ORBITAL ENERGIES
----------------

  NO   OCC          E(Eh)            E(eV)
   0   2.0000     -20.558111      -559.4146
   1   2.0000     -20.518877      -558.3470
   2   2.0000     -15.590930      -424.2508
   3   2.0000     -11.346264      -308.7475
   4   2.0000     -11.297700      -307.4260
   5   2.0000     -11.291124      -307.2471
   6   2.0000     -11.286597      -307.1239
   7   2.0000     -11.267359      -306.6004
   8   2.0000     -11.254183      -306.2419
   9   2.0000      -1.394892       -37.9569
  10   2.0000      -1.379272       -37.5319
  11   2.0000      -1.263424       -34.3795
  12   2.0000      -1.061219       -28.8772
  13   2.0000      -1.022507       -27.8238
  14   2.0000      -0.935133       -25.4463
  15   2.0000      -0.889208       -24.1966
  16   2.0000      -0.789852       -21.4930
  17   2.0000      -0.763837       -20.7851
  18   2.0000      -0.725146       -19.7322
  19   2.0000      -0.701799       -19.0969
  20   2.0000      -0.657460       -17.8904
  21   2.0000      -0.645674       -17.5697
  22   2.0000      -0.627731       -17.0814
  23   2.0000      -0.605841       -16.4858
  24   2.0000      -0.593926       -16.1615
  25   2.0000      -0.560516       -15.2524
  26   2.0000      -0.548995       -14.9389
  27   2.0000      -0.543440       -14.7878
  28   2.0000      -0.526566       -14.3286
  29   2.0000      -0.469306       -12.7705
  30   2.0000      -0.464467       -12.6388
  31   2.0000      -0.428997       -11.6736
  32   2.0000      -0.426135       -11.5957
  33   2.0000      -0.380127       -10.3438
  34   0.0000       0.125891         3.4257
  35   0.0000       0.141416         3.8481
  36   0.0000       0.157724         4.2919
  37   0.0000       0.164036         4.4636
  38   0.0000       0.174910         4.7596

MULLIKEN ATOMIC CHARGES
-----------------------
   0 O :   -0.357948
   1 C :    0.138729
   2 N :   -0.095648
   3 C :   -0.216485
   4 C :   -0.076952
   5 C :   -0.039860
   6 O :   -0.329523
   7 C :    0.055906
   8 C :   -0.155120
   9 H :    0.073258
  10 H :    0.125531
  11 H :    0.142733
  12 H :    0.135705
  13 H :    0.104183
  14 H :    0.098556
  15 H :    0.109952
  16 H :    0.164047
  17 H :    0.122934
Sum of atomic charges:    0.0000000

LOEWDIN ATOMIC CHARGES
----------------------
   0 O :    0.059143
   1 C :   -0.421952
   2 N :    0.177503
   3 C :   -0.232351
   4 C :   -0.204241
   5 C :   -0.248684
   6 O :    0.141541
   7 C :   -0.249145
   8 C :   -0.217931
   9 H :    0.111699
  10 H :    0.134142
  11 H :    0.139736
  12 H :    0.144921
  13 H :    0.119118
  14 H :    0.120733
  15 H :    0.134540
  16 H :    0.153547
  17 H :    0.137683

  Mayer bond orders larger than 0.1
B(  0-O ,  1-C ) :   1.9049 B(  1-C ,  2-N ) :   1.1376 B(  1-C ,  9-H ) :   0.9306
B(  2-N ,  3-C ) :   0.9324 B(  2-N ,  8-C ) :   0.8480 B(  3-C ,  4-C ) :   0.9369
B(  3-C , 10-H ) :   0.9241 B(  3-C , 11-H ) :   0.9193 B(  4-C ,  5-C ) :   0.9524
B(  4-C ,  7-C ) :   0.9269 B(  4-C , 12-H ) :   0.9175 B(  5-C ,  6-O ) :   0.9482
B(  5-C , 13-H ) :   0.9170 B(  5-C , 14-H ) :   0.9041 B(  6-O ,  7-C ) :   0.9506
B(  7-C ,  8-C ) :   0.9425 B(  7-C , 15-H ) :   0.9255 B(  8-C , 16-H ) :   0.9102
B(  8-C , 17-H ) :   0.9155

MP2 TOTAL ENERGY:     -438.376578742 Eh
FINAL SINGLE POINT ENERGY      -438.376578742117

DIPOLE MOMENT
-------------
                                X             Y             Z
Electronic contribution:     -1.13895      -3.64240       1.28860
Nuclear contribution   :      1.62361       5.39151      -2.19402
                        -----------------------------------------
Total Dipole Moment    :      0.48466       1.74911      -0.90541
                        -----------------------------------------
Magnitude (a.u.)       :      2.02831
Magnitude (Debye)      :      5.15555

                             ****ORCA TERMINATED NORMALLY****
TOTAL RUN TIME: 0 days 0 hours 18 minutes 24 seconds 616 msec
