                         Program Version 3.0.3 - RELEASE   -
|  1> ! RI-MP2 RIJK def2-TZVP def2-TZVP/C def2-TZVP/JK TIGHTSCF
|  2> % maxcore 2000
|  3> % mp2 density relaxed end
|  4> *xyz 0 1
|  5>  C       -0.3050514767     1.5203781187     0.2164335918
|  6>  C       -0.0587315810     0.0348964347     0.3669294619
|  7>  O        0.6145044960    -0.4127756112     1.2705501524
|  8>  C       -0.6882585800    -0.8499298412    -0.7042514212
|  9>  C       -0.7795946788    -2.3105314584    -0.3961998372
| 10>  N       -1.5715783214    -3.1706932373    -1.0187724192
| 11>  C       -1.2746642752    -4.3491223385    -0.4053937381
| 12>  N       -0.3607232987    -4.2755383150     0.5486393055
| 13>  N       -0.0511174848    -2.9590427122     0.5336501020
| 14>  H        0.3350498955     2.0754359027     0.9025346997
| 15>  H       -0.1294288003     1.8459117478    -0.8141741636
| 16>  H       -1.3551051111     1.7391232839     0.4443200632
| 17>  H       -1.6851249768    -0.4788595109    -0.9631492978
| 18>  H       -0.0883389437    -0.6980653133    -1.6151842716
| 19>  H       -1.7460174753    -5.2844394282    -0.6675069026
| 20>  H        0.5920185723    -2.5409388515     1.1891135947
| 21> *
| 22>
| 23>                          ****END OF INPUT****

CARTESIAN COORDINATES (ANGSTROEM)
---------------------------------
  C     -0.305051    1.520378    0.216434
  C     -0.058732    0.034896    0.366929
  O      0.614504   -0.412776    1.270550
  C     -0.688259   -0.849930   -0.704251
  C     -0.779595   -2.310531   -0.396200
  N     -1.571578   -3.170693   -1.018772
  C     -1.274664   -4.349122   -0.405394
  N     -0.360723   -4.275538    0.548639
  N     -0.051117   -2.959043    0.533650
  H      0.335050    2.075436    0.902535
  H     -0.129429    1.845912   -0.814174
  H     -1.355105    1.739123    0.444320
  H     -1.685125   -0.478860   -0.963149
  H     -0.088339   -0.698065   -1.615184
  H     -1.746017   -5.284439   -0.667507
  H      0.592019   -2.540939    1.189114

 Total Charge           Charge          ....    0
 Multiplicity           Mult            ....    1
 Number of Electrons    NEL             ....   66
 Basis Dimension        Dim             ....  321

ORBITAL ENERGIES
----------------

  NO   OCC          E(Eh)            E(eV)
   0   2.0000     -20.574930      -559.8723
   1   2.0000     -15.638111      -425.5346
   2   2.0000     -15.586445      -424.1287
   3   2.0000     -15.550870      -423.1607
   4   2.0000     -11.365668      -309.2756
   5   2.0000     -11.321393      -308.0708
   6   2.0000     -11.279874      -306.9410
   7   2.0000     -11.278142      -306.8939
   8   2.0000     -11.257481      -306.3316
   9   2.0000      -1.422040       -38.6957
  10   2.0000      -1.404231       -38.2111
  11   2.0000      -1.192535       -32.4505
  12   2.0000      -1.126847       -30.6631
  13   2.0000      -1.064905       -28.9775
  14   2.0000      -0.997318       -27.1384
  15   2.0000      -0.846182       -23.0258
  16   2.0000      -0.823086       -22.3973
  17   2.0000      -0.790280       -21.5046
  18   2.0000      -0.717555       -19.5257
  19   2.0000      -0.677867       -18.4457
  20   2.0000      -0.667093       -18.1525
  21   2.0000      -0.651304       -17.7229
  22   2.0000      -0.623744       -16.9729
  23   2.0000      -0.607717       -16.5368
  24   2.0000      -0.592112       -16.1122
  25   2.0000      -0.579439       -15.7673
  26   2.0000      -0.562574       -15.3084
  27   2.0000      -0.522107       -14.2072
  28   2.0000      -0.496163       -13.5013
  29   2.0000      -0.449509       -12.2318
  30   2.0000      -0.441691       -12.0190
  31   2.0000      -0.410270       -11.1640
  32   2.0000      -0.361107        -9.8262
  33   0.0000       0.108136         2.9425
  34   0.0000       0.119240         3.2447
  35   0.0000       0.151745         4.1292
  36   0.0000       0.167488         4.5576
  37   0.0000       0.184540         5.0216

MULLIKEN ATOMIC CHARGES
-----------------------
   0 C :   -0.413030
   1 C :    0.262165
   2 O :   -0.333001
   3 C :   -0.281109
   4 C :    0.149142
   5 N :   -0.312288
   6 C :    0.039085
   7 N :   -0.232391
   8 N :   -0.102029
   9 H :    0.161226
  10 H :    0.150231
  11 H :    0.158974
  12 H :    0.171918
  13 H :    0.160060
  14 H :    0.138744
  15 H :    0.282303
Sum of atomic charges:    0.0000000

LOEWDIN ATOMIC CHARGES
----------------------
   0 C :   -0.272642
   1 C :   -0.332407
   2 O :    0.138969
   3 C :   -0.201139
   4 C :   -0.332440
   5 N :    0.091505
   6 C :   -0.346814
   7 N :    0.016819
   8 N :    0.151599
   9 H :    0.136533
  10 H :    0.138411
  11 H :    0.143643
  12 H :    0.169773
  13 H :    0.173700
  14 H :    0.129666
  15 H :    0.194823

  Mayer bond orders larger than 0.1
B(  0-C ,  1-C ) :   0.9287 B(  0-C ,  9-H ) :   0.9356 B(  0-C , 10-H ) :   0.9173
B(  0-C , 11-H ) :   0.9119 B(  1-C ,  2-O ) :   1.8764 B(  1-C ,  3-C ) :   0.9072
B(  3-C ,  4-C ) :   0.9229 B(  3-C , 12-H ) :   0.9403 B(  3-C , 13-H ) :   0.8496
B(  4-C ,  5-N ) :   1.5448 B(  4-C ,  8-N ) :   1.2576 B(  5-N ,  6-C ) :   1.2915
B(  6-C ,  7-N ) :   1.5139 B(  6-C , 14-H ) :   0.9381 B(  7-N ,  8-N ) :   1.0581
B(  8-N , 15-H ) :   0.8360

MP2 TOTAL ENERGY:     -433.395094487 Eh
FINAL SINGLE POINT ENERGY      -433.395094487491

DIPOLE MOMENT
-------------
                                X             Y             Z
Electronic contribution:      0.76873      -7.21840       1.54794
Nuclear contribution   :     -0.69599       8.78425      -1.86424
                        -----------------------------------------
Total Dipole Moment    :      0.07274       1.56585      -0.31630
                        -----------------------------------------
Magnitude (a.u.)       :      1.59913
Magnitude (Debye)      :      4.06466

                             ****ORCA TERMINATED NORMALLY****
TOTAL RUN TIME: 0 days 0 hours 14 minutes 7 seconds 892 msec
