                         Program Version 3.0.3 - RELEASE   -
|  1> ! RI-MP2 RIJK def2-TZVP def2-TZVP/C def2-TZVP/JK TIGHTSCF
|  2> % maxcore 2000
|  3> % mp2 density relaxed end
|  4> *xyz 0 1
|  5>  C        0.1487473107     1.6394029262     0.0882142304
|  6>  C       -0.0325744142     0.1166488826    -0.0586505920
|  7>  C        0.6790831975    -0.4505775598    -1.2539407181
|  8>  C        1.9270614131    -0.9166892401    -1.3172308410
|  9>  C        2.2506093254    -1.3547923972    -2.7162249385
| 10>  O        1.0851690574    -1.0405077573    -3.4779900560
| 11>  C        0.0741237776    -0.5694971140    -2.6100596245
| 12>  C       -1.3306048193    -1.0662810465    -2.8651082368
| 13>  C       -0.9468697368     0.3598545671    -3.2078746424
| 14>  H        1.2064593034     1.8904740083     0.2107047570
| 15>  H       -0.2176816711     2.1759069176    -0.7916698870
| 16>  H       -0.3952520651     2.0110405071     0.9622786430
| 17>  H        0.3402120196    -0.3746770863     0.8465719338
| 18>  H       -1.1029338328    -0.1162013310    -0.1152154748
| 19>  H        2.6274728586    -0.9918130945    -0.4944559602
| 20>  H        3.1165977240    -0.8271136770    -3.1445512584
| 21>  H        2.4659457378    -2.4344348385    -2.7813059056
| 22>  H       -1.4414391541    -1.7654786851    -3.6861403899
| 23>  H       -1.9915766768    -1.2406292540    -2.0224823469
| 24>  H       -1.3484996058     1.1646775634    -2.6018359369
| 25>  H       -0.8105180892     0.6034943190    -4.2556218450
| 26> *
| 27>
| 28>                          ****END OF INPUT****

CARTESIAN COORDINATES (ANGSTROEM)
---------------------------------
  C      0.148747    1.639403    0.088214
  C     -0.032574    0.116649   -0.058651
  C      0.679083   -0.450578   -1.253941
  C      1.927061   -0.916689   -1.317231
  C      2.250609   -1.354792   -2.716225
  O      1.085169   -1.040508   -3.477990
  C      0.074124   -0.569497   -2.610060
  C     -1.330605   -1.066281   -2.865108
  C     -0.946870    0.359855   -3.207875
  H      1.206459    1.890474    0.210705
  H     -0.217682    2.175907   -0.791670
  H     -0.395252    2.011041    0.962279
  H      0.340212   -0.374677    0.846572
  H     -1.102934   -0.116201   -0.115215
  H      2.627473   -0.991813   -0.494456
  H      3.116598   -0.827114   -3.144551
  H      2.465946   -2.434435   -2.781306
  H     -1.441439   -1.765479   -3.686140
  H     -1.991577   -1.240629   -2.022482
  H     -1.348500    1.164678   -2.601836
  H     -0.810518    0.603494   -4.255622

 Total Charge           Charge          ....    0
 Multiplicity           Mult            ....    1
 Number of Electrons    NEL             ....   68
 Basis Dimension        Dim             ....  351

ORBITAL ENERGIES
----------------

  NO   OCC          E(Eh)            E(eV)
   0   2.0000     -20.549492      -559.1801
   1   2.0000     -11.286731      -307.1276
   2   2.0000     -11.275121      -306.8116
   3   2.0000     -11.236646      -305.7647
   4   2.0000     -11.235486      -305.7331
   5   2.0000     -11.222257      -305.3731
   6   2.0000     -11.221146      -305.3429
   7   2.0000     -11.221137      -305.3427
   8   2.0000     -11.220517      -305.3258
   9   2.0000      -1.379460       -37.5370
  10   2.0000      -1.133555       -30.8456
  11   2.0000      -1.091027       -29.6883
  12   2.0000      -1.015366       -27.6295
  13   2.0000      -0.931030       -25.3346
  14   2.0000      -0.856507       -23.3067
  15   2.0000      -0.825927       -22.4746
  16   2.0000      -0.789285       -21.4775
  17   2.0000      -0.729396       -19.8479
  18   2.0000      -0.671767       -18.2797
  19   2.0000      -0.644276       -17.5316
  20   2.0000      -0.639577       -17.4038
  21   2.0000      -0.622588       -16.9415
  22   2.0000      -0.592765       -16.1299
  23   2.0000      -0.574942       -15.6450
  24   2.0000      -0.546905       -14.8820
  25   2.0000      -0.527889       -14.3646
  26   2.0000      -0.521576       -14.1928
  27   2.0000      -0.504999       -13.7417
  28   2.0000      -0.495962       -13.4958
  29   2.0000      -0.491804       -13.3827
  30   2.0000      -0.475921       -12.9505
  31   2.0000      -0.422299       -11.4913
  32   2.0000      -0.406213       -11.0536
  33   2.0000      -0.318759        -8.6739
  34   0.0000       0.133708         3.6384
  35   0.0000       0.157852         4.2954
  36   0.0000       0.162049         4.4096
  37   0.0000       0.168727         4.5913
  38   0.0000       0.175913         4.7868

MULLIKEN ATOMIC CHARGES
-----------------------
   0 C :   -0.379837
   1 C :   -0.264865
   2 C :    0.080831
   3 C :   -0.281510
   4 C :    0.043745
   5 O :   -0.313503
   6 C :    0.226252
   7 C :   -0.304667
   8 C :   -0.302681
   9 H :    0.129640
  10 H :    0.124572
  11 H :    0.131612
  12 H :    0.129985
  13 H :    0.121855
  14 H :    0.131142
  15 H :    0.106930
  16 H :    0.099249
  17 H :    0.134862
  18 H :    0.125443
  19 H :    0.125222
  20 H :    0.135724
Sum of atomic charges:   -0.0000000

LOEWDIN ATOMIC CHARGES
----------------------
   0 C :   -0.304899
   1 C :   -0.244851
   2 C :   -0.132024
   3 C :   -0.138634
   4 C :   -0.276356
   5 O :    0.203773
   6 C :   -0.282027
   7 C :   -0.204286
   8 C :   -0.202962
   9 H :    0.122793
  10 H :    0.119839
  11 H :    0.120656
  12 H :    0.146623
  13 H :    0.143563
  14 H :    0.140507
  15 H :    0.125689
  16 H :    0.124539
  17 H :    0.138410
  18 H :    0.129552
  19 H :    0.130449
  20 H :    0.139648

  Mayer bond orders larger than 0.1
B(  0-C ,  1-C ) :   0.9155 B(  0-C ,  9-H ) :   0.9384 B(  0-C , 10-H ) :   0.9376
B(  0-C , 11-H ) :   0.9359 B(  1-C ,  2-C ) :   0.8477 B(  1-C , 12-H ) :   0.9390
B(  1-C , 13-H ) :   0.9488 B(  2-C ,  3-C ) :   1.7276 B(  2-C ,  6-C ) :   0.9317
B(  3-C ,  4-C ) :   0.9928 B(  3-C , 14-H ) :   0.9164 B(  4-C ,  5-O ) :   0.9217
B(  4-C , 15-H ) :   0.9158 B(  4-C , 16-H ) :   0.9074 B(  5-O ,  6-C ) :   0.9944
B(  6-C ,  7-C ) :   0.8294 B(  6-C ,  8-C ) :   0.8471 B(  7-C ,  8-C ) :   0.9173
B(  7-C , 17-H ) :   0.9230 B(  7-C , 18-H ) :   0.9160 B(  8-C , 19-H ) :   0.9198
B(  8-C , 20-H ) :   0.9185

MP2 TOTAL ENERGY:     -386.395698756 Eh
FINAL SINGLE POINT ENERGY      -386.395698755768

DIPOLE MOMENT
-------------
                                X             Y             Z
Electronic contribution:      2.53869      -3.90390      -4.39751
Nuclear contribution   :     -2.50637       4.02083       5.06653
                        -----------------------------------------
Total Dipole Moment    :      0.03232       0.11694       0.66903
                        -----------------------------------------
Magnitude (a.u.)       :      0.67994
Magnitude (Debye)      :      1.72826

                             ****ORCA TERMINATED NORMALLY****
TOTAL RUN TIME: 0 days 0 hours 19 minutes 58 seconds 931 msec
