                         Program Version 3.0.3 - RELEASE   -
|  1> ! RI-MP2 RIJK def2-TZVP def2-TZVP/C def2-TZVP/JK TIGHTSCF
|  2> % maxcore 2000
|  3> % mp2 density relaxed end
|  4> *xyz 0 1
|  5>  C       -0.2223055904     1.5564230701    -0.1075576512
|  6>  C       -0.0060901079     0.0501983890    -0.0348183480
|  7>  C        1.2608798582    -0.5046868422    -0.7239484072
|  8>  O        1.7949402867    -0.9835957715     0.5264406441
|  9>  C        0.6162162059    -0.5734410579     1.2489062982
| 10>  C        0.9442025757     0.3335118548     2.4399042496
| 11>  C        1.6245954995    -0.3821464582     3.5118378436
| 12>  C        2.1750185820    -0.9898902631     4.3901474000
| 13>  H        0.6839538700     2.1131148529     0.1510947152
| 14>  H       -0.5067771610     1.8486095373    -1.1239958799
| 15>  H       -1.0235683268     1.8829871981     0.5637232646
| 16>  H       -0.9210470135    -0.4658090536    -0.3371695205
| 17>  H        1.0947788064    -1.3201977860    -1.4390302548
| 18>  H        1.9153693078     0.2448904487    -1.1880501992
| 19>  H        0.0628854507    -1.4481997674     1.6160146628
| 20>  H        1.5653584156     1.1693742878     2.0994915212
| 21>  H        0.0077104340     0.7643111459     2.8193861590
| 22>  H        2.6704621272    -1.5215731645     5.1639781126
| 23> *
| 24>
| 25>                          ****END OF INPUT****

CARTESIAN COORDINATES (ANGSTROEM)
---------------------------------
  C     -0.222306    1.556423   -0.107558
  C     -0.006090    0.050198   -0.034818
  C      1.260880   -0.504687   -0.723948
  O      1.794940   -0.983596    0.526441
  C      0.616216   -0.573441    1.248906
  C      0.944203    0.333512    2.439904
  C      1.624595   -0.382146    3.511838
  C      2.175019   -0.989890    4.390147
  H      0.683954    2.113115    0.151095
  H     -0.506777    1.848610   -1.123996
  H     -1.023568    1.882987    0.563723
  H     -0.921047   -0.465809   -0.337170
  H      1.094779   -1.320198   -1.439030
  H      1.915369    0.244890   -1.188050
  H      0.062885   -1.448200    1.616015
  H      1.565358    1.169374    2.099492
  H      0.007710    0.764311    2.819386
  H      2.670462   -1.521573    5.163978

 Total Charge           Charge          ....    0
 Multiplicity           Mult            ....    1
 Number of Electrons    NEL             ....   60
 Basis Dimension        Dim             ....  308

ORBITAL ENERGIES
----------------

  NO   OCC          E(Eh)            E(eV)
   0   2.0000     -20.546921      -559.1101
   1   2.0000     -11.289856      -307.2126
   2   2.0000     -11.278017      -306.8904
   3   2.0000     -11.253065      -306.2115
   4   2.0000     -11.241352      -305.8927
   5   2.0000     -11.229380      -305.5670
   6   2.0000     -11.229267      -305.5639
   7   2.0000     -11.215623      -305.1926
   8   2.0000      -1.380012       -37.5520
   9   2.0000      -1.080228       -29.3945
  10   2.0000      -1.052505       -28.6401
  11   2.0000      -0.983394       -26.7595
  12   2.0000      -0.918701       -24.9991
  13   2.0000      -0.887729       -24.1563
  14   2.0000      -0.744028       -20.2460
  15   2.0000      -0.720504       -19.6059
  16   2.0000      -0.695084       -18.9142
  17   2.0000      -0.651079       -17.7168
  18   2.0000      -0.644377       -17.5344
  19   2.0000      -0.612481       -16.6665
  20   2.0000      -0.582842       -15.8599
  21   2.0000      -0.567994       -15.4559
  22   2.0000      -0.550939       -14.9918
  23   2.0000      -0.545790       -14.8517
  24   2.0000      -0.512686       -13.9509
  25   2.0000      -0.457547       -12.4505
  26   2.0000      -0.451345       -12.2817
  27   2.0000      -0.418069       -11.3762
  28   2.0000      -0.381714       -10.3870
  29   2.0000      -0.377330       -10.2677
  30   0.0000       0.128179         3.4879
  31   0.0000       0.156216         4.2509
  32   0.0000       0.163678         4.4539
  33   0.0000       0.170725         4.6457
  34   0.0000       0.176463         4.8018

MULLIKEN ATOMIC CHARGES
-----------------------
   0 C :   -0.436066
   1 C :   -0.046222
   2 C :   -0.029264
   3 O :   -0.317880
   4 C :    0.064090
   5 C :   -0.391330
   6 C :   -0.011019
   7 C :   -0.100529
   8 H :    0.132405
   9 H :    0.145444
  10 H :    0.132236
  11 H :    0.113932
  12 H :    0.095001
  13 H :    0.093640
  14 H :    0.088936
  15 H :    0.137411
  16 H :    0.139705
  17 H :    0.189510
Sum of atomic charges:    0.0000000

LOEWDIN ATOMIC CHARGES
----------------------
   0 C :   -0.298963
   1 C :   -0.242380
   2 C :   -0.251375
   3 O :    0.141669
   4 C :   -0.251536
   5 C :   -0.232836
   6 C :   -0.107582
   7 C :   -0.102237
   8 H :    0.124890
   9 H :    0.127931
  10 H :    0.125177
  11 H :    0.146038
  12 H :    0.116131
  13 H :    0.117691
  14 H :    0.139975
  15 H :    0.159566
  16 H :    0.161973
  17 H :    0.125867

  Mayer bond orders larger than 0.1
B(  0-C ,  1-C ) :   0.9133 B(  0-C ,  8-H ) :   0.9374 B(  0-C ,  9-H ) :   0.9339
B(  0-C , 10-H ) :   0.9363 B(  1-C ,  2-C ) :   0.9656 B(  1-C ,  4-C ) :   0.9193
B(  1-C , 11-H ) :   0.9287 B(  2-C ,  3-O ) :   0.9549 B(  2-C , 12-H ) :   0.9143
B(  2-C , 13-H ) :   0.9057 B(  3-O ,  4-C ) :   0.9803 B(  4-C ,  5-C ) :   0.9054
B(  4-C , 14-H ) :   0.9228 B(  5-C ,  6-C ) :   1.1540 B(  5-C ,  7-C ) :  -0.1272
B(  5-C , 15-H ) :   0.9180 B(  5-C , 16-H ) :   0.9215 B(  6-C ,  7-C ) :   2.6047
B(  7-C , 17-H ) :   0.8936

MP2 TOTAL ENERGY:     -347.135819990 Eh
FINAL SINGLE POINT ENERGY      -347.135819989742

DIPOLE MOMENT
-------------
                                X             Y             Z
Electronic contribution:      3.48993      -4.17440       4.18050
Nuclear contribution   :     -4.24373       4.63492      -4.60372
                        -----------------------------------------
Total Dipole Moment    :     -0.75380       0.46052      -0.42322
                        -----------------------------------------
Magnitude (a.u.)       :      0.97949
Magnitude (Debye)      :      2.48967

                             ****ORCA TERMINATED NORMALLY****
TOTAL RUN TIME: 0 days 0 hours 12 minutes 53 seconds 210 msec
