                         Program Version 3.0.3 - RELEASE   -
|  1> ! RI-MP2 RIJK def2-TZVP def2-TZVP/C def2-TZVP/JK TIGHTSCF
|  2> % maxcore 2000
|  3> % mp2 density relaxed end
|  4> *xyz 0 1
|  5>  C       -0.0157796806     1.4796237067     0.0069960028
|  6>  C        1.2984339602     0.7159369412    -0.0102353150
|  7>  C       -0.0034079585    -0.0121757787     0.0178907171
|  8>  C       -0.5276297533    -0.9389834652     1.1114312464
|  9>  C       -2.0060355444    -1.0096626390     0.6786159285
| 10>  O       -1.9319605968    -1.0013280616    -0.7658385048
| 11>  C       -0.5468144657    -0.9228593411    -1.0649799920
| 12>  O        0.0764346423    -2.1684201121    -0.7921870581
| 13>  C        0.1341907102    -2.2533586852     0.6505374833
| 14>  H       -0.2887502618     2.0012910052     0.9189990316
| 15>  H       -0.3244317294     1.9858318009    -0.9020663563
| 16>  H        1.8731483253     0.7088414099    -0.9308649834
| 17>  H        1.9045715860     0.7267400938     0.8902544173
| 18>  H       -0.3528470201    -0.6616699744     2.1507469749
| 19>  H       -2.5068769999    -1.9252010794     1.0141826455
| 20>  H       -2.5830073438    -0.1417984338     1.0204514783
| 21>  H       -0.4163218341    -0.6745468206    -2.1170846403
| 22>  H        1.1803806303    -2.3287138278     0.9710756556
| 23>  H       -0.4066799657    -3.1456355190     0.9866295084
| 24> *
| 25>
| 26>                          ****END OF INPUT****

CARTESIAN COORDINATES (ANGSTROEM)
---------------------------------
  C     -0.015780    1.479624    0.006996
  C      1.298434    0.715937   -0.010235
  C     -0.003408   -0.012176    0.017891
  C     -0.527630   -0.938983    1.111431
  C     -2.006036   -1.009663    0.678616
  O     -1.931961   -1.001328   -0.765839
  C     -0.546814   -0.922859   -1.064980
  O      0.076435   -2.168420   -0.792187
  C      0.134191   -2.253359    0.650537
  H     -0.288750    2.001291    0.918999
  H     -0.324432    1.985832   -0.902066
  H      1.873148    0.708841   -0.930865
  H      1.904572    0.726740    0.890254
  H     -0.352847   -0.661670    2.150747
  H     -2.506877   -1.925201    1.014183
  H     -2.583007   -0.141798    1.020451
  H     -0.416322   -0.674547   -2.117085
  H      1.180381   -2.328714    0.971076
  H     -0.406680   -3.145636    0.986630

 Total Charge           Charge          ....    0
 Multiplicity           Mult            ....    1
 Number of Electrons    NEL             ....   68
 Basis Dimension        Dim             ....  339

ORBITAL ENERGIES
----------------

  NO   OCC          E(Eh)            E(eV)
   0   2.0000     -20.553586      -559.2915
   1   2.0000     -20.553566      -559.2910
   2   2.0000     -11.329342      -308.2871
   3   2.0000     -11.279225      -306.9233
   4   2.0000     -11.279221      -306.9232
   5   2.0000     -11.245895      -306.0164
   6   2.0000     -11.242250      -305.9172
   7   2.0000     -11.235179      -305.7248
   8   2.0000     -11.234584      -305.7086
   9   2.0000      -1.423025       -38.7225
  10   2.0000      -1.332885       -36.2696
  11   2.0000      -1.158859       -31.5342
  12   2.0000      -1.058881       -28.8136
  13   2.0000      -0.955614       -26.0036
  14   2.0000      -0.906765       -24.6743
  15   2.0000      -0.834853       -22.7175
  16   2.0000      -0.777449       -21.1555
  17   2.0000      -0.775099       -21.0915
  18   2.0000      -0.716543       -19.4981
  19   2.0000      -0.676182       -18.3998
  20   2.0000      -0.670932       -18.2570
  21   2.0000      -0.644778       -17.5453
  22   2.0000      -0.595568       -16.2062
  23   2.0000      -0.577695       -15.7199
  24   2.0000      -0.571578       -15.5534
  25   2.0000      -0.548611       -14.9285
  26   2.0000      -0.526027       -14.3139
  27   2.0000      -0.521255       -14.1841
  28   2.0000      -0.499896       -13.6029
  29   2.0000      -0.485679       -13.2160
  30   2.0000      -0.438594       -11.9348
  31   2.0000      -0.427835       -11.6420
  32   2.0000      -0.414565       -11.2809
  33   2.0000      -0.405288       -11.0285
  34   0.0000       0.133767         3.6400
  35   0.0000       0.159135         4.3303
  36   0.0000       0.160530         4.3682
  37   0.0000       0.169883         4.6227
  38   0.0000       0.194352         5.2886

MULLIKEN ATOMIC CHARGES
-----------------------
   0 C :   -0.273939
   1 C :   -0.273938
   2 C :   -0.027777
   3 C :   -0.101167
   4 C :   -0.045369
   5 O :   -0.315559
   6 C :    0.208794
   7 O :   -0.315560
   8 C :   -0.045369
   9 H :    0.127600
  10 H :    0.134356
  11 H :    0.134358
  12 H :    0.127599
  13 H :    0.134589
  14 H :    0.106425
  15 H :    0.101943
  16 H :    0.114647
  17 H :    0.101943
  18 H :    0.106426
Sum of atomic charges:   -0.0000000

LOEWDIN ATOMIC CHARGES
----------------------
   0 C :   -0.193139
   1 C :   -0.193140
   2 C :   -0.224861
   3 C :   -0.210073
   4 C :   -0.248716
   5 O :    0.165279
   6 C :   -0.349216
   7 O :    0.165278
   8 C :   -0.248716
   9 H :    0.135293
  10 H :    0.137750
  11 H :    0.137749
  12 H :    0.135294
  13 H :    0.152540
  14 H :    0.124745
  15 H :    0.123783
  16 H :    0.141622
  17 H :    0.123783
  18 H :    0.124745

  Mayer bond orders larger than 0.1
B(  0-C ,  1-C ) :   0.9466 B(  0-C ,  2-C ) :   0.8540 B(  0-C ,  9-H ) :   0.9188
B(  0-C , 10-H ) :   0.9205 B(  1-C ,  2-C ) :   0.8540 B(  1-C , 11-H ) :   0.9205
B(  1-C , 12-H ) :   0.9188 B(  2-C ,  3-C ) :   0.8675 B(  2-C ,  6-C ) :   0.9691
B(  3-C ,  4-C ) :   0.9583 B(  3-C ,  8-C ) :   0.9583 B(  3-C , 13-H ) :   0.9054
B(  4-C ,  5-O ) :   0.9290 B(  4-C , 14-H ) :   0.9136 B(  4-C , 15-H ) :   0.9219
B(  5-O ,  6-C ) :   1.0066 B(  6-C ,  7-O ) :   1.0066 B(  6-C , 16-H ) :   0.9052
B(  7-O ,  8-C ) :   0.9290 B(  8-C , 17-H ) :   0.9219 B(  8-C , 18-H ) :   0.9136

MP2 TOTAL ENERGY:     -422.311334551 Eh
FINAL SINGLE POINT ENERGY      -422.311334550560

DIPOLE MOMENT
-------------
                                X             Y             Z
Electronic contribution:     -1.69974      -2.85424      -3.13623
Nuclear contribution   :      2.02333       3.39058       4.04473
                        -----------------------------------------
Total Dipole Moment    :      0.32359       0.53634       0.90850
                        -----------------------------------------
Magnitude (a.u.)       :      1.10351
Magnitude (Debye)      :      2.80491

                             ****ORCA TERMINATED NORMALLY****
TOTAL RUN TIME: 0 days 0 hours 17 minutes 55 seconds 183 msec
