                         Program Version 3.0.3 - RELEASE   -
|  1> ! RI-MP2 RIJK def2-TZVP def2-TZVP/C def2-TZVP/JK TIGHTSCF
|  2> % maxcore 2000
|  3> % mp2 density relaxed end
|  4> *xyz 0 1
|  5>  C       -0.2349526073     1.3882999901    -0.2838589976
|  6>  O        1.0571142253     0.8640807985     0.1104542655
|  7>  C       -0.0003147041    -0.0367240298    -0.0943434146
|  8>  C       -0.3563475347    -1.0393571436     1.0378955282
|  9>  C       -1.2218143937    -2.3102410522     0.6770373211
| 10>  C       -2.0964228609    -2.3988601690    -0.5869519540
| 11>  C       -1.2914054178    -1.4820505729    -1.4974754262
| 12>  C       -0.0554874361    -1.2743318819    -0.9898527237
| 13>  C        0.1873757195    -2.1903060289     0.2282046889
| 14>  H       -0.7537564758     1.9646534326     0.4808500286
| 15>  H       -0.2720200989     1.8068848146    -1.2887030931
| 16>  H       -0.1479295370    -0.8315832361     2.0840064875
| 17>  H       -1.4760001060    -2.9087875901     1.5502136624
| 18>  H       -2.2039278861    -3.4473174132    -0.8981170000
| 19>  H       -3.1087642733    -1.9914070177    -0.4777445837
| 20>  H       -1.7994103633    -0.7374661902    -2.1041994749
| 21>  H        1.0425070801    -2.8224793001     0.4227010754
| 22> *
| 23>
| 24>                          ****END OF INPUT****

CARTESIAN COORDINATES (ANGSTROEM)
---------------------------------
  C     -0.234953    1.388300   -0.283859
  O      1.057114    0.864081    0.110454
  C     -0.000315   -0.036724   -0.094343
  C     -0.356348   -1.039357    1.037896
  C     -1.221814   -2.310241    0.677037
  C     -2.096423   -2.398860   -0.586952
  C     -1.291405   -1.482051   -1.497475
  C     -0.055487   -1.274332   -0.989853
  C      0.187376   -2.190306    0.228205
  H     -0.753756    1.964653    0.480850
  H     -0.272020    1.806885   -1.288703
  H     -0.147930   -0.831583    2.084006
  H     -1.476000   -2.908788    1.550214
  H     -2.203928   -3.447317   -0.898117
  H     -3.108764   -1.991407   -0.477745
  H     -1.799410   -0.737466   -2.104199
  H      1.042507   -2.822479    0.422701

 Total Charge           Charge          ....    0
 Multiplicity           Mult            ....    1
 Number of Electrons    NEL             ....   64
 Basis Dimension        Dim             ....  327

ORBITAL ENERGIES
----------------

  NO   OCC          E(Eh)            E(eV)
   0   2.0000     -20.565811      -559.6242
   1   2.0000     -11.318858      -308.0018
   2   2.0000     -11.280637      -306.9617
   3   2.0000     -11.256327      -306.3002
   4   2.0000     -11.251110      -306.1583
   5   2.0000     -11.250384      -306.1385
   6   2.0000     -11.248216      -306.0795
   7   2.0000     -11.237564      -305.7897
   8   2.0000     -11.234622      -305.7096
   9   2.0000      -1.414000       -38.4769
  10   2.0000      -1.228505       -33.4293
  11   2.0000      -1.040306       -28.3082
  12   2.0000      -1.001631       -27.2558
  13   2.0000      -0.917766       -24.9737
  14   2.0000      -0.863433       -23.4952
  15   2.0000      -0.805698       -21.9241
  16   2.0000      -0.772934       -21.0326
  17   2.0000      -0.724210       -19.7067
  18   2.0000      -0.686756       -18.6876
  19   2.0000      -0.666652       -18.1405
  20   2.0000      -0.645779       -17.5725
  21   2.0000      -0.587874       -15.9969
  22   2.0000      -0.586168       -15.9504
  23   2.0000      -0.549002       -14.9391
  24   2.0000      -0.532615       -14.4932
  25   2.0000      -0.509228       -13.8568
  26   2.0000      -0.498613       -13.5680
  27   2.0000      -0.456375       -12.4186
  28   2.0000      -0.436574       -11.8798
  29   2.0000      -0.416535       -11.3345
  30   2.0000      -0.385593       -10.4925
  31   2.0000      -0.327339        -8.9073
  32   0.0000       0.086807         2.3621
  33   0.0000       0.142463         3.8766
  34   0.0000       0.162877         4.4321
  35   0.0000       0.166372         4.5272
  36   0.0000       0.180932         4.9234

MULLIKEN ATOMIC CHARGES
-----------------------
   0 C :   -0.088581
   1 O :   -0.318605
   2 C :    0.056317
   3 C :   -0.117076
   4 C :   -0.168905
   5 C :   -0.154060
   6 C :   -0.188591
   7 C :    0.121750
   8 C :   -0.166693
   9 H :    0.118412
  10 H :    0.120483
  11 H :    0.138126
  12 H :    0.119559
  13 H :    0.127247
  14 H :    0.120438
  15 H :    0.127054
  16 H :    0.153128
Sum of atomic charges:    0.0000000

LOEWDIN ATOMIC CHARGES
----------------------
   0 C :   -0.229687
   1 O :    0.178608
   2 C :   -0.270159
   3 C :   -0.099916
   4 C :   -0.157240
   5 C :   -0.218147
   6 C :   -0.092201
   7 C :   -0.089813
   8 C :   -0.127118
   9 H :    0.122326
  10 H :    0.123839
  11 H :    0.144996
  12 H :    0.148391
  13 H :    0.144297
  14 H :    0.142123
  15 H :    0.138830
  16 H :    0.140870

  Mayer bond orders larger than 0.1
B(  0-C ,  1-O ) :   0.8893 B(  0-C ,  2-C ) :   0.9929 B(  0-C ,  9-H ) :   0.8994
B(  0-C , 10-H ) :   0.9178 B(  1-O ,  2-C ) :   0.9098 B(  2-C ,  3-C ) :   0.8991
B(  2-C ,  7-C ) :   0.8769 B(  3-C ,  4-C ) :   0.8345 B(  3-C ,  8-C ) :   0.8664
B(  3-C , 11-H ) :   0.9070 B(  4-C ,  5-C ) :   0.9496 B(  4-C ,  8-C ) :   0.9019
B(  4-C , 12-H ) :   0.9146 B(  5-C ,  6-C ) :   0.9532 B(  5-C , 13-H ) :   0.8965
B(  5-C , 14-H ) :   0.9146 B(  6-C ,  7-C ) :   1.6061 B(  6-C , 15-H ) :   0.9299
B(  7-C ,  8-C ) :   0.8856 B(  8-C , 16-H ) :   0.9000

MP2 TOTAL ENERGY:     -383.876607398 Eh
FINAL SINGLE POINT ENERGY      -383.876607398443

DIPOLE MOMENT
-------------
                                X             Y             Z
Electronic contribution:      3.89517       1.43517      -0.60685
Nuclear contribution   :     -4.86210      -1.67567       0.82356
                        -----------------------------------------
Total Dipole Moment    :     -0.96694      -0.24050       0.21671
                        -----------------------------------------
Magnitude (a.u.)       :      1.01969
Magnitude (Debye)      :      2.59185

                             ****ORCA TERMINATED NORMALLY****
TOTAL RUN TIME: 0 days 0 hours 18 minutes 42 seconds 185 msec
