                         Program Version 3.0.3 - RELEASE   -
|  1> ! RI-MP2 RIJK def2-TZVP def2-TZVP/C def2-TZVP/JK TIGHTSCF
|  2> % maxcore 2000
|  3> % mp2 density relaxed end
|  4> *xyz 0 1
|  5>  N        0.4943308691     1.3305344706     0.4596045959
|  6>  C        0.2489029416     0.0196844879     0.1323659436
|  7>  N       -0.9755763271    -0.4017640168    -0.1154009051
|  8>  O       -0.8574822783    -1.7841854135    -0.3325282976
|  9>  C        0.4271991888    -2.1240956297    -0.2066893851
| 10>  C        1.2108258650    -1.0532952179     0.0793998099
| 11>  C        2.7068669975    -1.0402525422     0.2189684368
| 12>  C        3.2730322445    -0.2715826589     1.4152808556
| 13>  O        3.3177046662     1.1171515837     1.0764704679
| 14>  H        1.4600945142     1.6221835878     0.3985172745
| 15>  H       -0.1977687941     1.9910150177     0.1423871538
| 16>  H        0.6569431717    -3.1696206560    -0.3540417926
| 17>  H        3.0531241668    -2.0774376138     0.2831493008
| 18>  H        3.1795721863    -0.6158018777    -0.6774459801
| 19>  H        2.6552394968    -0.4414723025     2.3071304170
| 20>  H        4.2895495229    -0.6314341931     1.6290946935
| 21>  H        3.5033157079     1.6182620444     1.8765450712
| 22> *
| 23>
| 24>                          ****END OF INPUT****

CARTESIAN COORDINATES (ANGSTROEM)
---------------------------------
  N      0.494331    1.330534    0.459605
  C      0.248903    0.019684    0.132366
  N     -0.975576   -0.401764   -0.115401
  O     -0.857482   -1.784185   -0.332528
  C      0.427199   -2.124096   -0.206689
  C      1.210826   -1.053295    0.079400
  C      2.706867   -1.040253    0.218968
  C      3.273032   -0.271583    1.415281
  O      3.317705    1.117152    1.076470
  H      1.460095    1.622184    0.398517
  H     -0.197769    1.991015    0.142387
  H      0.656943   -3.169621   -0.354042
  H      3.053124   -2.077438    0.283149
  H      3.179572   -0.615802   -0.677446
  H      2.655239   -0.441472    2.307130
  H      4.289550   -0.631434    1.629095
  H      3.503316    1.618262    1.876545

 Total Charge           Charge          ....    0
 Multiplicity           Mult            ....    1
 Number of Electrons    NEL             ....   68
 Basis Dimension        Dim             ....  327

ORBITAL ENERGIES
----------------

  NO   OCC          E(Eh)            E(eV)
   0   2.0000     -20.620464      -561.1114
   1   2.0000     -20.579337      -559.9922
   2   2.0000     -15.582098      -424.0104
   3   2.0000     -15.561733      -423.4563
   4   2.0000     -11.305193      -307.6299
   5   2.0000     -11.302533      -307.5576
   6   2.0000     -11.296112      -307.3828
   7   2.0000     -11.249782      -306.1221
   8   2.0000     -11.235005      -305.7200
   9   2.0000      -1.469195       -39.9788
  10   2.0000      -1.382421       -37.6176
  11   2.0000      -1.236606       -33.6498
  12   2.0000      -1.101607       -29.9763
  13   2.0000      -1.093961       -29.7682
  14   2.0000      -1.007288       -27.4097
  15   2.0000      -0.870078       -23.6760
  16   2.0000      -0.815266       -22.1845
  17   2.0000      -0.783726       -21.3263
  18   2.0000      -0.728010       -19.8101
  19   2.0000      -0.709119       -19.2961
  20   2.0000      -0.681701       -18.5500
  21   2.0000      -0.662142       -18.0178
  22   2.0000      -0.644986       -17.5510
  23   2.0000      -0.607132       -16.5209
  24   2.0000      -0.593852       -16.1595
  25   2.0000      -0.570216       -15.5164
  26   2.0000      -0.550485       -14.9795
  27   2.0000      -0.537290       -14.6204
  28   2.0000      -0.513794       -13.9810
  29   2.0000      -0.501562       -13.6482
  30   2.0000      -0.469442       -12.7742
  31   2.0000      -0.453017       -12.3272
  32   2.0000      -0.352374        -9.5886
  33   2.0000      -0.344710        -9.3800
  34   0.0000       0.120655         3.2832
  35   0.0000       0.137527         3.7423
  36   0.0000       0.147915         4.0250
  37   0.0000       0.163035         4.4364
  38   0.0000       0.175463         4.7746

MULLIKEN ATOMIC CHARGES
-----------------------
   0 N :   -0.520721
   1 C :    0.175844
   2 N :   -0.162797
   3 O :   -0.118569
   4 C :   -0.021345
   5 C :   -0.105813
   6 C :   -0.193066
   7 C :   -0.047598
   8 O :   -0.508438
   9 H :    0.274086
  10 H :    0.250897
  11 H :    0.148216
  12 H :    0.130358
  13 H :    0.135136
  14 H :    0.125397
  15 H :    0.110549
  16 H :    0.327864
Sum of atomic charges:   -0.0000000

LOEWDIN ATOMIC CHARGES
----------------------
   0 N :   -0.056453
   1 C :   -0.369149
   2 N :    0.014857
   3 O :    0.263300
   4 C :   -0.257456
   5 C :   -0.183254
   6 C :   -0.230777
   7 C :   -0.330826
   8 O :   -0.055228
   9 H :    0.167120
  10 H :    0.171272
  11 H :    0.137367
  12 H :    0.154179
  13 H :    0.154689
  14 H :    0.124282
  15 H :    0.119888
  16 H :    0.176187

  Mayer bond orders larger than 0.1
B(  0-N ,  1-C ) :   1.1042 B(  0-N ,  9-H ) :   0.8406 B(  0-N , 10-H ) :   0.8712
B(  1-C ,  2-N ) :   1.6075 B(  1-C ,  5-C ) :   1.1617 B(  2-N ,  3-O ) :   0.8503
B(  2-N ,  4-C ) :   0.1018 B(  3-O ,  4-C ) :   1.1390 B(  4-C ,  5-C ) :   1.5370
B(  4-C , 11-H ) :   0.9240 B(  5-C ,  6-C ) :   0.9102 B(  6-C ,  7-C ) :   0.9063
B(  6-C , 12-H ) :   0.9297 B(  6-C , 13-H ) :   0.9164 B(  7-C ,  8-O ) :   0.9321
B(  7-C , 14-H ) :   0.9326 B(  7-C , 15-H ) :   0.9257 B(  8-O , 16-H ) :   0.8414

MP2 TOTAL ENERGY:     -454.398696760 Eh
FINAL SINGLE POINT ENERGY      -454.398696759684

DIPOLE MOMENT
-------------
                                X             Y             Z
Electronic contribution:     -7.20219      -1.39747      -2.22630
Nuclear contribution   :      8.89391       1.52141       2.79444
                        -----------------------------------------
Total Dipole Moment    :      1.69172       0.12394       0.56814
                        -----------------------------------------
Magnitude (a.u.)       :      1.78887
Magnitude (Debye)      :      4.54694

                             ****ORCA TERMINATED NORMALLY****
TOTAL RUN TIME: 0 days 0 hours 17 minutes 53 seconds 934 msec
