                         Program Version 3.0.3 - RELEASE   -
|  1> ! RI-MP2 RIJK def2-TZVP def2-TZVP/C def2-TZVP/JK TIGHTSCF
|  2> % maxcore 2000
|  3> % mp2 density relaxed end
|  4> *xyz 0 1
|  5>  C       -0.0389925650     1.4837278747     0.0288244212
|  6>  C       -0.0145586071    -0.0262808106     0.0004274844
|  7>  C       -1.3424219138    -0.7491713035    -0.1912626938
|  8>  O       -1.1894218847    -2.0585870166     0.3467875249
|  9>  C       -0.1864959000    -2.0250356750     1.3600577069
| 10>  C        0.7379425956    -0.8751561840     1.0062020995
| 11>  C        1.2361151324    -0.7665212130    -0.4240165263
| 12>  C        1.2979509397    -1.9256364904    -1.3976897887
| 13>  O        2.5177494305    -2.6516653984    -1.2699364185
| 14>  H        0.9431371302     1.8888223010     0.2894606476
| 15>  H       -0.3157833723     1.8971934280    -0.9481709701
| 16>  H       -0.7628420716     1.8560991929     0.7632308684
| 17>  H       -2.1335645109    -0.1937954138     0.3397084584
| 18>  H       -1.6523689154    -0.8614669292    -1.2362946942
| 19>  H       -0.6301932938    -1.8555102315     2.3545357189
| 20>  H        0.2891470246    -3.0131905061     1.3708435504
| 21>  H        1.3159002052    -0.4214417076     1.8041903541
| 22>  H        2.1031407265    -0.1161264775    -0.5242620062
| 23>  H        0.4271860762    -2.5819321862    -1.2888372148
| 24>  H        1.2997817412    -1.5429179192    -2.4243295099
| 25>  H        2.5479732325    -3.0029219538    -0.3743252621
| 26> *
| 27>
| 28>                          ****END OF INPUT****

CARTESIAN COORDINATES (ANGSTROEM)
---------------------------------
  C     -0.038993    1.483728    0.028824
  C     -0.014559   -0.026281    0.000427
  C     -1.342422   -0.749171   -0.191263
  O     -1.189422   -2.058587    0.346788
  C     -0.186496   -2.025036    1.360058
  C      0.737943   -0.875156    1.006202
  C      1.236115   -0.766521   -0.424017
  C      1.297951   -1.925636   -1.397690
  O      2.517749   -2.651665   -1.269936
  H      0.943137    1.888822    0.289461
  H     -0.315783    1.897193   -0.948171
  H     -0.762842    1.856099    0.763231
  H     -2.133565   -0.193795    0.339708
  H     -1.652369   -0.861467   -1.236295
  H     -0.630193   -1.855510    2.354536
  H      0.289147   -3.013191    1.370844
  H      1.315900   -0.421442    1.804190
  H      2.103141   -0.116126   -0.524262
  H      0.427186   -2.581932   -1.288837
  H      1.299782   -1.542918   -2.424330
  H      2.547973   -3.002922   -0.374325

 Total Charge           Charge          ....    0
 Multiplicity           Mult            ....    1
 Number of Electrons    NEL             ....   70
 Basis Dimension        Dim             ....  351

ORBITAL ENERGIES
----------------

  NO   OCC          E(Eh)            E(eV)
   0   2.0000     -20.556406      -559.3682
   1   2.0000     -20.549085      -559.1690
   2   2.0000     -11.282310      -307.0073
   3   2.0000     -11.279410      -306.9284
   4   2.0000     -11.269449      -306.6573
   5   2.0000     -11.245926      -306.0172
   6   2.0000     -11.236571      -305.7626
   7   2.0000     -11.234380      -305.7030
   8   2.0000     -11.228705      -305.5486
   9   2.0000      -1.382918       -37.6311
  10   2.0000      -1.351772       -36.7836
  11   2.0000      -1.162829       -31.6422
  12   2.0000      -1.014280       -27.6000
  13   2.0000      -0.970842       -26.4180
  14   2.0000      -0.934019       -25.4160
  15   2.0000      -0.875903       -23.8345
  16   2.0000      -0.771542       -20.9947
  17   2.0000      -0.757331       -20.6080
  18   2.0000      -0.706745       -19.2315
  19   2.0000      -0.670059       -18.2332
  20   2.0000      -0.653977       -17.7956
  21   2.0000      -0.626487       -17.0476
  22   2.0000      -0.615373       -16.7452
  23   2.0000      -0.588505       -16.0140
  24   2.0000      -0.574477       -15.6323
  25   2.0000      -0.571518       -15.5518
  26   2.0000      -0.555366       -15.1123
  27   2.0000      -0.548927       -14.9371
  28   2.0000      -0.508339       -13.8326
  29   2.0000      -0.504367       -13.7245
  30   2.0000      -0.476949       -12.9784
  31   2.0000      -0.458186       -12.4679
  32   2.0000      -0.423413       -11.5216
  33   2.0000      -0.403646       -10.9838
  34   2.0000      -0.388787       -10.5794
  35   0.0000       0.126605         3.4451
  36   0.0000       0.142084         3.8663
  37   0.0000       0.166361         4.5269
  38   0.0000       0.175066         4.7638
  39   0.0000       0.180519         4.9122

MULLIKEN ATOMIC CHARGES
-----------------------
   0 C :   -0.410580
   1 C :    0.071311
   2 C :   -0.041405
   3 O :   -0.335429
   4 C :   -0.032174
   5 C :   -0.172664
   6 C :   -0.205793
   7 C :   -0.052350
   8 O :   -0.469689
   9 H :    0.133982
  10 H :    0.138559
  11 H :    0.132038
  12 H :    0.095664
  13 H :    0.119258
  14 H :    0.105241
  15 H :    0.103653
  16 H :    0.134712
  17 H :    0.117745
  18 H :    0.144263
  19 H :    0.111813
  20 H :    0.311844
Sum of atomic charges:    0.0000000

LOEWDIN ATOMIC CHARGES
----------------------
   0 C :   -0.266074
   1 C :   -0.234519
   2 C :   -0.261418
   3 O :    0.146603
   4 C :   -0.286761
   5 C :   -0.178036
   6 C :   -0.180571
   7 C :   -0.320790
   8 O :   -0.052693
   9 H :    0.130535
  10 H :    0.129662
  11 H :    0.127571
  12 H :    0.127247
  13 H :    0.131073
  14 H :    0.125555
  15 H :    0.125620
  16 H :    0.147431
  17 H :    0.158069
  18 H :    0.128726
  19 H :    0.131604
  20 H :    0.171168

  Mayer bond orders larger than 0.1
B(  0-C ,  1-C ) :   0.8851 B(  0-C ,  9-H ) :   0.9356 B(  0-C , 10-H ) :   0.9396
B(  0-C , 11-H ) :   0.9355 B(  1-C ,  2-C ) :   0.9571 B(  1-C ,  5-C ) :   0.8218
B(  1-C ,  6-C ) :   0.8261 B(  2-C ,  3-O ) :   0.9135 B(  2-C , 12-H ) :   0.9157
B(  2-C , 13-H ) :   0.9273 B(  3-O ,  4-C ) :   0.9194 B(  4-C ,  5-C ) :   0.9675
B(  4-C , 14-H ) :   0.9275 B(  4-C , 15-H ) :   0.9221 B(  5-C ,  6-C ) :   0.8830
B(  5-C , 16-H ) :   0.9148 B(  6-C ,  7-C ) :   0.9142 B(  6-C , 17-H ) :   0.9366
B(  7-C ,  8-O ) :   0.8906 B(  7-C , 18-H ) :   0.9277 B(  7-C , 19-H ) :   0.9256
B(  8-O , 20-H ) :   0.8493

MP2 TOTAL ENERGY:     -423.513060281 Eh
FINAL SINGLE POINT ENERGY      -423.513060281169

DIPOLE MOMENT
-------------
                                X             Y             Z
Electronic contribution:      0.54879      -4.26121      -0.32938
Nuclear contribution   :     -0.72437       4.98293       0.98922
                        -----------------------------------------
Total Dipole Moment    :     -0.17558       0.72173       0.65985
                        -----------------------------------------
Magnitude (a.u.)       :      0.99354
Magnitude (Debye)      :      2.52537

                             ****ORCA TERMINATED NORMALLY****
TOTAL RUN TIME: 0 days 0 hours 30 minutes 20 seconds 159 msec
