                         Program Version 3.0.3 - RELEASE   -
|  1> ! RI-MP2 RIJK def2-TZVP def2-TZVP/C def2-TZVP/JK TIGHTSCF
|  2> % maxcore 2000
|  3> % mp2 density relaxed end
|  4> *xyz 0 1
|  5>  O       -0.6317375892     0.8846250761    -0.6193152295
|  6>  C       -0.0438602681    -0.3519323390    -0.2255499908
|  7>  C        0.8979822762    -0.9151472767    -1.3059274797
|  8>  O        0.1358693272    -1.2613813913    -2.4448758288
|  9>  C        0.5811544085    -0.7220304450    -3.6526625859
| 10>  C       -0.4805591030    -0.4025019283    -4.6535949531
| 11>  C        0.2704303515     0.7196149389    -3.9638852280
| 12>  C        0.6542339845    -0.2381193165     1.0565771699
| 13>  C        1.2679919020    -0.1078459779     2.0821174769
| 14>  H        0.0248131271     1.5753364181    -0.4748108263
| 15>  H       -0.8839121712    -1.0499513815    -0.1320530389
| 16>  H        1.6595061317    -0.1617154560    -1.5450398813
| 17>  H        1.4079188386    -1.8053947777    -0.9127781127
| 18>  H        1.5228664612    -1.1372143946    -4.0125629174
| 19>  H       -0.2826203962    -0.6036095249    -5.7002749357
| 20>  H       -1.5024112937    -0.5772668909    -4.3378954034
| 21>  H       -0.2646352826     1.2619139319    -3.1932593130
| 22>  H        0.9882454009     1.2977212881    -4.5357740651
| 23>  H        1.7901621646    -0.0026903827     3.0011942429
| 24> *
| 25>
| 26>                          ****END OF INPUT****

CARTESIAN COORDINATES (ANGSTROEM)
---------------------------------
  O     -0.631738    0.884625   -0.619315
  C     -0.043860   -0.351932   -0.225550
  C      0.897982   -0.915147   -1.305927
  O      0.135869   -1.261381   -2.444876
  C      0.581154   -0.722030   -3.652663
  C     -0.480559   -0.402502   -4.653595
  C      0.270430    0.719615   -3.963885
  C      0.654234   -0.238119    1.056577
  C      1.267992   -0.107846    2.082117
  H      0.024813    1.575336   -0.474811
  H     -0.883912   -1.049951   -0.132053
  H      1.659506   -0.161715   -1.545040
  H      1.407919   -1.805395   -0.912778
  H      1.522866   -1.137214   -4.012563
  H     -0.282620   -0.603610   -5.700275
  H     -1.502411   -0.577267   -4.337895
  H     -0.264635    1.261914   -3.193259
  H      0.988245    1.297721   -4.535774
  H      1.790162   -0.002690    3.001194

 Total Charge           Charge          ....    0
 Multiplicity           Mult            ....    1
 Number of Electrons    NEL             ....   68
 Basis Dimension        Dim             ....  339

ORBITAL ENERGIES
----------------

  NO   OCC          E(Eh)            E(eV)
   0   2.0000     -20.569103      -559.7137
   1   2.0000     -20.561373      -559.5034
   2   2.0000     -11.313125      -307.8458
   3   2.0000     -11.286528      -307.1221
   4   2.0000     -11.281100      -306.9743
   5   2.0000     -11.244254      -305.9717
   6   2.0000     -11.238822      -305.8239
   7   2.0000     -11.222528      -305.3805
   8   2.0000     -11.221364      -305.3488
   9   2.0000      -1.391917       -37.8760
  10   2.0000      -1.370174       -37.2843
  11   2.0000      -1.129251       -30.7285
  12   2.0000      -1.067764       -29.0553
  13   2.0000      -0.994054       -27.0496
  14   2.0000      -0.879266       -23.9260
  15   2.0000      -0.824176       -22.4270
  16   2.0000      -0.806019       -21.9329
  17   2.0000      -0.754321       -20.5261
  18   2.0000      -0.707212       -19.2442
  19   2.0000      -0.696192       -18.9443
  20   2.0000      -0.667009       -18.1502
  21   2.0000      -0.651141       -17.7184
  22   2.0000      -0.627548       -17.0764
  23   2.0000      -0.607855       -16.5406
  24   2.0000      -0.576053       -15.6752
  25   2.0000      -0.541378       -14.7316
  26   2.0000      -0.518499       -14.1091
  27   2.0000      -0.504317       -13.7232
  28   2.0000      -0.495770       -13.4906
  29   2.0000      -0.460599       -12.5335
  30   2.0000      -0.416387       -11.3305
  31   2.0000      -0.407942       -11.1007
  32   2.0000      -0.405298       -11.0287
  33   2.0000      -0.387913       -10.5557
  34   0.0000       0.132574         3.6075
  35   0.0000       0.156889         4.2692
  36   0.0000       0.160668         4.3720
  37   0.0000       0.165587         4.5059
  38   0.0000       0.170037         4.6269

MULLIKEN ATOMIC CHARGES
-----------------------
   0 O :   -0.458693
   1 C :    0.028006
   2 C :   -0.024734
   3 O :   -0.297959
   4 C :    0.039848
   5 C :   -0.271126
   6 C :   -0.258746
   7 C :   -0.110120
   8 C :   -0.146209
   9 H :    0.320681
  10 H :    0.121305
  11 H :    0.101839
  12 H :    0.122606
  13 H :    0.103991
  14 H :    0.129190
  15 H :    0.141031
  16 H :    0.137542
  17 H :    0.125442
  18 H :    0.196106
Sum of atomic charges:   -0.0000000

LOEWDIN ATOMIC CHARGES
----------------------
   0 O :   -0.001898
   1 C :   -0.338765
   2 C :   -0.287694
   3 O :    0.198071
   4 C :   -0.325810
   5 C :   -0.225155
   6 C :   -0.240219
   7 C :   -0.096946
   8 C :   -0.084470
   9 H :    0.178633
  10 H :    0.165192
  11 H :    0.131164
  12 H :    0.132802
  13 H :    0.130457
  14 H :    0.130995
  15 H :    0.140009
  16 H :    0.136825
  17 H :    0.127699
  18 H :    0.129109

  Mayer bond orders larger than 0.1
B(  0-O ,  1-C ) :   0.9173 B(  0-O ,  9-H ) :   0.8377 B(  1-C ,  2-C ) :   0.9564
B(  1-C ,  7-C ) :   1.0929 B(  1-C , 10-H ) :   0.9060 B(  2-C ,  3-O ) :   0.8844
B(  2-C , 11-H ) :   0.9184 B(  2-C , 12-H ) :   0.9105 B(  3-O ,  4-C ) :   0.9825
B(  4-C ,  5-C ) :   0.8976 B(  4-C ,  6-C ) :   0.8601 B(  4-C , 13-H ) :   0.9393
B(  5-C ,  6-C ) :   0.9243 B(  5-C , 14-H ) :   0.9264 B(  5-C , 15-H ) :   0.9240
B(  6-C , 16-H ) :   0.9180 B(  6-C , 17-H ) :   0.9181 B(  7-C ,  8-C ) :   2.5848
B(  8-C , 18-H ) :   0.9011

MP2 TOTAL ENERGY:     -422.238341044 Eh
FINAL SINGLE POINT ENERGY      -422.238341043735

DIPOLE MOMENT
-------------
                                X             Y             Z
Electronic contribution:     -0.72635      -0.97160       5.80905
Nuclear contribution   :      1.61317       1.21422      -5.68393
                        -----------------------------------------
Total Dipole Moment    :      0.88682       0.24263       0.12512
                        -----------------------------------------
Magnitude (a.u.)       :      0.92788
Magnitude (Debye)      :      2.35849

                             ****ORCA TERMINATED NORMALLY****
TOTAL RUN TIME: 0 days 0 hours 18 minutes 43 seconds 921 msec
