                         Program Version 3.0.3 - RELEASE   -
|  1> ! RI-MP2 RIJK def2-TZVP def2-TZVP/C def2-TZVP/JK TIGHTSCF
|  2> % maxcore 2000
|  3> % mp2 density relaxed end
|  4> *xyz 0 1
|  5>  C       -0.2821367606     1.4816054251    -0.1398467315
|  6>  C        0.0287900392    -0.0184518728    -0.0127129077
|  7>  C        0.8186751417    -0.3103559822     1.2719673430
|  8>  O       -1.2093757584    -0.7446691462     0.0220093478
|  9>  C        0.7775146424    -0.5370889840    -1.2552688334
| 10>  C        2.0873510856     0.1487321464    -1.5929449708
| 11>  C        0.6101702377    -1.9647615272    -1.6288992210
| 12>  N       -0.0231078847    -0.8996957787    -2.4377811936
| 13>  H        0.6251988117     2.0908007955    -0.1235256266
| 14>  H       -0.8210404145     1.6844288249    -1.0695098134
| 15>  H       -0.9080949525     1.8076829433     0.6994343151
| 16>  H        0.2513835943     0.0209370055     2.1499914532
| 17>  H        1.0037695424    -1.3833682538     1.3675538385
| 18>  H        1.7789399684     0.2126661267     1.2876456230
| 19>  H       -1.7335812577    -0.3957530920     0.7491200105
| 20>  H        2.8223667797     0.0458240782    -0.7880351479
| 21>  H        2.5067197409    -0.3000944543    -2.4961645514
| 22>  H        1.9468599498     1.2153545423    -1.7938015036
| 23>  H        1.4284920206    -2.4871190982    -2.1180499826
| 24>  H       -0.0353446362    -2.5842423063    -1.0161160417
| 25>  H       -1.0061669497    -0.8651195722    -2.1753975559
| 26> *
| 27>
| 28>                          ****END OF INPUT****

CARTESIAN COORDINATES (ANGSTROEM)
---------------------------------
  C     -0.282137    1.481605   -0.139847
  C      0.028790   -0.018452   -0.012713
  C      0.818675   -0.310356    1.271967
  O     -1.209376   -0.744669    0.022009
  C      0.777515   -0.537089   -1.255269
  C      2.087351    0.148732   -1.592945
  C      0.610170   -1.964762   -1.628899
  N     -0.023108   -0.899696   -2.437781
  H      0.625199    2.090801   -0.123526
  H     -0.821040    1.684429   -1.069510
  H     -0.908095    1.807683    0.699434
  H      0.251384    0.020937    2.149991
  H      1.003770   -1.383368    1.367554
  H      1.778940    0.212666    1.287646
  H     -1.733581   -0.395753    0.749120
  H      2.822367    0.045824   -0.788035
  H      2.506720   -0.300094   -2.496165
  H      1.946860    1.215355   -1.793802
  H      1.428492   -2.487119   -2.118050
  H     -0.035345   -2.584242   -1.016116
  H     -1.006167   -0.865120   -2.175398

 Total Charge           Charge          ....    0
 Multiplicity           Mult            ....    1
 Number of Electrons    NEL             ....   64
 Basis Dimension        Dim             ....  326

ORBITAL ENERGIES
----------------

  NO   OCC          E(Eh)            E(eV)
   0   2.0000     -20.561159      -559.4976
   1   2.0000     -15.539173      -422.8424
   2   2.0000     -11.296937      -307.4053
   3   2.0000     -11.257163      -306.3230
   4   2.0000     -11.237668      -305.7925
   5   2.0000     -11.222117      -305.3693
   6   2.0000     -11.222099      -305.3688
   7   2.0000     -11.213574      -305.1369
   8   2.0000      -1.372907       -37.3587
   9   2.0000      -1.246784       -33.9267
  10   2.0000      -1.059845       -28.8398
  11   2.0000      -0.973823       -26.4991
  12   2.0000      -0.947536       -25.7838
  13   2.0000      -0.868367       -23.6295
  14   2.0000      -0.849857       -23.1258
  15   2.0000      -0.741769       -20.1846
  16   2.0000      -0.691140       -18.8069
  17   2.0000      -0.668492       -18.1906
  18   2.0000      -0.618177       -16.8214
  19   2.0000      -0.598248       -16.2792
  20   2.0000      -0.591245       -16.0886
  21   2.0000      -0.582744       -15.8573
  22   2.0000      -0.567482       -15.4420
  23   2.0000      -0.541249       -14.7281
  24   2.0000      -0.537327       -14.6214
  25   2.0000      -0.517272       -14.0757
  26   2.0000      -0.509168       -13.8552
  27   2.0000      -0.488651       -13.2969
  28   2.0000      -0.463763       -12.6196
  29   2.0000      -0.442013       -12.0278
  30   2.0000      -0.431786       -11.7495
  31   2.0000      -0.372857       -10.1459
  32   0.0000       0.122319         3.3285
  33   0.0000       0.156930         4.2703
  34   0.0000       0.172883         4.7044
  35   0.0000       0.182909         4.9772
  36   0.0000       0.190487         5.1834

MULLIKEN ATOMIC CHARGES
-----------------------
   0 C :   -0.446836
   1 C :    0.211997
   2 C :   -0.437960
   3 O :   -0.486761
   4 C :    0.202371
   5 C :   -0.461708
   6 C :   -0.211432
   7 N :   -0.397284
   8 H :    0.136089
   9 H :    0.154110
  10 H :    0.123058
  11 H :    0.121201
  12 H :    0.147285
  13 H :    0.131540
  14 H :    0.315723
  15 H :    0.128942
  16 H :    0.148096
  17 H :    0.135394
  18 H :    0.113584
  19 H :    0.139987
  20 H :    0.232606
Sum of atomic charges:   -0.0000000

LOEWDIN ATOMIC CHARGES
----------------------
   0 C :   -0.274532
   1 C :   -0.387153
   2 C :   -0.271945
   3 O :    0.003041
   4 C :   -0.304796
   5 C :   -0.263767
   6 C :   -0.246428
   7 N :    0.003756
   8 H :    0.128151
   9 H :    0.131905
  10 H :    0.122067
  11 H :    0.122418
  12 H :    0.130421
  13 H :    0.127290
  14 H :    0.175293
  15 H :    0.124567
  16 H :    0.135258
  17 H :    0.126693
  18 H :    0.122593
  19 H :    0.126355
  20 H :    0.168813

  Mayer bond orders larger than 0.1
B(  0-C ,  1-C ) :   0.9287 B(  0-C ,  8-H ) :   0.9313 B(  0-C ,  9-H ) :   0.9357
B(  0-C , 10-H ) :   0.9278 B(  1-C ,  2-C ) :   0.9224 B(  1-C ,  3-O ) :   0.8796
B(  1-C ,  4-C ) :   0.8993 B(  2-C , 11-H ) :   0.9246 B(  2-C , 12-H ) :   0.9410
B(  2-C , 13-H ) :   0.9314 B(  3-O , 14-H ) :   0.8420 B(  4-C ,  5-C ) :   0.8711
B(  4-C ,  6-C ) :   0.9492 B(  4-C ,  7-N ) :   0.8960 B(  5-C , 15-H ) :   0.9398
B(  5-C , 16-H ) :   0.9358 B(  5-C , 17-H ) :   0.9428 B(  6-C ,  7-N ) :   0.9254
B(  6-C , 18-H ) :   0.9167 B(  6-C , 19-H ) :   0.9046 B(  7-N , 20-H ) :   0.8680

MP2 TOTAL ENERGY:     -365.636055598 Eh
FINAL SINGLE POINT ENERGY      -365.636055598459

DIPOLE MOMENT
-------------
                                X             Y             Z
Electronic contribution:     -3.47211      -2.96820      -2.34010
Nuclear contribution   :      3.45451       3.33389       3.42108
                        -----------------------------------------
Total Dipole Moment    :     -0.01760       0.36569       1.08098
                        -----------------------------------------
Magnitude (a.u.)       :      1.14130
Magnitude (Debye)      :      2.90095

                             ****ORCA TERMINATED NORMALLY****
TOTAL RUN TIME: 0 days 0 hours 14 minutes 38 seconds 840 msec
