                         Program Version 3.0.3 - RELEASE   -
|  1> ! RI-MP2 RIJK def2-TZVP def2-TZVP/C def2-TZVP/JK TIGHTSCF
|  2> % maxcore 2000
|  3> % mp2 density relaxed end
|  4> *xyz 0 1
|  5>  C       -0.1273336164     1.5013774874     0.0131452901
|  6>  C        0.0825342074     0.0161610376     0.0360464398
|  7>  C        1.0230919800    -0.7783351122    -0.9030964674
|  8>  C        0.6952795194    -1.9264896196     0.1200398140
|  9>  C        1.4477643890    -3.2259453879     0.2309654757
| 10>  C        0.6854620142    -0.7934590870     1.2102938696
| 11>  C       -0.8115312336    -2.0007736879    -0.1212277488
| 12>  O       -1.5488779403    -2.9324638161    -0.2457285130
| 13>  O       -1.1959026191    -0.6861358846    -0.1732222741
| 14>  H        0.8240789797     2.0179755842     0.1689082101
| 15>  H       -0.5415844112     1.8177774718    -0.9486475363
| 16>  H       -0.8214222367     1.8052285546     0.8022419227
| 17>  H        0.7081105446    -0.9017219951    -1.9422390749
| 18>  H        2.0652385060    -0.4555401534    -0.8440456983
| 19>  H        2.5143866793    -3.0528979299     0.4021004806
| 20>  H        1.0591852645    -3.8283210391     1.0579229494
| 21>  H        1.3366693512    -3.8163062388    -0.6838228501
| 22>  H        1.6934126036    -0.4721862493     1.4833732115
| 23>  H        0.0626908984    -0.9306409746     2.0977581693
| 24> *
| 25>
| 26>                          ****END OF INPUT****

CARTESIAN COORDINATES (ANGSTROEM)
---------------------------------
  C     -0.127334    1.501377    0.013145
  C      0.082534    0.016161    0.036046
  C      1.023092   -0.778335   -0.903096
  C      0.695280   -1.926490    0.120040
  C      1.447764   -3.225945    0.230965
  C      0.685462   -0.793459    1.210294
  C     -0.811531   -2.000774   -0.121228
  O     -1.548878   -2.932464   -0.245729
  O     -1.195903   -0.686136   -0.173222
  H      0.824079    2.017976    0.168908
  H     -0.541584    1.817777   -0.948648
  H     -0.821422    1.805229    0.802242
  H      0.708111   -0.901722   -1.942239
  H      2.065239   -0.455540   -0.844046
  H      2.514387   -3.052898    0.402100
  H      1.059185   -3.828321    1.057923
  H      1.336669   -3.816306   -0.683823
  H      1.693413   -0.472186    1.483373
  H      0.062691   -0.930641    2.097758

 Total Charge           Charge          ....    0
 Multiplicity           Mult            ....    1
 Number of Electrons    NEL             ....   68
 Basis Dimension        Dim             ....  339

ORBITAL ENERGIES
----------------

  NO   OCC          E(Eh)            E(eV)
   0   2.0000     -20.590793      -560.3040
   1   2.0000     -20.540815      -558.9440
   2   2.0000     -11.370483      -309.4066
   3   2.0000     -11.316965      -307.9503
   4   2.0000     -11.271034      -306.7004
   5   2.0000     -11.251923      -306.1804
   6   2.0000     -11.251910      -306.1800
   7   2.0000     -11.235260      -305.7270
   8   2.0000     -11.229705      -305.5758
   9   2.0000      -1.455042       -39.5937
  10   2.0000      -1.367230       -37.2042
  11   2.0000      -1.162021       -31.6202
  12   2.0000      -1.041839       -28.3499
  13   2.0000      -0.977046       -26.5868
  14   2.0000      -0.934825       -25.4379
  15   2.0000      -0.872437       -23.7402
  16   2.0000      -0.799481       -21.7550
  17   2.0000      -0.728286       -19.8177
  18   2.0000      -0.693129       -18.8610
  19   2.0000      -0.666227       -18.1290
  20   2.0000      -0.653281       -17.7767
  21   2.0000      -0.609632       -16.5889
  22   2.0000      -0.607680       -16.5358
  23   2.0000      -0.589046       -16.0288
  24   2.0000      -0.571302       -15.5459
  25   2.0000      -0.563251       -15.3268
  26   2.0000      -0.556759       -15.1502
  27   2.0000      -0.544109       -14.8059
  28   2.0000      -0.526034       -14.3141
  29   2.0000      -0.503300       -13.6955
  30   2.0000      -0.471184       -12.8216
  31   2.0000      -0.463535       -12.6134
  32   2.0000      -0.433505       -11.7963
  33   2.0000      -0.417654       -11.3649
  34   0.0000       0.123859         3.3704
  35   0.0000       0.141384         3.8473
  36   0.0000       0.164069         4.4645
  37   0.0000       0.166559         4.5323
  38   0.0000       0.186320         5.0700

MULLIKEN ATOMIC CHARGES
-----------------------
   0 C :   -0.426507
   1 C :    0.168359
   2 C :   -0.237754
   3 C :    0.020374
   4 C :   -0.394554
   5 C :   -0.237760
   6 C :    0.232384
   7 O :   -0.274009
   8 O :   -0.238085
   9 H :    0.134375
  10 H :    0.148299
  11 H :    0.148301
  12 H :    0.136376
  13 H :    0.128755
  14 H :    0.133125
  15 H :    0.146584
  16 H :    0.146606
  17 H :    0.128757
  18 H :    0.136375
Sum of atomic charges:   -0.0000000

LOEWDIN ATOMIC CHARGES
----------------------
   0 C :   -0.267410
   1 C :   -0.298446
   2 C :   -0.145838
   3 C :   -0.235256
   4 C :   -0.265594
   5 C :   -0.145840
   6 C :   -0.424618
   7 O :    0.148699
   8 O :    0.268002
   9 H :    0.133557
  10 H :    0.135794
  11 H :    0.135795
  12 H :    0.137044
  13 H :    0.142746
  14 H :    0.128076
  15 H :    0.136748
  16 H :    0.136753
  17 H :    0.142747
  18 H :    0.137044

  Mayer bond orders larger than 0.1
B(  0-C ,  1-C ) :   0.8612 B(  0-C ,  9-H ) :   0.9435 B(  0-C , 10-H ) :   0.9401
B(  0-C , 11-H ) :   0.9401 B(  1-C ,  2-C ) :   0.9168 B(  1-C ,  5-C ) :   0.9168
B(  1-C ,  8-O ) :   0.8305 B(  2-C ,  3-C ) :   0.8882 B(  2-C , 12-H ) :   0.9099
B(  2-C , 13-H ) :   0.9221 B(  3-C ,  4-C ) :   0.8694 B(  3-C ,  5-C ) :   0.8882
B(  3-C ,  6-C ) :   0.9028 B(  4-C , 14-H ) :   0.9437 B(  4-C , 15-H ) :   0.9365
B(  4-C , 16-H ) :   0.9365 B(  5-C , 17-H ) :   0.9221 B(  5-C , 18-H ) :   0.9099
B(  6-C ,  7-O ) :   2.0593 B(  6-C ,  8-O ) :   1.1128

MP2 TOTAL ENERGY:     -422.359323196 Eh
FINAL SINGLE POINT ENERGY      -422.359323196456

DIPOLE MOMENT
-------------
                                X             Y             Z
Electronic contribution:     -6.72710      -3.06759      -1.09674
Nuclear contribution   :      8.23273       3.97803       1.34381
                        -----------------------------------------
Total Dipole Moment    :      1.50563       0.91045       0.24708
                        -----------------------------------------
Magnitude (a.u.)       :      1.77676
Magnitude (Debye)      :      4.51616

                             ****ORCA TERMINATED NORMALLY****
TOTAL RUN TIME: 0 days 0 hours 18 minutes 45 seconds 634 msec
