                         Program Version 3.0.3 - RELEASE   -
|  1> ! RI-MP2 RIJK def2-TZVP def2-TZVP/C def2-TZVP/JK TIGHTSCF
|  2> % maxcore 2000
|  3> % mp2 density relaxed end
|  4> *xyz 0 1
|  5>  C       -0.3283899874     1.1433307574    -0.7467720017
|  6>  N       -0.3191815650    -0.0441472116     0.0819980972
|  7>  C       -1.3403734101    -0.9303623358     0.1032485627
|  8>  O       -2.3791090337    -0.8307353271    -0.5283030917
|  9>  O       -1.0417742643    -1.9600502767     0.9314019141
| 10>  C       -2.0826523750    -2.9179070710     1.1857473972
| 11>  C       -2.1462284329    -4.0621977826     0.1589913252
| 12>  N       -2.3271508006    -3.6604754387    -1.1242554209
| 13>  O       -2.0570897407    -5.2224129642     0.5117252355
| 14>  H       -0.2716303004     2.0530382236    -0.1391606111
| 15>  H        0.5080751864     1.1406741412    -1.4541212746
| 16>  H       -1.2651822592     1.1502891199    -1.3043528250
| 17>  H        0.4735263488    -0.2469244853     0.6681353911
| 18>  H       -1.8434016687    -3.3639674231     2.1495084572
| 19>  H       -3.0473875397    -2.4033775844     1.2302679463
| 20>  H       -2.5357164730    -2.6922000469    -1.3283213976
| 21>  H       -2.4371948046    -4.3699977744    -1.8301062140
| 22> *
| 23>
| 24>                          ****END OF INPUT****

CARTESIAN COORDINATES (ANGSTROEM)
---------------------------------
  C     -0.328390    1.143331   -0.746772
  N     -0.319182   -0.044147    0.081998
  C     -1.340373   -0.930362    0.103249
  O     -2.379109   -0.830735   -0.528303
  O     -1.041774   -1.960050    0.931402
  C     -2.082652   -2.917907    1.185747
  C     -2.146228   -4.062198    0.158991
  N     -2.327151   -3.660475   -1.124255
  O     -2.057090   -5.222413    0.511725
  H     -0.271630    2.053038   -0.139161
  H      0.508075    1.140674   -1.454121
  H     -1.265182    1.150289   -1.304353
  H      0.473526   -0.246924    0.668135
  H     -1.843402   -3.363967    2.149508
  H     -3.047388   -2.403378    1.230268
  H     -2.535716   -2.692200   -1.328321
  H     -2.437195   -4.369998   -1.830106

 Total Charge           Charge          ....    0
 Multiplicity           Mult            ....    1
 Number of Electrons    NEL             ....   70
 Basis Dimension        Dim             ....  327

ORBITAL ENERGIES
----------------

  NO   OCC          E(Eh)            E(eV)
   0   2.0000     -20.619522      -561.0857
   1   2.0000     -20.542853      -558.9995
   2   2.0000     -20.519730      -558.3702
   3   2.0000     -15.602931      -424.5773
   4   2.0000     -15.573702      -423.7820
   5   2.0000     -11.419886      -310.7509
   6   2.0000     -11.351422      -308.8879
   7   2.0000     -11.307033      -307.6800
   8   2.0000     -11.275438      -306.8203
   9   2.0000      -1.481003       -40.3001
  10   2.0000      -1.383338       -37.6425
  11   2.0000      -1.370809       -37.3016
  12   2.0000      -1.254503       -34.1368
  13   2.0000      -1.206776       -32.8380
  14   2.0000      -1.020541       -27.7703
  15   2.0000      -0.952683       -25.9238
  16   2.0000      -0.830923       -22.6106
  17   2.0000      -0.795693       -21.6519
  18   2.0000      -0.769333       -20.9346
  19   2.0000      -0.733814       -19.9681
  20   2.0000      -0.705707       -19.2033
  21   2.0000      -0.683476       -18.5983
  22   2.0000      -0.651034       -17.7155
  23   2.0000      -0.641319       -17.4512
  24   2.0000      -0.617273       -16.7968
  25   2.0000      -0.602705       -16.4004
  26   2.0000      -0.582995       -15.8641
  27   2.0000      -0.575074       -15.6486
  28   2.0000      -0.563560       -15.3353
  29   2.0000      -0.529546       -14.4097
  30   2.0000      -0.499919       -13.6035
  31   2.0000      -0.477324       -12.9886
  32   2.0000      -0.429004       -11.6738
  33   2.0000      -0.414776       -11.2866
  34   2.0000      -0.408622       -11.1192
  35   0.0000       0.126157         3.4329
  36   0.0000       0.150807         4.1037
  37   0.0000       0.160416         4.3651
  38   0.0000       0.173132         4.7112
  39   0.0000       0.185747         5.0544

MULLIKEN ATOMIC CHARGES
-----------------------
   0 C :   -0.277929
   1 N :   -0.339261
   2 C :    0.460279
   3 O :   -0.455331
   4 O :   -0.294784
   5 C :   -0.057238
   6 C :    0.234512
   7 N :   -0.474675
   8 O :   -0.345557
   9 H :    0.139619
  10 H :    0.139080
  11 H :    0.176019
  12 H :    0.256046
  13 H :    0.151796
  14 H :    0.144050
  15 H :    0.290561
  16 H :    0.252813
Sum of atomic charges:    0.0000000

LOEWDIN ATOMIC CHARGES
----------------------
   0 C :   -0.306966
   1 N :    0.087417
   2 C :   -0.595031
   3 O :    0.041314
   4 O :    0.235671
   5 C :   -0.239353
   6 C :   -0.491667
   7 N :   -0.007596
   8 O :    0.082021
   9 H :    0.117034
  10 H :    0.116919
  11 H :    0.135003
  12 H :    0.191905
  13 H :    0.143105
  14 H :    0.140955
  15 H :    0.176300
  16 H :    0.172967

  Mayer bond orders larger than 0.1
B(  0-C ,  1-N ) :   0.8503 B(  0-C ,  9-H ) :   0.9361 B(  0-C , 10-H ) :   0.9345
B(  0-C , 11-H ) :   0.9276 B(  1-N ,  2-C ) :   1.2213 B(  1-N , 12-H ) :   0.8667
B(  2-C ,  3-O ) :   1.7552 B(  2-C ,  4-O ) :   1.0887 B(  4-O ,  5-C ) :   0.8257
B(  5-C ,  6-C ) :   0.9049 B(  5-C , 13-H ) :   0.9237 B(  5-C , 14-H ) :   0.9159
B(  6-C ,  7-N ) :   1.2038 B(  6-C ,  8-O ) :   1.9891 B(  7-N , 15-H ) :   0.8291
B(  7-N , 16-H ) :   0.8624

MP2 TOTAL ENERGY:     -491.593379833 Eh
FINAL SINGLE POINT ENERGY      -491.593379832970

DIPOLE MOMENT
-------------
                                X             Y             Z
Electronic contribution:     -1.24854      -5.54910       1.93229
Nuclear contribution   :      1.92118       7.12991      -2.24449
                        -----------------------------------------
Total Dipole Moment    :      0.67264       1.58081      -0.31220
                        -----------------------------------------
Magnitude (a.u.)       :      1.74611
Magnitude (Debye)      :      4.43825

                             ****ORCA TERMINATED NORMALLY****
TOTAL RUN TIME: 0 days 0 hours 13 minutes 4 seconds 838 msec
