                         Program Version 3.0.3 - RELEASE   -
|  1> ! RI-MP2 RIJK def2-TZVP def2-TZVP/C def2-TZVP/JK TIGHTSCF
|  2> % maxcore 2000
|  3> % mp2 density relaxed end
|  4> *xyz 0 1
|  5>  C        1.2622001257     0.9584497817    -0.5766976052
|  6>  C        0.1118676621     0.1552878258    -0.0310070059
|  7>  O        0.4008051780    -1.0935553452     0.6136787600
|  8>  C       -0.1696150656    -0.0451019039     1.4059140738
|  9>  C        0.6765032533     0.5511649624     2.5076766958
| 10>  N        1.9380103035     0.0450592000     2.5775511833
| 11>  O        0.2302119989     1.4078450621     3.2449246382
| 12>  H        2.0796466311     1.0324755718     0.1423641868
| 13>  H        1.6409566792     0.4958992660    -1.4940044040
| 14>  H        0.9231127341     1.9691992706    -0.8260761719
| 15>  H       -0.7567511817     0.0977252995    -0.6892797899
| 16>  H       -1.2044887742    -0.1923066796     1.7102883450
| 17>  H        2.1717118128    -0.7639788201     2.0255768740
| 18>  H        2.5235754928     0.3172101887     3.3497463299
| 19> *
| 20>
| 21>                          ****END OF INPUT****

CARTESIAN COORDINATES (ANGSTROEM)
---------------------------------
  C      1.262200    0.958450   -0.576698
  C      0.111868    0.155288   -0.031007
  O      0.400805   -1.093555    0.613679
  C     -0.169615   -0.045102    1.405914
  C      0.676503    0.551165    2.507677
  N      1.938010    0.045059    2.577551
  O      0.230212    1.407845    3.244925
  H      2.079647    1.032476    0.142364
  H      1.640957    0.495899   -1.494004
  H      0.923113    1.969199   -0.826076
  H     -0.756751    0.097725   -0.689280
  H     -1.204489   -0.192307    1.710288
  H      2.171712   -0.763979    2.025577
  H      2.523575    0.317210    3.349746

 Total Charge           Charge          ....    0
 Multiplicity           Mult            ....    1
 Number of Electrons    NEL             ....   54
 Basis Dimension        Dim             ....  259

ORBITAL ENERGIES
----------------

  NO   OCC          E(Eh)            E(eV)
   0   2.0000     -20.589075      -560.2572
   1   2.0000     -20.525360      -558.5235
   2   2.0000     -15.586527      -424.1310
   3   2.0000     -11.359651      -309.1118
   4   2.0000     -11.311419      -307.7994
   5   2.0000     -11.304855      -307.6208
   6   2.0000     -11.237018      -305.7748
   7   2.0000      -1.434756       -39.0417
   8   2.0000      -1.386158       -37.7193
   9   2.0000      -1.217041       -33.1174
  10   2.0000      -1.028592       -27.9894
  11   2.0000      -0.963382       -26.2150
  12   2.0000      -0.859273       -23.3820
  13   2.0000      -0.787694       -21.4342
  14   2.0000      -0.739182       -20.1142
  15   2.0000      -0.709532       -19.3073
  16   2.0000      -0.676550       -18.4099
  17   2.0000      -0.620900       -16.8955
  18   2.0000      -0.602614       -16.3980
  19   2.0000      -0.591409       -16.0931
  20   2.0000      -0.572805       -15.5868
  21   2.0000      -0.554197       -15.0805
  22   2.0000      -0.530804       -14.4439
  23   2.0000      -0.482027       -13.1166
  24   2.0000      -0.448704       -12.2098
  25   2.0000      -0.430436       -11.7128
  26   2.0000      -0.419016       -11.4020
  27   0.0000       0.135497         3.6871
  28   0.0000       0.145938         3.9712
  29   0.0000       0.159480         4.3397
  30   0.0000       0.181521         4.9394
  31   0.0000       0.195962         5.3324

MULLIKEN ATOMIC CHARGES
-----------------------
   0 C :   -0.386035
   1 C :    0.053772
   2 O :   -0.351235
   3 C :    0.024726
   4 C :    0.254126
   5 N :   -0.485794
   6 O :   -0.346166
   7 H :    0.144347
   8 H :    0.140901
   9 H :    0.139706
  10 H :    0.122799
  11 H :    0.147594
  12 H :    0.282779
  13 H :    0.258481
Sum of atomic charges:   -0.0000000

LOEWDIN ATOMIC CHARGES
----------------------
   0 C :   -0.292004
   1 C :   -0.277548
   2 O :    0.154548
   3 C :   -0.230528
   4 C :   -0.479605
   5 N :   -0.006275
   6 O :    0.090634
   7 H :    0.130046
   8 H :    0.131273
   9 H :    0.135705
  10 H :    0.140893
  11 H :    0.150533
  12 H :    0.177824
  13 H :    0.174503

  Mayer bond orders larger than 0.1
B(  0-C ,  1-C ) :   0.9085 B(  0-C ,  7-H ) :   0.9318 B(  0-C ,  8-H ) :   0.9317
B(  0-C ,  9-H ) :   0.9254 B(  1-C ,  2-O ) :   0.8625 B(  1-C ,  3-C ) :   0.9470
B(  1-C , 10-H ) :   0.9206 B(  2-O ,  3-C ) :   0.8895 B(  3-C ,  4-C ) :   0.9023
B(  3-C , 11-H ) :   0.9158 B(  4-C ,  5-N ) :   1.1621 B(  4-C ,  6-O ) :   1.9670
B(  5-N , 12-H ) :   0.8489 B(  5-N , 13-H ) :   0.8610

MP2 TOTAL ENERGY:     -361.153734639 Eh
FINAL SINGLE POINT ENERGY      -361.153734639054

DIPOLE MOMENT
-------------
                                X             Y             Z
Electronic contribution:     -1.92946      -1.29958       4.49776
Nuclear contribution   :      2.54879       0.94372      -5.23050
                        -----------------------------------------
Total Dipole Moment    :      0.61933      -0.35586      -0.73274
                        -----------------------------------------
Magnitude (a.u.)       :      1.02329
Magnitude (Debye)      :      2.60099

                             ****ORCA TERMINATED NORMALLY****
TOTAL RUN TIME: 0 days 0 hours 7 minutes 40 seconds 806 msec
