                         Program Version 3.0.3 - RELEASE   -
|  1> ! RI-MP2 RIJK def2-TZVP def2-TZVP/C def2-TZVP/JK TIGHTSCF
|  2> % maxcore 2000
|  3> % mp2 density relaxed end
|  4> *xyz 0 1
|  5>  C        0.0176318193     1.4392954435    -0.1699742330
|  6>  C       -0.0622086898    -0.0192601941     0.2457538140
|  7>  O       -1.2227642970    -0.5885557949    -0.3372036536
|  8>  C       -1.3813596234    -1.9506157835    -0.0646958286
|  9>  C       -2.0484534319    -2.3585829217     1.2755620150
| 10>  O       -3.1158356175    -3.0354653910     0.5718301096
| 11>  C       -2.6281331599    -2.5618145672    -0.6850151545
| 12>  C       -3.5126544804    -1.9676477536    -1.7277312578
| 13>  C       -2.8214950845    -3.3057238926    -1.9610534039
| 14>  H        0.9068443098     1.9099235266     0.2597536698
| 15>  H        0.0701687828     1.5244872737    -1.2590416649
| 16>  H       -0.8653324801     1.9851140519     0.1740003461
| 17>  H        0.8335929924    -0.5697646799    -0.0873106029
| 18>  H       -0.1037910947    -0.1052047659     1.3437310836
| 19>  H       -0.4533122073    -2.5015723741    -0.2778846767
| 20>  H       -1.4941983337    -3.0425720301     1.9266973488
| 21>  H       -2.4147745442    -1.5007224263     1.8529453632
| 22>  H       -4.5797001117    -1.9857498961    -1.5341845057
| 23>  H       -3.1508620663    -1.0912421240    -2.2536977988
| 24>  H       -1.9955649441    -3.3544989630    -2.6638601679
| 25>  H       -3.4370297479    -4.1980092275    -1.9190129021
| 26> *
| 27>
| 28>                          ****END OF INPUT****

CARTESIAN COORDINATES (ANGSTROEM)
---------------------------------
  C      0.017632    1.439295   -0.169974
  C     -0.062209   -0.019260    0.245754
  O     -1.222764   -0.588556   -0.337204
  C     -1.381360   -1.950616   -0.064696
  C     -2.048453   -2.358583    1.275562
  O     -3.115836   -3.035465    0.571830
  C     -2.628133   -2.561815   -0.685015
  C     -3.512654   -1.967648   -1.727731
  C     -2.821495   -3.305724   -1.961053
  H      0.906844    1.909924    0.259754
  H      0.070169    1.524487   -1.259042
  H     -0.865332    1.985114    0.174000
  H      0.833593   -0.569765   -0.087311
  H     -0.103791   -0.105205    1.343731
  H     -0.453312   -2.501572   -0.277885
  H     -1.494198   -3.042572    1.926697
  H     -2.414775   -1.500722    1.852945
  H     -4.579700   -1.985750   -1.534185
  H     -3.150862   -1.091242   -2.253698
  H     -1.995565   -3.354499   -2.663860
  H     -3.437030   -4.198009   -1.919013

 Total Charge           Charge          ....    0
 Multiplicity           Mult            ....    1
 Number of Electrons    NEL             ....   70
 Basis Dimension        Dim             ....  351

ORBITAL ENERGIES
----------------

  NO   OCC          E(Eh)            E(eV)
   0   2.0000     -20.563534      -559.5622
   1   2.0000     -20.550341      -559.2032
   2   2.0000     -11.288677      -307.1805
   3   2.0000     -11.283414      -307.0373
   4   2.0000     -11.283382      -307.0364
   5   2.0000     -11.278064      -306.8917
   6   2.0000     -11.223126      -305.3968
   7   2.0000     -11.220332      -305.3207
   8   2.0000     -11.219959      -305.3106
   9   2.0000      -1.399806       -38.0907
  10   2.0000      -1.370651       -37.2973
  11   2.0000      -1.127081       -30.6694
  12   2.0000      -1.038740       -28.2656
  13   2.0000      -0.973397       -26.4875
  14   2.0000      -0.878837       -23.9144
  15   2.0000      -0.840382       -22.8680
  16   2.0000      -0.825017       -22.4498
  17   2.0000      -0.744593       -20.2614
  18   2.0000      -0.694008       -18.8849
  19   2.0000      -0.684387       -18.6231
  20   2.0000      -0.671513       -18.2728
  21   2.0000      -0.643649       -17.5146
  22   2.0000      -0.612909       -16.6781
  23   2.0000      -0.580037       -15.7836
  24   2.0000      -0.578385       -15.7387
  25   2.0000      -0.549533       -14.9536
  26   2.0000      -0.539835       -14.6897
  27   2.0000      -0.516503       -14.0548
  28   2.0000      -0.510150       -13.8819
  29   2.0000      -0.496584       -13.5127
  30   2.0000      -0.483569       -13.1586
  31   2.0000      -0.477279       -12.9874
  32   2.0000      -0.431439       -11.7401
  33   2.0000      -0.402117       -10.9422
  34   2.0000      -0.374441       -10.1891
  35   0.0000       0.135084         3.6758
  36   0.0000       0.156750         4.2654
  37   0.0000       0.160110         4.3568
  38   0.0000       0.176960         4.8153
  39   0.0000       0.184165         5.0114

MULLIKEN ATOMIC CHARGES
-----------------------
   0 C :   -0.362669
   1 C :   -0.058629
   2 O :   -0.281391
   3 C :    0.000542
   4 C :   -0.028944
   5 O :   -0.318335
   6 C :    0.211870
   7 C :   -0.267647
   8 C :   -0.288623
   9 H :    0.124325
  10 H :    0.130095
  11 H :    0.132714
  12 H :    0.094368
  13 H :    0.096747
  14 H :    0.084655
  15 H :    0.103567
  16 H :    0.094232
  17 H :    0.133627
  18 H :    0.135844
  19 H :    0.130045
  20 H :    0.133606
Sum of atomic charges:   -0.0000000

LOEWDIN ATOMIC CHARGES
----------------------
   0 C :   -0.315693
   1 C :   -0.345802
   2 O :    0.190442
   3 C :   -0.280941
   4 C :   -0.242745
   5 O :    0.165831
   6 C :   -0.295746
   7 C :   -0.200781
   8 C :   -0.207375
   9 H :    0.125129
  10 H :    0.124505
  11 H :    0.125087
  12 H :    0.117122
  13 H :    0.117762
  14 H :    0.134068
  15 H :    0.116594
  16 H :    0.121896
  17 H :    0.139091
  18 H :    0.137548
  19 H :    0.134176
  20 H :    0.139832

  Mayer bond orders larger than 0.1
B(  0-C ,  1-C ) :   0.9559 B(  0-C ,  9-H ) :   0.9325 B(  0-C , 10-H ) :   0.9354
B(  0-C , 11-H ) :   0.9363 B(  1-C ,  2-O ) :   0.9026 B(  1-C , 12-H ) :   0.9219
B(  1-C , 13-H ) :   0.9227 B(  2-O ,  3-C ) :   1.0128 B(  3-C ,  4-C ) :   0.9694
B(  3-C ,  6-C ) :   0.9257 B(  3-C , 14-H ) :   0.9201 B(  4-C ,  5-O ) :   0.9488
B(  4-C , 15-H ) :   0.9092 B(  4-C , 16-H ) :   0.8956 B(  5-O ,  6-C ) :   0.9827
B(  6-C ,  7-C ) :   0.8555 B(  6-C ,  8-C ) :   0.8723 B(  7-C ,  8-C ) :   0.9268
B(  7-C , 17-H ) :   0.9182 B(  7-C , 18-H ) :   0.9102 B(  8-C , 19-H ) :   0.9153
B(  8-C , 20-H ) :   0.9142

MP2 TOTAL ENERGY:     -423.466483961 Eh
FINAL SINGLE POINT ENERGY      -423.466483961108

DIPOLE MOMENT
-------------
                                X             Y             Z
Electronic contribution:     -4.15552      -5.09870       0.89795
Nuclear contribution   :      5.03270       5.41396      -0.83113
                        -----------------------------------------
Total Dipole Moment    :      0.87718       0.31527       0.06682
                        -----------------------------------------
Magnitude (a.u.)       :      0.93451
Magnitude (Debye)      :      2.37533

                             ****ORCA TERMINATED NORMALLY****
TOTAL RUN TIME: 0 days 0 hours 16 minutes 5 seconds 771 msec
