                         Program Version 3.0.3 - RELEASE   -
|  1> ! RI-MP2 RIJK def2-TZVP def2-TZVP/C def2-TZVP/JK TIGHTSCF
|  2> % maxcore 2000
|  3> % mp2 density relaxed end
|  4> *xyz 0 1
|  5>  O        0.0501060112     0.0828935799     0.4688924599
|  6>  C        0.1890459517     1.1904274090     0.0509216106
|  7>  O        0.8216266117     2.1578491983     0.7479153946
|  8>  C        0.9186557791     3.4591826017     0.1588226977
|  9>  C        2.3497476751     3.8959608948     0.1303241830
| 10>  N        2.6595832064     5.1109911833     0.5166170967
| 11>  O        4.0306858242     5.2221603650     0.3417612449
| 12>  C        4.5035297899     4.0611086030    -0.1350111711
| 13>  C        3.4967586250     3.1678388491    -0.2980268892
| 14>  H       -0.1747309435     1.5415556855    -0.9352911102
| 15>  H        0.5029398960     3.4379359028    -0.8576532950
| 16>  H        0.3326808098     4.1622956404     0.7557048445
| 17>  H        5.5685686066     4.0216880381    -0.3028561963
| 18>  H        3.5545979667     2.1515052891    -0.6485482201
| 19> *
| 20>
| 21>                          ****END OF INPUT****

CARTESIAN COORDINATES (ANGSTROEM)
---------------------------------
  O      0.050106    0.082894    0.468892
  C      0.189046    1.190427    0.050922
  O      0.821627    2.157849    0.747915
  C      0.918656    3.459183    0.158823
  C      2.349748    3.895961    0.130324
  N      2.659583    5.110991    0.516617
  O      4.030686    5.222160    0.341761
  C      4.503530    4.061109   -0.135011
  C      3.496759    3.167839   -0.298027
  H     -0.174731    1.541556   -0.935291
  H      0.502940    3.437936   -0.857653
  H      0.332681    4.162296    0.755705
  H      5.568569    4.021688   -0.302856
  H      3.554598    2.151505   -0.648548

 Total Charge           Charge          ....    0
 Multiplicity           Mult            ....    1
 Number of Electrons    NEL             ....   66
 Basis Dimension        Dim             ....  309

ORBITAL ENERGIES
----------------

  NO   OCC          E(Eh)            E(eV)
   0   2.0000     -20.660604      -562.2036
   1   2.0000     -20.626990      -561.2889
   2   2.0000     -20.564393      -559.5856
   3   2.0000     -15.637695      -425.5233
   4   2.0000     -11.397659      -310.1461
   5   2.0000     -11.333824      -308.4090
   6   2.0000     -11.330568      -308.3204
   7   2.0000     -11.303757      -307.5909
   8   2.0000     -11.254406      -306.2480
   9   2.0000      -1.511930       -41.1417
  10   2.0000      -1.478721       -40.2380
  11   2.0000      -1.389326       -37.8055
  12   2.0000      -1.192685       -32.4546
  13   2.0000      -1.089327       -29.6421
  14   2.0000      -1.012546       -27.5528
  15   2.0000      -0.868155       -23.6237
  16   2.0000      -0.850580       -23.1455
  17   2.0000      -0.810397       -22.0520
  18   2.0000      -0.758539       -20.6409
  19   2.0000      -0.735716       -20.0199
  20   2.0000      -0.698467       -19.0063
  21   2.0000      -0.672397       -18.2968
  22   2.0000      -0.669797       -18.2261
  23   2.0000      -0.629732       -17.1359
  24   2.0000      -0.615993       -16.7620
  25   2.0000      -0.578769       -15.7491
  26   2.0000      -0.573592       -15.6082
  27   2.0000      -0.562753       -15.3133
  28   2.0000      -0.497898       -13.5485
  29   2.0000      -0.482558       -13.1311
  30   2.0000      -0.473627       -12.8880
  31   2.0000      -0.432923       -11.7804
  32   2.0000      -0.384313       -10.4577
  33   0.0000       0.104392         2.8406
  34   0.0000       0.132102         3.5947
  35   0.0000       0.136067         3.7026
  36   0.0000       0.159872         4.3503
  37   0.0000       0.169037         4.5997

MULLIKEN ATOMIC CHARGES
-----------------------
   0 O :   -0.259891
   1 C :    0.205436
   2 O :   -0.206504
   3 C :   -0.132597
   4 C :    0.130262
   5 N :   -0.107538
   6 O :   -0.097927
   7 C :    0.014882
   8 C :   -0.249547
   9 H :    0.074534
  10 H :    0.137593
  11 H :    0.157624
  12 H :    0.169027
  13 H :    0.164646
Sum of atomic charges:   -0.0000000

LOEWDIN ATOMIC CHARGES
----------------------
   0 O :    0.129545
   1 C :   -0.452444
   2 O :    0.252156
   3 C :   -0.248834
   4 C :   -0.289933
   5 N :    0.064621
   6 O :    0.284335
   7 C :   -0.251149
   8 C :   -0.165497
   9 H :    0.101942
  10 H :    0.135451
  11 H :    0.146232
  12 H :    0.140985
  13 H :    0.152590

  Mayer bond orders larger than 0.1
B(  0-O ,  1-C ) :   2.0282 B(  1-C ,  2-O ) :   1.0577 B(  1-C ,  9-H ) :   0.9125
B(  2-O ,  3-C ) :   0.8967 B(  3-C ,  4-C ) :   0.8854 B(  3-C , 10-H ) :   0.9385
B(  3-C , 11-H ) :   0.9366 B(  4-C ,  5-N ) :   1.6006 B(  4-C ,  8-C ) :   1.1787
B(  5-N ,  6-O ) :   0.9011 B(  6-O ,  7-C ) :   1.1200 B(  7-C ,  8-C ) :   1.5576
B(  7-C , 12-H ) :   0.9179 B(  8-C , 13-H ) :   0.9048

MP2 TOTAL ENERGY:     -473.068789654 Eh
FINAL SINGLE POINT ENERGY      -473.068789653525

DIPOLE MOMENT
-------------
                                X             Y             Z
Electronic contribution:      0.97239       0.61621       1.80507
Nuclear contribution   :     -0.54976      -0.26006      -2.92338
                        -----------------------------------------
Total Dipole Moment    :      0.42262       0.35615      -1.11831
                        -----------------------------------------
Magnitude (a.u.)       :      1.24743
Magnitude (Debye)      :      3.17071

                             ****ORCA TERMINATED NORMALLY****
TOTAL RUN TIME: 0 days 0 hours 13 minutes 20 seconds 452 msec
