                         Program Version 3.0.3 - RELEASE   -
|  1> ! RI-MP2 RIJK def2-TZVP def2-TZVP/C def2-TZVP/JK TIGHTSCF
|  2> % maxcore 2000
|  3> % mp2 density relaxed end
|  4> *xyz 0 1
|  5>  O        0.0391037562     1.3892003600     0.1387235806
|  6>  C       -0.0692709492     0.0570540126     0.0421287128
|  7>  C       -1.1963106291    -0.5949426114    -0.2265578640
|  8>  O       -1.2212611182    -1.9743777201    -0.3362804751
|  9>  C       -0.1069950201    -2.7150572904    -0.1568896015
| 10>  O       -0.1228405518    -3.9045058016    -0.2506811256
| 11>  C        1.1941939590    -1.9629296633     0.1757014921
| 12>  O        2.2300572217    -2.5111499321     0.3680314668
| 13>  O        1.1207444667    -0.5890795634     0.2422356104
| 14>  H        0.9346272504     1.6005433618     0.4303633420
| 15>  H       -2.1533494157    -0.1279758721    -0.3843835885
| 16> *
| 17>
| 18>                          ****END OF INPUT****

CARTESIAN COORDINATES (ANGSTROEM)
---------------------------------
  O      0.039104    1.389200    0.138724
  C     -0.069271    0.057054    0.042129
  C     -1.196311   -0.594943   -0.226558
  O     -1.221261   -1.974378   -0.336280
  C     -0.106995   -2.715057   -0.156890
  O     -0.122841   -3.904506   -0.250681
  C      1.194194   -1.962930    0.175701
  O      2.230057   -2.511150    0.368031
  O      1.120744   -0.589080    0.242236
  H      0.934627    1.600543    0.430363
  H     -2.153349   -0.127976   -0.384384

 Total Charge           Charge          ....    0
 Multiplicity           Mult            ....    1
 Number of Electrons    NEL             ....   66
 Basis Dimension        Dim             ....  291

ORBITAL ENERGIES
----------------

  NO   OCC          E(Eh)            E(eV)
   0   2.0000     -20.677273      -562.6572
   1   2.0000     -20.657825      -562.1280
   2   2.0000     -20.640453      -561.6553
   3   2.0000     -20.606339      -560.7270
   4   2.0000     -20.591561      -560.3249
   5   2.0000     -11.445100      -311.4370
   6   2.0000     -11.435660      -311.1801
   7   2.0000     -11.406693      -310.3919
   8   2.0000     -11.320025      -308.0335
   9   2.0000      -1.550468       -42.1904
  10   2.0000      -1.504594       -40.9421
  11   2.0000      -1.468949       -39.9721
  12   2.0000      -1.427950       -38.8565
  13   2.0000      -1.407821       -38.3088
  14   2.0000      -1.080978       -29.4149
  15   2.0000      -0.983086       -26.7511
  16   2.0000      -0.938644       -25.5418
  17   2.0000      -0.852072       -23.1860
  18   2.0000      -0.790649       -21.5147
  19   2.0000      -0.738928       -20.1072
  20   2.0000      -0.736104       -20.0304
  21   2.0000      -0.711925       -19.3725
  22   2.0000      -0.675647       -18.3853
  23   2.0000      -0.671373       -18.2690
  24   2.0000      -0.664349       -18.0779
  25   2.0000      -0.647279       -17.6134
  26   2.0000      -0.630226       -17.1493
  27   2.0000      -0.596755       -16.2385
  28   2.0000      -0.557885       -15.1808
  29   2.0000      -0.534186       -14.5359
  30   2.0000      -0.521844       -14.2001
  31   2.0000      -0.483157       -13.1474
  32   2.0000      -0.366041        -9.9605
  33   0.0000       0.051924         1.4129
  34   0.0000       0.121978         3.3192
  35   0.0000       0.153467         4.1761
  36   0.0000       0.154009         4.1908
  37   0.0000       0.171256         4.6601

MULLIKEN ATOMIC CHARGES
-----------------------
   0 O :   -0.408906
   1 C :    0.293840
   2 C :   -0.083496
   3 O :   -0.171455
   4 C :    0.245024
   5 O :   -0.225247
   6 C :    0.235672
   7 O :   -0.202383
   8 O :   -0.210682
   9 H :    0.356144
  10 H :    0.171489
Sum of atomic charges:   -0.0000000

LOEWDIN ATOMIC CHARGES
----------------------
   0 O :    0.101409
   1 C :   -0.424601
   2 C :   -0.252639
   3 O :    0.328038
   4 C :   -0.440938
   5 O :    0.197749
   6 C :   -0.403622
   7 O :    0.216348
   8 O :    0.318236
   9 H :    0.208882
  10 H :    0.151138

  Mayer bond orders larger than 0.1
B(  0-O ,  1-C ) :   1.1252 B(  0-O ,  9-H ) :   0.8080 B(  1-C ,  2-C ) :   1.6740
B(  1-C ,  8-O ) :   0.9630 B(  2-C ,  3-O ) :   0.9143 B(  2-C , 10-H ) :   0.9280
B(  3-O ,  4-C ) :   1.1015 B(  4-C ,  5-O ) :   2.0189 B(  4-C ,  6-C ) :   0.8825
B(  6-C ,  7-O ) :   2.0627 B(  6-C ,  8-O ) :   1.0121

MP2 TOTAL ENERGY:     -528.873282053 Eh
FINAL SINGLE POINT ENERGY      -528.873282053453

DIPOLE MOMENT
-------------
                                X             Y             Z
Electronic contribution:      1.30388      -2.39043       0.08409
Nuclear contribution   :     -1.55340       4.00746       0.03579
                        -----------------------------------------
Total Dipole Moment    :     -0.24952       1.61703       0.11988
                        -----------------------------------------
Magnitude (a.u.)       :      1.64055
Magnitude (Debye)      :      4.16995

                             ****ORCA TERMINATED NORMALLY****
TOTAL RUN TIME: 0 days 0 hours 10 minutes 38 seconds 495 msec
