                         Program Version 3.0.3 - RELEASE   -
|  1> ! RI-MP2 RIJK def2-TZVP def2-TZVP/C def2-TZVP/JK TIGHTSCF
|  2> % maxcore 2000
|  3> % mp2 density relaxed end
|  4> *xyz 0 1
|  5>  C       -0.0802280682     1.6130290094    -0.0846901878
|  6>  C        0.0995819425     0.0962516895    -0.0023125072
|  7>  C        0.7442465727    -0.5290931475    -1.2616661046
|  8>  C        0.9710834618    -2.0539961972    -1.1046033143
|  9>  C        1.8586410011    -2.6619756190    -2.1682682396
| 10>  C        1.6329597592    -4.0555129862    -2.6278922594
| 11>  N        1.3694339754    -2.9239021358    -3.5293410601
| 12>  C       -0.0804326924    -0.2575117849    -2.4450647426
| 13>  N       -0.7645066083    -0.0610585957    -3.3565380438
| 14>  H        0.8807702152     2.1190554267    -0.2278205614
| 15>  H       -0.7331355359     1.8913516241    -0.9172259247
| 16>  H       -0.5261806611     1.9986921536     0.8364556727
| 17>  H        0.7400644833    -0.1594682865     0.8495824017
| 18>  H       -0.8674872868    -0.3887497206     0.1749945584
| 19>  H        1.7174969293    -0.0476247690    -1.4275596179
| 20>  H        1.4295097994    -2.2185724733    -0.1216301950
| 21>  H       -0.0016429536    -2.5601988820    -1.0897094647
| 22>  H        2.8837927248    -2.2922611966    -2.1536071202
| 23>  H        2.4738005424    -4.6827176592    -2.9101635410
| 24>  H        0.7900179899    -4.5958529448    -2.2029439523
| 25>  H        0.3720720792    -2.7353882552    -3.5938805763
| 26> *
| 27>
| 28>                          ****END OF INPUT****

CARTESIAN COORDINATES (ANGSTROEM)
---------------------------------
  C     -0.080228    1.613029   -0.084690
  C      0.099582    0.096252   -0.002313
  C      0.744247   -0.529093   -1.261666
  C      0.971083   -2.053996   -1.104603
  C      1.858641   -2.661976   -2.168268
  C      1.632960   -4.055513   -2.627892
  N      1.369434   -2.923902   -3.529341
  C     -0.080433   -0.257512   -2.445065
  N     -0.764507   -0.061059   -3.356538
  H      0.880770    2.119055   -0.227821
  H     -0.733136    1.891352   -0.917226
  H     -0.526181    1.998692    0.836456
  H      0.740064   -0.159468    0.849582
  H     -0.867487   -0.388750    0.174995
  H      1.717497   -0.047625   -1.427560
  H      1.429510   -2.218572   -0.121630
  H     -0.001643   -2.560199   -1.089709
  H      2.883793   -2.292261   -2.153607
  H      2.473801   -4.682718   -2.910164
  H      0.790018   -4.595853   -2.202944
  H      0.372072   -2.735388   -3.593881

 Total Charge           Charge          ....    0
 Multiplicity           Mult            ....    1
 Number of Electrons    NEL             ....   68
 Basis Dimension        Dim             ....  351

ORBITAL ENERGIES
----------------

  NO   OCC          E(Eh)            E(eV)
   0   2.0000     -15.567395      -423.6103
   1   2.0000     -15.558908      -423.3794
   2   2.0000     -11.287426      -307.1465
   3   2.0000     -11.270667      -306.6904
   4   2.0000     -11.269194      -306.6504
   5   2.0000     -11.259039      -306.3740
   6   2.0000     -11.257592      -306.3347
   7   2.0000     -11.252248      -306.1892
   8   2.0000     -11.229246      -305.5633
   9   2.0000      -1.266252       -34.4565
  10   2.0000      -1.219081       -33.1729
  11   2.0000      -1.120177       -30.4816
  12   2.0000      -1.026130       -27.9224
  13   2.0000      -0.940936       -25.6042
  14   2.0000      -0.883471       -24.0405
  15   2.0000      -0.850144       -23.1336
  16   2.0000      -0.812259       -22.1027
  17   2.0000      -0.718441       -19.5498
  18   2.0000      -0.679687       -18.4952
  19   2.0000      -0.655023       -17.8241
  20   2.0000      -0.626971       -17.0608
  21   2.0000      -0.605256       -16.4698
  22   2.0000      -0.590427       -16.0663
  23   2.0000      -0.569119       -15.4865
  24   2.0000      -0.549682       -14.9576
  25   2.0000      -0.530139       -14.4258
  26   2.0000      -0.517404       -14.0793
  27   2.0000      -0.511435       -13.9169
  28   2.0000      -0.504983       -13.7413
  29   2.0000      -0.485417       -13.2089
  30   2.0000      -0.475318       -12.9341
  31   2.0000      -0.452606       -12.3160
  32   2.0000      -0.443029       -12.0554
  33   2.0000      -0.391581       -10.6555
  34   0.0000       0.119309         3.2466
  35   0.0000       0.139995         3.8095
  36   0.0000       0.147655         4.0179
  37   0.0000       0.164213         4.4685
  38   0.0000       0.173635         4.7248

MULLIKEN ATOMIC CHARGES
-----------------------
   0 C :   -0.403741
   1 C :   -0.193031
   2 C :    0.080110
   3 C :   -0.293878
   4 C :   -0.022071
   5 C :   -0.187679
   6 N :   -0.357785
   7 C :   -0.239656
   8 N :   -0.059967
   9 H :    0.126419
  10 H :    0.155730
  11 H :    0.141114
  12 H :    0.122119
  13 H :    0.124053
  14 H :    0.129296
  15 H :    0.130989
  16 H :    0.143194
  17 H :    0.122250
  18 H :    0.124050
  19 H :    0.125888
  20 H :    0.232596
Sum of atomic charges:   -0.0000000

LOEWDIN ATOMIC CHARGES
----------------------
   0 C :   -0.310062
   1 C :   -0.254132
   2 C :   -0.240534
   3 C :   -0.219782
   4 C :   -0.284418
   5 C :   -0.266230
   6 N :   -0.008977
   7 C :   -0.175744
   8 N :    0.058526
   9 H :    0.123589
  10 H :    0.130389
  11 H :    0.125151
  12 H :    0.141169
  13 H :    0.144299
  14 H :    0.177832
  15 H :    0.151255
  16 H :    0.150356
  17 H :    0.143112
  18 H :    0.124715
  19 H :    0.121198
  20 H :    0.168289

  Mayer bond orders larger than 0.1
B(  0-C ,  1-C ) :   0.9280 B(  0-C ,  9-H ) :   0.9354 B(  0-C , 10-H ) :   0.9343
B(  0-C , 11-H ) :   0.9382 B(  1-C ,  2-C ) :   0.8938 B(  1-C , 12-H ) :   0.9332
B(  1-C , 13-H ) :   0.9203 B(  2-C ,  3-C ) :   0.8618 B(  2-C ,  7-C ) :   0.9068
B(  2-C , 14-H ) :   0.9124 B(  3-C ,  4-C ) :   0.9419 B(  3-C , 15-H ) :   0.9267
B(  3-C , 16-H ) :   0.9257 B(  4-C ,  5-C ) :   0.9463 B(  4-C ,  6-N ) :   0.9450
B(  4-C , 17-H ) :   0.9091 B(  5-C ,  6-N ) :   0.9280 B(  5-C , 18-H ) :   0.9221
B(  5-C , 19-H ) :   0.9170 B(  6-N , 20-H ) :   0.8674 B(  7-C ,  8-N ) :   2.8652

MP2 TOTAL ENERGY:     -382.588517954 Eh
FINAL SINGLE POINT ENERGY      -382.588517954129

DIPOLE MOMENT
-------------
                                X             Y             Z
Electronic contribution:     -0.91404      -1.09970      -6.65709
Nuclear contribution   :      1.38095       0.75616       8.45662
                        -----------------------------------------
Total Dipole Moment    :      0.46691      -0.34354       1.79953
                        -----------------------------------------
Magnitude (a.u.)       :      1.89059
Magnitude (Debye)      :      4.80550

                             ****ORCA TERMINATED NORMALLY****
TOTAL RUN TIME: 0 days 0 hours 18 minutes 53 seconds 990 msec
