                         Program Version 3.0.3 - RELEASE   -
|  1> ! RI-MP2 RIJK def2-TZVP def2-TZVP/C def2-TZVP/JK TIGHTSCF
|  2> % maxcore 2000
|  3> % mp2 density relaxed end
|  4> *xyz 0 1
|  5>  C        0.1107615427     1.5235336671    -0.0118939919
|  6>  C       -0.0078366613     0.0188060381     0.0224229383
|  7>  C       -1.3787540140    -0.6064398753    -0.2221670679
|  8>  C       -1.3563991356    -1.9558409363     0.5320361975
|  9>  C       -0.1773655128    -1.8210425092     1.5302253600
| 10>  N        0.6905049848    -0.7087212062     1.0907376864
| 11>  C        1.2062839805    -0.8130689366    -0.2966039473
| 12>  C        1.1419140536    -2.0249747015    -1.0698572542
| 13>  N        1.1313633191    -2.9968460816    -1.6988073479
| 14>  H        1.1178332906     1.8457604109     0.2638712211
| 15>  H       -0.1156408250     1.9084022432    -1.0118533122
| 16>  H       -0.5954349630     1.9766441679     0.6922581304
| 17>  H       -2.1364828547     0.0682497638     0.1906686099
| 18>  H       -1.5992161052    -0.7254107264    -1.2868220949
| 19>  H       -2.2989492276    -2.1475191640     1.0503106076
| 20>  H       -1.1923456079    -2.7844026087    -0.1573839620
| 21>  H       -0.5318319835    -1.5502687383     2.5295732958
| 22>  H        0.4074182004    -2.7402090468     1.6240205687
| 23>  H        2.1503132290    -0.2905163703    -0.4326300474
| 24> *
| 25>
| 26>                          ****END OF INPUT****

CARTESIAN COORDINATES (ANGSTROEM)
---------------------------------
  C      0.110762    1.523534   -0.011894
  C     -0.007837    0.018806    0.022423
  C     -1.378754   -0.606440   -0.222167
  C     -1.356399   -1.955841    0.532036
  C     -0.177366   -1.821043    1.530225
  N      0.690505   -0.708721    1.090738
  C      1.206284   -0.813069   -0.296604
  C      1.141914   -2.024975   -1.069857
  N      1.131363   -2.996846   -1.698807
  H      1.117833    1.845760    0.263871
  H     -0.115641    1.908402   -1.011853
  H     -0.595435    1.976644    0.692258
  H     -2.136483    0.068250    0.190669
  H     -1.599216   -0.725411   -1.286822
  H     -2.298949   -2.147519    1.050311
  H     -1.192346   -2.784403   -0.157384
  H     -0.531832   -1.550269    2.529573
  H      0.407418   -2.740209    1.624021
  H      2.150313   -0.290516   -0.432630

 Total Charge           Charge          ....    0
 Multiplicity           Mult            ....    1
 Number of Electrons    NEL             ....   66
 Basis Dimension        Dim             ....  339

ORBITAL ENERGIES
----------------

  NO   OCC          E(Eh)            E(eV)
   0   2.0000     -15.585002      -424.0895
   1   2.0000     -15.574164      -423.7945
   2   2.0000     -11.303580      -307.5860
   3   2.0000     -11.293289      -307.3060
   4   2.0000     -11.278328      -306.8989
   5   2.0000     -11.263369      -306.4918
   6   2.0000     -11.242757      -305.9310
   7   2.0000     -11.236000      -305.7471
   8   2.0000     -11.232445      -305.6504
   9   2.0000      -1.312159       -35.7057
  10   2.0000      -1.218467       -33.1562
  11   2.0000      -1.066596       -29.0236
  12   2.0000      -1.043781       -28.4027
  13   2.0000      -0.974535       -26.5184
  14   2.0000      -0.919566       -25.0227
  15   2.0000      -0.831746       -22.6330
  16   2.0000      -0.763288       -20.7701
  17   2.0000      -0.720740       -19.6123
  18   2.0000      -0.675817       -18.3899
  19   2.0000      -0.622804       -16.9474
  20   2.0000      -0.611921       -16.6512
  21   2.0000      -0.609178       -16.5766
  22   2.0000      -0.589378       -16.0378
  23   2.0000      -0.567379       -15.4392
  24   2.0000      -0.558096       -15.1866
  25   2.0000      -0.512869       -13.9559
  26   2.0000      -0.506576       -13.7846
  27   2.0000      -0.500531       -13.6202
  28   2.0000      -0.491906       -13.3854
  29   2.0000      -0.484085       -13.1726
  30   2.0000      -0.460468       -12.5300
  31   2.0000      -0.440584       -11.9889
  32   2.0000      -0.382199       -10.4002
  33   0.0000       0.123433         3.3588
  34   0.0000       0.152164         4.1406
  35   0.0000       0.153048         4.1647
  36   0.0000       0.162766         4.4291
  37   0.0000       0.166372         4.5272

MULLIKEN ATOMIC CHARGES
-----------------------
   0 C :   -0.419627
   1 C :    0.198311
   2 C :   -0.241483
   3 C :   -0.269522
   4 C :   -0.161122
   5 N :   -0.213831
   6 C :   -0.033563
   7 C :   -0.193536
   8 N :   -0.056286
   9 H :    0.144748
  10 H :    0.138592
  11 H :    0.134537
  12 H :    0.126975
  13 H :    0.138653
  14 H :    0.129161
  15 H :    0.157792
  16 H :    0.133521
  17 H :    0.136158
  18 H :    0.150520
Sum of atomic charges:   -0.0000000

LOEWDIN ATOMIC CHARGES
----------------------
   0 C :   -0.259811
   1 C :   -0.267561
   2 C :   -0.209929
   3 C :   -0.253039
   4 C :   -0.262716
   5 N :    0.162524
   6 C :   -0.206776
   7 C :   -0.178881
   8 N :    0.066342
   9 H :    0.133358
  10 H :    0.132280
  11 H :    0.131293
  12 H :    0.145659
  13 H :    0.147676
  14 H :    0.136566
  15 H :    0.142118
  16 H :    0.135551
  17 H :    0.136589
  18 H :    0.168756

  Mayer bond orders larger than 0.1
B(  0-C ,  1-C ) :   0.8745 B(  0-C ,  9-H ) :   0.9385 B(  0-C , 10-H ) :   0.9355
B(  0-C , 11-H ) :   0.9330 B(  1-C ,  2-C ) :   0.9410 B(  1-C ,  5-N ) :   0.8138
B(  1-C ,  6-C ) :   0.8789 B(  2-C ,  3-C ) :   0.9269 B(  2-C , 12-H ) :   0.9271
B(  2-C , 13-H ) :   0.9155 B(  3-C ,  4-C ) :   0.9255 B(  3-C , 14-H ) :   0.9257
B(  3-C , 15-H ) :   0.9279 B(  4-C ,  5-N ) :   0.9092 B(  4-C , 16-H ) :   0.9316
B(  4-C , 17-H ) :   0.9357 B(  5-N ,  6-C ) :   0.9447 B(  6-C ,  7-C ) :   0.9596
B(  6-C , 18-H ) :   0.8965 B(  7-C ,  8-N ) :   2.8181

MP2 TOTAL ENERGY:     -381.403770744 Eh
FINAL SINGLE POINT ENERGY      -381.403770743557

DIPOLE MOMENT
-------------
                                X             Y             Z
Electronic contribution:      4.99745      -4.36148      -2.67312
Nuclear contribution   :     -5.65224       5.39349       3.18407
                        -----------------------------------------
Total Dipole Moment    :     -0.65479       1.03201       0.51095
                        -----------------------------------------
Magnitude (a.u.)       :      1.32471
Magnitude (Debye)      :      3.36715

                             ****ORCA TERMINATED NORMALLY****
TOTAL RUN TIME: 0 days 0 hours 21 minutes 27 seconds 490 msec
