                         Program Version 3.0.3 - RELEASE   -
|  1> ! RI-MP2 RIJK def2-TZVP def2-TZVP/C def2-TZVP/JK TIGHTSCF
|  2> % maxcore 2000
|  3> % mp2 density relaxed end
|  4> *xyz 0 1
|  5>  O        0.1054804345    -0.0498690701     0.0692835032
|  6>  C        0.0177168709     1.1441312833     0.0494030323
|  7>  N       -1.1189323672     1.9211145186     0.0761500622
|  8>  C       -0.8323558444     3.3001278172    -0.2661052425
|  9>  C        0.6887822289     3.3497179823     0.0311205000
| 10>  O        1.1052450664     1.9806766698     0.0244771178
| 11>  C        1.4654575503     4.1551506004    -0.9847515843
| 12>  C        2.6396882083     3.6213459185    -1.6824931858
| 13>  O        1.3670064836     3.7181277339    -2.3354150395
| 14>  H       -1.9812991844     1.4750201265    -0.1912473567
| 15>  H       -1.0271099268     3.5188590863    -1.3233710564
| 16>  H       -1.3918813076     4.0056701930     0.3541854169
| 17>  H        0.8765958792     3.7584642924     1.0323142498
| 18>  H        1.3808442292     5.2349055271    -0.8462906130
| 19>  H        3.4020951448     4.3075959671    -2.0468091154
| 20>  H        2.9658912043     2.6095753238    -1.4609947485
| 21> *
| 22>
| 23>                          ****END OF INPUT****

CARTESIAN COORDINATES (ANGSTROEM)
---------------------------------
  O      0.105480   -0.049869    0.069284
  C      0.017717    1.144131    0.049403
  N     -1.118932    1.921115    0.076150
  C     -0.832356    3.300128   -0.266105
  C      0.688782    3.349718    0.031120
  O      1.105245    1.980677    0.024477
  C      1.465458    4.155151   -0.984752
  C      2.639688    3.621346   -1.682493
  O      1.367006    3.718128   -2.335415
  H     -1.981299    1.475020   -0.191247
  H     -1.027110    3.518859   -1.323371
  H     -1.391881    4.005670    0.354185
  H      0.876596    3.758464    1.032314
  H      1.380844    5.234906   -0.846291
  H      3.402095    4.307596   -2.046809
  H      2.965891    2.609575   -1.460995

 Total Charge           Charge          ....    0
 Multiplicity           Mult            ....    1
 Number of Electrons    NEL             ....   68
 Basis Dimension        Dim             ....  321

ORBITAL ENERGIES
----------------

  NO   OCC          E(Eh)            E(eV)
   0   2.0000     -20.606486      -560.7310
   1   2.0000     -20.583027      -560.0926
   2   2.0000     -20.528071      -558.5972
   3   2.0000     -15.597096      -424.4186
   4   2.0000     -11.402733      -310.2841
   5   2.0000     -11.322505      -308.1010
   6   2.0000     -11.307090      -307.6815
   7   2.0000     -11.295397      -307.3634
   8   2.0000     -11.292457      -307.2834
   9   2.0000      -1.473779       -40.1036
  10   2.0000      -1.427169       -38.8352
  11   2.0000      -1.367923       -37.2231
  12   2.0000      -1.246311       -33.9139
  13   2.0000      -1.060236       -28.8505
  14   2.0000      -0.951949       -25.9039
  15   2.0000      -0.900045       -24.4915
  16   2.0000      -0.848381       -23.0856
  17   2.0000      -0.824223       -22.4282
  18   2.0000      -0.742675       -20.2092
  19   2.0000      -0.722270       -19.6540
  20   2.0000      -0.687546       -18.7091
  21   2.0000      -0.674859       -18.3638
  22   2.0000      -0.640400       -17.4262
  23   2.0000      -0.623133       -16.9563
  24   2.0000      -0.604147       -16.4397
  25   2.0000      -0.596825       -16.2404
  26   2.0000      -0.558240       -15.1905
  27   2.0000      -0.553997       -15.0750
  28   2.0000      -0.541269       -14.7287
  29   2.0000      -0.479194       -13.0395
  30   2.0000      -0.461266       -12.5517
  31   2.0000      -0.455458       -12.3936
  32   2.0000      -0.449962       -12.2441
  33   2.0000      -0.416302       -11.3281
  34   0.0000       0.128216         3.4889
  35   0.0000       0.139481         3.7955
  36   0.0000       0.162007         4.4084
  37   0.0000       0.169320         4.6074
  38   0.0000       0.184260         5.0140

MULLIKEN ATOMIC CHARGES
-----------------------
   0 O :   -0.318285
   1 C :    0.332363
   2 N :   -0.345450
   3 C :   -0.173010
   4 C :    0.122638
   5 O :   -0.261472
   6 C :    0.007147
   7 C :   -0.081647
   8 O :   -0.339314
   9 H :    0.254202
  10 H :    0.149355
  11 H :    0.130250
  12 H :    0.110726
  13 H :    0.138162
  14 H :    0.122074
  15 H :    0.152261
Sum of atomic charges:    0.0000000

LOEWDIN ATOMIC CHARGES
----------------------
   0 O :    0.105578
   1 C :   -0.567360
   2 N :    0.086894
   3 C :   -0.245741
   4 C :   -0.263754
   5 O :    0.265212
   6 C :   -0.287311
   7 C :   -0.245514
   8 O :    0.150555
   9 H :    0.190494
  10 H :    0.136008
  11 H :    0.131919
  12 H :    0.149236
  13 H :    0.142886
  14 H :    0.120990
  15 H :    0.129906

  Mayer bond orders larger than 0.1
B(  0-O ,  1-C ) :   2.0408 B(  1-C ,  2-N ) :   1.1225 B(  1-C ,  5-O ) :   1.0490
B(  2-N ,  3-C ) :   0.9183 B(  2-N ,  9-H ) :   0.8681 B(  3-C ,  4-C ) :   0.9088
B(  3-C , 10-H ) :   0.9282 B(  3-C , 11-H ) :   0.9215 B(  4-C ,  5-O ) :   0.9118
B(  4-C ,  6-C ) :   0.9243 B(  4-C , 12-H ) :   0.9237 B(  6-C ,  7-C ) :   0.9942
B(  6-C ,  8-O ) :   0.8691 B(  6-C , 13-H ) :   0.9084 B(  7-C ,  8-O ) :   0.9053
B(  7-C , 14-H ) :   0.9280 B(  7-C , 15-H ) :   0.8945

MP2 TOTAL ENERGY:     -474.296517231 Eh
FINAL SINGLE POINT ENERGY      -474.296517230843

DIPOLE MOMENT
-------------
                                X             Y             Z
Electronic contribution:     -0.41986      -4.76896       0.67944
Nuclear contribution   :      0.01776       6.58187      -0.46683
                        -----------------------------------------
Total Dipole Moment    :     -0.40210       1.81291       0.21261
                        -----------------------------------------
Magnitude (a.u.)       :      1.86910
Magnitude (Debye)      :      4.75087

                             ****ORCA TERMINATED NORMALLY****
TOTAL RUN TIME: 0 days 0 hours 14 minutes 3 seconds 447 msec
