                         Program Version 3.0.3 - RELEASE   -
|  1> ! RI-MP2 RIJK def2-TZVP def2-TZVP/C def2-TZVP/JK TIGHTSCF
|  2> % maxcore 2000
|  3> % mp2 density relaxed end
|  4> *xyz 0 1
|  5>  C        0.0291865799     1.4843834982    -0.1618281363
|  6>  C        0.0315545301    -0.0099637060     0.1982615861
|  7>  O        0.5793927292    -0.2171338581     1.4886256993
|  8>  C       -1.3468085150    -0.6059511940     0.0881307742
|  9>  N       -2.1046882564    -0.7517523874     1.1748765352
| 10>  N       -3.2305604377    -1.2673100863     0.7009842303
| 11>  N       -3.2739856631    -1.4773091157    -0.6070155866
| 12>  C       -2.0788849812    -1.0587648113    -1.0334178330
| 13>  C       -1.6890376582    -1.1142195030    -2.4742187723
| 14>  H        1.0410565276     1.8857729434    -0.0615838718
| 15>  H       -0.3128984707     1.6474624278    -1.1894991274
| 16>  H       -0.6343331566     2.0339623110     0.5132200882
| 17>  H        0.6927280636    -0.5340116752    -0.5051479627
| 18>  H       -0.1572300205    -0.2190697554     2.1116714118
| 19>  H       -3.9987690274    -1.5123362073     1.3037147996
| 20>  H       -1.5858108437    -0.1117025286    -2.9040780336
| 21>  H       -0.7290673813    -1.6244894278    -2.6066517892
| 22>  H       -2.4483169786    -1.6521429544    -3.0450865718
| 23> *
| 24>
| 25>                          ****END OF INPUT****

CARTESIAN COORDINATES (ANGSTROEM)
---------------------------------
  C      0.029187    1.484383   -0.161828
  C      0.031555   -0.009964    0.198262
  O      0.579393   -0.217134    1.488626
  C     -1.346809   -0.605951    0.088131
  N     -2.104688   -0.751752    1.174877
  N     -3.230560   -1.267310    0.700984
  N     -3.273986   -1.477309   -0.607016
  C     -2.078885   -1.058765   -1.033418
  C     -1.689038   -1.114220   -2.474219
  H      1.041057    1.885773   -0.061584
  H     -0.312898    1.647462   -1.189499
  H     -0.634333    2.033962    0.513220
  H      0.692728   -0.534012   -0.505148
  H     -0.157230   -0.219070    2.111671
  H     -3.998769   -1.512336    1.303715
  H     -1.585811   -0.111703   -2.904078
  H     -0.729067   -1.624489   -2.606652
  H     -2.448317   -1.652143   -3.045087

 Total Charge           Charge          ....    0
 Multiplicity           Mult            ....    1
 Number of Electrons    NEL             ....   68
 Basis Dimension        Dim             ....  333

ORBITAL ENERGIES
----------------

  NO   OCC          E(Eh)            E(eV)
   0   2.0000     -20.551522      -559.2353
   1   2.0000     -15.677955      -426.6188
   2   2.0000     -15.617589      -424.9762
   3   2.0000     -15.616152      -424.9371
   4   2.0000     -11.295519      -307.3667
   5   2.0000     -11.272734      -306.7467
   6   2.0000     -11.267957      -306.6167
   7   2.0000     -11.238710      -305.8208
   8   2.0000     -11.221035      -305.3399
   9   2.0000      -1.449177       -39.4341
  10   2.0000      -1.362917       -37.0869
  11   2.0000      -1.198133       -32.6029
  12   2.0000      -1.126681       -30.6585
  13   2.0000      -1.020145       -27.7596
  14   2.0000      -0.986269       -26.8377
  15   2.0000      -0.889825       -24.2134
  16   2.0000      -0.815269       -22.1846
  17   2.0000      -0.798403       -21.7257
  18   2.0000      -0.754453       -20.5297
  19   2.0000      -0.675190       -18.3728
  20   2.0000      -0.661612       -18.0034
  21   2.0000      -0.630556       -17.1583
  22   2.0000      -0.593231       -16.1426
  23   2.0000      -0.590103       -16.0575
  24   2.0000      -0.578495       -15.7416
  25   2.0000      -0.564764       -15.3680
  26   2.0000      -0.561695       -15.2845
  27   2.0000      -0.535544       -14.5729
  28   2.0000      -0.509868       -13.8742
  29   2.0000      -0.488768       -13.3001
  30   2.0000      -0.474593       -12.9143
  31   2.0000      -0.447262       -12.1706
  32   2.0000      -0.399533       -10.8718
  33   2.0000      -0.360886        -9.8202
  34   0.0000       0.130055         3.5390
  35   0.0000       0.132098         3.5946
  36   0.0000       0.137215         3.7338
  37   0.0000       0.164235         4.4691
  38   0.0000       0.184033         5.0078

MULLIKEN ATOMIC CHARGES
-----------------------
   0 C :   -0.361301
   1 C :    0.098745
   2 O :   -0.473468
   3 C :    0.051863
   4 N :   -0.237460
   5 N :   -0.023494
   6 N :   -0.177956
   7 C :    0.037126
   8 C :   -0.443406
   9 H :    0.138824
  10 H :    0.117858
  11 H :    0.120945
  12 H :    0.093664
  13 H :    0.333088
  14 H :    0.269129
  15 H :    0.145760
  16 H :    0.149150
  17 H :    0.160934
Sum of atomic charges:    0.0000000

LOEWDIN ATOMIC CHARGES
----------------------
   0 C :   -0.288826
   1 C :   -0.341272
   2 O :   -0.010978
   3 C :   -0.248910
   4 N :    0.034874
   5 N :    0.064244
   6 N :    0.046759
   7 C :   -0.280217
   8 C :   -0.271470
   9 H :    0.126542
  10 H :    0.122788
  11 H :    0.125050
  12 H :    0.149460
  13 H :    0.177256
  14 H :    0.188130
  15 H :    0.132782
  16 H :    0.134768
  17 H :    0.139021

  Mayer bond orders larger than 0.1
B(  0-C ,  1-C ) :   0.9014 B(  0-C ,  9-H ) :   0.9358 B(  0-C , 10-H ) :   0.9258
B(  0-C , 11-H ) :   0.9281 B(  1-C ,  2-O ) :   0.9965 B(  1-C ,  3-C ) :   0.9336
B(  1-C , 12-H ) :   0.9260 B(  2-O , 13-H ) :   0.8236 B(  3-C ,  4-N ) :   1.4420
B(  3-C ,  7-C ) :   1.3091 B(  4-N ,  5-N ) :   1.1542 B(  5-N ,  6-N ) :   1.1407
B(  5-N , 14-H ) :   0.8751 B(  6-N ,  7-C ) :   1.5391 B(  7-C ,  8-C ) :   0.8645
B(  8-C , 15-H ) :   0.9300 B(  8-C , 16-H ) :   0.9392 B(  8-C , 17-H ) :   0.9447

MP2 TOTAL ENERGY:     -434.567714919 Eh
FINAL SINGLE POINT ENERGY      -434.567714918829

DIPOLE MOMENT
-------------
                                X             Y             Z
Electronic contribution:     -4.92130      -4.35218       5.27055
Nuclear contribution   :      4.34382       4.44238      -5.59457
                        -----------------------------------------
Total Dipole Moment    :     -0.57748       0.09020      -0.32402
                        -----------------------------------------
Magnitude (a.u.)       :      0.66829
Magnitude (Debye)      :      1.69865

                             ****ORCA TERMINATED NORMALLY****
TOTAL RUN TIME: 0 days 0 hours 16 minutes 43 seconds 162 msec
