                         Program Version 3.0.3 - RELEASE   -
|  1> ! RI-MP2 RIJK def2-TZVP def2-TZVP/C def2-TZVP/JK TIGHTSCF
|  2> % maxcore 2000
|  3> % mp2 density relaxed end
|  4> *xyz 0 1
|  5>  C       -0.0634358504     1.5751300119     0.2177987094
|  6>  C        1.4451136592     1.3918940742     0.0286563496
|  7>  O        1.8053906626     0.5645483222     1.1652846808
|  8>  C        0.7369773414    -0.4280876415     1.1966503086
|  9>  C       -0.0358901975     0.0203127620    -0.0332907452
| 10>  C       -1.1669093790    -0.6178570681    -0.8245858767
| 11>  C       -0.8357784633    -0.1161954504    -2.2278180587
| 12>  C        0.3852195627     0.4257119118    -2.3249608653
| 13>  C        1.1480957982     0.2992065882    -1.0346090320
| 14>  H       -0.3967775834     1.9252975742     1.1975913149
| 15>  H       -0.5546558826     2.1191450100    -0.5870679329
| 16>  H        2.1759807969     2.1943841699    -0.0638199483
| 17>  H        1.1613497199    -1.4349538190     1.1108220737
| 18>  H        0.1877802159    -0.3491264139     2.1424110118
| 19>  H       -1.1574333024    -1.7163529134    -0.7839142329
| 20>  H       -2.1600757085    -0.2970474234    -0.4883501409
| 21>  H       -1.5400952596    -0.2019885930    -3.0492734607
| 22>  H        0.8134626421     0.8129371537    -3.2433176086
| 23>  H        1.9521057275    -0.4441631254    -1.1036672165
| 24> *
| 25>
| 26>                          ****END OF INPUT****

CARTESIAN COORDINATES (ANGSTROEM)
---------------------------------
  C     -0.063436    1.575130    0.217799
  C      1.445114    1.391894    0.028656
  O      1.805391    0.564548    1.165285
  C      0.736977   -0.428088    1.196650
  C     -0.035890    0.020313   -0.033291
  C     -1.166909   -0.617857   -0.824586
  C     -0.835778   -0.116195   -2.227818
  C      0.385220    0.425712   -2.324961
  C      1.148096    0.299207   -1.034609
  H     -0.396778    1.925298    1.197591
  H     -0.554656    2.119145   -0.587068
  H      2.175981    2.194384   -0.063820
  H      1.161350   -1.434954    1.110822
  H      0.187780   -0.349126    2.142411
  H     -1.157433   -1.716353   -0.783914
  H     -2.160076   -0.297047   -0.488350
  H     -1.540095   -0.201989   -3.049273
  H      0.813463    0.812937   -3.243318
  H      1.952106   -0.444163   -1.103667

 Total Charge           Charge          ....    0
 Multiplicity           Mult            ....    1
 Number of Electrons    NEL             ....   66
 Basis Dimension        Dim             ....  339

ORBITAL ENERGIES
----------------

  NO   OCC          E(Eh)            E(eV)
   0   2.0000     -20.544914      -559.0555
   1   2.0000     -11.282490      -307.0122
   2   2.0000     -11.272560      -306.7420
   3   2.0000     -11.242226      -305.9165
   4   2.0000     -11.236418      -305.7585
   5   2.0000     -11.234524      -305.7069
   6   2.0000     -11.231187      -305.6161
   7   2.0000     -11.228633      -305.5466
   8   2.0000     -11.219630      -305.3017
   9   2.0000      -1.371468       -37.3195
  10   2.0000      -1.163342       -31.6561
  11   2.0000      -1.046539       -28.4778
  12   2.0000      -0.993815       -27.0431
  13   2.0000      -0.940354       -25.5883
  14   2.0000      -0.890163       -24.2226
  15   2.0000      -0.793033       -21.5795
  16   2.0000      -0.755569       -20.5601
  17   2.0000      -0.723217       -19.6797
  18   2.0000      -0.683268       -18.5927
  19   2.0000      -0.654237       -17.8027
  20   2.0000      -0.639263       -17.3952
  21   2.0000      -0.613887       -16.7047
  22   2.0000      -0.574837       -15.6421
  23   2.0000      -0.546268       -14.8647
  24   2.0000      -0.540398       -14.7050
  25   2.0000      -0.520244       -14.1566
  26   2.0000      -0.508902       -13.8479
  27   2.0000      -0.501446       -13.6450
  28   2.0000      -0.469171       -12.7668
  29   2.0000      -0.441846       -12.0232
  30   2.0000      -0.414657       -11.2834
  31   2.0000      -0.401867       -10.9353
  32   2.0000      -0.348513        -9.4835
  33   0.0000       0.138998         3.7823
  34   0.0000       0.145379         3.9560
  35   0.0000       0.170016         4.6264
  36   0.0000       0.172953         4.7063
  37   0.0000       0.179972         4.8973

MULLIKEN ATOMIC CHARGES
-----------------------
   0 C :   -0.268581
   1 C :    0.065007
   2 O :   -0.330131
   3 C :   -0.043168
   4 C :    0.024930
   5 C :   -0.148839
   6 C :   -0.195341
   7 C :   -0.187612
   8 C :   -0.121557
   9 H :    0.118182
  10 H :    0.133190
  11 H :    0.125987
  12 H :    0.106078
  13 H :    0.106320
  14 H :    0.118322
  15 H :    0.127710
  16 H :    0.127116
  17 H :    0.130939
  18 H :    0.111447
Sum of atomic charges:    0.0000000

LOEWDIN ATOMIC CHARGES
----------------------
   0 C :   -0.173538
   1 C :   -0.251366
   2 O :    0.140895
   3 C :   -0.242871
   4 C :   -0.205792
   5 C :   -0.203594
   6 C :   -0.141246
   7 C :   -0.143696
   8 C :   -0.146975
   9 H :    0.131462
  10 H :    0.144546
  11 H :    0.128710
  12 H :    0.124635
  13 H :    0.122877
  14 H :    0.145137
  15 H :    0.144250
  16 H :    0.134856
  17 H :    0.138146
  18 H :    0.153563

  Mayer bond orders larger than 0.1
B(  0-C ,  1-C ) :   0.9342 B(  0-C ,  4-C ) :   0.9177 B(  0-C ,  9-H ) :   0.9226
B(  0-C , 10-H ) :   0.9047 B(  1-C ,  2-O ) :   0.9132 B(  1-C ,  8-C ) :   0.9057
B(  1-C , 11-H ) :   0.9112 B(  2-O ,  3-C ) :   0.9370 B(  3-C ,  4-C ) :   0.9571
B(  3-C , 12-H ) :   0.9268 B(  3-C , 13-H ) :   0.9175 B(  4-C ,  5-C ) :   0.9123
B(  4-C ,  8-C ) :   0.8442 B(  5-C ,  6-C ) :   0.9454 B(  5-C , 14-H ) :   0.8983
B(  5-C , 15-H ) :   0.9146 B(  6-C ,  7-C ) :   1.7616 B(  6-C , 16-H ) :   0.9275
B(  7-C ,  8-C ) :   0.9105 B(  7-C , 17-H ) :   0.9296 B(  8-C , 18-H ) :   0.9148

MP2 TOTAL ENERGY:     -385.189282840 Eh
FINAL SINGLE POINT ENERGY      -385.189282839828

DIPOLE MOMENT
-------------
                                X             Y             Z
Electronic contribution:      2.63674       0.65835       0.52968
Nuclear contribution   :     -3.27095      -0.79757      -0.98570
                        -----------------------------------------
Total Dipole Moment    :     -0.63420      -0.13922      -0.45602
                        -----------------------------------------
Magnitude (a.u.)       :      0.79344
Magnitude (Debye)      :      2.01678

                             ****ORCA TERMINATED NORMALLY****
TOTAL RUN TIME: 0 days 0 hours 18 minutes 46 seconds 88 msec
