                         Program Version 3.0.3 - RELEASE   -
|  1> ! RI-MP2 RIJK def2-TZVP def2-TZVP/C def2-TZVP/JK TIGHTSCF
|  2> % maxcore 2000
|  3> % mp2 density relaxed end
|  4> *xyz 0 1
|  5>  O        0.3159202026     1.0135986215     0.6856381153
|  6>  C       -0.0442381619     0.1747097985    -0.4021777924
|  7>  C       -1.4212537282    -0.3138491431    -0.3318495378
|  8>  C       -2.5444534333    -0.7321043558    -0.2109192213
|  9>  C       -3.9148260404    -1.2183915074    -0.1030499370
| 10>  C       -4.6735268476    -1.2447462303    -1.4710368481
| 11>  O       -5.1011108648    -2.6187423667    -1.6069616748
| 12>  C       -4.6294979862    -3.2572567212    -0.5121128960
| 13>  N       -3.9789771974    -2.6268918428     0.3729034337
| 14>  H        0.1050492513     0.5389535563     1.4966258929
| 15>  H        0.0951718263     0.7807249120    -1.3043656115
| 16>  H        0.6382659915    -0.6857163752    -0.4905478337
| 17>  H       -4.4509823363    -0.5945945856     0.6223947094
| 18>  H       -5.5591296800    -0.6058409903    -1.4811807460
| 19>  H       -4.0291906830    -0.9952816086    -2.3161519812
| 20>  H       -4.8639792725    -4.3155973312    -0.4789828115
| 21> *
| 22>
| 23>                          ****END OF INPUT****

CARTESIAN COORDINATES (ANGSTROEM)
---------------------------------
  O      0.315920    1.013599    0.685638
  C     -0.044238    0.174710   -0.402178
  C     -1.421254   -0.313849   -0.331850
  C     -2.544453   -0.732104   -0.210919
  C     -3.914826   -1.218392   -0.103050
  C     -4.673527   -1.244746   -1.471037
  O     -5.101111   -2.618742   -1.606962
  C     -4.629498   -3.257257   -0.512113
  N     -3.978977   -2.626892    0.372903
  H      0.105049    0.538954    1.496626
  H      0.095172    0.780725   -1.304366
  H      0.638266   -0.685716   -0.490548
  H     -4.450982   -0.594595    0.622395
  H     -5.559130   -0.605841   -1.481181
  H     -4.029191   -0.995282   -2.316152
  H     -4.863979   -4.315597   -0.478983

 Total Charge           Charge          ....    0
 Multiplicity           Mult            ....    1
 Number of Electrons    NEL             ....   66
 Basis Dimension        Dim             ....  321

ORBITAL ENERGIES
----------------

  NO   OCC          E(Eh)            E(eV)
   0   2.0000     -20.607156      -560.7492
   1   2.0000     -20.566954      -559.6553
   2   2.0000     -15.560573      -423.4247
   3   2.0000     -11.342345      -308.6409
   4   2.0000     -11.308039      -307.7074
   5   2.0000     -11.306244      -307.6585
   6   2.0000     -11.301530      -307.5303
   7   2.0000     -11.237478      -305.7873
   8   2.0000     -11.233159      -305.6698
   9   2.0000      -1.449764       -39.4501
  10   2.0000      -1.371572       -37.3224
  11   2.0000      -1.227149       -33.3924
  12   2.0000      -1.080685       -29.4069
  13   2.0000      -1.028810       -27.9953
  14   2.0000      -0.948584       -25.8123
  15   2.0000      -0.881171       -23.9779
  16   2.0000      -0.817699       -22.2507
  17   2.0000      -0.736288       -20.0354
  18   2.0000      -0.721283       -19.6271
  19   2.0000      -0.708028       -19.2664
  20   2.0000      -0.663274       -18.0486
  21   2.0000      -0.636602       -17.3228
  22   2.0000      -0.620732       -16.8910
  23   2.0000      -0.611251       -16.6330
  24   2.0000      -0.583927       -15.8895
  25   2.0000      -0.549600       -14.9554
  26   2.0000      -0.541601       -14.7377
  27   2.0000      -0.537596       -14.6287
  28   2.0000      -0.477986       -13.0067
  29   2.0000      -0.454062       -12.3557
  30   2.0000      -0.402529       -10.9534
  31   2.0000      -0.390769       -10.6334
  32   2.0000      -0.382513       -10.4087
  33   0.0000       0.125292         3.4094
  34   0.0000       0.145455         3.9580
  35   0.0000       0.158369         4.3095
  36   0.0000       0.165617         4.5067
  37   0.0000       0.170355         4.6356

MULLIKEN ATOMIC CHARGES
-----------------------
   0 O :   -0.460001
   1 C :   -0.059646
   2 C :   -0.021697
   3 C :   -0.050433
   4 C :   -0.071271
   5 C :   -0.050141
   6 O :   -0.265130
   7 C :    0.112191
   8 N :   -0.271104
   9 H :    0.322353
  10 H :    0.137082
  11 H :    0.136805
  12 H :    0.134372
  13 H :    0.121317
  14 H :    0.132562
  15 H :    0.152740
Sum of atomic charges:   -0.0000000

LOEWDIN ATOMIC CHARGES
----------------------
   0 O :   -0.040235
   1 C :   -0.333418
   2 C :   -0.075868
   3 C :   -0.051143
   4 C :   -0.260191
   5 C :   -0.219276
   6 O :    0.214649
   7 C :   -0.346970
   8 N :    0.089545
   9 H :    0.178830
  10 H :    0.145590
  11 H :    0.136101
  12 H :    0.165023
  13 H :    0.127786
  14 H :    0.132762
  15 H :    0.136814

  Mayer bond orders larger than 0.1
B(  0-O ,  1-C ) :   0.9522 B(  0-O ,  9-H ) :   0.8414 B(  1-C ,  2-C ) :   0.8721
B(  1-C , 10-H ) :   0.9204 B(  1-C , 11-H ) :   0.9759 B(  2-C ,  3-C ) :   2.6972
B(  2-C ,  4-C ) :  -0.1106 B(  3-C ,  4-C ) :   1.0570 B(  4-C ,  5-C ) :   0.9435
B(  4-C ,  8-N ) :   0.9507 B(  4-C , 12-H ) :   0.9104 B(  5-C ,  6-O ) :   0.8768
B(  5-C , 13-H ) :   0.9182 B(  5-C , 14-H ) :   0.9286 B(  6-O ,  7-C ) :   1.0698
B(  7-C ,  8-N ) :   1.8077 B(  7-C , 15-H ) :   0.9181

MP2 TOTAL ENERGY:     -437.124717748 Eh
FINAL SINGLE POINT ENERGY      -437.124717748267

DIPOLE MOMENT
-------------
                                X             Y             Z
Electronic contribution:     -2.22248      -2.34829       0.71647
Nuclear contribution   :      1.81882       2.23444      -1.08605
                        -----------------------------------------
Total Dipole Moment    :     -0.40365      -0.11386      -0.36958
                        -----------------------------------------
Magnitude (a.u.)       :      0.55901
Magnitude (Debye)      :      1.42088

                             ****ORCA TERMINATED NORMALLY****
TOTAL RUN TIME: 0 days 0 hours 12 minutes 54 seconds 978 msec
