                         Program Version 3.0.3 - RELEASE   -
|  1> ! RI-MP2 RIJK def2-TZVP def2-TZVP/C def2-TZVP/JK TIGHTSCF
|  2> % maxcore 2000
|  3> % mp2 density relaxed end
|  4> *xyz 0 1
|  5>  O        0.0986725616     1.1988045972    -0.4275768899
|  6>  C        0.0522194410    -0.1763953516    -0.0703052797
|  7>  C       -1.4072969955    -0.5743627444     0.0100584606
|  8>  C       -2.2350428810    -0.6198284468    -1.3102066989
|  9>  C       -2.7188663705    -2.0554843471    -0.9475125455
| 10>  O       -2.3017542193    -3.1164780763    -1.7850950667
| 11>  C       -0.9406030359    -3.3219195553    -1.4959782066
| 12>  O       -0.7423418451    -3.0186568678    -0.1264585866
| 13>  C       -1.7361063873    -2.0778385081     0.2579693728
| 14>  H        1.0210440175     1.4506396731    -0.5301050154
| 15>  H        0.5725466443    -0.7992837903    -0.8133417892
| 16>  H        0.5396885913    -0.3581692036     0.9008501739
| 17>  H       -1.8980774990     0.0493614663     0.7638750427
| 18>  H       -3.0212693070     0.1303555753    -1.4090874496
| 19>  H       -1.6237741303    -0.5974655641    -2.2162662572
| 20>  H       -3.7858659631    -2.1724368125    -0.7563116591
| 21>  H       -0.6927952774    -4.3730782906    -1.6711281836
| 22>  H       -0.3032865624    -2.6765411743    -2.1259516484
| 23>  H       -2.0903034619    -2.3511821691     1.2540369562
| 24> *
| 25>
| 26>                          ****END OF INPUT****

CARTESIAN COORDINATES (ANGSTROEM)
---------------------------------
  O      0.098673    1.198805   -0.427577
  C      0.052219   -0.176395   -0.070305
  C     -1.407297   -0.574363    0.010058
  C     -2.235043   -0.619828   -1.310207
  C     -2.718866   -2.055484   -0.947513
  O     -2.301754   -3.116478   -1.785095
  C     -0.940603   -3.321920   -1.495978
  O     -0.742342   -3.018657   -0.126459
  C     -1.736106   -2.077839    0.257969
  H      1.021044    1.450640   -0.530105
  H      0.572547   -0.799284   -0.813342
  H      0.539689   -0.358169    0.900850
  H     -1.898077    0.049361    0.763875
  H     -3.021269    0.130356   -1.409087
  H     -1.623774   -0.597466   -2.216266
  H     -3.785866   -2.172437   -0.756312
  H     -0.692795   -4.373078   -1.671128
  H     -0.303287   -2.676541   -2.125952
  H     -2.090303   -2.351182    1.254037

 Total Charge           Charge          ....    0
 Multiplicity           Mult            ....    1
 Number of Electrons    NEL             ....   70
 Basis Dimension        Dim             ....  339

ORBITAL ENERGIES
----------------

  NO   OCC          E(Eh)            E(eV)
   0   2.0000     -20.567599      -559.6728
   1   2.0000     -20.567074      -559.6585
   2   2.0000     -20.558345      -559.4210
   3   2.0000     -11.330366      -308.3149
   4   2.0000     -11.284540      -307.0679
   5   2.0000     -11.283769      -307.0470
   6   2.0000     -11.277796      -306.8844
   7   2.0000     -11.231703      -305.6302
   8   2.0000     -11.224442      -305.4326
   9   2.0000      -1.441714       -39.2310
  10   2.0000      -1.362050       -37.0633
  11   2.0000      -1.337588       -36.3976
  12   2.0000      -1.126112       -30.6431
  13   2.0000      -0.980500       -26.6808
  14   2.0000      -0.935443       -25.4547
  15   2.0000      -0.871118       -23.7043
  16   2.0000      -0.823686       -22.4136
  17   2.0000      -0.763433       -20.7741
  18   2.0000      -0.726857       -19.7788
  19   2.0000      -0.707139       -19.2422
  20   2.0000      -0.686083       -18.6693
  21   2.0000      -0.647504       -17.6195
  22   2.0000      -0.626385       -17.0448
  23   2.0000      -0.603747       -16.4288
  24   2.0000      -0.598728       -16.2922
  25   2.0000      -0.572601       -15.5813
  26   2.0000      -0.558793       -15.2055
  27   2.0000      -0.531290       -14.4571
  28   2.0000      -0.510680       -13.8963
  29   2.0000      -0.508273       -13.8308
  30   2.0000      -0.481835       -13.1114
  31   2.0000      -0.454123       -12.3573
  32   2.0000      -0.430785       -11.7223
  33   2.0000      -0.419508       -11.4154
  34   2.0000      -0.413584       -11.2542
  35   0.0000       0.132200         3.5973
  36   0.0000       0.146028         3.9736
  37   0.0000       0.165659         4.5078
  38   0.0000       0.175116         4.7651
  39   0.0000       0.188646         5.1333

MULLIKEN ATOMIC CHARGES
-----------------------
   0 O :   -0.467231
   1 C :   -0.097192
   2 C :   -0.036107
   3 C :   -0.263094
   4 C :    0.022529
   5 O :   -0.309344
   6 C :    0.088315
   7 O :   -0.333165
   8 C :    0.079629
   9 H :    0.316959
  10 H :    0.095985
  11 H :    0.103330
  12 H :    0.100178
  13 H :    0.129820
  14 H :    0.121980
  15 H :    0.114918
  16 H :    0.127479
  17 H :    0.081306
  18 H :    0.123703
Sum of atomic charges:   -0.0000000

LOEWDIN ATOMIC CHARGES
----------------------
   0 O :   -0.047339
   1 C :   -0.331722
   2 C :   -0.220783
   3 C :   -0.196297
   4 C :   -0.269715
   5 O :    0.179523
   6 C :   -0.370600
   7 O :    0.171852
   8 C :   -0.245951
   9 H :    0.172139
  10 H :    0.118091
  11 H :    0.120853
  12 H :    0.155093
  13 H :    0.132034
  14 H :    0.141280
  15 H :    0.137582
  16 H :    0.119679
  17 H :    0.101027
  18 H :    0.133253

  Mayer bond orders larger than 0.1
B(  0-O ,  1-C ) :   1.0270 B(  0-O ,  9-H ) :   0.8485 B(  1-C ,  2-C ) :   0.9106
B(  1-C , 10-H ) :   0.9195 B(  1-C , 11-H ) :   0.9338 B(  2-C ,  3-C ) :   0.9386
B(  2-C ,  8-C ) :   0.9071 B(  2-C , 12-H ) :   0.9098 B(  3-C ,  4-C ) :   0.9038
B(  3-C , 13-H ) :   0.9201 B(  3-C , 14-H ) :   0.9055 B(  4-C ,  5-O ) :   0.9558
B(  4-C ,  8-C ) :   0.9220 B(  4-C , 15-H ) :   0.9276 B(  5-O ,  6-C ) :   0.9718
B(  6-C ,  7-O ) :   0.9593 B(  6-C , 16-H ) :   0.9255 B(  6-C , 17-H ) :   0.9242
B(  7-O ,  8-C ) :   0.9107 B(  8-C , 18-H ) :   0.9358

MP2 TOTAL ENERGY:     -459.411178780 Eh
FINAL SINGLE POINT ENERGY      -459.411178780379

DIPOLE MOMENT
-------------
                                X             Y             Z
Electronic contribution:     -1.04487      -2.98705       0.08241
Nuclear contribution   :      1.42573       3.20460       0.05640
                        -----------------------------------------
Total Dipole Moment    :      0.38086       0.21755       0.13881
                        -----------------------------------------
Magnitude (a.u.)       :      0.46005
Magnitude (Debye)      :      1.16936

                             ****ORCA TERMINATED NORMALLY****
TOTAL RUN TIME: 0 days 0 hours 26 minutes 24 seconds 759 msec
