                         Program Version 3.0.3 - RELEASE   -
|  1> ! RI-MP2 RIJK def2-TZVP def2-TZVP/C def2-TZVP/JK TIGHTSCF
|  2> % maxcore 2000
|  3> % mp2 density relaxed end
|  4> *xyz 0 1
|  5>  O       -0.1164860993     1.4514888757     0.1276387072
|  6>  C        0.0101529050     0.0537071659     0.0166922231
|  7>  C        0.2834163450    -0.7154619182     1.3519141337
|  8>  N       -1.1194228819    -1.2434798456     1.3363539679
|  9>  C       -1.3831744466    -0.6387587600    -0.0196092381
| 10>  C       -2.5993719599     0.1233906002     0.5440338882
| 11>  C       -2.1068480252    -0.3881566732     1.9165936933
| 12>  O       -2.3290085444    -0.1329532493     3.0623880920
| 13>  H        0.7535333209     1.8270329974     0.2979064793
| 14>  H        0.6739437423    -0.2267931574    -0.8115655621
| 15>  H        1.0203203449    -1.5191685361     1.2735118842
| 16>  H        0.5039713863    -0.0924673353     2.2230984619
| 17>  H       -1.5515262041    -1.3326262469    -0.8441137280
| 18>  H       -2.5722391940     1.2101010780     0.4587824601
| 19>  H       -3.5715938591    -0.2520134652     0.2168027574
| 20> *
| 21>
| 22>                          ****END OF INPUT****

CARTESIAN COORDINATES (ANGSTROEM)
---------------------------------
  O     -0.116486    1.451489    0.127639
  C      0.010153    0.053707    0.016692
  C      0.283416   -0.715462    1.351914
  N     -1.119423   -1.243480    1.336354
  C     -1.383174   -0.638759   -0.019609
  C     -2.599372    0.123391    0.544034
  C     -2.106848   -0.388157    1.916594
  O     -2.329009   -0.132953    3.062388
  H      0.753533    1.827033    0.297906
  H      0.673944   -0.226793   -0.811566
  H      1.020320   -1.519169    1.273512
  H      0.503971   -0.092467    2.223098
  H     -1.551526   -1.332626   -0.844114
  H     -2.572239    1.210101    0.458782
  H     -3.571594   -0.252013    0.216803

 Total Charge           Charge          ....    0
 Multiplicity           Mult            ....    1
 Number of Electrons    NEL             ....   60
 Basis Dimension        Dim             ....  290

ORBITAL ENERGIES
----------------

  NO   OCC          E(Eh)            E(eV)
   0   2.0000     -20.581916      -560.0624
   1   2.0000     -20.542593      -558.9924
   2   2.0000     -15.571621      -423.7253
   3   2.0000     -11.352175      -308.9084
   4   2.0000     -11.308290      -307.7142
   5   2.0000     -11.278334      -306.8991
   6   2.0000     -11.277516      -306.8768
   7   2.0000     -11.247775      -306.0675
   8   2.0000      -1.402434       -38.1622
   9   2.0000      -1.390070       -37.8257
  10   2.0000      -1.283507       -34.9260
  11   2.0000      -1.043794       -28.4031
  12   2.0000      -0.989538       -26.9267
  13   2.0000      -0.887957       -24.1625
  14   2.0000      -0.815196       -22.1826
  15   2.0000      -0.733754       -19.9665
  16   2.0000      -0.704231       -19.1631
  17   2.0000      -0.694693       -18.9036
  18   2.0000      -0.670969       -18.2580
  19   2.0000      -0.642785       -17.4911
  20   2.0000      -0.624937       -17.0054
  21   2.0000      -0.586061       -15.9475
  22   2.0000      -0.564337       -15.3564
  23   2.0000      -0.548823       -14.9342
  24   2.0000      -0.522527       -14.2187
  25   2.0000      -0.501794       -13.6545
  26   2.0000      -0.480707       -13.0807
  27   2.0000      -0.455044       -12.3824
  28   2.0000      -0.422894       -11.5075
  29   2.0000      -0.384607       -10.4657
  30   0.0000       0.117786         3.2051
  31   0.0000       0.147459         4.0126
  32   0.0000       0.156990         4.2719
  33   0.0000       0.166029         4.5179
  34   0.0000       0.172486         4.6936

MULLIKEN ATOMIC CHARGES
-----------------------
   0 O :   -0.453959
   1 C :   -0.007902
   2 C :   -0.155910
   3 N :   -0.133385
   4 C :    0.002157
   5 C :   -0.264306
   6 C :    0.178541
   7 O :   -0.270770
   8 H :    0.322674
   9 H :    0.098764
  10 H :    0.129603
  11 H :    0.128638
  12 H :    0.123292
  13 H :    0.153453
  14 H :    0.149109
Sum of atomic charges:    0.0000000

LOEWDIN ATOMIC CHARGES
----------------------
   0 O :   -0.005392
   1 C :   -0.313979
   2 C :   -0.218777
   3 N :    0.162368
   4 C :   -0.186051
   5 C :   -0.191160
   6 C :   -0.394840
   7 O :    0.148357
   8 H :    0.180319
   9 H :    0.126306
  10 H :    0.128899
  11 H :    0.131924
  12 H :    0.134779
  13 H :    0.152156
  14 H :    0.145091

  Mayer bond orders larger than 0.1
B(  0-O ,  1-C ) :   1.0833 B(  0-O ,  8-H ) :   0.8373 B(  1-C ,  2-C ) :   0.9309
B(  1-C ,  4-C ) :   0.8847 B(  1-C ,  9-H ) :   0.9416 B(  2-C ,  3-N ) :   0.8860
B(  2-C , 10-H ) :   0.9136 B(  2-C , 11-H ) :   0.9196 B(  3-N ,  4-C ) :   0.9232
B(  3-N ,  6-C ) :   1.0027 B(  4-C ,  5-C ) :   0.9603 B(  4-C , 12-H ) :   0.8986
B(  5-C ,  6-C ) :   0.9267 B(  5-C , 13-H ) :   0.8817 B(  5-C , 14-H ) :   0.9028
B(  6-C ,  7-O ) :   2.0355

MP2 TOTAL ENERGY:     -399.129784060 Eh
FINAL SINGLE POINT ENERGY      -399.129784060074

DIPOLE MOMENT
-------------
                                X             Y             Z
Electronic contribution:     -1.97581      -0.39386       2.94516
Nuclear contribution   :      3.04847       0.55596      -4.21285
                        -----------------------------------------
Total Dipole Moment    :      1.07267       0.16211      -1.26769
                        -----------------------------------------
Magnitude (a.u.)       :      1.66851
Magnitude (Debye)      :      4.24102

                             ****ORCA TERMINATED NORMALLY****
TOTAL RUN TIME: 0 days 0 hours 12 minutes 35 seconds 171 msec
