                         Program Version 3.0.3 - RELEASE   -
|  1> ! RI-MP2 RIJK def2-TZVP def2-TZVP/C def2-TZVP/JK TIGHTSCF
|  2> % maxcore 2000
|  3> % mp2 density relaxed end
|  4> *xyz 0 1
|  5>  C       -0.0801761947     1.4494299554     0.1207930263
|  6>  N       -0.0813655609     0.0006234356     0.1937806651
|  7>  C        0.8175866087    -0.6997272099     0.9336035855
|  8>  O        1.6993558836    -0.1334012776     1.5871668500
|  9>  C        0.6773327669    -2.1893999203     0.9353762140
| 10>  C       -0.4669521110    -2.8334887535     0.1787315656
| 11>  C        2.0124514660    -2.9475437359     1.0060077784
| 12>  C        1.1668440184    -2.8670625514     2.2331165710
| 13>  O        1.5356302497    -2.1463645021     3.3487776349
| 14>  H        0.1138479931     1.7960907016    -0.9003758346
| 15>  H       -1.0386273708     1.8613380702     0.4546459620
| 16>  H        0.7127689025     1.8103257825     0.7756149195
| 17>  H       -0.7662087978    -0.5051612421    -0.3405423618
| 18>  H       -0.3933319906    -2.6661261380    -0.9039014005
| 19>  H       -0.4593661062    -3.9166406846     0.3303559228
| 20>  H       -1.4430780734    -2.4695905721     0.5212354046
| 21>  H        2.0751886978    -3.8804316074     0.4550374892
| 22>  H        2.9049447285    -2.3320611511     0.9888568462
| 23>  H        0.6053749701    -3.7536836509     2.5145856641
| 24>  H        1.8393983500    -1.2785717485     3.0205237377
| 25> *
| 26>
| 27>                          ****END OF INPUT****

CARTESIAN COORDINATES (ANGSTROEM)
---------------------------------
  C     -0.080176    1.449430    0.120793
  N     -0.081366    0.000623    0.193781
  C      0.817587   -0.699727    0.933604
  O      1.699356   -0.133401    1.587167
  C      0.677333   -2.189400    0.935376
  C     -0.466952   -2.833489    0.178732
  C      2.012451   -2.947544    1.006008
  C      1.166844   -2.867063    2.233117
  O      1.535630   -2.146365    3.348778
  H      0.113848    1.796091   -0.900376
  H     -1.038627    1.861338    0.454646
  H      0.712769    1.810326    0.775615
  H     -0.766209   -0.505161   -0.340542
  H     -0.393332   -2.666126   -0.903901
  H     -0.459366   -3.916641    0.330356
  H     -1.443078   -2.469591    0.521235
  H      2.075189   -3.880432    0.455037
  H      2.904945   -2.332061    0.988857
  H      0.605375   -3.753684    2.514586
  H      1.839398   -1.278572    3.020524

 Total Charge           Charge          ....    0
 Multiplicity           Mult            ....    1
 Number of Electrons    NEL             ....   70
 Basis Dimension        Dim             ....  345

ORBITAL ENERGIES
----------------

  NO   OCC          E(Eh)            E(eV)
   0   2.0000     -20.540506      -558.9356
   1   2.0000     -20.519694      -558.3692
   2   2.0000     -15.592918      -424.3049
   3   2.0000     -11.358656      -309.0847
   4   2.0000     -11.292363      -307.2808
   5   2.0000     -11.263610      -306.4984
   6   2.0000     -11.253026      -306.2104
   7   2.0000     -11.241787      -305.9046
   8   2.0000     -11.233437      -305.6774
   9   2.0000      -1.391287       -37.8588
  10   2.0000      -1.355441       -36.8834
  11   2.0000      -1.237648       -33.6781
  12   2.0000      -1.146798       -31.2060
  13   2.0000      -0.992971       -27.0201
  14   2.0000      -0.957774       -26.0624
  15   2.0000      -0.855484       -23.2789
  16   2.0000      -0.830037       -22.5865
  17   2.0000      -0.788205       -21.4481
  18   2.0000      -0.714539       -19.4436
  19   2.0000      -0.671929       -18.2841
  20   2.0000      -0.649950       -17.6860
  21   2.0000      -0.636652       -17.3242
  22   2.0000      -0.625263       -17.0143
  23   2.0000      -0.599335       -16.3087
  24   2.0000      -0.576440       -15.6857
  25   2.0000      -0.570968       -15.5368
  26   2.0000      -0.564911       -15.3720
  27   2.0000      -0.553426       -15.0595
  28   2.0000      -0.539595       -14.6831
  29   2.0000      -0.531263       -14.4564
  30   2.0000      -0.527777       -14.3615
  31   2.0000      -0.434523       -11.8240
  32   2.0000      -0.413698       -11.2573
  33   2.0000      -0.402807       -10.9609
  34   2.0000      -0.376637       -10.2488
  35   0.0000       0.119895         3.2625
  36   0.0000       0.150840         4.1046
  37   0.0000       0.166067         4.5189
  38   0.0000       0.168218         4.5775
  39   0.0000       0.191886         5.2215

MULLIKEN ATOMIC CHARGES
-----------------------
   0 C :   -0.296497
   1 N :   -0.303312
   2 C :    0.319197
   3 O :   -0.473679
   4 C :    0.043149
   5 C :   -0.480694
   6 C :   -0.262746
   7 C :    0.028582
   8 O :   -0.458129
   9 H :    0.136944
  10 H :    0.137948
  11 H :    0.181831
  12 H :    0.244070
  13 H :    0.143541
  14 H :    0.143020
  15 H :    0.148174
  16 H :    0.129426
  17 H :    0.151169
  18 H :    0.118323
  19 H :    0.349684
Sum of atomic charges:    0.0000000

LOEWDIN ATOMIC CHARGES
----------------------
   0 C :   -0.308219
   1 N :    0.100816
   2 C :   -0.410674
   3 O :    0.040663
   4 C :   -0.225092
   5 C :   -0.278633
   6 C :   -0.181537
   7 C :   -0.297597
   8 O :    0.009689
   9 H :    0.116187
  10 H :    0.116668
  11 H :    0.135619
  12 H :    0.186898
  13 H :    0.125141
  14 H :    0.135095
  15 H :    0.127156
  16 H :    0.134966
  17 H :    0.146758
  18 H :    0.143352
  19 H :    0.182742

  Mayer bond orders larger than 0.1
B(  0-C ,  1-N ) :   0.8479 B(  0-C ,  9-H ) :   0.9351 B(  0-C , 10-H ) :   0.9346
B(  0-C , 11-H ) :   0.9264 B(  1-N ,  2-C ) :   1.2142 B(  1-N , 12-H ) :   0.8740
B(  2-C ,  3-O ) :   1.6704 B(  2-C ,  4-C ) :   0.9729 B(  4-C ,  5-C ) :   0.8469
B(  4-C ,  6-C ) :   0.8211 B(  4-C ,  7-C ) :   0.8121 B(  5-C , 13-H ) :   0.9412
B(  5-C , 14-H ) :   0.9238 B(  5-C , 15-H ) :   0.9424 B(  6-C ,  7-C ) :   0.8997
B(  6-C , 16-H ) :   0.9141 B(  6-C , 17-H ) :   0.9092 B(  7-C ,  8-O ) :   1.0608
B(  7-C , 18-H ) :   0.9503 B(  8-O , 19-H ) :   0.7774

MP2 TOTAL ENERGY:     -439.588914070 Eh
FINAL SINGLE POINT ENERGY      -439.588914070100

DIPOLE MOMENT
-------------
                                X             Y             Z
Electronic contribution:      3.31919       0.52301       4.24938
Nuclear contribution   :     -4.42606      -0.54335      -5.75255
                        -----------------------------------------
Total Dipole Moment    :     -1.10686      -0.02034      -1.50317
                        -----------------------------------------
Magnitude (a.u.)       :      1.86684
Magnitude (Debye)      :      4.74513

                             ****ORCA TERMINATED NORMALLY****
TOTAL RUN TIME: 0 days 0 hours 17 minutes 34 seconds 976 msec
