                         Program Version 3.0.3 - RELEASE   -
|  1> ! RI-MP2 RIJK def2-TZVP def2-TZVP/C def2-TZVP/JK TIGHTSCF
|  2> % maxcore 2000
|  3> % mp2 density relaxed end
|  4> *xyz 0 1
|  5>  O       -0.8102164162     0.4279828521    -1.9433553396
|  6>  C       -0.1164017818    -0.2315667608    -0.9023730172
|  7>  C       -0.9390899723    -0.2205573521     0.3647487097
|  8>  O       -1.9857498781    -1.1854006219     0.4825654726
|  9>  C       -0.9219792209    -1.2640943941     1.4225831341
| 10>  C       -0.0405375979    -2.4732669453     1.3850632925
| 11>  O        0.7392897553    -2.7379085736     2.2647508529
| 12>  C       -0.1983060543    -3.3754656135     0.2246903856
| 13>  N       -0.2882553012    -4.1150934065    -0.6594445002
| 14>  H       -1.5759705748    -0.1111896094    -2.1706490969
| 15>  H        0.1622818466    -1.2548162539    -1.1817258102
| 16>  H        0.8042635090     0.3377283308    -0.7348669364
| 17>  H       -1.2291350923     0.7777565428     0.6962246512
| 18>  H       -1.1476460813    -0.9544076544     2.4421513919
| 19> *
| 20>
| 21>                          ****END OF INPUT****

CARTESIAN COORDINATES (ANGSTROEM)
---------------------------------
  O     -0.810216    0.427983   -1.943355
  C     -0.116402   -0.231567   -0.902373
  C     -0.939090   -0.220557    0.364749
  O     -1.985750   -1.185401    0.482565
  C     -0.921979   -1.264094    1.422583
  C     -0.040538   -2.473267    1.385063
  O      0.739290   -2.737909    2.264751
  C     -0.198306   -3.375466    0.224690
  N     -0.288255   -4.115093   -0.659445
  H     -1.575971   -0.111190   -2.170649
  H      0.162282   -1.254816   -1.181726
  H      0.804264    0.337728   -0.734867
  H     -1.229135    0.777757    0.696225
  H     -1.147646   -0.954408    2.442151

 Total Charge           Charge          ....    0
 Multiplicity           Mult            ....    1
 Number of Electrons    NEL             ....   66
 Basis Dimension        Dim             ....  309

ORBITAL ENERGIES
----------------

  NO   OCC          E(Eh)            E(eV)
   0   2.0000     -20.622480      -561.1662
   1   2.0000     -20.619162      -561.0759
   2   2.0000     -20.583180      -560.0968
   3   2.0000     -15.619959      -425.0407
   4   2.0000     -11.416680      -310.6637
   5   2.0000     -11.344923      -308.7111
   6   2.0000     -11.336907      -308.4929
   7   2.0000     -11.312771      -307.8362
   8   2.0000     -11.308634      -307.7236
   9   2.0000      -1.474632       -40.1268
  10   2.0000      -1.456733       -39.6397
  11   2.0000      -1.388407       -37.7805
  12   2.0000      -1.255527       -34.1646
  13   2.0000      -1.044526       -28.4230
  14   2.0000      -1.019284       -27.7361
  15   2.0000      -0.925895       -25.1949
  16   2.0000      -0.860926       -23.4270
  17   2.0000      -0.763937       -20.7878
  18   2.0000      -0.752415       -20.4743
  19   2.0000      -0.708804       -19.2875
  20   2.0000      -0.700571       -19.0635
  21   2.0000      -0.646538       -17.5932
  22   2.0000      -0.638466       -17.3735
  23   2.0000      -0.609897       -16.5961
  24   2.0000      -0.606425       -16.5017
  25   2.0000      -0.589754       -16.0480
  26   2.0000      -0.552318       -15.0293
  27   2.0000      -0.528890       -14.3918
  28   2.0000      -0.508541       -13.8381
  29   2.0000      -0.500967       -13.6320
  30   2.0000      -0.492374       -13.3982
  31   2.0000      -0.478826       -13.0295
  32   2.0000      -0.469513       -12.7761
  33   0.0000       0.038148         1.0380
  34   0.0000       0.133971         3.6455
  35   0.0000       0.141066         3.8386
  36   0.0000       0.144357         3.9281
  37   0.0000       0.167289         4.5522

MULLIKEN ATOMIC CHARGES
-----------------------
   0 O :   -0.465111
   1 C :   -0.027978
   2 C :   -0.019594
   3 O :   -0.304732
   4 C :    0.000775
   5 C :    0.306474
   6 O :   -0.220353
   7 C :   -0.144921
   8 N :   -0.034813
   9 H :    0.331790
  10 H :    0.143528
  11 H :    0.131253
  12 H :    0.139502
  13 H :    0.164180
Sum of atomic charges:    0.0000000

LOEWDIN ATOMIC CHARGES
----------------------
   0 O :   -0.030024
   1 C :   -0.329415
   2 C :   -0.252626
   3 O :    0.197646
   4 C :   -0.229008
   5 C :   -0.310869
   6 O :    0.221383
   7 C :   -0.141140
   8 N :    0.109057
   9 H :    0.183723
  10 H :    0.132622
  11 H :    0.141627
  12 H :    0.149052
  13 H :    0.157972

  Mayer bond orders larger than 0.1
B(  0-O ,  1-C ) :   0.9069 B(  0-O ,  9-H ) :   0.8377 B(  1-C ,  2-C ) :   0.9425
B(  1-C , 10-H ) :   0.9170 B(  1-C , 11-H ) :   0.9192 B(  2-C ,  3-O ) :   0.8555
B(  2-C ,  4-C ) :   0.9120 B(  2-C , 12-H ) :   0.9126 B(  3-O ,  4-C ) :   0.9380
B(  4-C ,  5-C ) :   0.9120 B(  4-C , 13-H ) :   0.9146 B(  5-C ,  6-O ) :   1.9668
B(  5-C ,  7-C ) :   0.8791 B(  7-C ,  8-N ) :   2.7535

MP2 TOTAL ENERGY:     -473.049943810 Eh
FINAL SINGLE POINT ENERGY      -473.049943809717

DIPOLE MOMENT
-------------
                                X             Y             Z
Electronic contribution:      0.15540      -5.51319       2.63118
Nuclear contribution   :     -0.35045       6.46549      -2.09916
                        -----------------------------------------
Total Dipole Moment    :     -0.19505       0.95229       0.53203
                        -----------------------------------------
Magnitude (a.u.)       :      1.10814
Magnitude (Debye)      :      2.81666

                             ****ORCA TERMINATED NORMALLY****
TOTAL RUN TIME: 0 days 0 hours 22 minutes 17 seconds 286 msec
