                         Program Version 3.0.3 - RELEASE   -
|  1> ! RI-MP2 RIJK def2-TZVP def2-TZVP/C def2-TZVP/JK TIGHTSCF
|  2> % maxcore 2000
|  3> % mp2 density relaxed end
|  4> *xyz 0 1
|  5>  C       -0.1358583243    -1.2265390400    -0.1255620384
|  6>  C       -0.0629070008    -0.0314734945    -0.0234690394
|  7>  C        0.0184909224     1.4216573785     0.0512018461
|  8>  O       -0.5585890573     1.9239675979     1.2858643870
|  9>  C        0.4567900842     2.7297370360     1.8749697921
| 10>  C        1.1245301801     3.4014963144     0.6730365109
| 11>  C        1.4541336062     2.0162548008     0.0802082387
| 12>  C        2.1920496100     1.3907743208     1.2766710598
| 13>  O        1.4755982979     1.9150364601     2.4187981835
| 14>  H       -0.2074493799    -2.2834300113    -0.2037240186
| 15>  H       -0.5454655698     1.8477889651    -0.7905791320
| 16>  H        0.0117238603     3.3264631980     2.6687142776
| 17>  H        0.4358374205     3.9948848312     0.0687177937
| 18>  H        2.0057500894     3.9872828919     0.9409796274
| 19>  H        1.9790163655     1.9696311731    -0.8725553045
| 20>  H        2.1446624684     0.2982130272     1.2826802126
| 21>  H        3.2413056373     1.7068230607     1.3243926534
| 22> *
| 23>
| 24>                          ****END OF INPUT****

CARTESIAN COORDINATES (ANGSTROEM)
---------------------------------
  C     -0.135858   -1.226539   -0.125562
  C     -0.062907   -0.031473   -0.023469
  C      0.018491    1.421657    0.051202
  O     -0.558589    1.923968    1.285864
  C      0.456790    2.729737    1.874970
  C      1.124530    3.401496    0.673037
  C      1.454134    2.016255    0.080208
  C      2.192050    1.390774    1.276671
  O      1.475598    1.915036    2.418798
  H     -0.207449   -2.283430   -0.203724
  H     -0.545466    1.847789   -0.790579
  H      0.011724    3.326463    2.668714
  H      0.435837    3.994885    0.068718
  H      2.005750    3.987283    0.940980
  H      1.979016    1.969631   -0.872555
  H      2.144662    0.298213    1.282680
  H      3.241306    1.706823    1.324393

 Total Charge           Charge          ....    0
 Multiplicity           Mult            ....    1
 Number of Electrons    NEL             ....   66
 Basis Dimension        Dim             ....  327

ORBITAL ENERGIES
----------------

  NO   OCC          E(Eh)            E(eV)
   0   2.0000     -20.565280      -559.6097
   1   2.0000     -20.558982      -559.4383
   2   2.0000     -11.335851      -308.4642
   3   2.0000     -11.316593      -307.9401
   4   2.0000     -11.281721      -306.9912
   5   2.0000     -11.256714      -306.3108
   6   2.0000     -11.238792      -305.8231
   7   2.0000     -11.238186      -305.8066
   8   2.0000     -11.231604      -305.6275
   9   2.0000      -1.431169       -38.9441
  10   2.0000      -1.343104       -36.5477
  11   2.0000      -1.101967       -29.9860
  12   2.0000      -1.052894       -28.6507
  13   2.0000      -0.995294       -27.0833
  14   2.0000      -0.927371       -25.2350
  15   2.0000      -0.829807       -22.5802
  16   2.0000      -0.792675       -21.5698
  17   2.0000      -0.735440       -20.0123
  18   2.0000      -0.726372       -19.7656
  19   2.0000      -0.700210       -19.0537
  20   2.0000      -0.677585       -18.4380
  21   2.0000      -0.624682       -16.9985
  22   2.0000      -0.597141       -16.2490
  23   2.0000      -0.582952       -15.8629
  24   2.0000      -0.545485       -14.8434
  25   2.0000      -0.532127       -14.4799
  26   2.0000      -0.518149       -14.0996
  27   2.0000      -0.515533       -14.0284
  28   2.0000      -0.498566       -13.5667
  29   2.0000      -0.439469       -11.9586
  30   2.0000      -0.426548       -11.6070
  31   2.0000      -0.399930       -10.8827
  32   2.0000      -0.390214       -10.6183
  33   0.0000       0.132486         3.6051
  34   0.0000       0.160453         4.3662
  35   0.0000       0.162270         4.4156
  36   0.0000       0.166479         4.5301
  37   0.0000       0.173955         4.7336

MULLIKEN ATOMIC CHARGES
-----------------------
   0 C :   -0.113426
   1 C :   -0.056835
   2 C :   -0.051174
   3 O :   -0.302304
   4 C :    0.162276
   5 C :   -0.251599
   6 C :   -0.082227
   7 C :   -0.080338
   8 O :   -0.309288
   9 H :    0.194821
  10 H :    0.115427
  11 H :    0.128393
  12 H :    0.129075
  13 H :    0.134651
  14 H :    0.144482
  15 H :    0.129225
  16 H :    0.108840
Sum of atomic charges:    0.0000000

LOEWDIN ATOMIC CHARGES
----------------------
   0 C :   -0.080088
   1 C :   -0.083530
   2 C :   -0.255233
   3 O :    0.191025
   4 C :   -0.385562
   5 C :   -0.212064
   6 C :   -0.213853
   7 C :   -0.249483
   8 O :    0.166122
   9 H :    0.128762
  10 H :    0.158927
  11 H :    0.138313
  12 H :    0.142879
  13 H :    0.144010
  14 H :    0.152905
  15 H :    0.132781
  16 H :    0.124090

  Mayer bond orders larger than 0.1
B(  0-C ,  1-C ) :   2.5908 B(  0-C ,  2-C ) :  -0.1144 B(  0-C ,  9-H ) :   0.8843
B(  1-C ,  2-C ) :   1.1587 B(  2-C ,  3-O ) :   0.8855 B(  2-C ,  6-C ) :   0.9285
B(  2-C , 10-H ) :   0.8947 B(  3-O ,  4-C ) :   0.9882 B(  4-C ,  5-C ) :   0.9698
B(  4-C ,  8-O ) :   0.9967 B(  4-C , 11-H ) :   0.9248 B(  5-C ,  6-C ) :   0.9163
B(  5-C , 12-H ) :   0.9189 B(  5-C , 13-H ) :   0.9222 B(  6-C ,  7-C ) :   0.9479
B(  6-C , 14-H ) :   0.9071 B(  7-C ,  8-O ) :   0.9182 B(  7-C , 15-H ) :   0.9192
B(  7-C , 16-H ) :   0.9245

MP2 TOTAL ENERGY:     -421.087751410 Eh
FINAL SINGLE POINT ENERGY      -421.087751410163

DIPOLE MOMENT
-------------
                                X             Y             Z
Electronic contribution:     -2.83315      -1.94968       1.58497
Nuclear contribution   :      3.39367       2.27686      -2.44324
                        -----------------------------------------
Total Dipole Moment    :      0.56052       0.32719      -0.85828
                        -----------------------------------------
Magnitude (a.u.)       :      1.07605
Magnitude (Debye)      :      2.73509

                             ****ORCA TERMINATED NORMALLY****
TOTAL RUN TIME: 0 days 0 hours 18 minutes 20 seconds 941 msec
