                         Program Version 3.0.3 - RELEASE   -
|  1> ! RI-MP2 RIJK def2-TZVP def2-TZVP/C def2-TZVP/JK TIGHTSCF
|  2> % maxcore 2000
|  3> % mp2 density relaxed end
|  4> *xyz 0 1
|  5>  C       -0.1517668393     1.4549493881     0.0613569360
|  6>  N        0.0152419134     0.0082983754     0.0937118305
|  7>  C        1.3540634907    -0.5157983239    -0.1823102766
|  8>  C        0.7778128540    -0.5548602731     1.1823473236
|  9>  C        1.2856329652     0.1334173230     2.4320434404
| 10>  N        0.0941916214     0.2187617169     3.3282422728
| 11>  C        0.8838495868    -1.0347082327     3.2677696272
| 12>  C        0.3360863606    -1.7873727582     2.0398168559
| 13>  O       -1.0088938620    -2.1506840853     2.0481949368
| 14>  H        0.7447986105     2.0120000279     0.3799793123
| 15>  H       -0.3996804574     1.7637613222    -0.9587802819
| 16>  H       -0.9785031406     1.7344897305     0.7205051913
| 17>  H        1.3996463798    -1.4162193739    -0.7904746291
| 18>  H        2.1551550149     0.2014097887    -0.3660551824
| 19>  H        2.1246112930     0.8058986027     2.5568261686
| 20>  H        0.3776983307     0.7170702437     4.1708849311
| 21>  H        1.3525692887    -1.4424345607     4.1543849318
| 22>  H        0.9170759012    -2.6814559880     1.7980148579
| 23>  H       -1.4968678315    -1.3511378633     2.2846426138
| 24> *
| 25>
| 26>                          ****END OF INPUT****

CARTESIAN COORDINATES (ANGSTROEM)
---------------------------------
  C     -0.151767    1.454949    0.061357
  N      0.015242    0.008298    0.093712
  C      1.354063   -0.515798   -0.182310
  C      0.777813   -0.554860    1.182347
  C      1.285633    0.133417    2.432043
  N      0.094192    0.218762    3.328242
  C      0.883850   -1.034708    3.267770
  C      0.336086   -1.787373    2.039817
  O     -1.008894   -2.150684    2.048195
  H      0.744799    2.012000    0.379979
  H     -0.399680    1.763761   -0.958780
  H     -0.978503    1.734490    0.720505
  H      1.399646   -1.416219   -0.790475
  H      2.155155    0.201410   -0.366055
  H      2.124611    0.805899    2.556826
  H      0.377698    0.717070    4.170885
  H      1.352569   -1.442435    4.154385
  H      0.917076   -2.681456    1.798015
  H     -1.496868   -1.351138    2.284643

 Total Charge           Charge          ....    0
 Multiplicity           Mult            ....    1
 Number of Electrons    NEL             ....   68
 Basis Dimension        Dim             ....  339

ORBITAL ENERGIES
----------------

  NO   OCC          E(Eh)            E(eV)
   0   2.0000     -20.546462      -559.0976
   1   2.0000     -15.574737      -423.8102
   2   2.0000     -15.557575      -423.3431
   3   2.0000     -11.285577      -307.0962
   4   2.0000     -11.273934      -306.7793
   5   2.0000     -11.268244      -306.6245
   6   2.0000     -11.266998      -306.5906
   7   2.0000     -11.255622      -306.2811
   8   2.0000     -11.244503      -305.9785
   9   2.0000      -1.364702       -37.1354
  10   2.0000      -1.294886       -35.2356
  11   2.0000      -1.261176       -34.3183
  12   2.0000      -1.031751       -28.0754
  13   2.0000      -0.971725       -26.4420
  14   2.0000      -0.883441       -24.0396
  15   2.0000      -0.838650       -22.8208
  16   2.0000      -0.820446       -22.3255
  17   2.0000      -0.759324       -20.6623
  18   2.0000      -0.714198       -19.4343
  19   2.0000      -0.666493       -18.1362
  20   2.0000      -0.657319       -17.8865
  21   2.0000      -0.616010       -16.7625
  22   2.0000      -0.608515       -16.5585
  23   2.0000      -0.586212       -15.9516
  24   2.0000      -0.570493       -15.5239
  25   2.0000      -0.548255       -14.9188
  26   2.0000      -0.531000       -14.4492
  27   2.0000      -0.501714       -13.6523
  28   2.0000      -0.492215       -13.3939
  29   2.0000      -0.469747       -12.7825
  30   2.0000      -0.431843       -11.7511
  31   2.0000      -0.418213       -11.3801
  32   2.0000      -0.387637       -10.5481
  33   2.0000      -0.360729        -9.8159
  34   0.0000       0.130342         3.5468
  35   0.0000       0.150122         4.0850
  36   0.0000       0.159764         4.3474
  37   0.0000       0.176981         4.8159
  38   0.0000       0.191567         5.2128

MULLIKEN ATOMIC CHARGES
-----------------------
   0 C :   -0.291335
   1 N :   -0.235241
   2 C :   -0.224376
   3 C :    0.047906
   4 C :   -0.035059
   5 N :   -0.413682
   6 C :   -0.101036
   7 C :    0.126705
   8 O :   -0.456646
   9 H :    0.099813
  10 H :    0.142148
  11 H :    0.143952
  12 H :    0.130638
  13 H :    0.113374
  14 H :    0.150865
  15 H :    0.219253
  16 H :    0.142246
  17 H :    0.108107
  18 H :    0.332370
Sum of atomic charges:    0.0000000

LOEWDIN ATOMIC CHARGES
----------------------
   0 C :   -0.322741
   1 N :    0.116628
   2 C :   -0.219286
   3 C :   -0.250604
   4 C :   -0.200296
   5 N :   -0.005171
   6 C :   -0.212524
   7 C :   -0.277994
   8 O :    0.006899
   9 H :    0.105292
  10 H :    0.118262
  11 H :    0.121556
  12 H :    0.128676
  13 H :    0.124993
  14 H :    0.132491
  15 H :    0.172293
  16 H :    0.129968
  17 H :    0.145874
  18 H :    0.185684

  Mayer bond orders larger than 0.1
B(  0-C ,  1-N ) :   0.8787 B(  0-C ,  9-H ) :   0.9290 B(  0-C , 10-H ) :   0.9359
B(  0-C , 11-H ) :   0.9373 B(  1-N ,  2-C ) :   0.9683 B(  1-N ,  3-C ) :   0.8312
B(  2-C ,  3-C ) :   0.9284 B(  2-C , 12-H ) :   0.9079 B(  2-C , 13-H ) :   0.9206
B(  3-C ,  4-C ) :   0.9106 B(  3-C ,  7-C ) :   0.9142 B(  4-C ,  5-N ) :   0.9220
B(  4-C ,  6-C ) :   0.8782 B(  4-C , 14-H ) :   0.9010 B(  5-N ,  6-C ) :   0.8920
B(  5-N , 15-H ) :   0.8706 B(  6-C ,  7-C ) :   0.9257 B(  6-C , 16-H ) :   0.9215
B(  7-C ,  8-O ) :   1.0088 B(  7-C , 17-H ) :   0.9313 B(  8-O , 18-H ) :   0.8244

MP2 TOTAL ENERGY:     -418.418128221 Eh
FINAL SINGLE POINT ENERGY      -418.418128221232

DIPOLE MOMENT
-------------
                                X             Y             Z
Electronic contribution:     -1.23546      -3.84744       2.33335
Nuclear contribution   :      2.40507       4.65837      -1.81232
                        -----------------------------------------
Total Dipole Moment    :      1.16961       0.81093       0.52103
                        -----------------------------------------
Magnitude (a.u.)       :      1.51561
Magnitude (Debye)      :      3.85237

                             ****ORCA TERMINATED NORMALLY****
TOTAL RUN TIME: 0 days 0 hours 18 minutes 41 seconds 861 msec
