                         Program Version 3.0.3 - RELEASE   -
|  1> ! RI-MP2 RIJK def2-TZVP def2-TZVP/C def2-TZVP/JK TIGHTSCF
|  2> % maxcore 2000
|  3> % mp2 density relaxed end
|  4> *xyz 0 1
|  5>  C       -0.0163324500    -1.1971952400    -0.0700824467
|  6>  C       -0.0229685671     0.0062928335    -0.0476775338
|  7>  C       -0.0246204325     1.4272720897    -0.0108909144
|  8>  C       -0.5592504208     2.3468948702     1.1550618239
|  9>  C        0.8969535363     2.6774628286     1.5632328417
| 10>  C        1.2326749999     2.3767518503     0.0822632969
| 11>  C        0.3550509774     3.3082285506    -0.7731495929
| 12>  C       -0.9217068383     3.2869528718    -0.0087767039
| 13>  N       -0.6963528883     2.2875057719    -1.1089678668
| 14>  H       -0.0131205411    -2.2587261333    -0.0942497547
| 15>  H       -1.3290774413     2.0383624785     1.8577741561
| 16>  H        1.1113088286     3.6779142574     1.9491195668
| 17>  H        1.3103085023     1.9169238557     2.2325031817
| 18>  H        2.2228683100     2.0975449481    -0.2687228126
| 19>  H        0.6501000793     4.0725268320    -1.4804615927
| 20>  H       -1.7030422643     4.0333138551    -0.0716766187
| 21> *
| 22>
| 23>                          ****END OF INPUT****

CARTESIAN COORDINATES (ANGSTROEM)
---------------------------------
  C     -0.016332   -1.197195   -0.070082
  C     -0.022969    0.006293   -0.047678
  C     -0.024620    1.427272   -0.010891
  C     -0.559250    2.346895    1.155062
  C      0.896954    2.677463    1.563233
  C      1.232675    2.376752    0.082263
  C      0.355051    3.308229   -0.773150
  C     -0.921707    3.286953   -0.008777
  N     -0.696353    2.287506   -1.108968
  H     -0.013121   -2.258726   -0.094250
  H     -1.329077    2.038362    1.857774
  H      1.111309    3.677914    1.949120
  H      1.310309    1.916924    2.232503
  H      2.222868    2.097545   -0.268723
  H      0.650100    4.072527   -1.480462
  H     -1.703042    4.033314   -0.071677

 Total Charge           Charge          ....    0
 Multiplicity           Mult            ....    1
 Number of Electrons    NEL             ....   62
 Basis Dimension        Dim             ....  321

ORBITAL ENERGIES
----------------

  NO   OCC          E(Eh)            E(eV)
   0   2.0000     -15.566643      -423.5899
   1   2.0000     -11.292912      -307.2958
   2   2.0000     -11.267741      -306.6108
   3   2.0000     -11.266999      -306.5906
   4   2.0000     -11.252654      -306.2003
   5   2.0000     -11.252647      -306.2001
   6   2.0000     -11.238256      -305.8085
   7   2.0000     -11.237269      -305.7816
   8   2.0000     -11.232242      -305.6449
   9   2.0000      -1.333268       -36.2801
  10   2.0000      -1.100501       -29.9461
  11   2.0000      -1.045642       -28.4534
  12   2.0000      -0.959608       -26.1122
  13   2.0000      -0.942342       -25.6424
  14   2.0000      -0.854017       -23.2390
  15   2.0000      -0.790255       -21.5039
  16   2.0000      -0.758392       -20.6369
  17   2.0000      -0.713429       -19.4134
  18   2.0000      -0.702640       -19.1198
  19   2.0000      -0.649003       -17.6603
  20   2.0000      -0.594205       -16.1692
  21   2.0000      -0.593345       -16.1457
  22   2.0000      -0.570671       -15.5287
  23   2.0000      -0.511005       -13.9051
  24   2.0000      -0.501789       -13.6544
  25   2.0000      -0.463550       -12.6138
  26   2.0000      -0.447677       -12.1819
  27   2.0000      -0.429254       -11.6806
  28   2.0000      -0.395564       -10.7638
  29   2.0000      -0.364508        -9.9188
  30   2.0000      -0.362652        -9.8683
  31   0.0000       0.134887         3.6705
  32   0.0000       0.150379         4.0920
  33   0.0000       0.151231         4.1152
  34   0.0000       0.159117         4.3298
  35   0.0000       0.172634         4.6976

MULLIKEN ATOMIC CHARGES
-----------------------
   0 C :   -0.066762
   1 C :   -0.042078
   2 C :   -0.133950
   3 C :   -0.039323
   4 C :   -0.274347
   5 C :   -0.039323
   6 C :   -0.105829
   7 C :   -0.105829
   8 N :   -0.199286
   9 H :    0.195100
  10 H :    0.142281
  11 H :    0.120051
  12 H :    0.123781
  13 H :    0.142281
  14 H :    0.141616
  15 H :    0.141616
Sum of atomic charges:    0.0000000

LOEWDIN ATOMIC CHARGES
----------------------
   0 C :   -0.065539
   1 C :   -0.068747
   2 C :   -0.163703
   3 C :   -0.128878
   4 C :   -0.194797
   5 C :   -0.128878
   6 C :   -0.177112
   7 C :   -0.177112
   8 N :    0.156094
   9 H :    0.128905
  10 H :    0.140243
  11 H :    0.128060
  12 H :    0.141752
  13 H :    0.140243
  14 H :    0.134734
  15 H :    0.134734

  Mayer bond orders larger than 0.1
B(  0-C ,  1-C ) :   2.6099 B(  0-C ,  2-C ) :  -0.1655 B(  0-C ,  9-H ) :   0.8599
B(  1-C ,  2-C ) :   1.2366 B(  2-C ,  3-C ) :   0.8520 B(  2-C ,  5-C ) :   0.8520
B(  2-C ,  8-N ) :   0.9703 B(  3-C ,  4-C ) :   0.9364 B(  3-C ,  7-C ) :   0.8709
B(  3-C , 10-H ) :   0.9041 B(  4-C ,  5-C ) :   0.9364 B(  4-C , 11-H ) :   0.9147
B(  4-C , 12-H ) :   0.9124 B(  5-C ,  6-C ) :   0.8709 B(  5-C , 13-H ) :   0.9041
B(  6-C ,  7-C ) :   0.9518 B(  6-C ,  8-N ) :   0.8849 B(  6-C , 14-H ) :   0.9126
B(  7-C ,  8-N ) :   0.8849 B(  7-C , 15-H ) :   0.9126

MP2 TOTAL ENERGY:     -362.823143197 Eh
FINAL SINGLE POINT ENERGY      -362.823143197117

DIPOLE MOMENT
-------------
                                X             Y             Z
Electronic contribution:     -1.47899      -2.07134      -2.52805
Nuclear contribution   :      1.89317       2.35769       3.22784
                        -----------------------------------------
Total Dipole Moment    :      0.41418       0.28635       0.69979
                        -----------------------------------------
Magnitude (a.u.)       :      0.86211
Magnitude (Debye)      :      2.19131

                             ****ORCA TERMINATED NORMALLY****
TOTAL RUN TIME: 0 days 0 hours 18 minutes 7 seconds 89 msec
