                         Program Version 3.0.3 - RELEASE   -
|  1> ! RI-MP2 RIJK def2-TZVP def2-TZVP/C def2-TZVP/JK TIGHTSCF
|  2> % maxcore 2000
|  3> % mp2 density relaxed end
|  4> *xyz 0 1
|  5>  N        0.1716855770     1.4100165866     0.0866119644
|  6>  C       -0.0127696508     0.0090031408     0.0032520124
|  7>  C       -1.1032389615    -0.8179725441    -0.1049369873
|  8>  C       -0.6352602220    -2.1708911741    -0.1466153730
|  9>  C        0.7351941424    -2.1096950370    -0.0611094722
| 10>  O        1.7133817404    -3.0542075933    -0.0510598598
| 11>  N        1.1125784698    -0.8046068919     0.0288979180
| 12>  H       -0.1947005782     1.8877229030    -0.7299741624
| 13>  H       -0.2924990811     1.8037208819     0.8982677358
| 14>  H       -2.1330141612    -0.4965674005    -0.1502324590
| 15>  H       -1.2303839480    -3.0675259772    -0.2286333278
| 16>  H        1.2944994283    -3.9171488611    -0.1207456226
| 17>  H        2.0570631049    -0.4674926929     0.1030382035
| 18> *
| 19>
| 20>                          ****END OF INPUT****

CARTESIAN COORDINATES (ANGSTROEM)
---------------------------------
  N      0.171686    1.410017    0.086612
  C     -0.012770    0.009003    0.003252
  C     -1.103239   -0.817973   -0.104937
  C     -0.635260   -2.170891   -0.146615
  C      0.735194   -2.109695   -0.061109
  O      1.713382   -3.054208   -0.051060
  N      1.112578   -0.804607    0.028898
  H     -0.194701    1.887723   -0.729974
  H     -0.292499    1.803721    0.898268
  H     -2.133014   -0.496567   -0.150232
  H     -1.230384   -3.067526   -0.228633
  H      1.294499   -3.917149   -0.120746
  H      2.057063   -0.467493    0.103038

 Total Charge           Charge          ....    0
 Multiplicity           Mult            ....    1
 Number of Electrons    NEL             ....   52
 Basis Dimension        Dim             ....  253

ORBITAL ENERGIES
----------------

  NO   OCC          E(Eh)            E(eV)
   0   2.0000     -20.594409      -560.4024
   1   2.0000     -15.591572      -424.2682
   2   2.0000     -15.556834      -423.3230
   3   2.0000     -11.314629      -307.8867
   4   2.0000     -11.273889      -306.7781
   5   2.0000     -11.205202      -304.9091
   6   2.0000     -11.199228      -304.7465
   7   2.0000      -1.415351       -38.5136
   8   2.0000      -1.287491       -35.0344
   9   2.0000      -1.176239       -32.0071
  10   2.0000      -1.041018       -28.3275
  11   2.0000      -0.940636       -25.5960
  12   2.0000      -0.807128       -21.9631
  13   2.0000      -0.783939       -21.3321
  14   2.0000      -0.738740       -20.1021
  15   2.0000      -0.667378       -18.1603
  16   2.0000      -0.653103       -17.7718
  17   2.0000      -0.620017       -16.8715
  18   2.0000      -0.610752       -16.6194
  19   2.0000      -0.589450       -16.0397
  20   2.0000      -0.566295       -15.4097
  21   2.0000      -0.525002       -14.2860
  22   2.0000      -0.515462       -14.0264
  23   2.0000      -0.422612       -11.4998
  24   2.0000      -0.348999        -9.4968
  25   2.0000      -0.274644        -7.4735
  26   0.0000       0.135467         3.6862
  27   0.0000       0.138673         3.7735
  28   0.0000       0.171847         4.6762
  29   0.0000       0.181684         4.9439
  30   0.0000       0.188914         5.1406

MULLIKEN ATOMIC CHARGES
-----------------------
   0 N :   -0.554070
   1 C :    0.132613
   2 C :   -0.233021
   3 C :   -0.238318
   4 C :    0.241246
   5 O :   -0.440520
   6 N :   -0.247872
   7 H :    0.250832
   8 H :    0.250831
   9 H :    0.118743
  10 H :    0.129559
  11 H :    0.341106
  12 H :    0.248872
Sum of atomic charges:    0.0000000

LOEWDIN ATOMIC CHARGES
----------------------
   0 N :   -0.130140
   1 C :   -0.345033
   2 C :   -0.197295
   3 C :   -0.217749
   4 C :   -0.370207
   5 O :    0.053150
   6 N :    0.211675
   7 H :    0.165081
   8 H :    0.165081
   9 H :    0.136266
  10 H :    0.134750
  11 H :    0.198694
  12 H :    0.195727

  Mayer bond orders larger than 0.1
B(  0-N ,  1-C ) :   1.0592 B(  0-N ,  7-H ) :   0.8880 B(  0-N ,  8-H ) :   0.8880
B(  1-C ,  2-C ) :   1.5457 B(  1-C ,  6-N ) :   1.0632 B(  2-C ,  3-C ) :   1.1788
B(  2-C ,  9-H ) :   0.9400 B(  3-C ,  4-C ) :   1.4737 B(  3-C , 10-H ) :   0.9192
B(  4-C ,  5-O ) :   1.0957 B(  4-C ,  6-N ) :   1.1554 B(  5-O , 11-H ) :   0.8314
B(  6-N , 12-H ) :   0.8613

MP2 TOTAL ENERGY:     -340.098427249 Eh
FINAL SINGLE POINT ENERGY      -340.098427248801

DIPOLE MOMENT
-------------
                                X             Y             Z
Electronic contribution:      2.11445      -2.06101       0.02072
Nuclear contribution   :     -2.32028       2.06284      -0.03298
                        -----------------------------------------
Total Dipole Moment    :     -0.20583       0.00184      -0.01226
                        -----------------------------------------
Magnitude (a.u.)       :      0.20621
Magnitude (Debye)      :      0.52414

                             ****ORCA TERMINATED NORMALLY****
TOTAL RUN TIME: 0 days 0 hours 6 minutes 34 seconds 812 msec
