                         Program Version 3.0.3 - RELEASE   -
|  1> ! RI-MP2 RIJK def2-TZVP def2-TZVP/C def2-TZVP/JK TIGHTSCF
|  2> % maxcore 2000
|  3> % mp2 density relaxed end
|  4> *xyz 0 1
|  5>  O        0.0175033214    -0.0678032178     0.0024214688
|  6>  C       -0.0011759872     1.1471478345     0.0089705791
|  7>  N       -1.0973919402     2.0082003569     0.0296204608
|  8>  C       -0.7132572804     3.3572318545     0.0305524706
|  9>  C        0.6336078920     3.3760549797     0.0107781359
| 10>  C        1.8555726516     4.2559667979    -0.0032081336
| 11>  C        2.9707063616     3.2124981083    -0.0253089167
| 12>  C        2.4582457005     1.9761243624    -0.0237521374
| 13>  N        1.0621724981     2.0421113479    -0.0021981729
| 14>  H       -2.0386970037     1.6580270537     0.0413784345
| 15>  H       -1.4367262599     4.1538182072     0.0452623162
| 16>  H        1.8936855541     4.9169463289    -0.8790275017
| 17>  H        1.9202440695     4.9080235506     0.8777314852
| 18>  H        4.0216936427     3.4586579010    -0.0399196195
| 19>  H        2.9448555099     1.0127470542    -0.0359041894
| 20> *
| 21>
| 22>                          ****END OF INPUT****

CARTESIAN COORDINATES (ANGSTROEM)
---------------------------------
  O      0.017503   -0.067803    0.002421
  C     -0.001176    1.147148    0.008971
  N     -1.097392    2.008200    0.029620
  C     -0.713257    3.357232    0.030552
  C      0.633608    3.376055    0.010778
  C      1.855573    4.255967   -0.003208
  C      2.970706    3.212498   -0.025309
  C      2.458246    1.976124   -0.023752
  N      1.062172    2.042111   -0.002198
  H     -2.038697    1.658027    0.041378
  H     -1.436726    4.153818    0.045262
  H      1.893686    4.916946   -0.879028
  H      1.920244    4.908024    0.877731
  H      4.021694    3.458658   -0.039920
  H      2.944856    1.012747   -0.035904

 Total Charge           Charge          ....    0
 Multiplicity           Mult            ....    1
 Number of Electrons    NEL             ....   64
 Basis Dimension        Dim             ....  315

ORBITAL ENERGIES
----------------

  NO   OCC          E(Eh)            E(eV)
   0   2.0000     -20.507127      -558.0273
   1   2.0000     -15.608201      -424.7208
   2   2.0000     -15.601849      -424.5479
   3   2.0000     -11.377461      -309.5964
   4   2.0000     -11.286936      -307.1331
   5   2.0000     -11.277716      -306.8823
   6   2.0000     -11.273144      -306.7578
   7   2.0000     -11.260997      -306.4273
   8   2.0000     -11.240872      -305.8797
   9   2.0000      -1.400460       -38.1085
  10   2.0000      -1.319935       -35.9173
  11   2.0000      -1.233754       -33.5721
  12   2.0000      -1.078746       -29.3542
  13   2.0000      -1.035302       -28.1720
  14   2.0000      -0.944394       -25.6983
  15   2.0000      -0.860882       -23.4258
  16   2.0000      -0.815638       -22.1946
  17   2.0000      -0.759175       -20.6582
  18   2.0000      -0.697396       -18.9771
  19   2.0000      -0.680955       -18.5297
  20   2.0000      -0.660505       -17.9733
  21   2.0000      -0.628597       -17.1050
  22   2.0000      -0.610856       -16.6222
  23   2.0000      -0.595505       -16.2045
  24   2.0000      -0.585925       -15.9438
  25   2.0000      -0.564939       -15.3728
  26   2.0000      -0.532609       -14.4930
  27   2.0000      -0.494370       -13.4525
  28   2.0000      -0.479919       -13.0593
  29   2.0000      -0.436030       -11.8650
  30   2.0000      -0.361529        -9.8377
  31   2.0000      -0.290081        -7.8935
  32   0.0000       0.128602         3.4994
  33   0.0000       0.137277         3.7355
  34   0.0000       0.145217         3.9516
  35   0.0000       0.171328         4.6621
  36   0.0000       0.173002         4.7076

MULLIKEN ATOMIC CHARGES
-----------------------
   0 O :   -0.385994
   1 C :    0.258831
   2 N :   -0.294086
   3 C :   -0.072198
   4 C :   -0.052753
   5 C :   -0.115297
   6 C :   -0.199306
   7 C :   -0.108326
   8 N :   -0.032740
   9 H :    0.252407
  10 H :    0.159689
  11 H :    0.137916
  12 H :    0.137914
  13 H :    0.146938
  14 H :    0.167005
Sum of atomic charges:   -0.0000000

LOEWDIN ATOMIC CHARGES
----------------------
   0 O :    0.040217
   1 C :   -0.493330
   2 N :    0.156319
   3 C :   -0.213993
   4 C :   -0.183894
   5 C :   -0.198348
   6 C :   -0.162364
   7 C :   -0.157142
   8 N :    0.286513
   9 H :    0.191781
  10 H :    0.138073
  11 H :    0.152898
  12 H :    0.152898
  13 H :    0.140409
  14 H :    0.149961

  Mayer bond orders larger than 0.1
B(  0-O ,  1-C ) :   1.9613 B(  1-C ,  2-N ) :   1.1058 B(  1-C ,  8-N ) :   1.0471
B(  2-N ,  3-C ) :   1.0451 B(  2-N ,  9-H ) :   0.8690 B(  3-C ,  4-C ) :   1.6401
B(  3-C , 10-H ) :   0.9031 B(  4-C ,  5-C ) :   0.9898 B(  4-C ,  8-N ) :   1.0274
B(  5-C ,  6-C ) :   0.9612 B(  5-C , 11-H ) :   0.8946 B(  5-C , 12-H ) :   0.8947
B(  6-C ,  7-C ) :   1.7312 B(  6-C , 13-H ) :   0.9286 B(  7-C ,  8-N ) :   0.9862
B(  7-C , 14-H ) :   0.9243

MP2 TOTAL ENERGY:     -416.153600361 Eh
FINAL SINGLE POINT ENERGY      -416.153600361157

DIPOLE MOMENT
-------------
                                X             Y             Z
Electronic contribution:     -2.52543      -4.07476       0.01795
Nuclear contribution   :      2.51610       5.73591      -0.00981
                        -----------------------------------------
Total Dipole Moment    :     -0.00932       1.66115       0.00814
                        -----------------------------------------
Magnitude (a.u.)       :      1.66120
Magnitude (Debye)      :      4.22242

                             ****ORCA TERMINATED NORMALLY****
TOTAL RUN TIME: 0 days 0 hours 15 minutes 45 seconds 721 msec
