                         Program Version 3.0.3 - RELEASE   -
|  1> ! RI-MP2 RIJK def2-TZVP def2-TZVP/C def2-TZVP/JK TIGHTSCF
|  2> % maxcore 2000
|  3> % mp2 density relaxed end
|  4> *xyz 0 1
|  5>  O       -0.0322646210     1.3846326060     0.0083393528
|  6>  C       -0.0001237804     0.0275541682     0.0007117526
|  7>  C       -1.1645341059    -0.6770198210     0.0031538944
|  8>  O       -2.3836766421    -0.1036524177     0.0128997115
|  9>  C       -1.1475130742    -2.1260382406    -0.0048771246
| 10>  N       -2.2549965623    -2.7627236545    -0.0024011047
| 11>  O        0.0729084469    -2.7609799236    -0.0149795643
| 12>  C        1.2239775411    -2.0449442150    -0.0172869376
| 13>  C        1.2398564988    -0.7025910988    -0.0100064349
| 14>  H        0.8675463714     1.7252963311     0.0052872366
| 15>  H       -3.0047257868    -0.8565890400     0.0121476499
| 16>  H       -2.1297839909    -3.7715503572    -0.0086275690
| 17>  H        2.0952533054    -2.6844942154    -0.0255161612
| 18>  H        2.1894257102    -0.1797935315    -0.0122777748
| 19> *
| 20>
| 21>                          ****END OF INPUT****

CARTESIAN COORDINATES (ANGSTROEM)
---------------------------------
  O     -0.032265    1.384633    0.008339
  C     -0.000124    0.027554    0.000712
  C     -1.164534   -0.677020    0.003154
  O     -2.383677   -0.103652    0.012900
  C     -1.147513   -2.126038   -0.004877
  N     -2.254997   -2.762724   -0.002401
  O      0.072908   -2.760980   -0.014980
  C      1.223978   -2.044944   -0.017287
  C      1.239856   -0.702591   -0.010006
  H      0.867546    1.725296    0.005287
  H     -3.004726   -0.856589    0.012148
  H     -2.129784   -3.771550   -0.008628
  H      2.095253   -2.684494   -0.025516
  H      2.189426   -0.179794   -0.012278

 Total Charge           Charge          ....    0
 Multiplicity           Mult            ....    1
 Number of Electrons    NEL             ....   66
 Basis Dimension        Dim             ....  309

ORBITAL ENERGIES
----------------

  NO   OCC          E(Eh)            E(eV)
   0   2.0000     -20.643313      -561.7331
   1   2.0000     -20.606839      -560.7406
   2   2.0000     -20.573749      -559.8402
   3   2.0000     -15.538447      -422.8226
   4   2.0000     -11.360842      -309.1442
   5   2.0000     -11.331898      -308.3566
   6   2.0000     -11.323599      -308.1308
   7   2.0000     -11.297154      -307.4112
   8   2.0000     -11.262150      -306.4587
   9   2.0000      -1.478214       -40.2242
  10   2.0000      -1.428209       -38.8635
  11   2.0000      -1.396029       -37.9879
  12   2.0000      -1.208708       -32.8906
  13   2.0000      -1.114336       -30.3226
  14   2.0000      -1.027031       -27.9469
  15   2.0000      -0.894832       -24.3496
  16   2.0000      -0.883416       -24.0390
  17   2.0000      -0.777979       -21.1699
  18   2.0000      -0.750016       -20.4090
  19   2.0000      -0.738319       -20.0907
  20   2.0000      -0.681843       -18.5539
  21   2.0000      -0.670432       -18.2434
  22   2.0000      -0.652428       -17.7535
  23   2.0000      -0.636682       -17.3250
  24   2.0000      -0.609670       -16.5900
  25   2.0000      -0.602494       -16.3947
  26   2.0000      -0.562270       -15.3002
  27   2.0000      -0.555368       -15.1123
  28   2.0000      -0.525496       -14.2995
  29   2.0000      -0.459233       -12.4964
  30   2.0000      -0.456870       -12.4321
  31   2.0000      -0.416910       -11.3447
  32   2.0000      -0.293299        -7.9811
  33   0.0000       0.093536         2.5452
  34   0.0000       0.122528         3.3341
  35   0.0000       0.154077         4.1926
  36   0.0000       0.155973         4.2442
  37   0.0000       0.162405         4.4193

MULLIKEN ATOMIC CHARGES
-----------------------
   0 O :   -0.395032
   1 C :    0.161532
   2 C :    0.157957
   3 O :   -0.419094
   4 C :    0.205102
   5 N :   -0.496438
   6 O :   -0.207136
   7 C :    0.004682
   8 C :   -0.209764
   9 H :    0.332437
  10 H :    0.355459
  11 H :    0.222231
  12 H :    0.151499
  13 H :    0.136565
Sum of atomic charges:   -0.0000000

LOEWDIN ATOMIC CHARGES
----------------------
   0 O :    0.097517
   1 C :   -0.267799
   2 C :   -0.257062
   3 O :    0.099334
   4 C :   -0.366668
   5 N :   -0.098462
   6 O :    0.331187
   7 C :   -0.227508
   8 C :   -0.173242
   9 H :    0.193815
  10 H :    0.205841
  11 H :    0.165332
  12 H :    0.142334
  13 H :    0.155382

  Mayer bond orders larger than 0.1
B(  0-O ,  1-C ) :   1.1577 B(  0-O ,  9-H ) :   0.8296 B(  1-C ,  2-C ) :   1.4717
B(  1-C ,  8-C ) :   1.0759 B(  2-C ,  3-O ) :   1.1808 B(  2-C ,  4-C ) :   1.0641
B(  3-O , 10-H ) :   0.7796 B(  4-C ,  5-N ) :   1.8404 B(  4-C ,  6-O ) :   1.0150
B(  5-N , 11-H ) :   0.8611 B(  6-O ,  7-C ) :   1.0574 B(  7-C ,  8-C ) :   1.6090
B(  7-C , 12-H ) :   0.9358 B(  8-C , 13-H ) :   0.9058

MP2 TOTAL ENERGY:     -473.095068382 Eh
FINAL SINGLE POINT ENERGY      -473.095068381933

DIPOLE MOMENT
-------------
                                X             Y             Z
Electronic contribution:     -0.78434       0.25583       0.00568
Nuclear contribution   :      2.47730      -0.42989      -0.01583
                        -----------------------------------------
Total Dipole Moment    :      1.69297      -0.17406      -0.01014
                        -----------------------------------------
Magnitude (a.u.)       :      1.70192
Magnitude (Debye)      :      4.32594

                             ****ORCA TERMINATED NORMALLY****
TOTAL RUN TIME: 0 days 0 hours 13 minutes 51 seconds 700 msec
