                         Program Version 3.0.3 - RELEASE   -
|  1> ! RI-MP2 RIJK def2-TZVP def2-TZVP/C def2-TZVP/JK TIGHTSCF
|  2> % maxcore 2000
|  3> % mp2 density relaxed end
|  4> *xyz 0 1
|  5>  C        0.0111132348     1.5104213488    -0.0262042583
|  6>  C       -0.0257205858     0.0197089175    -0.0237749025
|  7>  C       -1.0548873545    -0.8250061017    -0.1304361555
|  8>  C       -0.5552009128    -2.2371509554    -0.0714509217
|  9>  O        0.8622339173    -2.1158686665     0.0797506251
| 10>  C        1.2041928347    -0.7868819319     0.1111042530
| 11>  N        2.3812445427    -0.3360014554     0.2354635769
| 12>  H        0.6451093630     1.8752441529    -0.8408820232
| 13>  H       -0.9884014890     1.9378199534    -0.1349510471
| 14>  H        0.4590661320     1.8825791815     0.9008958523
| 15>  H       -2.1012698474    -0.5725003757    -0.2432428241
| 16>  H       -0.9591923959    -2.8024370002     0.7794185226
| 17>  H       -0.7704783121    -2.8093714065    -0.9841163854
| 18>  H        3.0556597631    -1.0986613809     0.3109254180
| 19> *
| 20>
| 21>                          ****END OF INPUT****

CARTESIAN COORDINATES (ANGSTROEM)
---------------------------------
  C      0.011113    1.510421   -0.026204
  C     -0.025721    0.019709   -0.023775
  C     -1.054887   -0.825006   -0.130436
  C     -0.555201   -2.237151   -0.071451
  O      0.862234   -2.115869    0.079751
  C      1.204193   -0.786882    0.111104
  N      2.381245   -0.336001    0.235464
  H      0.645109    1.875244   -0.840882
  H     -0.988401    1.937820   -0.134951
  H      0.459066    1.882579    0.900896
  H     -2.101270   -0.572500   -0.243243
  H     -0.959192   -2.802437    0.779419
  H     -0.770478   -2.809371   -0.984116
  H      3.055660   -1.098661    0.310925

 Total Charge           Charge          ....    0
 Multiplicity           Mult            ....    1
 Number of Electrons    NEL             ....   52
 Basis Dimension        Dim             ....  259

ORBITAL ENERGIES
----------------

  NO   OCC          E(Eh)            E(eV)
   0   2.0000     -20.593001      -560.3641
   1   2.0000     -15.528634      -422.5556
   2   2.0000     -11.334165      -308.4183
   3   2.0000     -11.303023      -307.5709
   4   2.0000     -11.255261      -306.2712
   5   2.0000     -11.253526      -306.2240
   6   2.0000     -11.229496      -305.5701
   7   2.0000      -1.430873       -38.9360
   8   2.0000      -1.192086       -32.4383
   9   2.0000      -1.111493       -30.2453
  10   2.0000      -0.994963       -27.0743
  11   2.0000      -0.931076       -25.3359
  12   2.0000      -0.819265       -22.2933
  13   2.0000      -0.743580       -20.2338
  14   2.0000      -0.696076       -18.9412
  15   2.0000      -0.676706       -18.4141
  16   2.0000      -0.643798       -17.5186
  17   2.0000      -0.603346       -16.4179
  18   2.0000      -0.575569       -15.6620
  19   2.0000      -0.560838       -15.2612
  20   2.0000      -0.530308       -14.4304
  21   2.0000      -0.530134       -14.4257
  22   2.0000      -0.509665       -13.8687
  23   2.0000      -0.436603       -11.8806
  24   2.0000      -0.424717       -11.5571
  25   2.0000      -0.354362        -9.6427
  26   0.0000       0.112037         3.0487
  27   0.0000       0.142509         3.8779
  28   0.0000       0.156525         4.2593
  29   0.0000       0.170428         4.6376
  30   0.0000       0.192218         5.2305

MULLIKEN ATOMIC CHARGES
-----------------------
   0 C :   -0.383269
   1 C :    0.056300
   2 C :   -0.219288
   3 C :    0.029783
   4 O :   -0.270920
   5 C :    0.124050
   6 N :   -0.391937
   7 H :    0.153209
   8 H :    0.134395
   9 H :    0.153220
  10 H :    0.142450
  11 H :    0.124793
  12 H :    0.124804
  13 H :    0.222411
Sum of atomic charges:    0.0000000

LOEWDIN ATOMIC CHARGES
----------------------
   0 C :   -0.256942
   1 C :   -0.160319
   2 C :   -0.120477
   3 C :   -0.259350
   4 O :    0.236463
   5 C :   -0.370699
   6 N :   -0.060587
   7 H :    0.141425
   8 H :    0.129367
   9 H :    0.141418
  10 H :    0.143443
  11 H :    0.134346
  12 H :    0.134349
  13 H :    0.167562

  Mayer bond orders larger than 0.1
B(  0-C ,  1-C ) :   0.8894 B(  0-C ,  7-H ) :   0.9247 B(  0-C ,  8-H ) :   0.9475
B(  0-C ,  9-H ) :   0.9247 B(  1-C ,  2-C ) :   1.7104 B(  1-C ,  5-C ) :   0.9640
B(  2-C ,  3-C ) :   0.9993 B(  2-C , 10-H ) :   0.9165 B(  3-C ,  4-O ) :   0.8962
B(  3-C , 11-H ) :   0.9100 B(  3-C , 12-H ) :   0.9100 B(  4-O ,  5-C ) :   1.0815
B(  5-C ,  6-N ) :   2.0259 B(  6-N , 13-H ) :   0.8573

MP2 TOTAL ENERGY:     -324.049115432 Eh
FINAL SINGLE POINT ENERGY      -324.049115432306

DIPOLE MOMENT
-------------
                                X             Y             Z
Electronic contribution:      2.23803      -3.39252       0.25387
Nuclear contribution   :     -3.40334       3.09088      -0.37746
                        -----------------------------------------
Total Dipole Moment    :     -1.16531      -0.30164      -0.12360
                        -----------------------------------------
Magnitude (a.u.)       :      1.21005
Magnitude (Debye)      :      3.07570

                             ****ORCA TERMINATED NORMALLY****
TOTAL RUN TIME: 0 days 0 hours 7 minutes 27 seconds 231 msec
