                         Program Version 3.0.3 - RELEASE   -
|  1> ! RI-MP2 RIJK def2-TZVP def2-TZVP/C def2-TZVP/JK TIGHTSCF
|  2> % maxcore 2000
|  3> % mp2 density relaxed end
|  4> *xyz 0 1
|  5>  C       -0.2962816963     1.4170346289    -0.1444656006
|  6>  N       -0.1764840742    -0.0256746701    -0.2359004109
|  7>  C        0.7914375419    -0.5892277884    -1.0087896955
|  8>  N        1.7224038875     0.0968194470    -1.5487047611
|  9>  C        0.6889096348    -2.1302060345    -1.0472053321
| 10>  O       -0.6576569514    -2.5250997843    -0.9189722607
| 11>  C       -0.8375791414    -3.9068951390    -0.6408644260
| 12>  C        1.2920955973    -2.6698162351    -2.2834353243
| 13>  N        1.7513243430    -3.1325462540    -3.2372376781
| 14>  H        0.6505758679     1.8438265868     0.1940852311
| 15>  H       -0.5382610339     1.8756888771    -1.1116763609
| 16>  H       -1.0793514524     1.6603022483     0.5767494069
| 17>  H       -0.9966222283    -0.5903617915    -0.0873100905
| 18>  H        2.3754738988    -0.4912193128    -2.0619955988
| 19>  H        1.2780423084    -2.5197685245    -0.1994978312
| 20>  H       -0.3267161044    -4.1931856179     0.2894146813
| 21>  H       -1.9112184464    -4.0650121080    -0.5280268051
| 22>  H       -0.4639558908    -4.5309719379    -1.4621170337
| 23> *
| 24>
| 25>                          ****END OF INPUT****

CARTESIAN COORDINATES (ANGSTROEM)
---------------------------------
  C     -0.296282    1.417035   -0.144466
  N     -0.176484   -0.025675   -0.235900
  C      0.791438   -0.589228   -1.008790
  N      1.722404    0.096819   -1.548705
  C      0.688910   -2.130206   -1.047205
  O     -0.657657   -2.525100   -0.918972
  C     -0.837579   -3.906895   -0.640864
  C      1.292096   -2.669816   -2.283435
  N      1.751324   -3.132546   -3.237238
  H      0.650576    1.843827    0.194085
  H     -0.538261    1.875689   -1.111676
  H     -1.079351    1.660302    0.576749
  H     -0.996622   -0.590362   -0.087310
  H      2.375474   -0.491219   -2.061996
  H      1.278042   -2.519769   -0.199498
  H     -0.326716   -4.193186    0.289415
  H     -1.911218   -4.065012   -0.528027
  H     -0.463956   -4.530972   -1.462117

 Total Charge           Charge          ....    0
 Multiplicity           Mult            ....    1
 Number of Electrons    NEL             ....   68
 Basis Dimension        Dim             ....  333

ORBITAL ENERGIES
----------------

  NO   OCC          E(Eh)            E(eV)
   0   2.0000     -20.609151      -560.8035
   1   2.0000     -15.591505      -424.2664
   2   2.0000     -15.579362      -423.9360
   3   2.0000     -15.531350      -422.6295
   4   2.0000     -11.363452      -309.2153
   5   2.0000     -11.333045      -308.3878
   6   2.0000     -11.304654      -307.6153
   7   2.0000     -11.288836      -307.1848
   8   2.0000     -11.256626      -306.3084
   9   2.0000      -1.432442       -38.9787
  10   2.0000      -1.283202       -34.9177
  11   2.0000      -1.235654       -33.6238
  12   2.0000      -1.165601       -31.7176
  13   2.0000      -1.051293       -28.6071
  14   2.0000      -0.947138       -25.7729
  15   2.0000      -0.942011       -25.6334
  16   2.0000      -0.801589       -21.8124
  17   2.0000      -0.760859       -20.7040
  18   2.0000      -0.737609       -20.0714
  19   2.0000      -0.710375       -19.3303
  20   2.0000      -0.647345       -17.6152
  21   2.0000      -0.638469       -17.3736
  22   2.0000      -0.625899       -17.0316
  23   2.0000      -0.608153       -16.5487
  24   2.0000      -0.598664       -16.2905
  25   2.0000      -0.573948       -15.6179
  26   2.0000      -0.551402       -15.0044
  27   2.0000      -0.535053       -14.5595
  28   2.0000      -0.497529       -13.5384
  29   2.0000      -0.483992       -13.1701
  30   2.0000      -0.483004       -13.1432
  31   2.0000      -0.477613       -12.9965
  32   2.0000      -0.427782       -11.6405
  33   2.0000      -0.363202        -9.8832
  34   0.0000       0.114903         3.1267
  35   0.0000       0.147654         4.0179
  36   0.0000       0.149398         4.0653
  37   0.0000       0.153621         4.1802
  38   0.0000       0.174922         4.7599

MULLIKEN ATOMIC CHARGES
-----------------------
   0 C :   -0.264108
   1 N :   -0.320575
   2 C :    0.125878
   3 N :   -0.408482
   4 C :    0.230999
   5 O :   -0.322543
   6 C :   -0.233264
   7 C :   -0.226552
   8 N :   -0.045468
   9 H :    0.152685
  10 H :    0.136981
  11 H :    0.133408
  12 H :    0.254455
  13 H :    0.221669
  14 H :    0.141636
  15 H :    0.124090
  16 H :    0.150717
  17 H :    0.148476
Sum of atomic charges:    0.0000000

LOEWDIN ATOMIC CHARGES
----------------------
   0 C :   -0.312075
   1 N :    0.076814
   2 C :   -0.372893
   3 N :   -0.067343
   4 C :   -0.288886
   5 O :    0.165968
   6 C :   -0.331606
   7 C :   -0.172973
   8 N :    0.079043
   9 H :    0.125812
  10 H :    0.116577
  11 H :    0.117050
  12 H :    0.187261
  13 H :    0.166120
  14 H :    0.169742
  15 H :    0.107599
  16 H :    0.118919
  17 H :    0.114872

  Mayer bond orders larger than 0.1
B(  0-C ,  1-N ) :   0.8831 B(  0-C ,  9-H ) :   0.9333 B(  0-C , 10-H ) :   0.9358
B(  0-C , 11-H ) :   0.9309 B(  1-N ,  2-C ) :   1.1632 B(  1-N , 12-H ) :   0.8604
B(  2-C ,  3-N ) :   1.9048 B(  2-C ,  4-C ) :   0.8845 B(  3-N , 13-H ) :   0.8642
B(  4-C ,  5-O ) :   0.9371 B(  4-C ,  7-C ) :   0.8698 B(  4-C , 14-H ) :   0.9273
B(  5-O ,  6-C ) :   0.8834 B(  6-C , 15-H ) :   0.9320 B(  6-C , 16-H ) :   0.9360
B(  6-C , 17-H ) :   0.9317 B(  7-C ,  8-N ) :   2.8453

MP2 TOTAL ENERGY:     -434.542613724 Eh
FINAL SINGLE POINT ENERGY      -434.542613724116

DIPOLE MOMENT
-------------
                                X             Y             Z
Electronic contribution:      3.45895      -2.71754      -4.45822
Nuclear contribution   :     -4.56193       2.21448       5.90612
                        -----------------------------------------
Total Dipole Moment    :     -1.10298      -0.50306       1.44789
                        -----------------------------------------
Magnitude (a.u.)       :      1.88839
Magnitude (Debye)      :      4.79991

                             ****ORCA TERMINATED NORMALLY****
TOTAL RUN TIME: 0 days 0 hours 15 minutes 31 seconds 932 msec
