                         Program Version 3.0.3 - RELEASE   -
|  1> ! RI-MP2 RIJK def2-TZVP def2-TZVP/C def2-TZVP/JK TIGHTSCF
|  2> % maxcore 2000
|  3> % mp2 density relaxed end
|  4> *xyz 0 1
|  5>  C        0.1142405811     1.6081105657     0.1173188673
|  6>  C       -0.0342120544     0.0837294993    -0.0011313766
|  7>  C        0.7706465577    -0.6516393730     1.0829243262
|  8>  C       -1.4751645913    -0.3355059183     0.0436990608
|  9>  O       -1.8267896673    -1.6255212559    -0.4903694581
| 10>  C       -2.5285653642    -0.4602411405    -0.9603462242
| 11>  C       -3.6264635584    -0.0694843741     0.0772505976
| 12>  C       -3.6164800746    -0.9957530574     1.2635915720
| 13>  C       -2.5397588307     0.0496248743     1.1372888570
| 14>  H        1.1656340928     1.8974123130     0.0248012174
| 15>  H       -0.4505855222     2.1271670424    -0.6633180384
| 16>  H       -0.2417482614     1.9697971964     1.0881435152
| 17>  H        0.3434961926    -0.2285952843    -0.9829478748
| 18>  H        0.4101456107    -0.3901171941     2.0842344101
| 19>  H        0.6835028251    -1.7353632997     0.9654082778
| 20>  H        1.8304394554    -0.3834162277     1.0284566518
| 21>  H       -2.5402362129    -0.2846383317    -2.0300331772
| 22>  H       -4.4317104603     0.6205143190    -0.1362480191
| 23>  H       -4.3707018422    -0.7799045039     2.0138471296
| 24>  H       -3.3775159506    -2.0433973767     1.1339035807
| 25>  H       -2.4004514450     0.8438961176     1.8582828251
| 26> *
| 27>
| 28>                          ****END OF INPUT****

CARTESIAN COORDINATES (ANGSTROEM)
---------------------------------
  C      0.114241    1.608111    0.117319
  C     -0.034212    0.083729   -0.001131
  C      0.770647   -0.651639    1.082924
  C     -1.475165   -0.335506    0.043699
  O     -1.826790   -1.625521   -0.490369
  C     -2.528565   -0.460241   -0.960346
  C     -3.626464   -0.069484    0.077251
  C     -3.616480   -0.995753    1.263592
  C     -2.539759    0.049625    1.137289
  H      1.165634    1.897412    0.024801
  H     -0.450586    2.127167   -0.663318
  H     -0.241748    1.969797    1.088144
  H      0.343496   -0.228595   -0.982948
  H      0.410146   -0.390117    2.084234
  H      0.683503   -1.735363    0.965408
  H      1.830439   -0.383416    1.028457
  H     -2.540236   -0.284638   -2.030033
  H     -4.431710    0.620514   -0.136248
  H     -4.370702   -0.779905    2.013847
  H     -3.377516   -2.043397    1.133904
  H     -2.400451    0.843896    1.858283

 Total Charge           Charge          ....    0
 Multiplicity           Mult            ....    1
 Number of Electrons    NEL             ....   68
 Basis Dimension        Dim             ....  351

ORBITAL ENERGIES
----------------

  NO   OCC          E(Eh)            E(eV)
   0   2.0000     -20.559627      -559.4559
   1   2.0000     -11.286774      -307.1287
   2   2.0000     -11.282694      -307.0177
   3   2.0000     -11.236850      -305.7702
   4   2.0000     -11.236738      -305.7672
   5   2.0000     -11.234995      -305.7198
   6   2.0000     -11.229113      -305.5597
   7   2.0000     -11.220019      -305.3122
   8   2.0000     -11.213931      -305.1466
   9   2.0000      -1.411847       -38.4183
  10   2.0000      -1.155078       -31.4313
  11   2.0000      -1.080099       -29.3910
  12   2.0000      -0.941592       -25.6220
  13   2.0000      -0.929849       -25.3025
  14   2.0000      -0.885295       -24.0901
  15   2.0000      -0.821008       -22.3408
  16   2.0000      -0.774417       -21.0729
  17   2.0000      -0.735783       -20.0217
  18   2.0000      -0.688296       -18.7295
  19   2.0000      -0.663831       -18.0638
  20   2.0000      -0.616054       -16.7637
  21   2.0000      -0.608557       -16.5597
  22   2.0000      -0.580692       -15.8014
  23   2.0000      -0.559431       -15.2229
  24   2.0000      -0.540627       -14.7112
  25   2.0000      -0.535267       -14.5654
  26   2.0000      -0.515040       -14.0150
  27   2.0000      -0.505194       -13.7470
  28   2.0000      -0.484535       -13.1849
  29   2.0000      -0.478451       -13.0193
  30   2.0000      -0.462025       -12.5723
  31   2.0000      -0.423134       -11.5141
  32   2.0000      -0.414249       -11.2723
  33   2.0000      -0.346129        -9.4186
  34   0.0000       0.136239         3.7073
  35   0.0000       0.158465         4.3121
  36   0.0000       0.162135         4.4119
  37   0.0000       0.172884         4.7044
  38   0.0000       0.188176         5.1205

MULLIKEN ATOMIC CHARGES
-----------------------
   0 C :   -0.411658
   1 C :   -0.035914
   2 C :   -0.419206
   3 C :    0.189673
   4 O :   -0.328807
   5 C :   -0.064842
   6 C :   -0.109427
   7 C :   -0.266054
   8 C :   -0.162517
   9 H :    0.137192
  10 H :    0.134450
  11 H :    0.122826
  12 H :    0.096212
  13 H :    0.126250
  14 H :    0.149181
  15 H :    0.133069
  16 H :    0.139527
  17 H :    0.139897
  18 H :    0.129690
  19 H :    0.159008
  20 H :    0.141449
Sum of atomic charges:    0.0000000

LOEWDIN ATOMIC CHARGES
----------------------
   0 C :   -0.282650
   1 C :   -0.274830
   2 C :   -0.281821
   3 C :   -0.236866
   4 O :    0.190982
   5 C :   -0.197312
   6 C :   -0.169205
   7 C :   -0.201374
   8 C :   -0.147569
   9 H :    0.125221
  10 H :    0.125285
  11 H :    0.123391
  12 H :    0.162211
  13 H :    0.125112
  14 H :    0.129628
  15 H :    0.123566
  16 H :    0.131903
  17 H :    0.136461
  18 H :    0.140809
  19 H :    0.139229
  20 H :    0.137829

  Mayer bond orders larger than 0.1
B(  0-C ,  1-C ) :   0.9141 B(  0-C ,  9-H ) :   0.9371 B(  0-C , 10-H ) :   0.9393
B(  0-C , 11-H ) :   0.9297 B(  1-C ,  2-C ) :   0.9243 B(  1-C ,  3-C ) :   0.8970
B(  1-C , 12-H ) :   0.9257 B(  2-C , 13-H ) :   0.9285 B(  2-C , 14-H ) :   0.9383
B(  2-C , 15-H ) :   0.9384 B(  3-C ,  4-O ) :   0.8820 B(  3-C ,  5-C ) :   0.9816
B(  3-C ,  8-C ) :   0.8506 B(  4-O ,  5-C ) :   0.9122 B(  5-C ,  6-C ) :   0.8658
B(  5-C , 16-H ) :   0.9197 B(  6-C ,  7-C ) :   0.9116 B(  6-C ,  8-C ) :   0.8911
B(  6-C , 17-H ) :   0.9178 B(  7-C ,  8-C ) :   0.9009 B(  7-C , 18-H ) :   0.9294
B(  7-C , 19-H ) :   0.8986 B(  8-C , 20-H ) :   0.9216

MP2 TOTAL ENERGY:     -386.339698074 Eh
FINAL SINGLE POINT ENERGY      -386.339698074338

DIPOLE MOMENT
-------------
                                X             Y             Z
Electronic contribution:     -5.39305      -3.80083      -3.06267
Nuclear contribution   :      5.40191       4.54355       3.10062
                        -----------------------------------------
Total Dipole Moment    :      0.00886       0.74273       0.03795
                        -----------------------------------------
Magnitude (a.u.)       :      0.74375
Magnitude (Debye)      :      1.89046

                             ****ORCA TERMINATED NORMALLY****
TOTAL RUN TIME: 0 days 0 hours 21 minutes 0 seconds 882 msec
