                         Program Version 3.0.3 - RELEASE   -
|  1> ! RI-MP2 RIJK def2-TZVP def2-TZVP/C def2-TZVP/JK TIGHTSCF
|  2> % maxcore 2000
|  3> % mp2 density relaxed end
|  4> *xyz 0 1
|  5>  C        0.1011125379     1.5523471699     0.2017107131
|  6>  C        0.0037543720     0.0262074413     0.0158643889
|  7>  C       -1.3954963133    -0.4904282602    -0.0723988292
|  8>  C       -2.1952428807    -0.7631769918    -1.1720317926
|  9>  N       -1.8066037154    -0.6542114568    -2.5284541013
| 10>  C       -3.4135518921    -1.2307807342    -0.6279502999
| 11>  N       -3.3883433148    -1.2527277269     0.7033744682
| 12>  N       -2.1668264300    -0.7873424853     1.0125019192
| 13>  H        1.1463937680     1.8736279660     0.2494749927
| 14>  H       -0.3788566354     2.0811600782    -0.6276575535
| 15>  H       -0.3940459156     1.8711018454     1.1244465910
| 16>  H        0.5227902683    -0.2648921710    -0.9041878595
| 17>  H        0.5307398915    -0.4732487771     0.8389177641
| 18>  H       -1.6172863831     0.3041611778    -2.8001485180
| 19>  H       -2.5283707472    -1.0087002774    -3.1439978863
| 20>  H       -4.2970687712    -1.5613978284    -1.1563412790
| 21>  H       -1.9067335786    -0.7117698096     1.9812270620
| 22> *
| 23>
| 24>                          ****END OF INPUT****

CARTESIAN COORDINATES (ANGSTROEM)
---------------------------------
  C      0.101113    1.552347    0.201711
  C      0.003754    0.026207    0.015864
  C     -1.395496   -0.490428   -0.072399
  C     -2.195243   -0.763177   -1.172032
  N     -1.806604   -0.654211   -2.528454
  C     -3.413552   -1.230781   -0.627950
  N     -3.388343   -1.252728    0.703374
  N     -2.166826   -0.787342    1.012502
  H      1.146394    1.873628    0.249475
  H     -0.378857    2.081160   -0.627658
  H     -0.394046    1.871102    1.124447
  H      0.522790   -0.264892   -0.904188
  H      0.530740   -0.473249    0.838918
  H     -1.617286    0.304161   -2.800149
  H     -2.528371   -1.008700   -3.143998
  H     -4.297069   -1.561398   -1.156341
  H     -1.906734   -0.711770    1.981227

 Total Charge           Charge          ....    0
 Multiplicity           Mult            ....    1
 Number of Electrons    NEL             ....   60
 Basis Dimension        Dim             ....  302

ORBITAL ENERGIES
----------------

  NO   OCC          E(Eh)            E(eV)
   0   2.0000     -15.624387      -425.1612
   1   2.0000     -15.576991      -423.8715
   2   2.0000     -15.556383      -423.3107
   3   2.0000     -11.262034      -306.4555
   4   2.0000     -11.245009      -305.9922
   5   2.0000     -11.242661      -305.9284
   6   2.0000     -11.240603      -305.8723
   7   2.0000     -11.227821      -305.5245
   8   2.0000      -1.363890       -37.1133
   9   2.0000      -1.196688       -32.5635
  10   2.0000      -1.103573       -30.0298
  11   2.0000      -1.047015       -28.4907
  12   2.0000      -0.995698       -27.0943
  13   2.0000      -0.872551       -23.7433
  14   2.0000      -0.811119       -22.0717
  15   2.0000      -0.775858       -21.1122
  16   2.0000      -0.705915       -19.2089
  17   2.0000      -0.653940       -17.7946
  18   2.0000      -0.628192       -17.0940
  19   2.0000      -0.617961       -16.8156
  20   2.0000      -0.599001       -16.2997
  21   2.0000      -0.591639       -16.0993
  22   2.0000      -0.567984       -15.4556
  23   2.0000      -0.528322       -14.3764
  24   2.0000      -0.516804       -14.0630
  25   2.0000      -0.499579       -13.5942
  26   2.0000      -0.471698       -12.8355
  27   2.0000      -0.437338       -11.9006
  28   2.0000      -0.347842        -9.4653
  29   2.0000      -0.302527        -8.2322
  30   0.0000       0.118097         3.2136
  31   0.0000       0.139145         3.7863
  32   0.0000       0.155993         4.2448
  33   0.0000       0.167639         4.5617
  34   0.0000       0.181545         4.9401

MULLIKEN ATOMIC CHARGES
-----------------------
   0 C :   -0.362787
   1 C :   -0.302785
   2 C :    0.046899
   3 C :    0.148129
   4 N :   -0.558990
   5 C :   -0.154850
   6 N :   -0.226787
   7 N :   -0.109531
   8 H :    0.132329
   9 H :    0.122496
  10 H :    0.121762
  11 H :    0.153170
  12 H :    0.122695
  13 H :    0.252555
  14 H :    0.243647
  15 H :    0.122942
  16 H :    0.249106
Sum of atomic charges:    0.0000000

LOEWDIN ATOMIC CHARGES
----------------------
   0 C :   -0.309766
   1 C :   -0.261464
   2 C :   -0.229272
   3 C :   -0.273870
   4 N :   -0.109688
   5 C :   -0.277654
   6 N :    0.012080
   7 N :    0.142050
   8 H :    0.120818
   9 H :    0.120729
  10 H :    0.119694
  11 H :    0.153409
  12 H :    0.143863
  13 H :    0.164758
  14 H :    0.166177
  15 H :    0.130860
  16 H :    0.187278

  Mayer bond orders larger than 0.1
B(  0-C ,  1-C ) :   0.9125 B(  0-C ,  8-H ) :   0.9366 B(  0-C ,  9-H ) :   0.9374
B(  0-C , 10-H ) :   0.9375 B(  1-C ,  2-C ) :   0.8728 B(  1-C , 11-H ) :   0.9475
B(  1-C , 12-H ) :   0.9400 B(  2-C ,  3-C ) :   1.4063 B(  2-C ,  6-N ) :   0.1265
B(  2-C ,  7-N ) :   1.1687 B(  3-C ,  4-N ) :   0.9411 B(  3-C ,  5-C ) :   1.2864
B(  4-N , 13-H ) :   0.8734 B(  4-N , 14-H ) :   0.8916 B(  5-C ,  6-N ) :   1.5300
B(  5-C , 15-H ) :   0.9447 B(  6-N ,  7-N ) :   1.0696 B(  7-N , 16-H ) :   0.8734

MP2 TOTAL ENERGY:     -359.444782124 Eh
FINAL SINGLE POINT ENERGY      -359.444782123732

DIPOLE MOMENT
-------------
                                X             Y             Z
Electronic contribution:     -5.78884      -4.81702       1.25337
Nuclear contribution   :      6.42962       5.50351      -1.44863
                        -----------------------------------------
Total Dipole Moment    :      0.64078       0.68649      -0.19526
                        -----------------------------------------
Magnitude (a.u.)       :      0.95916
Magnitude (Debye)      :      2.43799

                             ****ORCA TERMINATED NORMALLY****
TOTAL RUN TIME: 0 days 0 hours 12 minutes 39 seconds 572 msec
