                         Program Version 3.0.3 - RELEASE   -
|  1> ! RI-MP2 RIJK def2-TZVP def2-TZVP/C def2-TZVP/JK TIGHTSCF
|  2> % maxcore 2000
|  3> % mp2 density relaxed end
|  4> *xyz 0 1
|  5>  N       -0.0995468972     1.2622034365     0.3107408834
|  6>  C       -0.0242044296     0.0228479859     0.0346353310
|  7>  N        1.1608513550    -0.7008448418    -0.1388400423
|  8>  C        1.3409030367    -1.9449470264    -0.7343653342
|  9>  O        2.4312139849    -2.3980967415    -0.9509918827
| 10>  O        0.2236046558    -2.6270871155    -1.0671343616
| 11>  C       -1.0626791394    -2.1742935386    -0.7058021089
| 12>  C       -1.4266901447    -2.0387349920     0.7343409056
| 13>  C       -1.2445496348    -0.7949672420    -0.1369106539
| 14>  H        0.8227191806     1.6972264096     0.3735981925
| 15>  H        2.0368602560    -0.2227744037     0.0180148712
| 16>  H       -1.7848892383    -2.5604956575    -1.4137589170
| 17>  H       -2.4357049632    -2.2903513204     1.0383004685
| 18>  H       -0.6575032548    -2.2480717682     1.4693551050
| 19>  H       -2.1233289770    -0.2226510043    -0.4025917265
| 20> *
| 21>
| 22>                          ****END OF INPUT****

CARTESIAN COORDINATES (ANGSTROEM)
---------------------------------
  N     -0.099547    1.262203    0.310741
  C     -0.024204    0.022848    0.034635
  N      1.160851   -0.700845   -0.138840
  C      1.340903   -1.944947   -0.734365
  O      2.431214   -2.398097   -0.950992
  O      0.223605   -2.627087   -1.067134
  C     -1.062679   -2.174294   -0.705802
  C     -1.426690   -2.038735    0.734341
  C     -1.244550   -0.794967   -0.136911
  H      0.822719    1.697226    0.373598
  H      2.036860   -0.222774    0.018015
  H     -1.784889   -2.560496   -1.413759
  H     -2.435705   -2.290351    1.038300
  H     -0.657503   -2.248072    1.469355
  H     -2.123329   -0.222651   -0.402592

 Total Charge           Charge          ....    0
 Multiplicity           Mult            ....    1
 Number of Electrons    NEL             ....   66
 Basis Dimension        Dim             ....  315

ORBITAL ENERGIES
----------------

  NO   OCC          E(Eh)            E(eV)
   0   2.0000     -20.627704      -561.3084
   1   2.0000     -20.543632      -559.0207
   2   2.0000     -15.628460      -425.2720
   3   2.0000     -15.553710      -423.2380
   4   2.0000     -11.430529      -311.0405
   5   2.0000     -11.352195      -308.9089
   6   2.0000     -11.331213      -308.3380
   7   2.0000     -11.273111      -306.7569
   8   2.0000     -11.266156      -306.5677
   9   2.0000      -1.490797       -40.5667
  10   2.0000      -1.386654       -37.7328
  11   2.0000      -1.306156       -35.5423
  12   2.0000      -1.194724       -32.5101
  13   2.0000      -1.172475       -31.9047
  14   2.0000      -0.944241       -25.6941
  15   2.0000      -0.916526       -24.9399
  16   2.0000      -0.856259       -23.3000
  17   2.0000      -0.785905       -21.3856
  18   2.0000      -0.771114       -20.9831
  19   2.0000      -0.723356       -19.6835
  20   2.0000      -0.697104       -18.9692
  21   2.0000      -0.667316       -18.1586
  22   2.0000      -0.659742       -17.9525
  23   2.0000      -0.608314       -16.5531
  24   2.0000      -0.601607       -16.3706
  25   2.0000      -0.580473       -15.7955
  26   2.0000      -0.562274       -15.3003
  27   2.0000      -0.522036       -14.2053
  28   2.0000      -0.489573       -13.3219
  29   2.0000      -0.462378       -12.5819
  30   2.0000      -0.446760       -12.1570
  31   2.0000      -0.433177       -11.7874
  32   2.0000      -0.395754       -10.7690
  33   0.0000       0.124911         3.3990
  34   0.0000       0.132471         3.6047
  35   0.0000       0.145801         3.9675
  36   0.0000       0.162626         4.4253
  37   0.0000       0.182986         4.9793

MULLIKEN ATOMIC CHARGES
-----------------------
   0 N :   -0.337924
   1 C :    0.067586
   2 N :   -0.327744
   3 C :    0.347188
   4 O :   -0.314005
   5 O :   -0.212538
   6 C :    0.047933
   7 C :   -0.286931
   8 C :   -0.056875
   9 H :    0.203591
  10 H :    0.251246
  11 H :    0.149588
  12 H :    0.151156
  13 H :    0.162132
  14 H :    0.155596
Sum of atomic charges:    0.0000000

LOEWDIN ATOMIC CHARGES
----------------------
   0 N :   -0.046347
   1 C :   -0.351590
   2 N :    0.154942
   3 C :   -0.561492
   4 O :    0.113683
   5 O :    0.300742
   6 C :   -0.246214
   7 C :   -0.177964
   8 C :   -0.156104
   9 H :    0.159456
  10 H :    0.205582
  11 H :    0.149331
  12 H :    0.142354
  13 H :    0.147867
  14 H :    0.165753

  Mayer bond orders larger than 0.1
B(  0-N ,  1-C ) :   2.0614 B(  0-N ,  9-H ) :   0.8545 B(  1-C ,  2-N ) :   1.0251
B(  1-C ,  8-C ) :   0.9371 B(  2-N ,  3-C ) :   1.0527 B(  2-N , 10-H ) :   0.8574
B(  3-C ,  4-O ) :   2.0127 B(  3-C ,  5-O ) :   1.1083 B(  5-O ,  6-C ) :   0.8927
B(  6-C ,  7-C ) :   0.8865 B(  6-C ,  8-C ) :   0.8600 B(  6-C , 11-H ) :   0.9389
B(  7-C ,  8-C ) :   0.8407 B(  7-C , 12-H ) :   0.9210 B(  7-C , 13-H ) :   0.9151
B(  8-C , 14-H ) :   0.9219

MP2 TOTAL ENERGY:     -453.246025052 Eh
FINAL SINGLE POINT ENERGY      -453.246025052172

DIPOLE MOMENT
-------------
                                X             Y             Z
Electronic contribution:      4.12714      -1.44713      -2.33333
Nuclear contribution   :     -4.92556       1.71104       2.71764
                        -----------------------------------------
Total Dipole Moment    :     -0.79842       0.26391       0.38431
                        -----------------------------------------
Magnitude (a.u.)       :      0.92456
Magnitude (Debye)      :      2.35005

                             ****ORCA TERMINATED NORMALLY****
TOTAL RUN TIME: 0 days 0 hours 14 minutes 0 seconds 972 msec
