                         Program Version 3.0.3 - RELEASE   -
|  1> ! RI-MP2 RIJK def2-TZVP def2-TZVP/C def2-TZVP/JK TIGHTSCF
|  2> % maxcore 2000
|  3> % mp2 density relaxed end
|  4> *xyz 0 1
|  5>  O        0.5515935144     0.1027643189    -0.1953956524
|  6>  C        0.6913832426     1.2550530615    -0.4728148908
|  7>  O        0.5445844860     2.2398296346     0.4407233872
|  8>  C        0.7771248886     3.5851470896    -0.0101167330
|  9>  C        2.2203704707     3.9472917620     0.0648019442
| 10>  C        3.0029718981     4.2993899630     1.2910859349
| 11>  C        2.9760916205     5.2590998987     0.1174609525
| 12>  C        3.8066508546     4.6703102695    -1.0175687605
| 13>  O        3.0879989387     3.4057325907    -0.9413040134
| 14>  H        0.9428036700     1.6353351251    -1.4801381138
| 15>  H        0.4078504327     3.7039870964    -1.0359107203
| 16>  H        0.1890726019     4.2258398207     0.6506978473
| 17>  H        2.4176768362     4.6150221246     2.1489351150
| 18>  H        3.9016254306     3.7359268148     1.5249734101
| 19>  H        2.6181489883     6.2771408282     0.1886644772
| 20>  H        3.6353158652     5.1487832113    -1.9877668688
| 21>  H        4.8820492311     4.5467122402    -0.8474875654
| 22> *
| 23>
| 24>                          ****END OF INPUT****

CARTESIAN COORDINATES (ANGSTROEM)
---------------------------------
  O      0.551594    0.102764   -0.195396
  C      0.691383    1.255053   -0.472815
  O      0.544584    2.239830    0.440723
  C      0.777125    3.585147   -0.010117
  C      2.220370    3.947292    0.064802
  C      3.002972    4.299390    1.291086
  C      2.976092    5.259100    0.117461
  C      3.806651    4.670310   -1.017569
  O      3.087999    3.405733   -0.941304
  H      0.942804    1.635335   -1.480138
  H      0.407850    3.703987   -1.035911
  H      0.189073    4.225840    0.650698
  H      2.417677    4.615022    2.148935
  H      3.901625    3.735927    1.524973
  H      2.618149    6.277141    0.188664
  H      3.635316    5.148783   -1.987767
  H      4.882049    4.546712   -0.847488

 Total Charge           Charge          ....    0
 Multiplicity           Mult            ....    1
 Number of Electrons    NEL             ....   68
 Basis Dimension        Dim             ....  327

ORBITAL ENERGIES
----------------

  NO   OCC          E(Eh)            E(eV)
   0   2.0000     -20.606594      -560.7339
   1   2.0000     -20.572123      -559.7959
   2   2.0000     -20.544429      -559.0423
   3   2.0000     -11.376460      -309.5692
   4   2.0000     -11.315796      -307.9185
   5   2.0000     -11.311237      -307.7944
   6   2.0000     -11.301938      -307.5414
   7   2.0000     -11.260085      -306.4025
   8   2.0000     -11.250538      -306.1427
   9   2.0000      -1.458240       -39.6807
  10   2.0000      -1.411337       -38.4044
  11   2.0000      -1.367324       -37.2068
  12   2.0000      -1.140159       -31.0253
  13   2.0000      -1.022933       -27.8354
  14   2.0000      -0.947955       -25.7952
  15   2.0000      -0.856164       -23.2974
  16   2.0000      -0.824923       -22.4473
  17   2.0000      -0.764746       -20.8098
  18   2.0000      -0.734430       -19.9849
  19   2.0000      -0.710746       -19.3404
  20   2.0000      -0.688791       -18.7430
  21   2.0000      -0.661159       -17.9910
  22   2.0000      -0.656231       -17.8570
  23   2.0000      -0.616089       -16.7646
  24   2.0000      -0.598125       -16.2758
  25   2.0000      -0.572809       -15.5869
  26   2.0000      -0.556703       -15.1487
  27   2.0000      -0.549306       -14.9474
  28   2.0000      -0.518764       -14.1163
  29   2.0000      -0.493069       -13.4171
  30   2.0000      -0.468384       -12.7454
  31   2.0000      -0.452658       -12.3174
  32   2.0000      -0.421643       -11.4735
  33   2.0000      -0.398540       -10.8448
  34   0.0000       0.130277         3.5450
  35   0.0000       0.150344         4.0911
  36   0.0000       0.152202         4.1416
  37   0.0000       0.162862         4.4317
  38   0.0000       0.170253         4.6328

MULLIKEN ATOMIC CHARGES
-----------------------
   0 O :   -0.270462
   1 C :    0.199809
   2 O :   -0.212368
   3 C :   -0.085641
   4 C :    0.157505
   5 C :   -0.259921
   6 C :   -0.196774
   7 C :   -0.020337
   8 O :   -0.338789
   9 H :    0.089652
  10 H :    0.137759
  11 H :    0.138099
  12 H :    0.139628
  13 H :    0.144706
  14 H :    0.148961
  15 H :    0.112794
  16 H :    0.115379
Sum of atomic charges:    0.0000000

LOEWDIN ATOMIC CHARGES
----------------------
   0 O :    0.121672
   1 C :   -0.445325
   2 O :    0.240407
   3 C :   -0.259879
   4 C :   -0.300113
   5 C :   -0.175663
   6 C :   -0.175648
   7 C :   -0.232640
   8 O :    0.161627
   9 H :    0.107241
  10 H :    0.137715
  11 H :    0.146270
  12 H :    0.146664
  13 H :    0.140900
  14 H :    0.138906
  15 H :    0.125833
  16 H :    0.122033

  Mayer bond orders larger than 0.1
B(  0-O ,  1-C ) :   2.0221 B(  1-C ,  2-O ) :   1.0564 B(  1-C ,  9-H ) :   0.9142
B(  2-O ,  3-C ) :   0.8513 B(  3-C ,  4-C ) :   0.9307 B(  3-C , 10-H ) :   0.9475
B(  3-C , 11-H ) :   0.9155 B(  4-C ,  5-C ) :   0.8712 B(  4-C ,  6-C ) :   0.8560
B(  4-C ,  8-O ) :   0.9555 B(  5-C ,  6-C ) :   0.8926 B(  5-C , 12-H ) :   0.9247
B(  5-C , 13-H ) :   0.9136 B(  6-C ,  7-C ) :   0.9617 B(  6-C , 14-H ) :   0.9068
B(  7-C ,  8-O ) :   0.9178 B(  7-C , 15-H ) :   0.9228 B(  7-C , 16-H ) :   0.9144

MP2 TOTAL ENERGY:     -458.192570158 Eh
FINAL SINGLE POINT ENERGY      -458.192570158006

DIPOLE MOMENT
-------------
                                X             Y             Z
Electronic contribution:     -2.95602      -5.97976      -0.18582
Nuclear contribution   :      3.27289       8.15717      -0.07141
                        -----------------------------------------
Total Dipole Moment    :      0.31688       2.17742      -0.25723
                        -----------------------------------------
Magnitude (a.u.)       :      2.21534
Magnitude (Debye)      :      5.63094

                             ****ORCA TERMINATED NORMALLY****
TOTAL RUN TIME: 0 days 0 hours 14 minutes 3 seconds 534 msec
