                         Program Version 3.0.3 - RELEASE   -
|  1> ! RI-MP2 RIJK def2-TZVP def2-TZVP/C def2-TZVP/JK TIGHTSCF
|  2> % maxcore 2000
|  3> % mp2 density relaxed end
|  4> *xyz 0 1
|  5>  O        0.0438845510    -0.0707775453     0.0025705621
|  6>  C        0.0107713442     1.1194169435     0.0062703346
|  7>  C        1.1877378510     1.9801876132     0.0006558911
|  8>  N        2.1704304654     2.5870618833    -0.0043418356
|  9>  N       -1.2174290598     1.8536753194     0.0164019841
| 10>  N       -1.2981899794     3.1938026789     0.0210566985
| 11>  N       -2.5489527239     3.4556834733     0.0288835944
| 12>  N       -3.2544584186     2.2725587268     0.0311909065
| 13>  N       -2.4355335099     1.2903960968     0.0229516944
| 14> *
| 15>
| 16>                          ****END OF INPUT****

CARTESIAN COORDINATES (ANGSTROEM)
---------------------------------
  O      0.043885   -0.070778    0.002571
  C      0.010771    1.119417    0.006270
  C      1.187738    1.980188    0.000656
  N      2.170430    2.587062   -0.004342
  N     -1.217429    1.853675    0.016402
  N     -1.298190    3.193803    0.021057
  N     -2.548953    3.455683    0.028884
  N     -3.254458    2.272559    0.031191
  N     -2.435534    1.290396    0.022952

 Total Charge           Charge          ....    0
 Multiplicity           Mult            ....    1
 Number of Electrons    NEL             ....   62
 Basis Dimension        Dim             ....  279

ORBITAL ENERGIES
----------------

  NO   OCC          E(Eh)            E(eV)
   0   2.0000     -20.655632      -562.0683
   1   2.0000     -15.771617      -429.1675
   2   2.0000     -15.740181      -428.3121
   3   2.0000     -15.737777      -428.2467
   4   2.0000     -15.709588      -427.4796
   5   2.0000     -15.708596      -427.4526
   6   2.0000     -15.656047      -426.0227
   7   2.0000     -11.494042      -312.7688
   8   2.0000     -11.342109      -308.6345
   9   2.0000      -1.610428       -43.8220
  10   2.0000      -1.512157       -41.1479
  11   2.0000      -1.357163       -36.9303
  12   2.0000      -1.337383       -36.3920
  13   2.0000      -1.286759       -35.0145
  14   2.0000      -1.075360       -29.2620
  15   2.0000      -0.991846       -26.9895
  16   2.0000      -0.945523       -25.7290
  17   2.0000      -0.863172       -23.4881
  18   2.0000      -0.775665       -21.1069
  19   2.0000      -0.758794       -20.6478
  20   2.0000      -0.693083       -18.8598
  21   2.0000      -0.657499       -17.8914
  22   2.0000      -0.637130       -17.3372
  23   2.0000      -0.583214       -15.8701
  24   2.0000      -0.580361       -15.7924
  25   2.0000      -0.560183       -15.2434
  26   2.0000      -0.535512       -14.5720
  27   2.0000      -0.533939       -14.5292
  28   2.0000      -0.526459       -14.3257
  29   2.0000      -0.517742       -14.0885
  30   2.0000      -0.506845       -13.7920
  31   0.0000      -0.008762        -0.2384
  32   0.0000       0.081177         2.2089
  33   0.0000       0.119620         3.2550
  34   0.0000       0.123666         3.3651
  35   0.0000       0.137918         3.7529

MULLIKEN ATOMIC CHARGES
-----------------------
   0 O :   -0.158151
   1 C :    0.338640
   2 C :   -0.110249
   3 N :   -0.007603
   4 N :    0.198569
   5 N :   -0.084963
   6 N :   -0.062332
   7 N :   -0.037234
   8 N :   -0.076677
Sum of atomic charges:    0.0000000

LOEWDIN ATOMIC CHARGES
----------------------
   0 O :    0.268139
   1 C :   -0.355253
   2 C :   -0.128036
   3 N :    0.148189
   4 N :    0.118203
   5 N :    0.003647
   6 N :   -0.034401
   7 N :   -0.030854
   8 N :    0.010367

  Mayer bond orders larger than 0.1
B(  0-O ,  1-C ) :   2.0263 B(  1-C ,  2-C ) :   0.9227 B(  1-C ,  4-N ) :   0.9337
B(  2-C ,  3-N ) :   2.7351 B(  4-N ,  5-N ) :   1.0265 B(  4-N ,  8-N ) :   1.0044
B(  5-N ,  6-N ) :   1.3373 B(  6-N ,  7-N ) :   1.0596 B(  7-N ,  8-N ) :   1.3317

MP2 TOTAL ENERGY:     -479.019052792 Eh
FINAL SINGLE POINT ENERGY      -479.019052791620

DIPOLE MOMENT
-------------
                                X             Y             Z
Electronic contribution:      0.20012      -0.33981      -0.00199
Nuclear contribution   :     -0.00609      -0.01340       0.00000
                        -----------------------------------------
Total Dipole Moment    :      0.19403      -0.35321      -0.00198
                        -----------------------------------------
Magnitude (a.u.)       :      0.40300
Magnitude (Debye)      :      1.02435

                             ****ORCA TERMINATED NORMALLY****
TOTAL RUN TIME: 0 days 0 hours 11 minutes 50 seconds 331 msec
