                         Program Version 3.0.3 - RELEASE   -
|  1> ! RI-MP2 RIJK def2-TZVP def2-TZVP/C def2-TZVP/JK TIGHTSCF
|  2> % maxcore 2000
|  3> % mp2 density relaxed end
|  4> *xyz 0 1
|  5>  O        0.6155495201     1.1650163265     0.2408624462
|  6>  C        0.2065204695    -0.1169181426     0.0167885741
|  7>  C       -0.2982193730    -0.5628794087    -1.1795408458
|  8>  N       -0.5888088365    -1.9101054585    -1.0158481648
|  9>  C       -0.2827308651    -2.2868947481     0.2518423585
| 10>  O       -0.5395735887    -3.5733452111     0.6219454712
| 11>  C        0.4239815221    -4.2255915764     1.3328340691
| 12>  N        0.1554313660    -5.3429781399     1.8443688411
| 13>  C        0.2182320832    -1.2054216798     0.9423733334
| 14>  H        0.8596206690     1.2516988053     1.1663363578
| 15>  H       -0.4767820397    -0.0494974013    -2.1075585737
| 16>  H       -0.9734247326    -2.5258188610    -1.7103541585
| 17>  H        1.3674533198    -3.6696160272     1.3678266643
| 18>  H        0.9765436439    -5.7150620522     2.3171388421
| 19>  H        0.5174978820    -1.1866762049     1.9786231149
| 20> *
| 21>
| 22>                          ****END OF INPUT****

CARTESIAN COORDINATES (ANGSTROEM)
---------------------------------
  O      0.615550    1.165016    0.240862
  C      0.206520   -0.116918    0.016789
  C     -0.298219   -0.562879   -1.179541
  N     -0.588809   -1.910105   -1.015848
  C     -0.282731   -2.286895    0.251842
  O     -0.539574   -3.573345    0.621945
  C      0.423982   -4.225592    1.332834
  N      0.155431   -5.342978    1.844369
  C      0.218232   -1.205422    0.942373
  H      0.859621    1.251699    1.166336
  H     -0.476782   -0.049497   -2.107559
  H     -0.973425   -2.525819   -1.710354
  H      1.367453   -3.669616    1.367827
  H      0.976544   -5.715062    2.317139
  H      0.517498   -1.186676    1.978623

 Total Charge           Charge          ....    0
 Multiplicity           Mult            ....    1
 Number of Electrons    NEL             ....   66
 Basis Dimension        Dim             ....  315

ORBITAL ENERGIES
----------------

  NO   OCC          E(Eh)            E(eV)
   0   2.0000     -20.625702      -561.2539
   1   2.0000     -20.584009      -560.1194
   2   2.0000     -15.613416      -424.8626
   3   2.0000     -15.557552      -423.3425
   4   2.0000     -11.354941      -308.9836
   5   2.0000     -11.339039      -308.5509
   6   2.0000     -11.287890      -307.1591
   7   2.0000     -11.245112      -305.9950
   8   2.0000     -11.224780      -305.4418
   9   2.0000      -1.468294       -39.9543
  10   2.0000      -1.398449       -38.0537
  11   2.0000      -1.300125       -35.3782
  12   2.0000      -1.215620       -33.0787
  13   2.0000      -1.056198       -28.7406
  14   2.0000      -0.989227       -26.9182
  15   2.0000      -0.879882       -23.9428
  16   2.0000      -0.807431       -21.9713
  17   2.0000      -0.794552       -21.6209
  18   2.0000      -0.785157       -21.3652
  19   2.0000      -0.712709       -19.3938
  20   2.0000      -0.681876       -18.5548
  21   2.0000      -0.655070       -17.8254
  22   2.0000      -0.636725       -17.3262
  23   2.0000      -0.620279       -16.8786
  24   2.0000      -0.609206       -16.5774
  25   2.0000      -0.587369       -15.9831
  26   2.0000      -0.577240       -15.7075
  27   2.0000      -0.539154       -14.6711
  28   2.0000      -0.521693       -14.1960
  29   2.0000      -0.455134       -12.3848
  30   2.0000      -0.433158       -11.7868
  31   2.0000      -0.351711        -9.5705
  32   2.0000      -0.293534        -7.9875
  33   0.0000       0.134208         3.6520
  34   0.0000       0.139113         3.7855
  35   0.0000       0.144452         3.9307
  36   0.0000       0.146719         3.9924
  37   0.0000       0.174164         4.7393

MULLIKEN ATOMIC CHARGES
-----------------------
   0 O :   -0.439399
   1 C :    0.180172
   2 C :   -0.147337
   3 N :   -0.242795
   4 C :    0.211301
   5 O :   -0.221483
   6 C :    0.057045
   7 N :   -0.327042
   8 C :   -0.297220
   9 H :    0.332534
  10 H :    0.151682
  11 H :    0.256515
  12 H :    0.107947
  13 H :    0.231957
  14 H :    0.146123
Sum of atomic charges:    0.0000000

LOEWDIN ATOMIC CHARGES
----------------------
   0 O :    0.055235
   1 C :   -0.321571
   2 C :   -0.221220
   3 N :    0.198808
   4 C :   -0.346163
   5 O :    0.304352
   6 C :   -0.368021
   7 N :   -0.066104
   8 C :   -0.190757
   9 H :    0.191629
  10 H :    0.136106
  11 H :    0.197545
  12 H :    0.116425
  13 H :    0.172383
  14 H :    0.141354

  Mayer bond orders larger than 0.1
B(  0-O ,  1-C ) :   1.0805 B(  0-O ,  9-H ) :   0.8370 B(  1-C ,  2-C ) :   1.5316
B(  1-C ,  8-C ) :   1.1967 B(  2-C ,  3-N ) :   1.0492 B(  2-C , 10-H ) :   0.9101
B(  3-N ,  4-C ) :   1.1844 B(  3-N , 11-H ) :   0.8644 B(  4-C ,  5-O ) :   1.0139
B(  4-C ,  8-C ) :   1.4309 B(  5-O ,  6-C ) :   0.9778 B(  6-C ,  7-N ) :   1.9785
B(  6-C , 12-H ) :   0.9266 B(  7-N , 13-H ) :   0.8485 B(  8-C , 14-H ) :   0.9105

MP2 TOTAL ENERGY:     -453.218189603 Eh
FINAL SINGLE POINT ENERGY      -453.218189602790

DIPOLE MOMENT
-------------
                                X             Y             Z
Electronic contribution:     -1.33808       0.00312      -0.81624
Nuclear contribution   :      2.10000       0.13787       0.82765
                        -----------------------------------------
Total Dipole Moment    :      0.76192       0.14098       0.01141
                        -----------------------------------------
Magnitude (a.u.)       :      0.77494
Magnitude (Debye)      :      1.96973

                             ****ORCA TERMINATED NORMALLY****
TOTAL RUN TIME: 0 days 0 hours 12 minutes 59 seconds 820 msec
