                         Program Version 3.0.3 - RELEASE   -
|  1> ! RI-MP2 RIJK def2-TZVP def2-TZVP/C def2-TZVP/JK TIGHTSCF
|  2> % maxcore 2000
|  3> % mp2 density relaxed end
|  4> *xyz 0 1
|  5>  C        0.7130177274     1.0245709849    -2.3933319395
|  6>  O        0.1323288528     0.3837333339    -1.2754277670
|  7>  C        0.9850113629    -0.5591486750    -0.6517201779
|  8>  C        0.4378825212    -0.8149987748     0.7528695784
|  9>  C        1.0769870278    -1.8839054310    -1.4368374900
| 10>  O        2.1384567129    -2.4573641554    -1.5365207877
| 11>  C       -0.2093235056    -2.4676241605    -2.0292943517
| 12>  C       -0.0254201641    -2.7060363541    -3.5373139840
| 13>  C       -0.5370130573    -3.7877221370    -1.3060499518
| 14>  H        1.6235502672     1.5743179623    -2.1120981188
| 15>  H        0.9748706112     0.3174034832    -3.1939201639
| 16>  H       -0.0255438646     1.7318769579    -2.7773996962
| 17>  H        2.0109471367    -0.1681244298    -0.5842999330
| 18>  H        1.0675236206    -1.5335497425     1.2842569339
| 19>  H        0.4182528347     0.1234040008     1.3130702594
| 20>  H       -0.5833942244    -1.2039375767     0.7061893949
| 21>  H       -1.0208589625    -1.7514911893    -1.8709653237
| 22>  H        0.8376292033    -3.3547020906    -3.7118648251
| 23>  H       -0.9142879026    -3.1861452467    -3.9580662120
| 24>  H        0.1376422945    -1.7702280604    -4.0810858300
| 25>  H       -0.7121391174    -3.6352755204    -0.2365182996
| 26>  H       -1.4373283272    -4.2404874458    -1.7329153971
| 27>  H        0.2926949221    -4.4919398329    -1.4162541678
| 28> *
| 29>
| 30>                          ****END OF INPUT****

CARTESIAN COORDINATES (ANGSTROEM)
---------------------------------
  C      0.713018    1.024571   -2.393332
  O      0.132329    0.383733   -1.275428
  C      0.985011   -0.559149   -0.651720
  C      0.437883   -0.814999    0.752870
  C      1.076987   -1.883905   -1.436837
  O      2.138457   -2.457364   -1.536521
  C     -0.209324   -2.467624   -2.029294
  C     -0.025420   -2.706036   -3.537314
  C     -0.537013   -3.787722   -1.306050
  H      1.623550    1.574318   -2.112098
  H      0.974871    0.317403   -3.193920
  H     -0.025544    1.731877   -2.777400
  H      2.010947   -0.168124   -0.584300
  H      1.067524   -1.533550    1.284257
  H      0.418253    0.123404    1.313070
  H     -0.583394   -1.203938    0.706189
  H     -1.020859   -1.751491   -1.870965
  H      0.837629   -3.354702   -3.711865
  H     -0.914288   -3.186145   -3.958066
  H      0.137642   -1.770228   -4.081086
  H     -0.712139   -3.635276   -0.236518
  H     -1.437328   -4.240487   -1.732915
  H      0.292695   -4.491940   -1.416254

 Total Charge           Charge          ....    0
 Multiplicity           Mult            ....    1
 Number of Electrons    NEL             ....   72
 Basis Dimension        Dim             ....  363

ORBITAL ENERGIES
----------------

  NO   OCC          E(Eh)            E(eV)
   0   2.0000     -20.568935      -559.7092
   1   2.0000     -20.545879      -559.0818
   2   2.0000     -11.323416      -308.1258
   3   2.0000     -11.293270      -307.3055
   4   2.0000     -11.280573      -306.9600
   5   2.0000     -11.238656      -305.8194
   6   2.0000     -11.228568      -305.5449
   7   2.0000     -11.221709      -305.3582
   8   2.0000     -11.220461      -305.3243
   9   2.0000      -1.397192       -38.0195
  10   2.0000      -1.381360       -37.5887
  11   2.0000      -1.082910       -29.4675
  12   2.0000      -1.045467       -28.4486
  13   2.0000      -0.935484       -25.4558
  14   2.0000      -0.927722       -25.2446
  15   2.0000      -0.896920       -24.4064
  16   2.0000      -0.834143       -22.6982
  17   2.0000      -0.726773       -19.7765
  18   2.0000      -0.688737       -18.7415
  19   2.0000      -0.680550       -18.5187
  20   2.0000      -0.645792       -17.5729
  21   2.0000      -0.629297       -17.1241
  22   2.0000      -0.611568       -16.6416
  23   2.0000      -0.598629       -16.2895
  24   2.0000      -0.576739       -15.6939
  25   2.0000      -0.555260       -15.1094
  26   2.0000      -0.545325       -14.8391
  27   2.0000      -0.540896       -14.7185
  28   2.0000      -0.538094       -14.6423
  29   2.0000      -0.526686       -14.3319
  30   2.0000      -0.503690       -13.7061
  31   2.0000      -0.486328       -13.2337
  32   2.0000      -0.483891       -13.1674
  33   2.0000      -0.470525       -12.8036
  34   2.0000      -0.458808       -12.4848
  35   2.0000      -0.388667       -10.5762
  36   0.0000       0.132487         3.6052
  37   0.0000       0.137083         3.7302
  38   0.0000       0.155212         4.2235
  39   0.0000       0.163256         4.4424
  40   0.0000       0.185610         5.0507

MULLIKEN ATOMIC CHARGES
-----------------------
   0 C :   -0.229327
   1 O :   -0.312662
   2 C :    0.148827
   3 C :   -0.407337
   4 C :    0.135222
   5 O :   -0.280762
   6 C :   -0.058301
   7 C :   -0.411168
   8 C :   -0.411306
   9 H :    0.125600
  10 H :    0.112428
  11 H :    0.142811
  12 H :    0.087127
  13 H :    0.144182
  14 H :    0.143350
  15 H :    0.137124
  16 H :    0.119544
  17 H :    0.147087
  18 H :    0.133531
  19 H :    0.125218
  20 H :    0.130057
  21 H :    0.133875
  22 H :    0.144880
Sum of atomic charges:   -0.0000000

LOEWDIN ATOMIC CHARGES
----------------------
   0 C :   -0.350489
   1 O :    0.158596
   2 C :   -0.326384
   3 C :   -0.279305
   4 C :   -0.287416
   5 O :    0.161257
   6 C :   -0.276303
   7 C :   -0.285129
   8 C :   -0.283269
   9 H :    0.105731
  10 H :    0.102599
  11 H :    0.115193
  12 H :    0.144528
  13 H :    0.132637
  14 H :    0.129958
  15 H :    0.127799
  16 H :    0.156680
  17 H :    0.130870
  18 H :    0.124874
  19 H :    0.120157
  20 H :    0.121971
  21 H :    0.124846
  22 H :    0.130598

  Mayer bond orders larger than 0.1
B(  0-C ,  1-O ) :   0.9027 B(  0-C ,  9-H ) :   0.9368 B(  0-C , 10-H ) :   0.9310
B(  0-C , 11-H ) :   0.9395 B(  1-O ,  2-C ) :   0.9153 B(  2-C ,  3-C ) :   0.8897
B(  2-C ,  4-C ) :   0.8559 B(  2-C , 12-H ) :   0.9316 B(  3-C , 13-H ) :   0.9343
B(  3-C , 14-H ) :   0.9298 B(  3-C , 15-H ) :   0.9327 B(  4-C ,  5-O ) :   2.0297
B(  4-C ,  6-C ) :   0.8786 B(  6-C ,  7-C ) :   0.9027 B(  6-C ,  8-C ) :   0.9009
B(  6-C , 16-H ) :   0.9150 B(  7-C , 17-H ) :   0.9326 B(  7-C , 18-H ) :   0.9392
B(  7-C , 19-H ) :   0.9363 B(  8-C , 20-H ) :   0.9337 B(  8-C , 21-H ) :   0.9396
B(  8-C , 22-H ) :   0.9314

MP2 TOTAL ENERGY:     -424.732409571 Eh
FINAL SINGLE POINT ENERGY      -424.732409571220

DIPOLE MOMENT
-------------
                                X             Y             Z
Electronic contribution:      3.87970       1.53555       1.26651
Nuclear contribution   :     -4.37238      -1.13348      -1.32518
                        -----------------------------------------
Total Dipole Moment    :     -0.49268       0.40207      -0.05867
                        -----------------------------------------
Magnitude (a.u.)       :      0.63862
Magnitude (Debye)      :      1.62324

                             ****ORCA TERMINATED NORMALLY****
TOTAL RUN TIME: 0 days 0 hours 21 minutes 17 seconds 252 msec
