                         Program Version 3.0.3 - RELEASE   -
|  1> ! RI-MP2 RIJK def2-TZVP def2-TZVP/C def2-TZVP/JK TIGHTSCF
|  2> % maxcore 2000
|  3> % mp2 density relaxed end
|  4> *xyz 0 1
|  5>  O       -0.0070280101    -0.0387330746     0.2010777948
|  6>  C       -0.0198927343     1.1577650284     0.0562549097
|  7>  C       -1.2852019540     2.0120499487    -0.0459061611
|  8>  C       -0.8714216360     3.4941832167     0.0144502107
|  9>  C       -0.0625424555     3.7417674886     1.3052659886
| 10>  C        1.2709629040     2.9433782875     1.2192264970
| 11>  C        1.2252908224     2.0427699218    -0.0269063794
| 12>  O        1.1204383652     2.8306771583    -1.2164391847
| 13>  C        0.0416122146     3.7746611054    -1.1828753285
| 14>  H       -1.7987190461     1.7731930898    -0.9852730209
| 15>  H       -1.9645995127     1.7353533248     0.7673855496
| 16>  H       -1.7476392108     4.1478750486    -0.0285043509
| 17>  H        0.1352234122     4.8115209183     1.4226541906
| 18>  H       -0.6506112615     3.4312971061     2.1751820118
| 19>  H        2.1289534569     3.6147654292     1.1167004811
| 20>  H        1.4395517400     2.3359640334     2.1136334082
| 21>  H        2.1222921842     1.4318816947    -0.1365373236
| 22>  H       -0.5056346540     3.6820729996    -2.1296412737
| 23>  H        0.4498764956     4.7945451148    -1.1297494692
| 24> *
| 25>
| 26>                          ****END OF INPUT****

CARTESIAN COORDINATES (ANGSTROEM)
---------------------------------
  O     -0.007028   -0.038733    0.201078
  C     -0.019893    1.157765    0.056255
  C     -1.285202    2.012050   -0.045906
  C     -0.871422    3.494183    0.014450
  C     -0.062542    3.741767    1.305266
  C      1.270963    2.943378    1.219226
  C      1.225291    2.042770   -0.026906
  O      1.120438    2.830677   -1.216439
  C      0.041612    3.774661   -1.182875
  H     -1.798719    1.773193   -0.985273
  H     -1.964600    1.735353    0.767386
  H     -1.747639    4.147875   -0.028504
  H      0.135223    4.811521    1.422654
  H     -0.650611    3.431297    2.175182
  H      2.128953    3.614765    1.116700
  H      1.439552    2.335964    2.113633
  H      2.122292    1.431882   -0.136537
  H     -0.505635    3.682073   -2.129641
  H      0.449876    4.794545   -1.129749

 Total Charge           Charge          ....    0
 Multiplicity           Mult            ....    1
 Number of Electrons    NEL             ....   68
 Basis Dimension        Dim             ....  339

ORBITAL ENERGIES
----------------

  NO   OCC          E(Eh)            E(eV)
   0   2.0000     -20.564994      -559.6019
   1   2.0000     -20.548701      -559.1586
   2   2.0000     -11.327838      -308.2461
   3   2.0000     -11.291083      -307.2460
   4   2.0000     -11.285146      -307.0844
   5   2.0000     -11.248896      -306.0980
   6   2.0000     -11.241809      -305.9052
   7   2.0000     -11.240378      -305.8662
   8   2.0000     -11.239832      -305.8514
   9   2.0000      -1.397755       -38.0348
  10   2.0000      -1.378280       -37.5049
  11   2.0000      -1.124271       -30.5930
  12   2.0000      -1.050348       -28.5814
  13   2.0000      -1.001532       -27.2531
  14   2.0000      -0.897610       -24.4252
  15   2.0000      -0.864102       -23.5134
  16   2.0000      -0.807330       -21.9686
  17   2.0000      -0.720662       -19.6102
  18   2.0000      -0.693675       -18.8758
  19   2.0000      -0.677680       -18.4406
  20   2.0000      -0.667803       -18.1718
  21   2.0000      -0.617244       -16.7961
  22   2.0000      -0.593880       -16.1603
  23   2.0000      -0.582792       -15.8586
  24   2.0000      -0.577166       -15.7055
  25   2.0000      -0.567868       -15.4525
  26   2.0000      -0.552918       -15.0457
  27   2.0000      -0.544820       -14.8253
  28   2.0000      -0.525327       -14.2949
  29   2.0000      -0.480658       -13.0794
  30   2.0000      -0.476319       -12.9613
  31   2.0000      -0.457194       -12.4409
  32   2.0000      -0.431796       -11.7498
  33   2.0000      -0.385272       -10.4838
  34   0.0000       0.117592         3.1998
  35   0.0000       0.134236         3.6528
  36   0.0000       0.157624         4.2892
  37   0.0000       0.166555         4.5322
  38   0.0000       0.174072         4.7367

MULLIKEN ATOMIC CHARGES
-----------------------
   0 O :   -0.262107
   1 C :    0.062165
   2 C :   -0.272894
   3 C :    0.024443
   4 C :   -0.296902
   5 C :   -0.279117
   6 C :    0.178340
   7 O :   -0.320882
   8 C :   -0.090302
   9 H :    0.143322
  10 H :    0.141527
  11 H :    0.121305
  12 H :    0.128514
  13 H :    0.124017
  14 H :    0.128720
  15 H :    0.133970
  16 H :    0.125470
  17 H :    0.109309
  18 H :    0.101103
Sum of atomic charges:   -0.0000000

LOEWDIN ATOMIC CHARGES
----------------------
   0 O :    0.158234
   1 C :   -0.297049
   2 C :   -0.201366
   3 C :   -0.257277
   4 C :   -0.230548
   5 C :   -0.226378
   6 C :   -0.280564
   7 O :    0.170679
   8 C :   -0.272901
   9 H :    0.157266
  10 H :    0.153547
  11 H :    0.154168
  12 H :    0.138698
  13 H :    0.139505
  14 H :    0.144548
  15 H :    0.144457
  16 H :    0.151624
  17 H :    0.127675
  18 H :    0.125681

  Mayer bond orders larger than 0.1
B(  0-O ,  1-C ) :   2.0447 B(  1-C ,  2-C ) :   0.9441 B(  1-C ,  6-C ) :   0.8792
B(  2-C ,  3-C ) :   0.8823 B(  2-C ,  9-H ) :   0.8955 B(  2-C , 10-H ) :   0.9077
B(  3-C ,  4-C ) :   0.9183 B(  3-C ,  8-C ) :   0.9246 B(  3-C , 11-H ) :   0.9126
B(  4-C ,  5-C ) :   0.9584 B(  4-C , 12-H ) :   0.9277 B(  4-C , 13-H ) :   0.9264
B(  5-C ,  6-C ) :   0.9102 B(  5-C , 14-H ) :   0.9154 B(  5-C , 15-H ) :   0.9220
B(  6-C ,  7-O ) :   0.9079 B(  6-C , 16-H ) :   0.9041 B(  7-O ,  8-C ) :   0.9328
B(  8-C , 17-H ) :   0.9199 B(  8-C , 18-H ) :   0.9273

MP2 TOTAL ENERGY:     -422.357720945 Eh
FINAL SINGLE POINT ENERGY      -422.357720945090

DIPOLE MOMENT
-------------
                                X             Y             Z
Electronic contribution:      1.49064      -5.70269      -2.33372
Nuclear contribution   :     -1.91787       6.94186       2.74593
                        -----------------------------------------
Total Dipole Moment    :     -0.42724       1.23918       0.41222
                        -----------------------------------------
Magnitude (a.u.)       :      1.37405
Magnitude (Debye)      :      3.49256

                             ****ORCA TERMINATED NORMALLY****
TOTAL RUN TIME: 0 days 0 hours 23 minutes 48 seconds 127 msec
