                         Program Version 3.0.3 - RELEASE   -
|  1> ! RI-MP2 RIJK def2-TZVP def2-TZVP/C def2-TZVP/JK TIGHTSCF
|  2> % maxcore 2000
|  3> % mp2 density relaxed end
|  4> *xyz 0 1
|  5>  C        0.4429870882     1.5110061678     0.1583897017
|  6>  N        1.3019916702     0.3570618369    -0.1594964774
|  7>  C       -0.1431902852     0.1540134875     0.0133229241
|  8>  C       -0.5632836381    -0.6627486642     1.1873329346
|  9>  C        0.3388644534    -0.9268766216     2.3636266472
| 10>  C       -0.1177785232    -2.0722145079     1.4712436345
| 11>  C       -1.3731421076    -2.8243985269     1.8757823372
| 12>  C       -2.3736308275    -1.6852867317     2.1795389755
| 13>  O       -1.9488791115    -0.5488386749     1.4276104040
| 14>  H        0.5909012367     1.9227582117     1.1522980265
| 15>  H        0.2416925397     2.2442618267    -0.6176705344
| 16>  H        1.5355094277     0.3547210406    -1.1480337695
| 17>  H       -0.7444724602    -0.0243907898    -0.8766168804
| 18>  H        1.3723518262    -0.6199353062     2.2520585536
| 19>  H       -0.0649047677    -0.8376037781     3.3669571407
| 20>  H        0.6190520580    -2.5632019977     0.8467118320
| 21>  H       -1.7185817730    -3.4383592311     1.0370033849
| 22>  H       -1.2418442772    -3.4832537164     2.7398902673
| 23>  H       -3.4022213341    -1.9163003015     1.8883674414
| 24>  H       -2.3743929846    -1.4471186232     3.2522425966
| 25> *
| 26>
| 27>                          ****END OF INPUT****

CARTESIAN COORDINATES (ANGSTROEM)
---------------------------------
  C      0.442987    1.511006    0.158390
  N      1.301992    0.357062   -0.159496
  C     -0.143190    0.154013    0.013323
  C     -0.563284   -0.662749    1.187333
  C      0.338864   -0.926877    2.363627
  C     -0.117779   -2.072215    1.471244
  C     -1.373142   -2.824399    1.875782
  C     -2.373631   -1.685287    2.179539
  O     -1.948879   -0.548839    1.427610
  H      0.590901    1.922758    1.152298
  H      0.241693    2.244262   -0.617671
  H      1.535509    0.354721   -1.148034
  H     -0.744472   -0.024391   -0.876617
  H      1.372352   -0.619935    2.252059
  H     -0.064905   -0.837604    3.366957
  H      0.619052   -2.563202    0.846712
  H     -1.718582   -3.438359    1.037003
  H     -1.241844   -3.483254    2.739890
  H     -3.402221   -1.916300    1.888367
  H     -2.374393   -1.447119    3.252243

 Total Charge           Charge          ....    0
 Multiplicity           Mult            ....    1
 Number of Electrons    NEL             ....   68
 Basis Dimension        Dim             ....  345

ORBITAL ENERGIES
----------------

  NO   OCC          E(Eh)            E(eV)
   0   2.0000     -20.552543      -559.2631
   1   2.0000     -15.559226      -423.3881
   2   2.0000     -11.279882      -306.9412
   3   2.0000     -11.272671      -306.7450
   4   2.0000     -11.260425      -306.4117
   5   2.0000     -11.252942      -306.2081
   6   2.0000     -11.226923      -305.5001
   7   2.0000     -11.225081      -305.4500
   8   2.0000     -11.217051      -305.2315
   9   2.0000      -1.382629       -37.6232
  10   2.0000      -1.261505       -34.3273
  11   2.0000      -1.127192       -30.6725
  12   2.0000      -1.023276       -27.8448
  13   2.0000      -0.911712       -24.8089
  14   2.0000      -0.876059       -23.8388
  15   2.0000      -0.850279       -23.1373
  16   2.0000      -0.778206       -21.1761
  17   2.0000      -0.745957       -20.2985
  18   2.0000      -0.708175       -19.2704
  19   2.0000      -0.685903       -18.6644
  20   2.0000      -0.652734       -17.7618
  21   2.0000      -0.612213       -16.6592
  22   2.0000      -0.596488       -16.2313
  23   2.0000      -0.569791       -15.5048
  24   2.0000      -0.564469       -15.3600
  25   2.0000      -0.526748       -14.3335
  26   2.0000      -0.505349       -13.7513
  27   2.0000      -0.498185       -13.5563
  28   2.0000      -0.482988       -13.1428
  29   2.0000      -0.470334       -12.7984
  30   2.0000      -0.456572       -12.4240
  31   2.0000      -0.416805       -11.3418
  32   2.0000      -0.392505       -10.6806
  33   2.0000      -0.358862        -9.7651
  34   0.0000       0.138684         3.7738
  35   0.0000       0.152837         4.1589
  36   0.0000       0.163245         4.4421
  37   0.0000       0.181170         4.9299
  38   0.0000       0.183910         5.0044

MULLIKEN ATOMIC CHARGES
-----------------------
   0 C :   -0.183862
   1 N :   -0.390153
   2 C :   -0.090885
   3 C :    0.263726
   4 C :   -0.304426
   5 C :   -0.142564
   6 C :   -0.241981
   7 C :   -0.053113
   8 O :   -0.313938
   9 H :    0.128298
  10 H :    0.127563
  11 H :    0.220393
  12 H :    0.117399
  13 H :    0.153731
  14 H :    0.127638
  15 H :    0.133634
  16 H :    0.114429
  17 H :    0.122228
  18 H :    0.119095
  19 H :    0.092790
Sum of atomic charges:    0.0000000

LOEWDIN ATOMIC CHARGES
----------------------
   0 C :   -0.252399
   1 N :   -0.013622
   2 C :   -0.241928
   3 C :   -0.305008
   4 C :   -0.182269
   5 C :   -0.185505
   6 C :   -0.240489
   7 C :   -0.289067
   8 O :    0.202266
   9 H :    0.128737
  10 H :    0.120489
  11 H :    0.165817
  12 H :    0.144224
  13 H :    0.145250
  14 H :    0.135176
  15 H :    0.147532
  16 H :    0.139581
  17 H :    0.138161
  18 H :    0.124823
  19 H :    0.118232

  Mayer bond orders larger than 0.1
B(  0-C ,  1-N ) :   0.9369 B(  0-C ,  2-C ) :   0.9124 B(  0-C ,  9-H ) :   0.9184
B(  0-C , 10-H ) :   0.9243 B(  1-N ,  2-C ) :   0.9074 B(  1-N , 11-H ) :   0.8698
B(  2-C ,  3-C ) :   0.9244 B(  2-C , 12-H ) :   0.9358 B(  3-C ,  4-C ) :   0.8406
B(  3-C ,  5-C ) :   0.8500 B(  3-C ,  8-O ) :   0.9969 B(  4-C ,  5-C ) :   0.8839
B(  4-C , 13-H ) :   0.9100 B(  4-C , 14-H ) :   0.8997 B(  5-C ,  6-C ) :   0.9312
B(  5-C , 15-H ) :   0.9175 B(  6-C ,  7-C ) :   0.9619 B(  6-C , 16-H ) :   0.9267
B(  6-C , 17-H ) :   0.9279 B(  7-C ,  8-O ) :   0.9281 B(  7-C , 18-H ) :   0.9246
B(  7-C , 19-H ) :   0.9258

MP2 TOTAL ENERGY:     -402.417534410 Eh
FINAL SINGLE POINT ENERGY      -402.417534409835

DIPOLE MOMENT
-------------
                                X             Y             Z
Electronic contribution:     -0.45912       1.39885      -1.33605
Nuclear contribution   :      0.37292      -1.62336       1.01814
                        -----------------------------------------
Total Dipole Moment    :     -0.08621      -0.22451      -0.31792
                        -----------------------------------------
Magnitude (a.u.)       :      0.39863
Magnitude (Debye)      :      1.01324

                             ****ORCA TERMINATED NORMALLY****
TOTAL RUN TIME: 0 days 0 hours 17 minutes 7 seconds 53 msec
