                         Program Version 3.0.3 - RELEASE   -
|  1> ! RI-MP2 RIJK def2-TZVP def2-TZVP/C def2-TZVP/JK TIGHTSCF
|  2> % maxcore 2000
|  3> % mp2 density relaxed end
|  4> *xyz 0 1
|  5>  C        0.0726675433     1.5036181482    -0.0810321947
|  6>  C       -0.0972692774     0.0052486656     0.0606262014
|  7>  C       -0.3471182064    -0.5930186624     1.4038161846
|  8>  N        0.9856390371    -0.6701845705     0.8033854540
|  9>  C        1.4695767210    -1.9569443487     0.3066680083
| 10>  C        0.4423796519    -2.8777798683    -0.3892150984
| 11>  C       -0.3742160722    -2.1181060765    -1.4213194559
| 12>  N       -1.7223349879    -1.6910006383    -1.0079633579
| 13>  C       -0.6626108825    -0.6771587304    -1.1634529963
| 14>  H        0.7045362318     1.7493129493    -0.9428287794
| 15>  H       -0.8969076567     1.9948586484    -0.2242562906
| 16>  H        0.5467381930     1.9179086298     0.8115061328
| 17>  H       -0.4235459645     0.0553823555     2.2737381748
| 18>  H       -0.9744562362    -1.4784633966     1.4392535702
| 19>  H        2.2788349407    -1.7308325827    -0.3995552110
| 20>  H        1.9256685014    -2.4867468167     1.1503698679
| 21>  H        0.9847917824    -3.7019038144    -0.8638941472
| 22>  H       -0.2331854054    -3.3283781709     0.3442584101
| 23>  H       -0.2416023944    -2.4148577938    -2.4586989296
| 24>  H       -2.3457509687    -1.6642604284    -1.8103811553
| 25>  H       -0.7279597302    -0.0259795084    -2.0319875177
| 26> *
| 27>
| 28>                          ****END OF INPUT****

CARTESIAN COORDINATES (ANGSTROEM)
---------------------------------
  C      0.072668    1.503618   -0.081032
  C     -0.097269    0.005249    0.060626
  C     -0.347118   -0.593019    1.403816
  N      0.985639   -0.670185    0.803385
  C      1.469577   -1.956944    0.306668
  C      0.442380   -2.877780   -0.389215
  C     -0.374216   -2.118106   -1.421319
  N     -1.722335   -1.691001   -1.007963
  C     -0.662611   -0.677159   -1.163453
  H      0.704536    1.749313   -0.942829
  H     -0.896908    1.994859   -0.224256
  H      0.546738    1.917909    0.811506
  H     -0.423546    0.055382    2.273738
  H     -0.974456   -1.478463    1.439254
  H      2.278835   -1.730833   -0.399555
  H      1.925669   -2.486747    1.150370
  H      0.984792   -3.701904   -0.863894
  H     -0.233185   -3.328378    0.344258
  H     -0.241602   -2.414858   -2.458699
  H     -2.345751   -1.664260   -1.810381
  H     -0.727960   -0.025980   -2.031988

 Total Charge           Charge          ....    0
 Multiplicity           Mult            ....    1
 Number of Electrons    NEL             ....   68
 Basis Dimension        Dim             ....  351

ORBITAL ENERGIES
----------------

  NO   OCC          E(Eh)            E(eV)
   0   2.0000     -15.557924      -423.3526
   1   2.0000     -15.546414      -423.0394
   2   2.0000     -11.260568      -306.4156
   3   2.0000     -11.259848      -306.3960
   4   2.0000     -11.258285      -306.3535
   5   2.0000     -11.246038      -306.0203
   6   2.0000     -11.238558      -305.8167
   7   2.0000     -11.221889      -305.3631
   8   2.0000     -11.212989      -305.1210
   9   2.0000      -1.283398       -34.9230
  10   2.0000      -1.242787       -33.8180
  11   2.0000      -1.051775       -28.6202
  12   2.0000      -0.988655       -26.9027
  13   2.0000      -0.924252       -25.1502
  14   2.0000      -0.893387       -24.3103
  15   2.0000      -0.833116       -22.6702
  16   2.0000      -0.786299       -21.3963
  17   2.0000      -0.717449       -19.5228
  18   2.0000      -0.703354       -19.1392
  19   2.0000      -0.661056       -17.9882
  20   2.0000      -0.616408       -16.7733
  21   2.0000      -0.611251       -16.6330
  22   2.0000      -0.575731       -15.6664
  23   2.0000      -0.565899       -15.3989
  24   2.0000      -0.547581       -14.9004
  25   2.0000      -0.532367       -14.4865
  26   2.0000      -0.521759       -14.1978
  27   2.0000      -0.495822       -13.4920
  28   2.0000      -0.477583       -12.9957
  29   2.0000      -0.455825       -12.4036
  30   2.0000      -0.443047       -12.0559
  31   2.0000      -0.424624       -11.5546
  32   2.0000      -0.375961       -10.2304
  33   2.0000      -0.355401        -9.6710
  34   0.0000       0.130186         3.5425
  35   0.0000       0.152947         4.1619
  36   0.0000       0.158824         4.3218
  37   0.0000       0.174627         4.7519
  38   0.0000       0.196139         5.3372

MULLIKEN ATOMIC CHARGES
-----------------------
   0 C :   -0.444186
   1 C :    0.237736
   2 C :   -0.243667
   3 N :   -0.246578
   4 C :   -0.149745
   5 C :   -0.247864
   6 C :   -0.052108
   7 N :   -0.381961
   8 C :   -0.096924
   9 H :    0.125452
  10 H :    0.128548
  11 H :    0.143979
  12 H :    0.119338
  13 H :    0.146660
  14 H :    0.115728
  15 H :    0.123250
  16 H :    0.123929
  17 H :    0.133913
  18 H :    0.121773
  19 H :    0.217067
  20 H :    0.125661
Sum of atomic charges:    0.0000000

LOEWDIN ATOMIC CHARGES
----------------------
   0 C :   -0.267474
   1 C :   -0.288092
   2 C :   -0.217272
   3 N :    0.128600
   4 C :   -0.285912
   5 C :   -0.255210
   6 C :   -0.248516
   7 N :    0.005668
   8 C :   -0.214770
   9 H :    0.126164
  10 H :    0.126805
  11 H :    0.132094
  12 H :    0.125050
  13 H :    0.130986
  14 H :    0.135262
  15 H :    0.135230
  16 H :    0.142542
  17 H :    0.143170
  18 H :    0.135690
  19 H :    0.165875
  20 H :    0.144109

  Mayer bond orders larger than 0.1
B(  0-C ,  1-C ) :   0.8623 B(  0-C ,  9-H ) :   0.9407 B(  0-C , 10-H ) :   0.9391
B(  0-C , 11-H ) :   0.9435 B(  1-C ,  2-C ) :   0.9162 B(  1-C ,  3-N ) :   0.8088
B(  1-C ,  8-C ) :   0.9143 B(  2-C ,  3-N ) :   0.9190 B(  2-C , 12-H ) :   0.9148
B(  2-C , 13-H ) :   0.9008 B(  3-N ,  4-C ) :   0.9501 B(  4-C ,  5-C ) :   0.9093
B(  4-C , 14-H ) :   0.9369 B(  4-C , 15-H ) :   0.9354 B(  5-C ,  6-C ) :   0.9108
B(  5-C , 16-H ) :   0.9261 B(  5-C , 17-H ) :   0.9334 B(  6-C ,  7-N ) :   0.9756
B(  6-C ,  8-C ) :   0.9262 B(  6-C , 18-H ) :   0.9262 B(  7-N ,  8-C ) :   0.9597
B(  7-N , 19-H ) :   0.8715 B(  8-C , 20-H ) :   0.9298

MP2 TOTAL ENERGY:     -382.555940077 Eh
FINAL SINGLE POINT ENERGY      -382.555940076901

DIPOLE MOMENT
-------------
                                X             Y             Z
Electronic contribution:     -1.03228      -1.08396      -0.13378
Nuclear contribution   :      0.88926       0.89575      -0.63842
                        -----------------------------------------
Total Dipole Moment    :     -0.14302      -0.18822      -0.77219
                        -----------------------------------------
Magnitude (a.u.)       :      0.80757
Magnitude (Debye)      :      2.05267

                             ****ORCA TERMINATED NORMALLY****
TOTAL RUN TIME: 0 days 0 hours 21 minutes 38 seconds 651 msec
