                         Program Version 3.0.3 - RELEASE   -
|  1> ! RI-MP2 RIJK def2-TZVP def2-TZVP/C def2-TZVP/JK TIGHTSCF
|  2> % maxcore 2000
|  3> % mp2 density relaxed end
|  4> *xyz 0 1
|  5>  C       -0.6016843584     0.8843666802    -0.4359135939
|  6>  O        0.5489054773     1.3806217670     0.2590178663
|  7>  C        0.3238746205    -0.0232189198     0.2522298086
|  8>  C       -0.0399628521    -0.6562265981     1.5701591074
|  9>  C        0.3222879651     0.0217835956     2.8266237804
| 10>  O       -1.0210668130     0.0428105032     2.3303555757
| 11>  C       -0.1636680793    -2.1524970216     1.5359444898
| 12>  C       -1.2174611489    -2.8511625517     2.2771059947
| 13>  O       -1.3113312530    -2.6748518715     0.8607462662
| 14>  H       -1.5536810100     1.1103775305     0.0365281097
| 15>  H       -0.5650677382     0.9704778003    -1.5201895053
| 16>  H        1.0338340541    -0.5984472250    -0.3440622194
| 17>  H        0.4738671374    -0.5661546988     3.7304248691
| 18>  H        0.8439177542     0.9734124521     2.7703797727
| 19>  H        0.7641216173    -2.6828029963     1.3129127073
| 20>  H       -1.0481741529    -3.8738062316     2.6105572385
| 21>  H       -1.9182633700    -2.2619652545     2.8625419622
| 22> *
| 23>
| 24>                          ****END OF INPUT****

CARTESIAN COORDINATES (ANGSTROEM)
---------------------------------
  C     -0.601684    0.884367   -0.435914
  O      0.548905    1.380622    0.259018
  C      0.323875   -0.023219    0.252230
  C     -0.039963   -0.656227    1.570159
  C      0.322288    0.021784    2.826624
  O     -1.021067    0.042811    2.330356
  C     -0.163668   -2.152497    1.535944
  C     -1.217461   -2.851163    2.277106
  O     -1.311331   -2.674852    0.860746
  H     -1.553681    1.110378    0.036528
  H     -0.565068    0.970478   -1.520190
  H      1.033834   -0.598447   -0.344062
  H      0.473867   -0.566155    3.730425
  H      0.843918    0.973412    2.770380
  H      0.764122   -2.682803    1.312913
  H     -1.048174   -3.873806    2.610557
  H     -1.918263   -2.261965    2.862542

 Total Charge           Charge          ....    0
 Multiplicity           Mult            ....    1
 Number of Electrons    NEL             ....   68
 Basis Dimension        Dim             ....  327

ORBITAL ENERGIES
----------------

  NO   OCC          E(Eh)            E(eV)
   0   2.0000     -20.580794      -560.0319
   1   2.0000     -20.577435      -559.9405
   2   2.0000     -20.574259      -559.8541
   3   2.0000     -11.308979      -307.7330
   4   2.0000     -11.302152      -307.5472
   5   2.0000     -11.297749      -307.4274
   6   2.0000     -11.293424      -307.3097
   7   2.0000     -11.290905      -307.2411
   8   2.0000     -11.285286      -307.0882
   9   2.0000      -1.439948       -39.1830
  10   2.0000      -1.418821       -38.6081
  11   2.0000      -1.407343       -38.2957
  12   2.0000      -1.025338       -27.9009
  13   2.0000      -0.944629       -25.7047
  14   2.0000      -0.926385       -25.2082
  15   2.0000      -0.893731       -24.3197
  16   2.0000      -0.861211       -23.4347
  17   2.0000      -0.787329       -21.4243
  18   2.0000      -0.740808       -20.1584
  19   2.0000      -0.698902       -19.0181
  20   2.0000      -0.689865       -18.7722
  21   2.0000      -0.671083       -18.2611
  22   2.0000      -0.622585       -16.9414
  23   2.0000      -0.595682       -16.2093
  24   2.0000      -0.567191       -15.4340
  25   2.0000      -0.564974       -15.3737
  26   2.0000      -0.539065       -14.6687
  27   2.0000      -0.532201       -14.4819
  28   2.0000      -0.492047       -13.3893
  29   2.0000      -0.483120       -13.1464
  30   2.0000      -0.466762       -12.7012
  31   2.0000      -0.454622       -12.3709
  32   2.0000      -0.436507       -11.8780
  33   2.0000      -0.419830       -11.4242
  34   0.0000       0.145923         3.9708
  35   0.0000       0.154833         4.2132
  36   0.0000       0.168725         4.5912
  37   0.0000       0.180309         4.9064
  38   0.0000       0.196074         5.3354

MULLIKEN ATOMIC CHARGES
-----------------------
   0 C :   -0.086991
   1 O :   -0.338383
   2 C :    0.044516
   3 C :    0.213181
   4 C :   -0.114081
   5 O :   -0.342702
   6 C :   -0.037664
   7 C :   -0.062613
   8 O :   -0.329423
   9 H :    0.138314
  10 H :    0.119237
  11 H :    0.139226
  12 H :    0.121596
  13 H :    0.143001
  14 H :    0.133613
  15 H :    0.116653
  16 H :    0.142521
Sum of atomic charges:    0.0000000

LOEWDIN ATOMIC CHARGES
----------------------
   0 C :   -0.242263
   1 O :    0.156616
   2 C :   -0.256816
   3 C :   -0.313661
   4 C :   -0.219065
   5 O :    0.189029
   6 C :   -0.257126
   7 C :   -0.250356
   8 O :    0.152779
   9 H :    0.128527
  10 H :    0.120320
  11 H :    0.145785
  12 H :    0.123201
  13 H :    0.130447
  14 H :    0.144712
  15 H :    0.119661
  16 H :    0.128211

  Mayer bond orders larger than 0.1
B(  0-C ,  1-O ) :   0.9016 B(  0-C ,  2-C ) :   0.9873 B(  0-C ,  9-H ) :   0.8979
B(  0-C , 10-H ) :   0.9260 B(  1-O ,  2-C ) :   0.8997 B(  2-C ,  3-C ) :   0.9153
B(  2-C , 11-H ) :   0.9138 B(  3-C ,  4-C ) :   0.9705 B(  3-C ,  5-O ) :   0.8285
B(  3-C ,  6-C ) :   0.9049 B(  4-C ,  5-O ) :   0.9066 B(  4-C , 12-H ) :   0.9098
B(  4-C , 13-H ) :   0.8993 B(  6-C ,  7-C ) :   0.9803 B(  6-C ,  8-O ) :   0.9051
B(  6-C , 14-H ) :   0.9203 B(  7-C ,  8-O ) :   0.9118 B(  7-C , 15-H ) :   0.9147
B(  7-C , 16-H ) :   0.9077

MP2 TOTAL ENERGY:     -458.145606902 Eh
FINAL SINGLE POINT ENERGY      -458.145606901501

DIPOLE MOMENT
-------------
                                X             Y             Z
Electronic contribution:     -0.35808       0.98112      -0.81362
Nuclear contribution   :      0.89854      -1.54692       1.18812
                        -----------------------------------------
Total Dipole Moment    :      0.54046      -0.56580       0.37450
                        -----------------------------------------
Magnitude (a.u.)       :      0.86745
Magnitude (Debye)      :      2.20488

                             ****ORCA TERMINATED NORMALLY****
TOTAL RUN TIME: 0 days 0 hours 15 minutes 22 seconds 626 msec
