                         Program Version 3.0.3 - RELEASE   -
|  1> ! RI-MP2 RIJK def2-TZVP def2-TZVP/C def2-TZVP/JK TIGHTSCF
|  2> % maxcore 2000
|  3> % mp2 density relaxed end
|  4> *xyz 0 1
|  5>  C       -0.0502084933     1.5234307979     0.0305803227
|  6>  C       -0.0214780794     0.0098118744     0.0553443028
|  7>  C       -1.3805356857    -0.7130942581    -0.0853026044
|  8>  C       -1.0559659850    -2.2000741332     0.2027816670
|  9>  C        0.2955482487    -2.1528133290     0.9088541087
| 10>  C        0.7183279052    -0.7793494078     1.1725485837
| 11>  N        1.4855385611    -1.6223661201     0.1349424166
| 12>  C        0.9752614332    -0.7072483210    -0.8684663454
| 13>  O        1.3663307205    -0.5411122725    -1.9832048459
| 14>  H        0.9467878026     1.9460682810     0.1869086546
| 15>  H       -0.4119443785     1.8785924928    -0.9389657447
| 16>  H       -0.7160255923     1.9176466078     0.8060158617
| 17>  H       -2.0804805228    -0.3122999210     0.6565627597
| 18>  H       -1.8162907732    -0.5568314019    -1.0760568832
| 19>  H       -1.8036006000    -2.6670036067     0.8503799755
| 20>  H       -0.9993133650    -2.7995617941    -0.7113641349
| 21>  H        0.5951214316    -2.9699941740     1.5560895020
| 22>  H        1.2348671122    -0.3822406943     2.0361414935
| 23> *
| 24>
| 25>                          ****END OF INPUT****

CARTESIAN COORDINATES (ANGSTROEM)
---------------------------------
  C     -0.050208    1.523431    0.030580
  C     -0.021478    0.009812    0.055344
  C     -1.380536   -0.713094   -0.085303
  C     -1.055966   -2.200074    0.202782
  C      0.295548   -2.152813    0.908854
  C      0.718328   -0.779349    1.172549
  N      1.485539   -1.622366    0.134942
  C      0.975261   -0.707248   -0.868466
  O      1.366331   -0.541112   -1.983205
  H      0.946788    1.946068    0.186909
  H     -0.411944    1.878592   -0.938966
  H     -0.716026    1.917647    0.806016
  H     -2.080481   -0.312300    0.656563
  H     -1.816291   -0.556831   -1.076057
  H     -1.803601   -2.667004    0.850380
  H     -0.999313   -2.799562   -0.711364
  H      0.595121   -2.969994    1.556090
  H      1.234867   -0.382241    2.036141

 Total Charge           Charge          ....    0
 Multiplicity           Mult            ....    1
 Number of Electrons    NEL             ....   66
 Basis Dimension        Dim             ....  333

ORBITAL ENERGIES
----------------

  NO   OCC          E(Eh)            E(eV)
   0   2.0000     -20.546397      -559.0959
   1   2.0000     -15.580904      -423.9780
   2   2.0000     -11.351021      -308.8770
   3   2.0000     -11.290055      -307.2180
   4   2.0000     -11.283093      -307.0286
   5   2.0000     -11.266366      -306.5734
   6   2.0000     -11.247733      -306.0664
   7   2.0000     -11.247156      -306.0507
   8   2.0000     -11.235829      -305.7425
   9   2.0000      -1.404898       -38.2292
  10   2.0000      -1.312199       -35.7067
  11   2.0000      -1.097312       -29.8594
  12   2.0000      -1.043750       -28.4019
  13   2.0000      -0.949528       -25.8380
  14   2.0000      -0.910411       -24.7735
  15   2.0000      -0.854456       -23.2509
  16   2.0000      -0.790758       -21.5176
  17   2.0000      -0.708181       -19.2706
  18   2.0000      -0.683069       -18.5873
  19   2.0000      -0.674192       -18.3457
  20   2.0000      -0.636759       -17.3271
  21   2.0000      -0.618240       -16.8232
  22   2.0000      -0.588314       -16.0088
  23   2.0000      -0.569234       -15.4896
  24   2.0000      -0.557593       -15.1729
  25   2.0000      -0.543293       -14.7837
  26   2.0000      -0.537312       -14.6210
  27   2.0000      -0.519007       -14.1229
  28   2.0000      -0.487426       -13.2635
  29   2.0000      -0.469580       -12.7779
  30   2.0000      -0.441481       -12.0133
  31   2.0000      -0.431827       -11.7506
  32   2.0000      -0.380390       -10.3509
  33   0.0000       0.127911         3.4806
  34   0.0000       0.138828         3.7777
  35   0.0000       0.163268         4.4427
  36   0.0000       0.168315         4.5801
  37   0.0000       0.174820         4.7571

MULLIKEN ATOMIC CHARGES
-----------------------
   0 C :   -0.408301
   1 C :    0.162345
   2 C :   -0.270059
   3 C :   -0.206949
   4 C :   -0.082728
   5 C :   -0.147126
   6 N :   -0.173574
   7 C :    0.108258
   8 O :   -0.243549
   9 H :    0.145746
  10 H :    0.152251
  11 H :    0.135720
  12 H :    0.120746
  13 H :    0.137181
  14 H :    0.132683
  15 H :    0.135871
  16 H :    0.141300
  17 H :    0.160183
Sum of atomic charges:   -0.0000000

LOEWDIN ATOMIC CHARGES
----------------------
   0 C :   -0.259724
   1 C :   -0.233521
   2 C :   -0.193766
   3 C :   -0.226046
   4 C :   -0.202270
   5 C :   -0.124485
   6 N :    0.166278
   7 C :   -0.358880
   8 O :    0.168666
   9 H :    0.133703
  10 H :    0.137723
  11 H :    0.129419
  12 H :    0.141736
  13 H :    0.143524
  14 H :    0.143149
  15 H :    0.145569
  16 H :    0.148983
  17 H :    0.139942

  Mayer bond orders larger than 0.1
B(  0-C ,  1-C ) :   0.8774 B(  0-C ,  9-H ) :   0.9354 B(  0-C , 10-H ) :   0.9372
B(  0-C , 11-H ) :   0.9368 B(  1-C ,  2-C ) :   0.8905 B(  1-C ,  5-C ) :   0.8583
B(  1-C ,  7-C ) :   0.8755 B(  2-C ,  3-C ) :   0.9799 B(  2-C , 12-H ) :   0.9207
B(  2-C , 13-H ) :   0.9226 B(  3-C ,  4-C ) :   0.9127 B(  3-C , 14-H ) :   0.9201
B(  3-C , 15-H ) :   0.9144 B(  4-C ,  5-C ) :   0.9625 B(  4-C ,  6-N ) :   0.8571
B(  4-C , 16-H ) :   0.9317 B(  5-C ,  6-N ) :   0.8257 B(  5-C , 17-H ) :   0.8864
B(  6-N ,  7-C ) :   1.0159 B(  7-C ,  8-O ) :   2.0825

MP2 TOTAL ENERGY:     -401.259150570 Eh
FINAL SINGLE POINT ENERGY      -401.259150569961

DIPOLE MOMENT
-------------
                                X             Y             Z
Electronic contribution:      5.64607      -2.67338      -2.55156
Nuclear contribution   :     -6.86424       2.85470       3.77746
                        -----------------------------------------
Total Dipole Moment    :     -1.21817       0.18132       1.22590
                        -----------------------------------------
Magnitude (a.u.)       :      1.73771
Magnitude (Debye)      :      4.41690

                             ****ORCA TERMINATED NORMALLY****
TOTAL RUN TIME: 0 days 0 hours 19 minutes 4 seconds 283 msec
