                         Program Version 3.0.3 - RELEASE   -
|  1> ! RI-MP2 RIJK def2-TZVP def2-TZVP/C def2-TZVP/JK TIGHTSCF
|  2> % maxcore 2000
|  3> % mp2 density relaxed end
|  4> *xyz 0 1
|  5>  C       -0.0861581946     1.5736321856    -0.0340602268
|  6>  C        0.0789480391     0.0571425982    -0.0033627422
|  7>  C        0.9425559442    -0.5245994101    -1.1296838627
|  8>  O        1.3211709599    -1.8296121981    -0.6708246177
|  9>  C        1.4920452134    -1.7896906832     0.7069350953
| 10>  O        2.8860740985    -1.5786707016     1.0676955026
| 11>  C        2.9407150367    -0.3353095594     1.5971429881
| 12>  N        1.8771683091     0.3384787394     1.7525937632
| 13>  C        0.7869061740    -0.5123304999     1.2505025624
| 14>  H        0.8817771537     2.0720528743     0.0556798008
| 15>  H       -0.5614034589     1.8933879095    -0.9673321200
| 16>  H       -0.7119824788     1.9165018812     0.7951351088
| 17>  H       -0.9063450424    -0.4212525801    -0.0626578583
| 18>  H        0.4082420473    -0.6534867295    -2.0734913199
| 19>  H        1.8331302623     0.0936333899    -1.3124832800
| 20>  H        1.2089928012    -2.7581822894     1.1203134976
| 21>  H        3.9377996710    -0.0039034109     1.8677438652
| 22>  H        0.0816537941    -0.7097149459     2.0617003037
| 23> *
| 24>
| 25>                          ****END OF INPUT****

CARTESIAN COORDINATES (ANGSTROEM)
---------------------------------
  C     -0.086158    1.573632   -0.034060
  C      0.078948    0.057143   -0.003363
  C      0.942556   -0.524599   -1.129684
  O      1.321171   -1.829612   -0.670825
  C      1.492045   -1.789691    0.706935
  O      2.886074   -1.578671    1.067696
  C      2.940715   -0.335310    1.597143
  N      1.877168    0.338479    1.752594
  C      0.786906   -0.512330    1.250503
  H      0.881777    2.072053    0.055680
  H     -0.561403    1.893388   -0.967332
  H     -0.711982    1.916502    0.795135
  H     -0.906345   -0.421253   -0.062658
  H      0.408242   -0.653487   -2.073491
  H      1.833130    0.093633   -1.312483
  H      1.208993   -2.758182    1.120313
  H      3.937800   -0.003903    1.867744
  H      0.081654   -0.709715    2.061700

 Total Charge           Charge          ....    0
 Multiplicity           Mult            ....    1
 Number of Electrons    NEL             ....   68
 Basis Dimension        Dim             ....  333

ORBITAL ENERGIES
----------------

  NO   OCC          E(Eh)            E(eV)
   0   2.0000     -20.597572      -560.4884
   1   2.0000     -20.571394      -559.7761
   2   2.0000     -15.551742      -423.1844
   3   2.0000     -11.345823      -308.7355
   4   2.0000     -11.336927      -308.4935
   5   2.0000     -11.281704      -306.9908
   6   2.0000     -11.270592      -306.6884
   7   2.0000     -11.240709      -305.8752
   8   2.0000     -11.219252      -305.2914
   9   2.0000      -1.458039       -39.6753
  10   2.0000      -1.384745       -37.6808
  11   2.0000      -1.222487       -33.2656
  12   2.0000      -1.077219       -29.3126
  13   2.0000      -1.012215       -27.5438
  14   2.0000      -0.934908       -25.4401
  15   2.0000      -0.848424       -23.0868
  16   2.0000      -0.822371       -22.3778
  17   2.0000      -0.771907       -21.0047
  18   2.0000      -0.735664       -20.0184
  19   2.0000      -0.702766       -19.1232
  20   2.0000      -0.659107       -17.9352
  21   2.0000      -0.640613       -17.4320
  22   2.0000      -0.614087       -16.7101
  23   2.0000      -0.590745       -16.0750
  24   2.0000      -0.574045       -15.6206
  25   2.0000      -0.564951       -15.3731
  26   2.0000      -0.546567       -14.8729
  27   2.0000      -0.523649       -14.2492
  28   2.0000      -0.502813       -13.6822
  29   2.0000      -0.488713       -13.2986
  30   2.0000      -0.472590       -12.8598
  31   2.0000      -0.452322       -12.3083
  32   2.0000      -0.430365       -11.7108
  33   2.0000      -0.391731       -10.6596
  34   0.0000       0.129907         3.5349
  35   0.0000       0.152187         4.1412
  36   0.0000       0.168058         4.5731
  37   0.0000       0.177445         4.8285
  38   0.0000       0.184499         5.0205

MULLIKEN ATOMIC CHARGES
-----------------------
   0 C :   -0.402906
   1 C :   -0.071451
   2 C :   -0.066741
   3 O :   -0.280123
   4 C :    0.117546
   5 O :   -0.252682
   6 C :    0.108373
   7 N :   -0.308214
   8 C :    0.024563
   9 H :    0.142900
  10 H :    0.133425
  11 H :    0.134293
  12 H :    0.098715
  13 H :    0.127408
  14 H :    0.105949
  15 H :    0.112865
  16 H :    0.147224
  17 H :    0.128854
Sum of atomic charges:    0.0000000

LOEWDIN ATOMIC CHARGES
----------------------
   0 C :   -0.288737
   1 C :   -0.258324
   2 C :   -0.265116
   3 O :    0.193714
   4 C :   -0.327660
   5 O :    0.229215
   6 C :   -0.348907
   7 N :    0.082211
   8 C :   -0.231672
   9 H :    0.129272
  10 H :    0.124580
  11 H :    0.128815
  12 H :    0.156506
  13 H :    0.130099
  14 H :    0.127305
  15 H :    0.135059
  16 H :    0.134077
  17 H :    0.149563

  Mayer bond orders larger than 0.1
B(  0-C ,  1-C ) :   0.9116 B(  0-C ,  9-H ) :   0.9263 B(  0-C , 10-H ) :   0.9378
B(  0-C , 11-H ) :   0.9343 B(  1-C ,  2-C ) :   0.9397 B(  1-C ,  8-C ) :   0.9006
B(  1-C , 12-H ) :   0.9229 B(  2-C ,  3-O ) :   0.8848 B(  2-C , 13-H ) :   0.9222
B(  2-C , 14-H ) :   0.9243 B(  3-O ,  4-C ) :   1.0598 B(  4-C ,  5-O ) :   0.8879
B(  4-C ,  8-C ) :   0.9322 B(  4-C , 15-H ) :   0.9284 B(  5-O ,  6-C ) :   1.0757
B(  6-C ,  7-N ) :   1.7881 B(  6-C , 16-H ) :   0.9222 B(  7-N ,  8-C ) :   0.9164
B(  8-C , 17-H ) :   0.9240

MP2 TOTAL ENERGY:     -438.399124617 Eh
FINAL SINGLE POINT ENERGY      -438.399124616700

DIPOLE MOMENT
-------------
                                X             Y             Z
Electronic contribution:      5.25137      -5.61573       2.60529
Nuclear contribution   :     -5.72414       5.74266      -2.66421
                        -----------------------------------------
Total Dipole Moment    :     -0.47277       0.12693      -0.05893
                        -----------------------------------------
Magnitude (a.u.)       :      0.49305
Magnitude (Debye)      :      1.25324

                             ****ORCA TERMINATED NORMALLY****
TOTAL RUN TIME: 0 days 0 hours 17 minutes 26 seconds 173 msec
