                         Program Version 3.0.3 - RELEASE   -
|  1> ! RI-MP2 RIJK def2-TZVP def2-TZVP/C def2-TZVP/JK TIGHTSCF
|  2> % maxcore 2000
|  3> % mp2 density relaxed end
|  4> *xyz 0 1
|  5>  C        0.0682097999    -1.1698429742    -0.3274796943
|  6>  C        0.0168373956    -0.0029049052    -0.0466690546
|  7>  C       -0.0100547815     1.4126251280     0.3032263914
|  8>  C        1.3694768307     2.0429341043     0.2064303246
|  9>  N        1.7556272734     2.5865174532    -1.0895885168
| 10>  C        1.5585168650     3.5197884848     0.0387309363
| 11>  C        0.4359634631     4.4227534524    -0.0534024264
| 12>  N       -0.4630780872     5.1486370134    -0.0917246865
| 13>  H        0.0957880920    -2.2000931019    -0.5832994014
| 14>  H       -0.6945849469     1.9553072041    -0.3575051305
| 15>  H       -0.3900205842     1.5371001318     1.3253396027
| 16>  H        2.1352722364     1.5466873394     0.7993260624
| 17>  H        2.7489192481     2.4669497315    -1.2684868957
| 18>  H        2.4327027255     3.9600376484     0.5107785387
| 19> *
| 20>
| 21>                          ****END OF INPUT****

CARTESIAN COORDINATES (ANGSTROEM)
---------------------------------
  C      0.068210   -1.169843   -0.327480
  C      0.016837   -0.002905   -0.046669
  C     -0.010055    1.412625    0.303226
  C      1.369477    2.042934    0.206430
  N      1.755627    2.586517   -1.089589
  C      1.558517    3.519788    0.038731
  C      0.435963    4.422753   -0.053402
  N     -0.463078    5.148637   -0.091725
  H      0.095788   -2.200093   -0.583299
  H     -0.694585    1.955307   -0.357505
  H     -0.390021    1.537100    1.325340
  H      2.135272    1.546687    0.799326
  H      2.748919    2.466950   -1.268487
  H      2.432703    3.960038    0.510779

 Total Charge           Charge          ....    0
 Multiplicity           Mult            ....    1
 Number of Electrons    NEL             ....   56
 Basis Dimension        Dim             ....  284

ORBITAL ENERGIES
----------------

  NO   OCC          E(Eh)            E(eV)
   0   2.0000     -15.601687      -424.5435
   1   2.0000     -15.579050      -423.9275
   2   2.0000     -11.323966      -308.1408
   3   2.0000     -11.309665      -307.7516
   4   2.0000     -11.281452      -306.9839
   5   2.0000     -11.273289      -306.7618
   6   2.0000     -11.244672      -305.9831
   7   2.0000     -11.231952      -305.6369
   8   2.0000      -1.314114       -35.7588
   9   2.0000      -1.221919       -33.2501
  10   2.0000      -1.086242       -29.5581
  11   2.0000      -0.996248       -27.1093
  12   2.0000      -0.971222       -26.4283
  13   2.0000      -0.862981       -23.4829
  14   2.0000      -0.764154       -20.7937
  15   2.0000      -0.729686       -19.8558
  16   2.0000      -0.711377       -19.3575
  17   2.0000      -0.650014       -17.6878
  18   2.0000      -0.620946       -16.8968
  19   2.0000      -0.589618       -16.0443
  20   2.0000      -0.560885       -15.2624
  21   2.0000      -0.546851       -14.8806
  22   2.0000      -0.526825       -14.3356
  23   2.0000      -0.472299       -12.8519
  24   2.0000      -0.465430       -12.6650
  25   2.0000      -0.433621       -11.7994
  26   2.0000      -0.397375       -10.8131
  27   2.0000      -0.395028       -10.7492
  28   0.0000       0.109280         2.9737
  29   0.0000       0.137909         3.7527
  30   0.0000       0.156502         4.2586
  31   0.0000       0.159455         4.3390
  32   0.0000       0.164716         4.4821

MULLIKEN ATOMIC CHARGES
-----------------------
   0 C :   -0.120594
   1 C :   -0.046351
   2 C :   -0.352263
   3 C :    0.003502
   4 N :   -0.360774
   5 C :    0.053390
   6 C :   -0.182094
   7 N :   -0.055179
   8 H :    0.194126
   9 H :    0.174834
  10 H :    0.152608
  11 H :    0.142324
  12 H :    0.232228
  13 H :    0.164245
Sum of atomic charges:   -0.0000000

LOEWDIN ATOMIC CHARGES
----------------------
   0 C :   -0.096186
   1 C :   -0.105783
   2 C :   -0.221961
   3 C :   -0.226450
   4 N :    0.042243
   5 C :   -0.242847
   6 C :   -0.172653
   7 N :    0.074008
   8 H :    0.127825
   9 H :    0.172149
  10 H :    0.165781
  11 H :    0.147802
  12 H :    0.175540
  13 H :    0.160532

  Mayer bond orders larger than 0.1
B(  0-C ,  1-C ) :   2.6048 B(  0-C ,  8-H ) :   0.8982 B(  1-C ,  2-C ) :   1.1208
B(  2-C ,  3-C ) :   0.9073 B(  2-C ,  9-H ) :   0.9258 B(  2-C , 10-H ) :   0.9217
B(  3-C ,  4-N ) :   0.9134 B(  3-C ,  5-C ) :   0.8742 B(  3-C , 11-H ) :   0.9169
B(  4-N ,  5-C ) :   0.9375 B(  4-N , 12-H ) :   0.8636 B(  5-C ,  6-C ) :   0.9429
B(  5-C , 13-H ) :   0.9035 B(  6-C ,  7-N ) :   2.8368

MP2 TOTAL ENERGY:     -340.918892117 Eh
FINAL SINGLE POINT ENERGY      -340.918892117486

DIPOLE MOMENT
-------------
                                X             Y             Z
Electronic contribution:     -0.99861       3.14227      -0.63118
Nuclear contribution   :      2.44769      -4.04558       1.17270
                        -----------------------------------------
Total Dipole Moment    :      1.44908      -0.90332       0.54152
                        -----------------------------------------
Magnitude (a.u.)       :      1.79138
Magnitude (Debye)      :      4.55334

                             ****ORCA TERMINATED NORMALLY****
TOTAL RUN TIME: 0 days 0 hours 9 minutes 24 seconds 433 msec
