                         Program Version 3.0.3 - RELEASE   -
|  1> ! RI-MP2 RIJK def2-TZVP def2-TZVP/C def2-TZVP/JK TIGHTSCF
|  2> % maxcore 2000
|  3> % mp2 density relaxed end
|  4> *xyz 0 1
|  5>  N       -0.0926924398     1.3113865990     0.0704496618
|  6>  C       -0.0600490130     0.0509009296     0.0649322520
|  7>  O       -1.2010060148    -0.6553452416    -0.0712603860
|  8>  C       -1.1157622570    -2.0592798007     0.0431859374
|  9>  C       -1.5512531337    -2.7319452745     1.3980081389
| 10>  C       -2.5765728966    -3.5315652520     0.5842757546
| 11>  O       -3.4567013280    -2.5720056226     0.0005187281
| 12>  C       -2.2239698125    -2.8344828747    -0.6693940497
| 13>  H        0.8508003266     1.6825650356     0.1597694865
| 14>  H        0.8364729879    -0.5803263090     0.1515024399
| 15>  H       -0.1254083544    -2.4137732057    -0.2682127759
| 16>  H       -0.7535090409    -3.3214942010     1.8545749630
| 17>  H       -1.9944006493    -2.0552339702     2.1303724157
| 18>  H       -2.9499518426    -4.5361864721     0.7376421168
| 19>  H       -2.2741650619    -3.1427164301    -1.7069429729
| 20> *
| 21>
| 22>                          ****END OF INPUT****

CARTESIAN COORDINATES (ANGSTROEM)
---------------------------------
  N     -0.092692    1.311387    0.070450
  C     -0.060049    0.050901    0.064932
  O     -1.201006   -0.655345   -0.071260
  C     -1.115762   -2.059280    0.043186
  C     -1.551253   -2.731945    1.398008
  C     -2.576573   -3.531565    0.584276
  O     -3.456701   -2.572006    0.000519
  C     -2.223970   -2.834483   -0.669394
  H      0.850800    1.682565    0.159769
  H      0.836473   -0.580326    0.151502
  H     -0.125408   -2.413773   -0.268213
  H     -0.753509   -3.321494    1.854575
  H     -1.994401   -2.055234    2.130372
  H     -2.949952   -4.536186    0.737642
  H     -2.274165   -3.142716   -1.706943

 Total Charge           Charge          ....    0
 Multiplicity           Mult            ....    1
 Number of Electrons    NEL             ....   60
 Basis Dimension        Dim             ....  290

ORBITAL ENERGIES
----------------

  NO   OCC          E(Eh)            E(eV)
   0   2.0000     -20.596304      -560.4539
   1   2.0000     -20.579875      -560.0069
   2   2.0000     -15.541952      -422.9180
   3   2.0000     -11.341778      -308.6255
   4   2.0000     -11.316518      -307.9381
   5   2.0000     -11.301520      -307.5300
   6   2.0000     -11.298299      -307.4423
   7   2.0000     -11.248532      -306.0881
   8   2.0000      -1.444037       -39.2942
   9   2.0000      -1.423777       -38.7429
  10   2.0000      -1.202423       -32.7196
  11   2.0000      -1.094286       -29.7770
  12   2.0000      -0.935892       -25.4669
  13   2.0000      -0.886090       -24.1117
  14   2.0000      -0.832070       -22.6418
  15   2.0000      -0.794646       -21.6234
  16   2.0000      -0.739410       -20.1204
  17   2.0000      -0.710465       -19.3327
  18   2.0000      -0.668792       -18.1987
  19   2.0000      -0.650548       -17.7023
  20   2.0000      -0.617526       -16.8038
  21   2.0000      -0.602382       -16.3916
  22   2.0000      -0.558774       -15.2050
  23   2.0000      -0.533777       -14.5248
  24   2.0000      -0.518700       -14.1145
  25   2.0000      -0.494477       -13.4554
  26   2.0000      -0.464206       -12.6317
  27   2.0000      -0.439349       -11.9553
  28   2.0000      -0.418930       -11.3997
  29   2.0000      -0.397296       -10.8110
  30   0.0000       0.132714         3.6113
  31   0.0000       0.149881         4.0785
  32   0.0000       0.154449         4.2028
  33   0.0000       0.166693         4.5359
  34   0.0000       0.174276         4.7423

MULLIKEN ATOMIC CHARGES
-----------------------
   0 N :   -0.334688
   1 C :    0.060592
   2 O :   -0.198826
   3 C :    0.076565
   4 C :   -0.201185
   5 C :   -0.011876
   6 O :   -0.304784
   7 C :   -0.023607
   8 H :    0.224943
   9 H :    0.074188
  10 H :    0.097433
  11 H :    0.122411
  12 H :    0.131895
  13 H :    0.142670
  14 H :    0.144269
Sum of atomic charges:    0.0000000

LOEWDIN ATOMIC CHARGES
----------------------
   0 N :   -0.078146
   1 C :   -0.398314
   2 O :    0.275545
   3 C :   -0.274943
   4 C :   -0.198756
   5 C :   -0.242663
   6 O :    0.192517
   7 C :   -0.228818
   8 H :    0.168169
   9 H :    0.104568
  10 H :    0.139891
  11 H :    0.135038
  12 H :    0.142065
  13 H :    0.131262
  14 H :    0.132585

  Mayer bond orders larger than 0.1
B(  0-N ,  1-C ) :   1.9649 B(  0-N ,  8-H ) :   0.8491 B(  1-C ,  2-O ) :   1.0511
B(  1-C ,  9-H ) :   0.9214 B(  2-O ,  3-C ) :   0.8967 B(  3-C ,  4-C ) :   0.9752
B(  3-C ,  7-C ) :   0.8802 B(  3-C , 10-H ) :   0.9048 B(  4-C ,  5-C ) :   0.9475
B(  4-C , 11-H ) :   0.9123 B(  4-C , 12-H ) :   0.8977 B(  5-C ,  6-O ) :   0.9412
B(  5-C ,  7-C ) :   0.8851 B(  5-C , 13-H ) :   0.9264 B(  6-O ,  7-C ) :   0.9201
B(  7-C , 14-H ) :   0.9296

MP2 TOTAL ENERGY:     -399.087957084 Eh
FINAL SINGLE POINT ENERGY      -399.087957083957

DIPOLE MOMENT
-------------
                                X             Y             Z
Electronic contribution:     -2.61395       1.44893      -1.53878
Nuclear contribution   :      3.99641      -2.94634       1.70125
                        -----------------------------------------
Total Dipole Moment    :      1.38246      -1.49741       0.16247
                        -----------------------------------------
Magnitude (a.u.)       :      2.04446
Magnitude (Debye)      :      5.19661

                             ****ORCA TERMINATED NORMALLY****
TOTAL RUN TIME: 0 days 0 hours 9 minutes 48 seconds 574 msec
