                         Program Version 3.0.3 - RELEASE   -
|  1> ! RI-MP2 RIJK def2-TZVP def2-TZVP/C def2-TZVP/JK TIGHTSCF
|  2> % maxcore 2000
|  3> % mp2 density relaxed end
|  4> *xyz 0 1
|  5>  C       -0.1929764028     1.6148719796    -0.0612627724
|  6>  C       -0.1260823958     0.1221103672     0.0295612676
|  7>  C       -0.0522946184    -0.9766255540    -0.9356239403
|  8>  O        1.3774834951    -1.3428785207    -0.6476629719
|  9>  C        0.9857288211    -0.8328471810     0.5954085353
| 10>  N        0.7872887390    -1.5757119467     1.6037043748
| 11>  C       -0.7014211345    -1.5008562241     1.7306196427
| 12>  C       -1.1164525592    -0.9337918888     0.3453006129
| 13>  O       -2.4415360389    -0.7346750677     0.0208191555
| 14>  H        0.6725664047     2.0157735430    -0.5973602975
| 15>  H       -1.0991814068     1.9170812796    -0.5944971504
| 16>  H       -0.2197934211     2.0698671239     0.9339285125
| 17>  H       -0.3633716782    -1.0857204769    -1.9684910378
| 18>  H       -1.0366863292    -2.5292341309     1.9075193735
| 19>  H       -1.0939080729    -0.8697872117     2.5421817092
| 20>  H       -2.8830936120    -1.5909624108    -0.0155308337
| 21> *
| 22>
| 23>                          ****END OF INPUT****

CARTESIAN COORDINATES (ANGSTROEM)
---------------------------------
  C     -0.192976    1.614872   -0.061263
  C     -0.126082    0.122110    0.029561
  C     -0.052295   -0.976626   -0.935624
  O      1.377483   -1.342879   -0.647663
  C      0.985729   -0.832847    0.595409
  N      0.787289   -1.575712    1.603704
  C     -0.701421   -1.500856    1.730620
  C     -1.116453   -0.933792    0.345301
  O     -2.441536   -0.734675    0.020819
  H      0.672566    2.015774   -0.597360
  H     -1.099181    1.917081   -0.594497
  H     -0.219793    2.069867    0.933929
  H     -0.363372   -1.085720   -1.968491
  H     -1.036686   -2.529234    1.907519
  H     -1.093908   -0.869787    2.542182
  H     -2.883094   -1.590962   -0.015531

 Total Charge           Charge          ....    0
 Multiplicity           Mult            ....    1
 Number of Electrons    NEL             ....   66
 Basis Dimension        Dim             ....  321

ORBITAL ENERGIES
----------------

  NO   OCC          E(Eh)            E(eV)
   0   2.0000     -20.598122      -560.5034
   1   2.0000     -20.594861      -560.4147
   2   2.0000     -15.541051      -422.8935
   3   2.0000     -11.363487      -309.2162
   4   2.0000     -11.331335      -308.3413
   5   2.0000     -11.323113      -308.1176
   6   2.0000     -11.282772      -307.0198
   7   2.0000     -11.265075      -306.5383
   8   2.0000     -11.244089      -305.9672
   9   2.0000      -1.440275       -39.1919
  10   2.0000      -1.407585       -38.3023
  11   2.0000      -1.242680       -33.8150
  12   2.0000      -1.143578       -31.1183
  13   2.0000      -0.995385       -27.0858
  14   2.0000      -0.952271       -25.9126
  15   2.0000      -0.851298       -23.1650
  16   2.0000      -0.823926       -22.4202
  17   2.0000      -0.728306       -19.8182
  18   2.0000      -0.699299       -19.0289
  19   2.0000      -0.683400       -18.5963
  20   2.0000      -0.657655       -17.8957
  21   2.0000      -0.637519       -17.3478
  22   2.0000      -0.605458       -16.4754
  23   2.0000      -0.594443       -16.1756
  24   2.0000      -0.581238       -15.8163
  25   2.0000      -0.573682       -15.6107
  26   2.0000      -0.555097       -15.1050
  27   2.0000      -0.550003       -14.9663
  28   2.0000      -0.496826       -13.5193
  29   2.0000      -0.452729       -12.3194
  30   2.0000      -0.420925       -11.4540
  31   2.0000      -0.392730       -10.6867
  32   2.0000      -0.350311        -9.5325
  33   0.0000       0.093069         2.5325
  34   0.0000       0.117658         3.2016
  35   0.0000       0.145876         3.9695
  36   0.0000       0.171222         4.6592
  37   0.0000       0.179391         4.8815

MULLIKEN ATOMIC CHARGES
-----------------------
   0 C :   -0.423619
   1 C :    0.058367
   2 C :   -0.016604
   3 O :   -0.252543
   4 C :    0.133481
   5 N :   -0.213686
   6 C :   -0.092800
   7 C :    0.058406
   8 O :   -0.452021
   9 H :    0.151357
  10 H :    0.153695
  11 H :    0.145087
  12 H :    0.164905
  13 H :    0.127154
  14 H :    0.120623
  15 H :    0.338198
Sum of atomic charges:    0.0000000

LOEWDIN ATOMIC CHARGES
----------------------
   0 C :   -0.261561
   1 C :   -0.184098
   2 C :   -0.132122
   3 O :    0.196747
   4 C :   -0.287147
   5 N :    0.112176
   6 C :   -0.216236
   7 C :   -0.291198
   8 O :    0.049674
   9 H :    0.136609
  10 H :    0.139027
  11 H :    0.135102
  12 H :    0.140689
  13 H :    0.137613
  14 H :    0.132111
  15 H :    0.192615

  Mayer bond orders larger than 0.1
B(  0-C ,  1-C ) :   0.8227 B(  0-C ,  9-H ) :   0.9391 B(  0-C , 10-H ) :   0.9387
B(  0-C , 11-H ) :   0.9358 B(  1-C ,  2-C ) :   0.8582 B(  1-C ,  4-C ) :   0.9113
B(  1-C ,  7-C ) :   0.8152 B(  2-C ,  3-O ) :   0.8409 B(  2-C ,  7-C ) :   0.8269
B(  2-C , 12-H ) :   0.8986 B(  3-O ,  4-C ) :   1.0315 B(  4-C ,  5-N ) :   1.8857
B(  5-N ,  6-C ) :   0.9005 B(  6-C ,  7-C ) :   0.9616 B(  6-C , 13-H ) :   0.9114
B(  6-C , 14-H ) :   0.9017 B(  7-C ,  8-O ) :   1.0498 B(  8-O , 15-H ) :   0.8296

MP2 TOTAL ENERGY:     -437.021554426 Eh
FINAL SINGLE POINT ENERGY      -437.021554425984

DIPOLE MOMENT
-------------
                                X             Y             Z
Electronic contribution:      3.04497      -4.01211      -0.47508
Nuclear contribution   :     -4.26299       4.40335       0.21738
                        -----------------------------------------
Total Dipole Moment    :     -1.21801       0.39124      -0.25770
                        -----------------------------------------
Magnitude (a.u.)       :      1.30500
Magnitude (Debye)      :      3.31705

                             ****ORCA TERMINATED NORMALLY****
TOTAL RUN TIME: 0 days 0 hours 18 minutes 47 seconds 509 msec
