                         Program Version 3.0.3 - RELEASE   -
|  1> ! RI-MP2 RIJK def2-TZVP def2-TZVP/C def2-TZVP/JK TIGHTSCF
|  2> % maxcore 2000
|  3> % mp2 density relaxed end
|  4> *xyz 0 1
|  5>  N       -0.0992605516     1.2075722358    -0.4498319270
|  6>  C       -0.0497159845    -0.0099964790    -0.0819798084
|  7>  N       -1.1864127265    -0.7440773004     0.1691670895
|  8>  C       -1.0959637133    -1.9653525661     0.9434924645
|  9>  C        0.0462935703    -2.7827338987     0.3730832442
| 10>  O        1.2814814695    -2.0482603080     0.4007402514
| 11>  C        1.2875284830    -0.7355956342     0.0852424081
| 12>  O        2.3283840459    -0.1501441125    -0.0309483568
| 13>  H        0.8538566504     1.5363422609    -0.6091049903
| 14>  H       -2.0259344329    -0.1865712908     0.2407567296
| 15>  H       -0.9266714556    -1.7821122190     2.0164714135
| 16>  H       -2.0282178065    -2.5290902062     0.8431023845
| 17>  H        0.2297127105    -3.6836180594     0.9615155205
| 18>  H       -0.1713820088    -3.0687759523    -0.6622460232
| 19> *
| 20>
| 21>                          ****END OF INPUT****

CARTESIAN COORDINATES (ANGSTROEM)
---------------------------------
  N     -0.099261    1.207572   -0.449832
  C     -0.049716   -0.009996   -0.081980
  N     -1.186413   -0.744077    0.169167
  C     -1.095964   -1.965353    0.943492
  C      0.046294   -2.782734    0.373083
  O      1.281481   -2.048260    0.400740
  C      1.287528   -0.735596    0.085242
  O      2.328384   -0.150144   -0.030948
  H      0.853857    1.536342   -0.609105
  H     -2.025934   -0.186571    0.240757
  H     -0.926671   -1.782112    2.016471
  H     -2.028218   -2.529090    0.843102
  H      0.229713   -3.683618    0.961516
  H     -0.171382   -3.068776   -0.662246

 Total Charge           Charge          ....    0
 Multiplicity           Mult            ....    1
 Number of Electrons    NEL             ....   60
 Basis Dimension        Dim             ....  284

ORBITAL ENERGIES
----------------

  NO   OCC          E(Eh)            E(eV)
   0   2.0000     -20.621701      -561.1450
   1   2.0000     -20.559785      -559.4602
   2   2.0000     -15.595990      -424.3885
   3   2.0000     -15.547544      -423.0702
   4   2.0000     -11.402507      -310.2780
   5   2.0000     -11.337777      -308.5166
   6   2.0000     -11.320286      -308.0406
   7   2.0000     -11.298519      -307.4483
   8   2.0000      -1.478637       -40.2358
   9   2.0000      -1.384113       -37.6636
  10   2.0000      -1.294724       -35.2312
  11   2.0000      -1.185204       -32.2510
  12   2.0000      -1.047804       -28.5122
  13   2.0000      -0.920199       -25.0399
  14   2.0000      -0.905823       -24.6487
  15   2.0000      -0.759258       -20.6605
  16   2.0000      -0.749822       -20.4037
  17   2.0000      -0.726108       -19.7584
  18   2.0000      -0.685997       -18.6669
  19   2.0000      -0.663753       -18.0616
  20   2.0000      -0.636922       -17.3315
  21   2.0000      -0.634426       -17.2636
  22   2.0000      -0.607699       -16.5363
  23   2.0000      -0.579971       -15.7818
  24   2.0000      -0.535061       -14.5597
  25   2.0000      -0.507087       -13.7985
  26   2.0000      -0.481122       -13.0920
  27   2.0000      -0.473196       -12.8763
  28   2.0000      -0.439483       -11.9589
  29   2.0000      -0.374281       -10.1847
  30   0.0000       0.090062         2.4507
  31   0.0000       0.120156         3.2696
  32   0.0000       0.150193         4.0870
  33   0.0000       0.166960         4.5432
  34   0.0000       0.173370         4.7176

MULLIKEN ATOMIC CHARGES
-----------------------
   0 N :   -0.359558
   1 C :    0.060045
   2 N :   -0.320577
   3 C :   -0.135153
   4 C :   -0.060238
   5 O :   -0.207960
   6 C :    0.287640
   7 O :   -0.288035
   8 H :    0.244362
   9 H :    0.243642
  10 H :    0.128630
  11 H :    0.139827
  12 H :    0.142546
  13 H :    0.124829
Sum of atomic charges:    0.0000000

LOEWDIN ATOMIC CHARGES
----------------------
   0 N :   -0.042704
   1 C :   -0.372314
   2 N :    0.093418
   3 C :   -0.292985
   4 C :   -0.275322
   5 O :    0.266610
   6 C :   -0.444992
   7 O :    0.152926
   8 H :    0.176020
   9 H :    0.190964
  10 H :    0.132630
  11 H :    0.143995
  12 H :    0.137668
  13 H :    0.134084

  Mayer bond orders larger than 0.1
B(  0-N ,  1-C ) :   1.9202 B(  0-N ,  8-H ) :   0.8508 B(  1-C ,  2-N ) :   1.1185
B(  1-C ,  6-C ) :   0.9157 B(  2-N ,  3-C ) :   0.8878 B(  2-N ,  9-H ) :   0.8620
B(  3-C ,  4-C ) :   0.9460 B(  3-C , 10-H ) :   0.9251 B(  3-C , 11-H ) :   0.9186
B(  4-C ,  5-O ) :   0.8491 B(  4-C , 12-H ) :   0.9305 B(  4-C , 13-H ) :   0.9251
B(  5-O ,  6-C ) :   1.1336 B(  6-C ,  7-O ) :   1.9608

MP2 TOTAL ENERGY:     -415.231270501 Eh
FINAL SINGLE POINT ENERGY      -415.231270500941

DIPOLE MOMENT
-------------
                                X             Y             Z
Electronic contribution:      4.28735       2.57573      -1.05975
Nuclear contribution   :     -5.65420      -3.95298       1.59581
                        -----------------------------------------
Total Dipole Moment    :     -1.36685      -1.37724       0.53606
                        -----------------------------------------
Magnitude (a.u.)       :      2.01306
Magnitude (Debye)      :      5.11680

                             ****ORCA TERMINATED NORMALLY****
TOTAL RUN TIME: 0 days 0 hours 10 minutes 38 seconds 115 msec
