                         Program Version 3.0.3 - RELEASE   -
|  1> ! RI-MP2 RIJK def2-TZVP def2-TZVP/C def2-TZVP/JK TIGHTSCF
|  2> % maxcore 2000
|  3> % mp2 density relaxed end
|  4> *xyz 0 1
|  5>  C       -0.3063876898     1.4507509736     0.0569449774
|  6>  C        0.0554867979    -0.0218474933    -0.0766670919
|  7>  C        1.3864924820    -0.3589336488    -0.7918536623
|  8>  O        1.9337435107    -0.9557674275     0.4111245167
|  9>  C        0.7366937186    -0.6922963369     1.1221356953
| 10>  C        0.7368022081    -0.3627989528     2.5597593804
| 11>  C        0.2028695694    -1.7313797917     2.1026735138
| 12>  C       -1.2477094873    -1.9897412690     2.1630202055
| 13>  O       -1.7566064673    -3.0770004742     2.2895979302
| 14>  H        0.5360887708     2.0304308696     0.4479668891
| 15>  H       -0.5858732203     1.8705086526    -0.9149155243
| 16>  H       -1.1556434985     1.5919262066     0.7337698838
| 17>  H       -0.7913964077    -0.5926082387    -0.4654651487
| 18>  H        1.3242787800    -1.0844668845    -1.6095376520
| 19>  H        1.9767911373     0.5068445242    -1.1132925698
| 20>  H        1.6872602557    -0.3672554200     3.0811185285
| 21>  H        0.0096231280     0.3545259586     2.9300025629
| 22>  H        0.8408768038    -2.5945873325     2.2585295329
| 23>  H       -1.8772747413    -1.0705950254     2.0749605426
| 24> *
| 25>
| 26>                          ****END OF INPUT****

CARTESIAN COORDINATES (ANGSTROEM)
---------------------------------
  C     -0.306388    1.450751    0.056945
  C      0.055487   -0.021847   -0.076667
  C      1.386492   -0.358934   -0.791854
  O      1.933744   -0.955767    0.411125
  C      0.736694   -0.692296    1.122136
  C      0.736802   -0.362799    2.559759
  C      0.202870   -1.731380    2.102674
  C     -1.247709   -1.989741    2.163020
  O     -1.756606   -3.077000    2.289598
  H      0.536089    2.030431    0.447967
  H     -0.585873    1.870509   -0.914916
  H     -1.155643    1.591926    0.733770
  H     -0.791396   -0.592608   -0.465465
  H      1.324279   -1.084467   -1.609538
  H      1.976791    0.506845   -1.113293
  H      1.687260   -0.367255    3.081119
  H      0.009623    0.354526    2.930003
  H      0.840877   -2.594587    2.258530
  H     -1.877275   -1.070595    2.074961

 Total Charge           Charge          ....    0
 Multiplicity           Mult            ....    1
 Number of Electrons    NEL             ....   68
 Basis Dimension        Dim             ....  339

ORBITAL ENERGIES
----------------

  NO   OCC          E(Eh)            E(eV)
   0   2.0000     -20.567722      -559.6762
   1   2.0000     -20.550988      -559.2208
   2   2.0000     -11.333096      -308.3892
   3   2.0000     -11.313429      -307.8541
   4   2.0000     -11.292790      -307.2924
   5   2.0000     -11.256806      -306.3133
   6   2.0000     -11.251154      -306.1595
   7   2.0000     -11.246689      -306.0380
   8   2.0000     -11.237553      -305.7894
   9   2.0000      -1.404278       -38.2123
  10   2.0000      -1.389761       -37.8173
  11   2.0000      -1.158463       -31.5234
  12   2.0000      -1.068341       -29.0710
  13   2.0000      -0.937263       -25.5042
  14   2.0000      -0.915844       -24.9214
  15   2.0000      -0.877295       -23.8724
  16   2.0000      -0.797799       -21.7092
  17   2.0000      -0.738014       -20.0824
  18   2.0000      -0.707639       -19.2558
  19   2.0000      -0.679839       -18.4994
  20   2.0000      -0.663065       -18.0429
  21   2.0000      -0.638804       -17.3827
  22   2.0000      -0.611268       -16.6334
  23   2.0000      -0.591968       -16.1083
  24   2.0000      -0.582123       -15.8404
  25   2.0000      -0.563155       -15.3242
  26   2.0000      -0.552350       -15.0302
  27   2.0000      -0.525959       -14.3121
  28   2.0000      -0.512050       -13.9336
  29   2.0000      -0.505093       -13.7443
  30   2.0000      -0.470613       -12.8060
  31   2.0000      -0.441386       -12.0107
  32   2.0000      -0.415633       -11.3100
  33   2.0000      -0.384592       -10.4653
  34   0.0000       0.120873         3.2891
  35   0.0000       0.124196         3.3795
  36   0.0000       0.160338         4.3630
  37   0.0000       0.165784         4.5112
  38   0.0000       0.169069         4.6006

MULLIKEN ATOMIC CHARGES
-----------------------
   0 C :   -0.443768
   1 C :   -0.045794
   2 C :   -0.035523
   3 O :   -0.308751
   4 C :    0.132217
   5 C :   -0.278621
   6 C :   -0.045825
   7 C :    0.031467
   8 O :   -0.269625
   9 H :    0.143727
  10 H :    0.144007
  11 H :    0.132312
  12 H :    0.127552
  13 H :    0.107799
  14 H :    0.101723
  15 H :    0.151203
  16 H :    0.140753
  17 H :    0.144274
  18 H :    0.070873
Sum of atomic charges:    0.0000000

LOEWDIN ATOMIC CHARGES
----------------------
   0 C :   -0.290893
   1 C :   -0.220640
   2 C :   -0.224413
   3 O :    0.180771
   4 C :   -0.270127
   5 C :   -0.170541
   6 C :   -0.173836
   7 C :   -0.297643
   8 O :    0.125630
   9 H :    0.129704
  10 H :    0.128215
  11 H :    0.125232
  12 H :    0.152469
  13 H :    0.120099
  14 H :    0.121183
  15 H :    0.147314
  16 H :    0.142325
  17 H :    0.162217
  18 H :    0.112934

  Mayer bond orders larger than 0.1
B(  0-C ,  1-C ) :   0.8972 B(  0-C ,  9-H ) :   0.9351 B(  0-C , 10-H ) :   0.9346
B(  0-C , 11-H ) :   0.9359 B(  1-C ,  2-C ) :   0.9730 B(  1-C ,  4-C ) :   0.9081
B(  1-C , 12-H ) :   0.9187 B(  2-C ,  3-O ) :   0.9312 B(  2-C , 13-H ) :   0.9144
B(  2-C , 14-H ) :   0.9055 B(  3-O ,  4-C ) :   0.9994 B(  4-C ,  5-C ) :   0.8509
B(  4-C ,  6-C ) :   0.7759 B(  5-C ,  6-C ) :   0.8613 B(  5-C , 15-H ) :   0.9094
B(  5-C , 16-H ) :   0.9076 B(  6-C ,  7-C ) :   0.8804 B(  6-C , 17-H ) :   0.9049
B(  6-C , 18-H ) :  -0.1013 B(  7-C ,  8-O ) :   1.9853 B(  7-C , 18-H ) :   0.9546

MP2 TOTAL ENERGY:     -422.288348143 Eh
FINAL SINGLE POINT ENERGY      -422.288348142622

DIPOLE MOMENT
-------------
                                X             Y             Z
Electronic contribution:      0.09530      -7.24474       2.68434
Nuclear contribution   :      0.08509       8.63098      -3.17163
                        -----------------------------------------
Total Dipole Moment    :      0.18039       1.38624      -0.48729
                        -----------------------------------------
Magnitude (a.u.)       :      1.48042
Magnitude (Debye)      :      3.76294

                             ****ORCA TERMINATED NORMALLY****
TOTAL RUN TIME: 0 days 0 hours 17 minutes 32 seconds 373 msec
