                         Program Version 3.0.3 - RELEASE   -
|  1> ! RI-MP2 RIJK def2-TZVP def2-TZVP/C def2-TZVP/JK TIGHTSCF
|  2> % maxcore 2000
|  3> % mp2 density relaxed end
|  4> *xyz 0 1
|  5>  C       -0.8970922089     0.9579270412    -1.0681276889
|  6>  C        0.1604508406    -0.0954750269    -0.7797029486
|  7>  C        1.5925622622     0.0676696016    -1.3619144785
|  8>  C        2.1377584425    -0.5846960815    -0.0645132949
|  9>  C        3.4478803748    -0.1401334497     0.5185465443
| 10>  O        3.6846135109    -0.0856343065     1.7017075977
| 11>  C        0.7764260251    -0.2483022670     0.6446487215
| 12>  C        0.7974960785     1.0279442254     1.4804549604
| 13>  O        0.1712928094    -1.3074378280     1.3549881250
| 14>  H       -0.5461507578     1.9661913328    -0.8256079459
| 15>  H       -1.1686159053     0.9500811040    -2.1293206059
| 16>  H       -1.8095380715     0.7702723669    -0.4922503153
| 17>  H       -0.2182449396    -1.0866476367    -1.0518336212
| 18>  H        1.8115589023    -0.4259048746    -2.3104294371
| 19>  H        1.8826993991     1.1212507545    -1.4416680581
| 20>  H        2.1869626992    -1.6741800161    -0.1869758134
| 21>  H        4.2265941708     0.1430984324    -0.2290042753
| 22>  H        1.2188815508     1.8744005971     0.9288452419
| 23>  H       -0.2209076394     1.2872843738     1.7833063268
| 24>  H        1.4121412033     0.8874069006     2.3740609913
| 25>  H        0.5606085929    -1.3360673635     2.2362995942
| 26> *
| 27>
| 28>                          ****END OF INPUT****

CARTESIAN COORDINATES (ANGSTROEM)
---------------------------------
  C     -0.897092    0.957927   -1.068128
  C      0.160451   -0.095475   -0.779703
  C      1.592562    0.067670   -1.361914
  C      2.137758   -0.584696   -0.064513
  C      3.447880   -0.140133    0.518547
  O      3.684614   -0.085634    1.701708
  C      0.776426   -0.248302    0.644649
  C      0.797496    1.027944    1.480455
  O      0.171293   -1.307438    1.354988
  H     -0.546151    1.966191   -0.825608
  H     -1.168616    0.950081   -2.129321
  H     -1.809538    0.770272   -0.492250
  H     -0.218245   -1.086648   -1.051834
  H      1.811559   -0.425905   -2.310429
  H      1.882699    1.121251   -1.441668
  H      2.186963   -1.674180   -0.186976
  H      4.226594    0.143098   -0.229004
  H      1.218882    1.874401    0.928845
  H     -0.220908    1.287284    1.783306
  H      1.412141    0.887407    2.374061
  H      0.560609   -1.336067    2.236300

 Total Charge           Charge          ....    0
 Multiplicity           Mult            ....    1
 Number of Electrons    NEL             ....   70
 Basis Dimension        Dim             ....  351

ORBITAL ENERGIES
----------------

  NO   OCC          E(Eh)            E(eV)
   0   2.0000     -20.558531      -559.4261
   1   2.0000     -20.557548      -559.3993
   2   2.0000     -11.333979      -308.4132
   3   2.0000     -11.294292      -307.3333
   4   2.0000     -11.241971      -305.9096
   5   2.0000     -11.236627      -305.7642
   6   2.0000     -11.233904      -305.6901
   7   2.0000     -11.219003      -305.2846
   8   2.0000     -11.218696      -305.2762
   9   2.0000      -1.397017       -38.0148
  10   2.0000      -1.368748       -37.2455
  11   2.0000      -1.147104       -31.2143
  12   2.0000      -1.006381       -27.3850
  13   2.0000      -0.986888       -26.8546
  14   2.0000      -0.912197       -24.8221
  15   2.0000      -0.867136       -23.5960
  16   2.0000      -0.789440       -21.4818
  17   2.0000      -0.735466       -20.0130
  18   2.0000      -0.699472       -19.0336
  19   2.0000      -0.670656       -18.2495
  20   2.0000      -0.646066       -17.5804
  21   2.0000      -0.641052       -17.4439
  22   2.0000      -0.613971       -16.7070
  23   2.0000      -0.587901       -15.9976
  24   2.0000      -0.564918       -15.3722
  25   2.0000      -0.552319       -15.0294
  26   2.0000      -0.545603       -14.8466
  27   2.0000      -0.532466       -14.4891
  28   2.0000      -0.522735       -14.2244
  29   2.0000      -0.504815       -13.7367
  30   2.0000      -0.480312       -13.0700
  31   2.0000      -0.463538       -12.6135
  32   2.0000      -0.448227       -12.1969
  33   2.0000      -0.428498       -11.6600
  34   2.0000      -0.400990       -10.9115
  35   0.0000       0.118798         3.2327
  36   0.0000       0.137341         3.7372
  37   0.0000       0.151777         4.1301
  38   0.0000       0.156412         4.2562
  39   0.0000       0.164410         4.4738

MULLIKEN ATOMIC CHARGES
-----------------------
   0 C :   -0.423338
   1 C :   -0.012793
   2 C :   -0.325507
   3 C :   -0.022882
   4 C :    0.064347
   5 O :   -0.277987
   6 C :    0.213168
   7 C :   -0.489876
   8 O :   -0.460168
   9 H :    0.123230
  10 H :    0.137944
  11 H :    0.144309
  12 H :    0.105814
  13 H :    0.132346
  14 H :    0.121806
  15 H :    0.128404
  16 H :    0.084348
  17 H :    0.127980
  18 H :    0.149015
  19 H :    0.160450
  20 H :    0.319390
Sum of atomic charges:    0.0000000

LOEWDIN ATOMIC CHARGES
----------------------
   0 C :   -0.297401
   1 C :   -0.215876
   2 C :   -0.193033
   3 C :   -0.203792
   4 C :   -0.277687
   5 O :    0.127107
   6 C :   -0.340486
   7 C :   -0.276214
   8 O :    0.012200
   9 H :    0.122805
  10 H :    0.126859
  11 H :    0.129245
  12 H :    0.161055
  13 H :    0.127150
  14 H :    0.137351
  15 H :    0.175337
  16 H :    0.112985
  17 H :    0.130647
  18 H :    0.130577
  19 H :    0.131131
  20 H :    0.180040

  Mayer bond orders larger than 0.1
B(  0-C ,  1-C ) :   0.8927 B(  0-C ,  9-H ) :   0.9328 B(  0-C , 10-H ) :   0.9397
B(  0-C , 11-H ) :   0.9438 B(  1-C ,  2-C ) :   0.9229 B(  1-C ,  6-C ) :   0.8725
B(  1-C , 12-H ) :   0.9244 B(  2-C ,  3-C ) :   0.9230 B(  2-C , 13-H ) :   0.9216
B(  2-C , 14-H ) :   0.9147 B(  3-C ,  4-C ) :   0.8121 B(  3-C ,  6-C ) :   0.8942
B(  3-C , 15-H ) :   0.8892 B(  4-C ,  5-O ) :   1.9861 B(  4-C , 16-H ) :   0.9550
B(  6-C ,  7-C ) :   0.9160 B(  6-C ,  8-O ) :   1.0094 B(  7-C , 17-H ) :   0.9284
B(  7-C , 18-H ) :   0.9364 B(  7-C , 19-H ) :   0.9223 B(  8-O , 20-H ) :   0.8394

MP2 TOTAL ENERGY:     -423.528774355 Eh
FINAL SINGLE POINT ENERGY      -423.528774355266

DIPOLE MOMENT
-------------
                                X             Y             Z
Electronic contribution:      5.80812      -4.45563       4.07454
Nuclear contribution   :     -5.92449       4.70332      -4.73670
                        -----------------------------------------
Total Dipole Moment    :     -0.11636       0.24769      -0.66216
                        -----------------------------------------
Magnitude (a.u.)       :      0.71648
Magnitude (Debye)      :      1.82116

                             ****ORCA TERMINATED NORMALLY****
TOTAL RUN TIME: 0 days 0 hours 21 minutes 41 seconds 296 msec
