                         Program Version 3.0.3 - RELEASE   -
|  1> ! RI-MP2 RIJK def2-TZVP def2-TZVP/C def2-TZVP/JK TIGHTSCF
|  2> % maxcore 2000
|  3> % mp2 density relaxed end
|  4> *xyz 0 1
|  5>  C        0.0400056122     1.4395538166    -0.1521766883
|  6>  C        0.0865162445    -0.0692707631    -0.0472857337
|  7>  O        1.1174553794    -0.6918891678     0.0609557282
|  8>  C       -1.2366596901    -0.8157385460    -0.0924248429
|  9>  C       -2.2327243559    -0.4953132574     0.9549857454
| 10>  O       -2.3974097738    -0.0244000525    -0.3797939096
| 11>  C       -1.1909610305    -2.1747484911    -0.7304777009
| 12>  C       -2.4395665214    -2.8691322555    -1.1164770225
| 13>  N       -1.5525629373    -2.3109819745    -2.1542286010
| 14>  H        1.0374003427     1.8420965382     0.0262462231
| 15>  H       -0.2995057566     1.7217990447    -1.1550029636
| 16>  H       -0.6778714551     1.8764522332     0.5476356703
| 17>  H       -2.9187781549    -1.2798047601     1.2666162481
| 18>  H       -2.0226251757     0.2720672809     1.6983695223
| 19>  H       -0.3170717298    -2.7491988895    -0.4417049483
| 20>  H       -2.4834062820    -3.9536748624    -1.0809091029
| 21>  H       -3.3819286182    -2.3615262991    -0.9312433630
| 22>  H       -1.9569077478    -1.4323660746    -2.4746553105
| 23> *
| 24>
| 25>                          ****END OF INPUT****

CARTESIAN COORDINATES (ANGSTROEM)
---------------------------------
  C      0.040006    1.439554   -0.152177
  C      0.086516   -0.069271   -0.047286
  O      1.117455   -0.691889    0.060956
  C     -1.236660   -0.815739   -0.092425
  C     -2.232724   -0.495313    0.954986
  O     -2.397410   -0.024400   -0.379794
  C     -1.190961   -2.174748   -0.730478
  C     -2.439567   -2.869132   -1.116477
  N     -1.552563   -2.310982   -2.154229
  H      1.037400    1.842097    0.026246
  H     -0.299506    1.721799   -1.155003
  H     -0.677871    1.876452    0.547636
  H     -2.918778   -1.279805    1.266616
  H     -2.022625    0.272067    1.698370
  H     -0.317072   -2.749199   -0.441705
  H     -2.483406   -3.953675   -1.080909
  H     -3.381929   -2.361526   -0.931243
  H     -1.956908   -1.432366   -2.474655

 Total Charge           Charge          ....    0
 Multiplicity           Mult            ....    1
 Number of Electrons    NEL             ....   68
 Basis Dimension        Dim             ....  333

ORBITAL ENERGIES
----------------

  NO   OCC          E(Eh)            E(eV)
   0   2.0000     -20.601132      -560.5853
   1   2.0000     -20.559127      -559.4423
   2   2.0000     -15.562385      -423.4740
   3   2.0000     -11.346755      -308.7609
   4   2.0000     -11.319582      -308.0215
   5   2.0000     -11.314195      -307.8749
   6   2.0000     -11.271015      -306.6999
   7   2.0000     -11.260536      -306.4148
   8   2.0000     -11.242246      -305.9171
   9   2.0000      -1.448316       -39.4107
  10   2.0000      -1.402120       -38.1536
  11   2.0000      -1.265039       -34.4235
  12   2.0000      -1.035362       -28.1736
  13   2.0000      -0.988884       -26.9089
  14   2.0000      -0.922065       -25.0907
  15   2.0000      -0.894288       -24.3348
  16   2.0000      -0.829876       -22.5821
  17   2.0000      -0.767462       -20.8837
  18   2.0000      -0.723174       -19.6786
  19   2.0000      -0.699549       -19.0357
  20   2.0000      -0.651574       -17.7302
  21   2.0000      -0.630755       -17.1637
  22   2.0000      -0.630129       -17.1467
  23   2.0000      -0.605819       -16.4852
  24   2.0000      -0.596041       -16.2191
  25   2.0000      -0.565896       -15.3988
  26   2.0000      -0.537070       -14.6144
  27   2.0000      -0.532468       -14.4892
  28   2.0000      -0.499912       -13.6033
  29   2.0000      -0.496667       -13.5150
  30   2.0000      -0.486857       -13.2480
  31   2.0000      -0.453633       -12.3440
  32   2.0000      -0.421264       -11.4632
  33   2.0000      -0.392839       -10.6897
  34   0.0000       0.124456         3.3866
  35   0.0000       0.135513         3.6875
  36   0.0000       0.151426         4.1205
  37   0.0000       0.162085         4.4106
  38   0.0000       0.181066         4.9270

MULLIKEN ATOMIC CHARGES
-----------------------
   0 C :   -0.394954
   1 C :    0.145246
   2 O :   -0.275857
   3 C :    0.193491
   4 C :   -0.095259
   5 O :   -0.341663
   6 C :   -0.068323
   7 C :   -0.170359
   8 N :   -0.358243
   9 H :    0.157170
  10 H :    0.155207
  11 H :    0.142107
  12 H :    0.138221
  13 H :    0.127196
  14 H :    0.151412
  15 H :    0.127354
  16 H :    0.139571
  17 H :    0.227681
Sum of atomic charges:   -0.0000000

LOEWDIN ATOMIC CHARGES
----------------------
   0 C :   -0.269528
   1 C :   -0.310767
   2 O :    0.166474
   3 C :   -0.284814
   4 C :   -0.223486
   5 O :    0.180891
   6 C :   -0.239437
   7 C :   -0.259496
   8 N :   -0.007347
   9 H :    0.135220
  10 H :    0.145335
  11 H :    0.136768
  12 H :    0.128406
  13 H :    0.124193
  14 H :    0.156772
  15 H :    0.125596
  16 H :    0.126090
  17 H :    0.169130

  Mayer bond orders larger than 0.1
B(  0-C ,  1-C ) :   0.9503 B(  0-C ,  9-H ) :   0.9364 B(  0-C , 10-H ) :   0.9044
B(  0-C , 11-H ) :   0.9123 B(  1-C ,  2-O ) :   2.0080 B(  1-C ,  3-C ) :   0.8464
B(  3-C ,  4-C ) :   0.9328 B(  3-C ,  5-O ) :   0.8337 B(  3-C ,  6-C ) :   0.9332
B(  4-C ,  5-O ) :   0.8958 B(  4-C , 12-H ) :   0.9142 B(  4-C , 13-H ) :   0.9043
B(  6-C ,  7-C ) :   0.9389 B(  6-C ,  8-N ) :   0.9184 B(  6-C , 14-H ) :   0.9195
B(  7-C ,  8-N ) :   0.9237 B(  7-C , 15-H ) :   0.9185 B(  7-C , 16-H ) :   0.9121
B(  8-N , 17-H ) :   0.8719

MP2 TOTAL ENERGY:     -438.324908580 Eh
FINAL SINGLE POINT ENERGY      -438.324908579711

DIPOLE MOMENT
-------------
                                X             Y             Z
Electronic contribution:      2.06866      -1.03363      -0.23756
Nuclear contribution   :     -2.96668       1.61044       1.06775
                        -----------------------------------------
Total Dipole Moment    :     -0.89803       0.57682       0.83020
                        -----------------------------------------
Magnitude (a.u.)       :      1.35218
Magnitude (Debye)      :      3.43697

                             ****ORCA TERMINATED NORMALLY****
TOTAL RUN TIME: 0 days 0 hours 19 minutes 3 seconds 986 msec
