                         Program Version 3.0.3 - RELEASE   -
|  1> ! RI-MP2 RIJK def2-TZVP def2-TZVP/C def2-TZVP/JK TIGHTSCF
|  2> % maxcore 2000
|  3> % mp2 density relaxed end
|  4> *xyz 0 1
|  5>  C       -0.0249658947     1.4438407286    -0.0870759646
|  6>  C        1.3422863153     0.7896274765    -0.0093630588
|  7>  N        2.1867502860     0.4364363825    -1.1258902584
|  8>  C        2.2920543376    -1.0376525886    -1.1778690509
|  9>  C        0.9191183681    -1.7344354511    -0.8989643995
| 10>  O        0.7580403677    -2.1324071137     0.4746014868
| 11>  C       -0.0266652593    -1.1045262327     1.1180952867
| 12>  C        0.0683719615    -0.0314495657     0.0694807801
| 13>  O       -0.0909736513    -0.7752659318    -1.1307420988
| 14>  H       -0.3163580594     2.0510107184     0.7630590141
| 15>  H       -0.4061043910     1.7932168689    -1.0415609430
| 16>  H        1.8803266110     0.9524413978     0.9226537748
| 17>  H        1.7741684136     0.7659008126    -1.9902900325
| 18>  H        2.6632368155    -1.3261184301    -2.1660287495
| 19>  H        3.0187039513    -1.3789450169    -0.4327999707
| 20>  H        0.7491860838    -2.6087850801    -1.5323218700
| 21>  H       -1.0462883225    -1.4695560443     1.2903917344
| 22>  H        0.4365520068    -0.8315662205     2.0703168495
| 23> *
| 24>
| 25>                          ****END OF INPUT****

CARTESIAN COORDINATES (ANGSTROEM)
---------------------------------
  C     -0.024966    1.443841   -0.087076
  C      1.342286    0.789627   -0.009363
  N      2.186750    0.436436   -1.125890
  C      2.292054   -1.037653   -1.177869
  C      0.919118   -1.734435   -0.898964
  O      0.758040   -2.132407    0.474601
  C     -0.026665   -1.104526    1.118095
  C      0.068372   -0.031450    0.069481
  O     -0.090974   -0.775266   -1.130742
  H     -0.316358    2.051011    0.763059
  H     -0.406104    1.793217   -1.041561
  H      1.880327    0.952441    0.922654
  H      1.774168    0.765901   -1.990290
  H      2.663237   -1.326118   -2.166029
  H      3.018704   -1.378945   -0.432800
  H      0.749186   -2.608785   -1.532322
  H     -1.046288   -1.469556    1.290392
  H      0.436552   -0.831566    2.070317

 Total Charge           Charge          ....    0
 Multiplicity           Mult            ....    1
 Number of Electrons    NEL             ....   68
 Basis Dimension        Dim             ....  333

ORBITAL ENERGIES
----------------

  NO   OCC          E(Eh)            E(eV)
   0   2.0000     -20.572402      -559.8035
   1   2.0000     -20.558928      -559.4369
   2   2.0000     -15.552171      -423.1961
   3   2.0000     -11.333684      -308.4052
   4   2.0000     -11.289920      -307.2143
   5   2.0000     -11.286639      -307.1251
   6   2.0000     -11.260098      -306.4029
   7   2.0000     -11.253652      -306.2274
   8   2.0000     -11.253052      -306.2111
   9   2.0000      -1.448846       -39.4251
  10   2.0000      -1.331508       -36.2322
  11   2.0000      -1.218476       -33.1564
  12   2.0000      -1.128157       -30.6987
  13   2.0000      -0.984313       -26.7845
  14   2.0000      -0.935203       -25.4482
  15   2.0000      -0.848874       -23.0990
  16   2.0000      -0.816837       -22.2273
  17   2.0000      -0.771726       -20.9997
  18   2.0000      -0.715482       -19.4693
  19   2.0000      -0.697919       -18.9913
  20   2.0000      -0.672971       -18.3125
  21   2.0000      -0.642128       -17.4732
  22   2.0000      -0.620978       -16.8977
  23   2.0000      -0.591071       -16.0839
  24   2.0000      -0.582518       -15.8511
  25   2.0000      -0.556085       -15.1318
  26   2.0000      -0.532623       -14.4934
  27   2.0000      -0.512139       -13.9360
  28   2.0000      -0.509431       -13.8623
  29   2.0000      -0.485990       -13.2245
  30   2.0000      -0.471762       -12.8373
  31   2.0000      -0.440715       -11.9925
  32   2.0000      -0.411514       -11.1979
  33   2.0000      -0.353857        -9.6289
  34   0.0000       0.141616         3.8536
  35   0.0000       0.154697         4.2095
  36   0.0000       0.163695         4.4544
  37   0.0000       0.181527         4.9396
  38   0.0000       0.191249         5.2042

MULLIKEN ATOMIC CHARGES
-----------------------
   0 C :   -0.219844
   1 C :   -0.156417
   2 N :   -0.283856
   3 C :   -0.171543
   4 C :    0.216236
   5 O :   -0.330951
   6 C :   -0.032130
   7 C :    0.122573
   8 O :   -0.312269
   9 H :    0.143018
  10 H :    0.144956
  11 H :    0.114229
  12 H :    0.208174
  13 H :    0.126683
  14 H :    0.112059
  15 H :    0.111963
  16 H :    0.105571
  17 H :    0.101549
Sum of atomic charges:   -0.0000000

LOEWDIN ATOMIC CHARGES
----------------------
   0 C :   -0.177142
   1 C :   -0.243038
   2 N :    0.006048
   3 C :   -0.276459
   4 C :   -0.365277
   5 O :    0.143253
   6 C :   -0.257992
   7 C :   -0.325799
   8 O :    0.231165
   9 H :    0.144004
  10 H :    0.146919
  11 H :    0.145479
  12 H :    0.173054
  13 H :    0.130878
  14 H :    0.135583
  15 H :    0.132921
  16 H :    0.125662
  17 H :    0.130743

  Mayer bond orders larger than 0.1
B(  0-C ,  1-C ) :   0.9083 B(  0-C ,  7-C ) :   0.8912 B(  0-C ,  9-H ) :   0.9197
B(  0-C , 10-H ) :   0.8984 B(  1-C ,  2-N ) :   1.0442 B(  1-C ,  7-C ) :   0.8173
B(  1-C , 11-H ) :   0.9378 B(  2-N ,  3-C ) :   0.9687 B(  2-N , 12-H ) :   0.8718
B(  3-C ,  4-C ) :   0.9109 B(  3-C , 13-H ) :   0.9283 B(  3-C , 14-H ) :   0.9134
B(  4-C ,  5-O ) :   0.9624 B(  4-C ,  8-O ) :   0.9572 B(  4-C , 15-H ) :   0.9216
B(  5-O ,  6-C ) :   0.9563 B(  6-C ,  7-C ) :   0.9725 B(  6-C , 16-H ) :   0.9251
B(  6-C , 17-H ) :   0.9009 B(  7-C ,  8-O ) :   0.9717

MP2 TOTAL ENERGY:     -438.332090834 Eh
FINAL SINGLE POINT ENERGY      -438.332090834177

DIPOLE MOMENT
-------------
                                X             Y             Z
Electronic contribution:     -1.45850      -1.80687      -0.62724
Nuclear contribution   :      1.23090       2.20771       0.68186
                        -----------------------------------------
Total Dipole Moment    :     -0.22760       0.40084       0.05463
                        -----------------------------------------
Magnitude (a.u.)       :      0.46417
Magnitude (Debye)      :      1.17983

                             ****ORCA TERMINATED NORMALLY****
TOTAL RUN TIME: 0 days 0 hours 17 minutes 1 seconds 924 msec
