                         Program Version 3.0.3 - RELEASE   -
|  1> ! RI-MP2 RIJK def2-TZVP def2-TZVP/C def2-TZVP/JK TIGHTSCF
|  2> % maxcore 2000
|  3> % mp2 density relaxed end
|  4> *xyz 0 1
|  5>  C       -0.1506788957     1.5089633428    -0.0322917156
|  6>  C       -0.0401259902    -0.0116450027     0.0073921022
|  7>  C        1.1373835889    -0.5863963808    -0.8136176085
|  8>  C        1.2459663434    -2.0884341663    -0.5399477615
|  9>  C        2.3766363405    -1.8686840033     0.4357089932
| 10>  N        2.0977599715    -0.3738980602     0.3833858455
| 11>  C        0.7893057159    -0.5667471901     1.1857156890
| 12>  C        0.9898196554    -2.0763163497     0.9761236905
| 13>  O        0.3915915885    -3.1522558012     1.5891795306
| 14>  H        0.8256108078     1.9761087713     0.1279892093
| 15>  H       -0.5353325318     1.8489552731    -0.9998572349
| 16>  H       -0.8329226349     1.8737262720     0.7429679655
| 17>  H       -1.0124216109    -0.4891519604    -0.1532523901
| 18>  H        1.4251500432    -0.1806184889    -1.7850950476
| 19>  H        1.0075286424    -2.9529674150    -1.1458107106
| 20>  H        3.3422600541    -2.3351695159     0.5838526201
| 21>  H        0.7373918576    -0.1545396502     2.1957751003
| 22>  H        0.7451340845    -3.2278321647     2.4824537526
| 23> *
| 24>
| 25>                          ****END OF INPUT****

CARTESIAN COORDINATES (ANGSTROEM)
---------------------------------
  C     -0.150679    1.508963   -0.032292
  C     -0.040126   -0.011645    0.007392
  C      1.137384   -0.586396   -0.813618
  C      1.245966   -2.088434   -0.539948
  C      2.376636   -1.868684    0.435709
  N      2.097760   -0.373898    0.383386
  C      0.789306   -0.566747    1.185716
  C      0.989820   -2.076316    0.976124
  O      0.391592   -3.152256    1.589180
  H      0.825611    1.976109    0.127989
  H     -0.535333    1.848955   -0.999857
  H     -0.832923    1.873726    0.742968
  H     -1.012422   -0.489152   -0.153252
  H      1.425150   -0.180618   -1.785095
  H      1.007529   -2.952967   -1.145811
  H      3.342260   -2.335170    0.583853
  H      0.737392   -0.154540    2.195775
  H      0.745134   -3.227832    2.482454

 Total Charge           Charge          ....    0
 Multiplicity           Mult            ....    1
 Number of Electrons    NEL             ....   66
 Basis Dimension        Dim             ....  333

ORBITAL ENERGIES
----------------

  NO   OCC          E(Eh)            E(eV)
   0   2.0000     -20.580271      -560.0177
   1   2.0000     -15.554926      -423.2711
   2   2.0000     -11.295157      -307.3568
   3   2.0000     -11.262880      -306.4786
   4   2.0000     -11.262329      -306.4636
   5   2.0000     -11.260114      -306.4033
   6   2.0000     -11.236167      -305.7517
   7   2.0000     -11.231741      -305.6312
   8   2.0000     -11.214237      -305.1549
   9   2.0000      -1.393656       -37.9233
  10   2.0000      -1.312760       -35.7220
  11   2.0000      -1.073622       -29.2148
  12   2.0000      -1.002256       -27.2728
  13   2.0000      -0.949647       -25.8412
  14   2.0000      -0.923297       -25.1242
  15   2.0000      -0.791008       -21.5244
  16   2.0000      -0.761790       -20.7294
  17   2.0000      -0.727077       -19.7848
  18   2.0000      -0.720814       -19.6143
  19   2.0000      -0.661840       -18.0096
  20   2.0000      -0.637799       -17.3554
  21   2.0000      -0.617289       -16.7973
  22   2.0000      -0.597780       -16.2664
  23   2.0000      -0.557032       -15.1576
  24   2.0000      -0.549972       -14.9655
  25   2.0000      -0.530023       -14.4227
  26   2.0000      -0.508366       -13.8333
  27   2.0000      -0.481061       -13.0903
  28   2.0000      -0.450507       -12.2589
  29   2.0000      -0.438903       -11.9432
  30   2.0000      -0.433868       -11.8061
  31   2.0000      -0.371872       -10.1192
  32   2.0000      -0.348947        -9.4953
  33   0.0000       0.135524         3.6878
  34   0.0000       0.145634         3.9629
  35   0.0000       0.169829         4.6213
  36   0.0000       0.174841         4.7577
  37   0.0000       0.192030         5.2254

MULLIKEN ATOMIC CHARGES
-----------------------
   0 C :   -0.456378
   1 C :   -0.092470
   2 C :   -0.024808
   3 C :   -0.169961
   4 C :   -0.124790
   5 N :   -0.210502
   6 C :    0.007711
   7 C :    0.104082
   8 O :   -0.448760
   9 H :    0.157425
  10 H :    0.132558
  11 H :    0.132782
  12 H :    0.111082
  13 H :    0.126897
  14 H :    0.142599
  15 H :    0.150641
  16 H :    0.127016
  17 H :    0.334878
Sum of atomic charges:   -0.0000000

LOEWDIN ATOMIC CHARGES
----------------------
   0 C :   -0.292469
   1 C :   -0.221798
   2 C :   -0.162549
   3 C :   -0.133755
   4 C :   -0.163422
   5 N :    0.148050
   6 C :   -0.153403
   7 C :   -0.313165
   8 O :    0.040137
   9 H :    0.133319
  10 H :    0.124326
  11 H :    0.124242
  12 H :    0.145800
  13 H :    0.133340
  14 H :    0.140835
  15 H :    0.128641
  16 H :    0.133366
  17 H :    0.188504

  Mayer bond orders larger than 0.1
B(  0-C ,  1-C ) :   0.8854 B(  0-C ,  9-H ) :   0.9353 B(  0-C , 10-H ) :   0.9396
B(  0-C , 11-H ) :   0.9393 B(  1-C ,  2-C ) :   0.9406 B(  1-C ,  6-C ) :   0.9023
B(  1-C , 12-H ) :   0.9098 B(  2-C ,  3-C ) :   0.9289 B(  2-C ,  5-N ) :   0.9446
B(  2-C , 13-H ) :   0.8969 B(  3-C ,  4-C ) :   0.9011 B(  3-C ,  7-C ) :   0.8533
B(  3-C , 14-H ) :   0.9165 B(  4-C ,  5-N ) :   0.9611 B(  4-C ,  7-C ) :   0.8931
B(  4-C , 15-H ) :   0.8951 B(  5-N ,  6-C ) :   0.9275 B(  6-C ,  7-C ) :   0.9618
B(  6-C , 16-H ) :   0.8882 B(  7-C ,  8-O ) :   1.0742 B(  8-O , 17-H ) :   0.8328

MP2 TOTAL ENERGY:     -401.163993941 Eh
FINAL SINGLE POINT ENERGY      -401.163993941350

DIPOLE MOMENT
-------------
                                X             Y             Z
Electronic contribution:      2.55359      -5.51527       1.56263
Nuclear contribution   :     -2.71807       5.30945      -1.31672
                        -----------------------------------------
Total Dipole Moment    :     -0.16448      -0.20583       0.24591
                        -----------------------------------------
Magnitude (a.u.)       :      0.36041
Magnitude (Debye)      :      0.91608

                             ****ORCA TERMINATED NORMALLY****
TOTAL RUN TIME: 0 days 0 hours 18 minutes 52 seconds 110 msec
