                         Program Version 3.0.3 - RELEASE   -
|  1> ! RI-MP2 RIJK def2-TZVP def2-TZVP/C def2-TZVP/JK TIGHTSCF
|  2> % maxcore 2000
|  3> % mp2 density relaxed end
|  4> *xyz 0 1
|  5>  C        0.1987386191     1.5853672492     0.0842216181
|  6>  C        0.0360554554     0.0564836218     0.0368668788
|  7>  C        0.5893096787    -0.5807612258    -1.2602775869
|  8>  C       -0.1298974325    -0.1501474790    -2.5281744855
|  9>  O       -1.5104730906    -0.4145482139    -2.5303413840
| 10>  C        0.3473275292     1.0359299321    -3.3343876831
| 11>  C        0.5270944469    -0.3767201758    -3.8552652952
| 12>  C        0.7604390808    -0.5589146340     1.2187264623
| 13>  O        0.2611899981    -1.2707576714     2.0501956666
| 14>  H        1.2563666176     1.8707296358     0.0442631232
| 15>  H       -0.3000589080     2.0626477000    -0.7627329409
| 16>  H       -0.2260448169     1.9974475745     1.0046520831
| 17>  H       -1.0188354917    -0.2181960715     0.1439730582
| 18>  H        1.6578277003    -0.3504622674    -1.3574492117
| 19>  H        0.5021359142    -1.6709868829    -1.1751659759
| 20>  H       -1.9460243672     0.2449482195    -1.9798320822
| 21>  H       -0.4133098946     1.6452685249    -3.8099540100
| 22>  H        1.2248197447     1.5797876786    -3.0018257060
| 23>  H        1.5257090872    -0.7993320219    -3.8739681712
| 24>  H       -0.1218430701    -0.6958208443    -4.6620755546
| 25>  H        1.8463507294    -0.2978162287     1.2656230268
| 26> *
| 27>
| 28>                          ****END OF INPUT****

CARTESIAN COORDINATES (ANGSTROEM)
---------------------------------
  C      0.198739    1.585367    0.084222
  C      0.036055    0.056484    0.036867
  C      0.589310   -0.580761   -1.260278
  C     -0.129897   -0.150147   -2.528174
  O     -1.510473   -0.414548   -2.530341
  C      0.347328    1.035930   -3.334388
  C      0.527094   -0.376720   -3.855265
  C      0.760439   -0.558915    1.218726
  O      0.261190   -1.270758    2.050196
  H      1.256367    1.870730    0.044263
  H     -0.300059    2.062648   -0.762733
  H     -0.226045    1.997448    1.004652
  H     -1.018835   -0.218196    0.143973
  H      1.657828   -0.350462   -1.357449
  H      0.502136   -1.670987   -1.175166
  H     -1.946024    0.244948   -1.979832
  H     -0.413310    1.645269   -3.809954
  H      1.224820    1.579788   -3.001826
  H      1.525709   -0.799332   -3.873968
  H     -0.121843   -0.695821   -4.662076
  H      1.846351   -0.297816    1.265623

 Total Charge           Charge          ....    0
 Multiplicity           Mult            ....    1
 Number of Electrons    NEL             ....   70
 Basis Dimension        Dim             ....  351

ORBITAL ENERGIES
----------------

  NO   OCC          E(Eh)            E(eV)
   0   2.0000     -20.568886      -559.7079
   1   2.0000     -20.558821      -559.4340
   2   2.0000     -11.331502      -308.3459
   3   2.0000     -11.297492      -307.4204
   4   2.0000     -11.250848      -306.1511
   5   2.0000     -11.244293      -305.9728
   6   2.0000     -11.238526      -305.8158
   7   2.0000     -11.234628      -305.7098
   8   2.0000     -11.230511      -305.5977
   9   2.0000      -1.397694       -38.0332
  10   2.0000      -1.380215       -37.5575
  11   2.0000      -1.143282       -31.1103
  12   2.0000      -1.094081       -29.7715
  13   2.0000      -0.966881       -26.3102
  14   2.0000      -0.893020       -24.3003
  15   2.0000      -0.840870       -22.8812
  16   2.0000      -0.793726       -21.5984
  17   2.0000      -0.781777       -21.2732
  18   2.0000      -0.697537       -18.9809
  19   2.0000      -0.671941       -18.2844
  20   2.0000      -0.662366       -18.0239
  21   2.0000      -0.646895       -17.6029
  22   2.0000      -0.617435       -16.8013
  23   2.0000      -0.611833       -16.6488
  24   2.0000      -0.588099       -16.0030
  25   2.0000      -0.564762       -15.3680
  26   2.0000      -0.547603       -14.9010
  27   2.0000      -0.531585       -14.4652
  28   2.0000      -0.522910       -14.2291
  29   2.0000      -0.507872       -13.8199
  30   2.0000      -0.497709       -13.5434
  31   2.0000      -0.495010       -13.4699
  32   2.0000      -0.431592       -11.7442
  33   2.0000      -0.405621       -11.0375
  34   2.0000      -0.404518       -11.0075
  35   0.0000       0.119238         3.2446
  36   0.0000       0.133530         3.6335
  37   0.0000       0.142229         3.8703
  38   0.0000       0.162848         4.4313
  39   0.0000       0.169592         4.6148

MULLIKEN ATOMIC CHARGES
-----------------------
   0 C :   -0.435652
   1 C :    0.005308
   2 C :   -0.299139
   3 C :    0.250304
   4 O :   -0.464584
   5 C :   -0.319925
   6 C :   -0.269543
   7 C :    0.069683
   8 O :   -0.254984
   9 H :    0.128317
  10 H :    0.146081
  11 H :    0.152135
  12 H :    0.099906
  13 H :    0.122050
  14 H :    0.140265
  15 H :    0.323763
  16 H :    0.136748
  17 H :    0.129207
  18 H :    0.133784
  19 H :    0.138691
  20 H :    0.067584
Sum of atomic charges:    0.0000000

LOEWDIN ATOMIC CHARGES
----------------------
   0 C :   -0.286157
   1 C :   -0.279126
   2 C :   -0.203552
   3 C :   -0.371446
   4 O :    0.028263
   5 C :   -0.221974
   6 C :   -0.203161
   7 C :   -0.275741
   8 O :    0.137999
   9 H :    0.126846
  10 H :    0.127515
  11 H :    0.128692
  12 H :    0.155784
  13 H :    0.149623
  14 H :    0.153849
  15 H :    0.178401
  16 H :    0.135408
  17 H :    0.131629
  18 H :    0.134346
  19 H :    0.140798
  20 H :    0.112004

  Mayer bond orders larger than 0.1
B(  0-C ,  1-C ) :   0.8873 B(  0-C ,  9-H ) :   0.9250 B(  0-C , 10-H ) :   0.9341
B(  0-C , 11-H ) :   0.9379 B(  1-C ,  2-C ) :   0.8986 B(  1-C ,  7-C ) :   0.8566
B(  1-C , 12-H ) :   0.9004 B(  2-C ,  3-C ) :   0.9097 B(  2-C , 13-H ) :   0.9144
B(  2-C , 14-H ) :   0.9215 B(  3-C ,  4-O ) :   0.9307 B(  3-C ,  5-C ) :   0.8895
B(  3-C ,  6-C ) :   0.8691 B(  4-O , 15-H ) :   0.8397 B(  5-C ,  6-C ) :   0.9257
B(  5-C , 16-H ) :   0.9241 B(  5-C , 17-H ) :   0.9184 B(  6-C , 18-H ) :   0.9316
B(  6-C , 19-H ) :   0.9260 B(  7-C ,  8-O ) :   2.0182 B(  7-C , 20-H ) :   0.9379

MP2 TOTAL ENERGY:     -423.513870516 Eh
FINAL SINGLE POINT ENERGY      -423.513870515700

DIPOLE MOMENT
-------------
                                X             Y             Z
Electronic contribution:     -2.20572      -4.78678       3.99464
Nuclear contribution   :      2.66477       5.83978      -4.56440
                        -----------------------------------------
Total Dipole Moment    :      0.45905       1.05300      -0.56977
                        -----------------------------------------
Magnitude (a.u.)       :      1.28225
Magnitude (Debye)      :      3.25922

                             ****ORCA TERMINATED NORMALLY****
TOTAL RUN TIME: 0 days 0 hours 19 minutes 25 seconds 701 msec
