                         Program Version 3.0.3 - RELEASE   -
|  1> ! RI-MP2 RIJK def2-TZVP def2-TZVP/C def2-TZVP/JK TIGHTSCF
|  2> % maxcore 2000
|  3> % mp2 density relaxed end
|  4> *xyz 0 1
|  5>  O       -0.0260351573    -0.0936056334     0.0035302492
|  6>  C        0.0301999631     1.1212546733     0.0087556214
|  7>  N       -1.1481670175     1.8897820235     0.0281369658
|  8>  N       -1.2941398284     3.2121378714     0.0365287070
|  9>  C       -0.1899710184     3.9250745262     0.0253545225
| 10>  C        1.1093097740     3.3055231916     0.0050665092
| 11>  C        1.2203826418     1.9571451770    -0.0029926463
| 12>  C       -0.3122589008     5.3443419430     0.0339094856
| 13>  C       -0.3584436306     6.5465539832     0.0403745904
| 14>  H       -2.0149460214     1.3660372204     0.0370793500
| 15>  H        1.9847353911     3.9454505489    -0.0034409684
| 16>  H        2.1763728388     1.4480085905    -0.0181855430
| 17>  H       -0.4183918744     7.6070672643     0.0462958065
| 18> *
| 19>
| 20>                          ****END OF INPUT****

CARTESIAN COORDINATES (ANGSTROEM)
---------------------------------
  O     -0.026035   -0.093606    0.003530
  C      0.030200    1.121255    0.008756
  N     -1.148167    1.889782    0.028137
  N     -1.294140    3.212138    0.036529
  C     -0.189971    3.925075    0.025355
  C      1.109310    3.305523    0.005067
  C      1.220383    1.957145   -0.002993
  C     -0.312259    5.344342    0.033909
  C     -0.358444    6.546554    0.040375
  H     -2.014946    1.366037    0.037079
  H      1.984735    3.945451   -0.003441
  H      2.176373    1.448009   -0.018186
  H     -0.418392    7.607067    0.046296

 Total Charge           Charge          ....    0
 Multiplicity           Mult            ....    1
 Number of Electrons    NEL             ....   62
 Basis Dimension        Dim             ....  303

ORBITAL ENERGIES
----------------

  NO   OCC          E(Eh)            E(eV)
   0   2.0000     -20.531136      -558.6806
   1   2.0000     -15.658632      -426.0930
   2   2.0000     -15.657824      -426.0711
   3   2.0000     -11.373573      -309.4907
   4   2.0000     -11.322194      -308.0926
   5   2.0000     -11.293824      -307.3206
   6   2.0000     -11.276050      -306.8369
   7   2.0000     -11.258668      -306.3639
   8   2.0000     -11.252853      -306.2057
   9   2.0000      -1.417532       -38.5730
  10   2.0000      -1.364082       -37.1186
  11   2.0000      -1.168097       -31.7855
  12   2.0000      -1.116101       -30.3706
  13   2.0000      -1.048341       -28.5268
  14   2.0000      -0.937315       -25.5056
  15   2.0000      -0.907133       -24.6843
  16   2.0000      -0.809877       -22.0379
  17   2.0000      -0.755673       -20.5629
  18   2.0000      -0.725678       -19.7467
  19   2.0000      -0.685290       -18.6477
  20   2.0000      -0.666202       -18.1283
  21   2.0000      -0.647458       -17.6182
  22   2.0000      -0.623943       -16.9783
  23   2.0000      -0.602751       -16.4017
  24   2.0000      -0.540249       -14.7009
  25   2.0000      -0.515347       -14.0233
  26   2.0000      -0.472756       -12.8643
  27   2.0000      -0.436152       -11.8683
  28   2.0000      -0.422934       -11.5086
  29   2.0000      -0.418389       -11.3849
  30   2.0000      -0.339269        -9.2320
  31   0.0000       0.048546         1.3210
  32   0.0000       0.103114         2.8059
  33   0.0000       0.143273         3.8987
  34   0.0000       0.151218         4.1149
  35   0.0000       0.154953         4.2165

MULLIKEN ATOMIC CHARGES
-----------------------
   0 O :   -0.348972
   1 C :    0.242123
   2 N :   -0.128306
   3 N :   -0.146521
   4 C :   -0.031467
   5 C :   -0.172083
   6 C :   -0.150466
   7 C :    0.038859
   8 C :   -0.079436
   9 H :    0.265058
  10 H :    0.152785
  11 H :    0.156535
  12 H :    0.201892
Sum of atomic charges:    0.0000000

LOEWDIN ATOMIC CHARGES
----------------------
   0 O :    0.082288
   1 C :   -0.447447
   2 N :    0.141650
   3 N :    0.111340
   4 C :   -0.245694
   5 C :   -0.088406
   6 C :   -0.085360
   7 C :   -0.068090
   8 C :   -0.054578
   9 H :    0.201122
  10 H :    0.161366
  11 H :    0.160374
  12 H :    0.131437

  Mayer bond orders larger than 0.1
B(  0-O ,  1-C ) :   1.9433 B(  1-C ,  2-N ) :   1.0583 B(  1-C ,  6-C ) :   1.0469
B(  2-N ,  3-N ) :   1.0237 B(  2-N ,  9-H ) :   0.8594 B(  3-N ,  4-C ) :   1.6156
B(  4-C ,  5-C ) :   1.1219 B(  4-C ,  7-C ) :   1.1610 B(  4-C ,  8-C ) :  -0.1669
B(  5-C ,  6-C ) :   1.5032 B(  5-C , 10-H ) :   0.9192 B(  6-C , 11-H ) :   0.9330
B(  7-C ,  8-C ) :   2.5907 B(  8-C , 12-H ) :   0.8722

MP2 TOTAL ENERGY:     -414.886294834 Eh
FINAL SINGLE POINT ENERGY      -414.886294833758

DIPOLE MOMENT
-------------
                                X             Y             Z
Electronic contribution:     -1.66024      -1.34822       0.01554
Nuclear contribution   :      2.07513       2.46035      -0.01563
                        -----------------------------------------
Total Dipole Moment    :      0.41489       1.11212      -0.00009
                        -----------------------------------------
Magnitude (a.u.)       :      1.18699
Magnitude (Debye)      :      3.01710

                             ****ORCA TERMINATED NORMALLY****
TOTAL RUN TIME: 0 days 0 hours 15 minutes 18 seconds 737 msec
