                         Program Version 3.0.3 - RELEASE   -
|  1> ! RI-MP2 RIJK def2-TZVP def2-TZVP/C def2-TZVP/JK TIGHTSCF
|  2> % maxcore 2000
|  3> % mp2 density relaxed end
|  4> *xyz 0 1
|  5>  O        0.0552039339     1.4062978558    -0.0490390119
|  6>  C       -0.0349271491     0.0241164999    -0.0537363240
|  7>  C       -0.4708416383    -0.6815594956    -1.3140316299
|  8>  C       -1.3174384422    -0.7818996012    -0.0631342989
|  9>  C       -1.1277295754    -1.9948880397     0.8546078307
| 10>  C       -0.1307800990    -3.0456311345     0.4804292676
| 11>  C        0.2788008706    -1.9363709253     1.4394581325
| 12>  C        0.8788535343    -0.6568094201     0.9423585231
| 13>  O        1.8305356966    -0.0774578017     1.4190024592
| 14>  H        0.8523695936     1.6005753710     0.4682589352
| 15>  H       -0.8369268622     0.0056202343    -2.0701029962
| 16>  H        0.0609921296    -1.5353625520    -1.7157998022
| 17>  H       -2.2844691533    -0.2940868925    -0.0602682131
| 18>  H       -1.9666239802    -2.2763648994     1.4794367021
| 19>  H       -0.2411350442    -4.0212242082     0.9413970943
| 20>  H        0.2905456403    -3.0842482015    -0.5153653127
| 21>  H        0.5174340952    -2.2030866794     2.4613645241
| 22> *
| 23>
| 24>                          ****END OF INPUT****

CARTESIAN COORDINATES (ANGSTROEM)
---------------------------------
  O      0.055204    1.406298   -0.049039
  C     -0.034927    0.024116   -0.053736
  C     -0.470842   -0.681559   -1.314032
  C     -1.317438   -0.781900   -0.063134
  C     -1.127730   -1.994888    0.854608
  C     -0.130780   -3.045631    0.480429
  C      0.278801   -1.936371    1.439458
  C      0.878854   -0.656809    0.942359
  O      1.830536   -0.077458    1.419002
  H      0.852370    1.600575    0.468259
  H     -0.836927    0.005620   -2.070103
  H      0.060992   -1.535363   -1.715800
  H     -2.284469   -0.294087   -0.060268
  H     -1.966624   -2.276365    1.479437
  H     -0.241135   -4.021224    0.941397
  H      0.290546   -3.084248   -0.515365
  H      0.517434   -2.203087    2.461365

 Total Charge           Charge          ....    0
 Multiplicity           Mult            ....    1
 Number of Electrons    NEL             ....   66
 Basis Dimension        Dim             ....  327

ORBITAL ENERGIES
----------------

  NO   OCC          E(Eh)            E(eV)
   0   2.0000     -20.565097      -559.6048
   1   2.0000     -20.557835      -559.4071
   2   2.0000     -11.342514      -308.6455
   3   2.0000     -11.300312      -307.4971
   4   2.0000     -11.263179      -306.4867
   5   2.0000     -11.257489      -306.3318
   6   2.0000     -11.254707      -306.2561
   7   2.0000     -11.253478      -306.2227
   8   2.0000     -11.244871      -305.9885
   9   2.0000      -1.410869       -38.3917
  10   2.0000      -1.370575       -37.2953
  11   2.0000      -1.211298       -32.9611
  12   2.0000      -1.118741       -30.4425
  13   2.0000      -0.944853       -25.7108
  14   2.0000      -0.896924       -24.4065
  15   2.0000      -0.838091       -22.8056
  16   2.0000      -0.782092       -21.2818
  17   2.0000      -0.768922       -20.9234
  18   2.0000      -0.712232       -19.3808
  19   2.0000      -0.688965       -18.7477
  20   2.0000      -0.649108       -17.6631
  21   2.0000      -0.647087       -17.6081
  22   2.0000      -0.604461       -16.4482
  23   2.0000      -0.595035       -16.1917
  24   2.0000      -0.569075       -15.4853
  25   2.0000      -0.549336       -14.9482
  26   2.0000      -0.541880       -14.7453
  27   2.0000      -0.516380       -14.0514
  28   2.0000      -0.493873       -13.4390
  29   2.0000      -0.451840       -12.2952
  30   2.0000      -0.435508       -11.8508
  31   2.0000      -0.406550       -11.0628
  32   2.0000      -0.373519       -10.1640
  33   0.0000       0.115442         3.1413
  34   0.0000       0.143124         3.8946
  35   0.0000       0.158600         4.3157
  36   0.0000       0.166999         4.5443
  37   0.0000       0.176997         4.8163

MULLIKEN ATOMIC CHARGES
-----------------------
   0 O :   -0.457958
   1 C :    0.199782
   2 C :   -0.290368
   3 C :   -0.125861
   4 C :   -0.108256
   5 C :   -0.256886
   6 C :   -0.115873
   7 C :    0.144652
   8 O :   -0.305358
   9 H :    0.338609
  10 H :    0.141145
  11 H :    0.126039
  12 H :    0.146970
  13 H :    0.139660
  14 H :    0.142742
  15 H :    0.134456
  16 H :    0.146506
Sum of atomic charges:    0.0000000

LOEWDIN ATOMIC CHARGES
----------------------
   0 O :    0.034075
   1 C :   -0.311978
   2 C :   -0.171652
   3 C :   -0.143637
   4 C :   -0.157991
   5 C :   -0.182191
   6 C :   -0.150282
   7 C :   -0.269114
   8 O :    0.145453
   9 H :    0.193497
  10 H :    0.148760
  11 H :    0.130397
  12 H :    0.153117
  13 H :    0.150005
  14 H :    0.141641
  15 H :    0.134296
  16 H :    0.155601

  Mayer bond orders larger than 0.1
B(  0-O ,  1-C ) :   1.1066 B(  0-O ,  9-H ) :   0.8034 B(  1-C ,  2-C ) :   0.8673
B(  1-C ,  3-C ) :   0.8190 B(  1-C ,  7-C ) :   0.9319 B(  2-C ,  3-C ) :   0.8710
B(  2-C , 10-H ) :   0.9204 B(  2-C , 11-H ) :   0.8946 B(  3-C ,  4-C ) :   0.8715
B(  3-C , 12-H ) :   0.9049 B(  4-C ,  5-C ) :   0.9063 B(  4-C ,  6-C ) :   0.8442
B(  4-C , 13-H ) :   0.9216 B(  5-C ,  6-C ) :   0.8386 B(  5-C , 14-H ) :   0.9300
B(  5-C , 15-H ) :   0.9169 B(  6-C ,  7-C ) :   0.9544 B(  6-C , 16-H ) :   0.9216
B(  7-C ,  8-O ) :   1.9008

MP2 TOTAL ENERGY:     -421.108005111 Eh
FINAL SINGLE POINT ENERGY      -421.108005111395

DIPOLE MOMENT
-------------
                                X             Y             Z
Electronic contribution:      2.89436       4.00735       2.01065
Nuclear contribution   :     -3.56467      -5.01184      -2.10940
                        -----------------------------------------
Total Dipole Moment    :     -0.67031      -1.00449      -0.09875
                        -----------------------------------------
Magnitude (a.u.)       :      1.21164
Magnitude (Debye)      :      3.07974

                             ****ORCA TERMINATED NORMALLY****
TOTAL RUN TIME: 0 days 0 hours 17 minutes 23 seconds 760 msec
