                         Program Version 3.0.3 - RELEASE   -
|  1> ! RI-MP2 RIJK def2-TZVP def2-TZVP/C def2-TZVP/JK TIGHTSCF
|  2> % maxcore 2000
|  3> % mp2 density relaxed end
|  4> *xyz 0 1
|  5>  C       -0.1672152652     1.5354600536     0.0477029401
|  6>  N        0.0453203178     0.1256658397    -0.2194654846
|  7>  C       -1.0665248703    -0.7194606849    -0.1108798496
|  8>  C       -2.2852773640    -0.4353121210     0.4765234718
|  9>  N       -3.0572381506    -1.5780930243     0.4012314566
| 10>  C       -2.3573086548    -2.5803186456    -0.2126374355
| 11>  C       -2.9788814981    -3.9195652110    -0.4346539696
| 12>  O       -3.6698864340    -4.3980094241     0.7201791261
| 13>  C       -1.1152433873    -2.0796252461    -0.5422263208
| 14>  H        0.7568807403     2.0851454837    -0.1478211040
| 15>  H       -0.9783636448     1.9840950014    -0.5512572732
| 16>  H       -0.4197042219     1.6760601053     1.1051268147
| 17>  H        0.5559166220    -0.0304620110    -1.0773614010
| 18>  H       -2.6550184980     0.4589244479     0.9482077679
| 19>  H       -3.9634896185    -1.7074189086     0.8157928822
| 20>  H       -3.7475707498    -3.8837659370    -1.2168977224
| 21>  H       -2.2057105405    -4.6235413606    -0.7742095240
| 22>  H       -3.0317484847    -4.4155496564     1.4421577242
| 23>  H       -0.3262782876    -2.6222248910    -1.0422068890
| 24> *
| 25>
| 26>                          ****END OF INPUT****

CARTESIAN COORDINATES (ANGSTROEM)
---------------------------------
  C     -0.167215    1.535460    0.047703
  N      0.045320    0.125666   -0.219465
  C     -1.066525   -0.719461   -0.110880
  C     -2.285277   -0.435312    0.476523
  N     -3.057238   -1.578093    0.401231
  C     -2.357309   -2.580319   -0.212637
  C     -2.978881   -3.919565   -0.434654
  O     -3.669886   -4.398009    0.720179
  C     -1.115243   -2.079625   -0.542226
  H      0.756881    2.085145   -0.147821
  H     -0.978364    1.984095   -0.551257
  H     -0.419704    1.676060    1.105127
  H      0.555917   -0.030462   -1.077361
  H     -2.655018    0.458924    0.948208
  H     -3.963490   -1.707419    0.815793
  H     -3.747571   -3.883766   -1.216898
  H     -2.205711   -4.623541   -0.774210
  H     -3.031748   -4.415550    1.442158
  H     -0.326278   -2.622225   -1.042207

 Total Charge           Charge          ....    0
 Multiplicity           Mult            ....    1
 Number of Electrons    NEL             ....   68
 Basis Dimension        Dim             ....  339

ORBITAL ENERGIES
----------------

  NO   OCC          E(Eh)            E(eV)
   0   2.0000     -20.563137      -559.5514
   1   2.0000     -15.591696      -424.2716
   2   2.0000     -15.550886      -423.1611
   3   2.0000     -11.288150      -307.1662
   4   2.0000     -11.255970      -306.2905
   5   2.0000     -11.246342      -306.0285
   6   2.0000     -11.246272      -306.0266
   7   2.0000     -11.234733      -305.7126
   8   2.0000     -11.205037      -304.9046
   9   2.0000      -1.366461       -37.1833
  10   2.0000      -1.285099       -34.9693
  11   2.0000      -1.212292       -32.9881
  12   2.0000      -1.032866       -28.1057
  13   2.0000      -1.007595       -27.4180
  14   2.0000      -0.911135       -24.7932
  15   2.0000      -0.903728       -24.5917
  16   2.0000      -0.777129       -21.1468
  17   2.0000      -0.759387       -20.6640
  18   2.0000      -0.732155       -19.9230
  19   2.0000      -0.672727       -18.3058
  20   2.0000      -0.646429       -17.5902
  21   2.0000      -0.617927       -16.8146
  22   2.0000      -0.611107       -16.6291
  23   2.0000      -0.599022       -16.3002
  24   2.0000      -0.583044       -15.8654
  25   2.0000      -0.569495       -15.4967
  26   2.0000      -0.550109       -14.9692
  27   2.0000      -0.535870       -14.5818
  28   2.0000      -0.521815       -14.1993
  29   2.0000      -0.495505       -13.4834
  30   2.0000      -0.463397       -12.6097
  31   2.0000      -0.431934       -11.7535
  32   2.0000      -0.319582        -8.6963
  33   2.0000      -0.274159        -7.4603
  34   0.0000       0.130689         3.5562
  35   0.0000       0.145906         3.9703
  36   0.0000       0.157845         4.2952
  37   0.0000       0.165146         4.4938
  38   0.0000       0.176295         4.7972

MULLIKEN ATOMIC CHARGES
-----------------------
   0 C :   -0.300982
   1 N :   -0.337047
   2 C :    0.224603
   3 C :   -0.204713
   4 N :   -0.253903
   5 C :    0.039008
   6 C :   -0.009010
   7 O :   -0.480293
   8 C :   -0.360707
   9 H :    0.137581
  10 H :    0.119714
  11 H :    0.132777
  12 H :    0.223308
  13 H :    0.144384
  14 H :    0.247841
  15 H :    0.119238
  16 H :    0.119071
  17 H :    0.316504
  18 H :    0.122627
Sum of atomic charges:   -0.0000000

LOEWDIN ATOMIC CHARGES
----------------------
   0 C :   -0.338320
   1 N :    0.019944
   2 C :   -0.263696
   3 C :   -0.236255
   4 N :    0.195398
   5 C :   -0.264210
   6 C :   -0.313384
   7 O :   -0.058901
   8 C :   -0.158840
   9 H :    0.116485
  10 H :    0.103140
  11 H :    0.116984
  12 H :    0.179091
  13 H :    0.132189
  14 H :    0.193467
  15 H :    0.134528
  16 H :    0.128559
  17 H :    0.174097
  18 H :    0.139725

  Mayer bond orders larger than 0.1
B(  0-C ,  1-N ) :   0.9344 B(  0-C ,  9-H ) :   0.9373 B(  0-C , 10-H ) :   0.9292
B(  0-C , 11-H ) :   0.9345 B(  1-N ,  2-C ) :   1.0320 B(  1-N , 12-H ) :   0.8768
B(  2-C ,  3-C ) :   1.4551 B(  2-C ,  8-C ) :   1.2351 B(  3-C ,  4-N ) :   1.1047
B(  3-C , 13-H ) :   0.9108 B(  4-N ,  5-C ) :   1.1440 B(  4-N , 14-H ) :   0.8657
B(  5-C ,  6-C ) :   0.9336 B(  5-C ,  8-C ) :   1.4562 B(  6-C ,  7-O ) :   0.8733
B(  6-C , 15-H ) :   0.9114 B(  6-C , 16-H ) :   0.9578 B(  7-O , 17-H ) :   0.8420
B(  8-C , 18-H ) :   0.9235

MP2 TOTAL ENERGY:     -418.521145920 Eh
FINAL SINGLE POINT ENERGY      -418.521145919848

DIPOLE MOMENT
-------------
                                X             Y             Z
Electronic contribution:     -2.45576      -4.06772       0.69822
Nuclear contribution   :      2.56219       4.47317      -0.77240
                        -----------------------------------------
Total Dipole Moment    :      0.10643       0.40545      -0.07418
                        -----------------------------------------
Magnitude (a.u.)       :      0.42570
Magnitude (Debye)      :      1.08204

                             ****ORCA TERMINATED NORMALLY****
TOTAL RUN TIME: 0 days 0 hours 16 minutes 30 seconds 848 msec
