                         Program Version 3.0.3 - RELEASE   -
|  1> ! RI-MP2 RIJK def2-TZVP def2-TZVP/C def2-TZVP/JK TIGHTSCF
|  2> % maxcore 2000
|  3> % mp2 density relaxed end
|  4> *xyz 0 1
|  5>  C       -0.3953355679     1.7463846592    -0.3100867141
|  6>  C       -0.1626300323     0.2394351835    -0.1449142948
|  7>  O        0.7965029125     0.0056534977     0.8794661824
|  8>  C       -1.4562412774    -0.6098350889     0.0684235836
|  9>  C       -1.0626547812    -2.0582518531     0.4172765418
| 10>  C       -2.3399442339    -0.0366585161     1.1868194904
| 11>  O       -1.5613538409     0.0998994237     2.3781778980
| 12>  C       -2.3119535119    -0.6113879695    -1.2203479820
| 13>  O       -1.6353915456    -1.1130945490    -2.3602239426
| 14>  H        0.5657366780     2.2297335104    -0.5040301234
| 15>  H       -1.0653700937     1.9821181333    -1.1427615269
| 16>  H       -0.8069627431     2.1858505092     0.6044987558
| 17>  H        0.2988090585    -0.1386490120    -1.0631978996
| 18>  H        0.3492203862     0.2049400043     1.7124074644
| 19>  H       -0.5661624810    -2.1059136450     1.3859979615
| 20>  H       -1.9497362292    -2.7028780255     0.4499978818
| 21>  H       -0.3625205065    -2.4663473518    -0.3189907076
| 22>  H       -2.7476249237     0.9386617783     0.8847474943
| 23>  H       -3.1919624119    -0.7106677469     1.3650566093
| 24>  H       -2.1013836575     0.5176666030     3.0548673806
| 25>  H       -3.2392294790    -1.1777216238    -1.0323035875
| 26>  H       -2.6079344157     0.4084357873    -1.4847066839
| 27>  H       -1.4574386826    -2.0472739485    -2.2140464914
| 28> *
| 29>
| 30>                          ****END OF INPUT****

CARTESIAN COORDINATES (ANGSTROEM)
---------------------------------
  C     -0.395336    1.746385   -0.310087
  C     -0.162630    0.239435   -0.144914
  O      0.796503    0.005653    0.879466
  C     -1.456241   -0.609835    0.068424
  C     -1.062655   -2.058252    0.417277
  C     -2.339944   -0.036659    1.186819
  O     -1.561354    0.099899    2.378178
  C     -2.311954   -0.611388   -1.220348
  O     -1.635392   -1.113095   -2.360224
  H      0.565737    2.229734   -0.504030
  H     -1.065370    1.982118   -1.142762
  H     -0.806963    2.185851    0.604499
  H      0.298809   -0.138649   -1.063198
  H      0.349220    0.204940    1.712407
  H     -0.566162   -2.105914    1.385998
  H     -1.949736   -2.702878    0.449998
  H     -0.362521   -2.466347   -0.318991
  H     -2.747625    0.938662    0.884747
  H     -3.191962   -0.710668    1.365057
  H     -2.101384    0.517667    3.054867
  H     -3.239229   -1.177722   -1.032304
  H     -2.607934    0.408436   -1.484707
  H     -1.457439   -2.047274   -2.214046

 Total Charge           Charge          ....    0
 Multiplicity           Mult            ....    1
 Number of Electrons    NEL             ....   74
 Basis Dimension        Dim             ....  363

ORBITAL ENERGIES
----------------

  NO   OCC          E(Eh)            E(eV)
   0   2.0000     -20.577081      -559.9308
   1   2.0000     -20.559410      -559.4500
   2   2.0000     -20.529423      -558.6340
   3   2.0000     -11.289284      -307.1970
   4   2.0000     -11.280034      -306.9453
   5   2.0000     -11.268265      -306.6251
   6   2.0000     -11.239260      -305.8358
   7   2.0000     -11.213621      -305.1382
   8   2.0000     -11.208098      -304.9878
   9   2.0000      -1.381536       -37.5935
  10   2.0000      -1.365017       -37.1440
  11   2.0000      -1.339108       -36.4390
  12   2.0000      -1.095450       -29.8087
  13   2.0000      -0.988896       -26.9092
  14   2.0000      -0.936505       -25.4836
  15   2.0000      -0.912249       -24.8236
  16   2.0000      -0.849586       -23.1184
  17   2.0000      -0.760798       -20.7024
  18   2.0000      -0.728369       -19.8199
  19   2.0000      -0.691908       -18.8278
  20   2.0000      -0.662353       -18.0235
  21   2.0000      -0.639885       -17.4122
  22   2.0000      -0.620994       -16.8981
  23   2.0000      -0.615213       -16.7408
  24   2.0000      -0.603673       -16.4268
  25   2.0000      -0.574213       -15.6251
  26   2.0000      -0.562468       -15.3055
  27   2.0000      -0.550621       -14.9831
  28   2.0000      -0.539835       -14.6897
  29   2.0000      -0.524930       -14.2841
  30   2.0000      -0.516853       -14.0643
  31   2.0000      -0.494275       -13.4499
  32   2.0000      -0.480714       -13.0809
  33   2.0000      -0.466886       -12.7046
  34   2.0000      -0.444265       -12.0891
  35   2.0000      -0.433965       -11.8088
  36   2.0000      -0.412374       -11.2213
  37   0.0000       0.118009         3.2112
  38   0.0000       0.140742         3.8298
  39   0.0000       0.157385         4.2827
  40   0.0000       0.166930         4.5424
  41   0.0000       0.193780         5.2730

MULLIKEN ATOMIC CHARGES
-----------------------
   0 C :   -0.438131
   1 C :    0.173176
   2 O :   -0.486981
   3 C :   -0.005943
   4 C :   -0.439425
   5 C :   -0.118380
   6 O :   -0.502671
   7 C :   -0.059653
   8 O :   -0.467197
   9 H :    0.146457
  10 H :    0.125353
  11 H :    0.122485
  12 H :    0.096778
  13 H :    0.332947
  14 H :    0.154122
  15 H :    0.128712
  16 H :    0.129968
  17 H :    0.124301
  18 H :    0.111456
  19 H :    0.320707
  20 H :    0.111949
  21 H :    0.119321
  22 H :    0.320648
Sum of atomic charges:   -0.0000000

LOEWDIN ATOMIC CHARGES
----------------------
   0 C :   -0.301389
   1 C :   -0.328454
   2 O :   -0.018692
   3 C :   -0.310937
   4 C :   -0.275423
   5 C :   -0.299644
   6 O :   -0.048747
   7 C :   -0.304852
   8 O :   -0.034102
   9 H :    0.128657
  10 H :    0.122212
  11 H :    0.120408
  12 H :    0.149270
  13 H :    0.170280
  14 H :    0.133536
  15 H :    0.123073
  16 H :    0.125486
  17 H :    0.123405
  18 H :    0.123612
  19 H :    0.175656
  20 H :    0.121943
  21 H :    0.130738
  22 H :    0.173964

  Mayer bond orders larger than 0.1
B(  0-C ,  1-C ) :   0.9089 B(  0-C ,  9-H ) :   0.9409 B(  0-C , 10-H ) :   0.9340
B(  0-C , 11-H ) :   0.9309 B(  1-C ,  2-O ) :   0.9158 B(  1-C ,  3-C ) :   0.8958
B(  1-C , 12-H ) :   0.9121 B(  2-O , 13-H ) :   0.8218 B(  3-C ,  4-C ) :   0.9149
B(  3-C ,  5-C ) :   0.8959 B(  3-C ,  7-C ) :   0.9114 B(  4-C , 14-H ) :   0.9256
B(  4-C , 15-H ) :   0.9339 B(  4-C , 16-H ) :   0.9336 B(  5-C ,  6-O ) :   0.9598
B(  5-C , 17-H ) :   0.9346 B(  5-C , 18-H ) :   0.9223 B(  6-O , 19-H ) :   0.8438
B(  7-C ,  8-O ) :   0.9296 B(  7-C , 20-H ) :   0.9372 B(  7-C , 21-H ) :   0.9227
B(  8-O , 22-H ) :   0.8443

MP2 TOTAL ENERGY:     -461.838997367 Eh
FINAL SINGLE POINT ENERGY      -461.838997367223

DIPOLE MOMENT
-------------
                                X             Y             Z
Electronic contribution:      1.67160      -0.69250       0.63209
Nuclear contribution   :     -2.99143       0.71929       0.03089
                        -----------------------------------------
Total Dipole Moment    :     -1.31983       0.02678       0.66298
                        -----------------------------------------
Magnitude (a.u.)       :      1.47723
Magnitude (Debye)      :      3.75483

                             ****ORCA TERMINATED NORMALLY****
TOTAL RUN TIME: 0 days 0 hours 20 minutes 3 seconds 523 msec
