                         Program Version 3.0.3 - RELEASE   -
|  1> ! RI-MP2 RIJK def2-TZVP def2-TZVP/C def2-TZVP/JK TIGHTSCF
|  2> % maxcore 2000
|  3> % mp2 density relaxed end
|  4> *xyz 0 1
|  5>  O        0.0386690340     1.3067294777    -0.4957488673
|  6>  C        0.0763491637     0.1089052764     0.2625353490
|  7>  C       -1.2983362788    -0.5025823530     0.3722397140
|  8>  O       -1.8010860053    -1.0710629660    -0.8487614615
|  9>  C       -1.5583332474    -1.9489809271     0.2752603646
| 10>  C       -0.4847604262    -3.0395943601     0.1403991058
| 11>  C       -1.1713181713    -4.3538525347     0.6047324065
| 12>  C       -2.5400248501    -3.9103363372     1.0610529990
| 13>  C       -2.7441932712    -2.6059565681     0.8838991864
| 14>  H       -0.3592393565     1.0796656831    -1.3441652761
| 15>  H        0.7766837462    -0.6190709490    -0.1715226996
| 16>  H        0.4473824802     0.3838966423     1.2561289486
| 17>  H       -2.0258197856     0.1203587262     0.8976145065
| 18>  H       -0.1416200241    -3.0911247286    -0.8951755658
| 19>  H        0.3863544664    -2.8149307035     0.7616660562
| 20>  H       -1.2442513869    -5.0953413747    -0.2006061060
| 21>  H       -0.6141035481    -4.8405727919     1.4137606978
| 22>  H       -3.2627738142    -4.6035377811     1.4771813614
| 23>  H       -3.6485320247    -2.0563818809     1.1155282905
| 24> *
| 25>
| 26>                          ****END OF INPUT****

CARTESIAN COORDINATES (ANGSTROEM)
---------------------------------
  O      0.038669    1.306729   -0.495749
  C      0.076349    0.108905    0.262535
  C     -1.298336   -0.502582    0.372240
  O     -1.801086   -1.071063   -0.848761
  C     -1.558333   -1.948981    0.275260
  C     -0.484760   -3.039594    0.140399
  C     -1.171318   -4.353853    0.604732
  C     -2.540025   -3.910336    1.061053
  C     -2.744193   -2.605957    0.883899
  H     -0.359239    1.079666   -1.344165
  H      0.776684   -0.619071   -0.171523
  H      0.447382    0.383897    1.256129
  H     -2.025820    0.120359    0.897615
  H     -0.141620   -3.091125   -0.895176
  H      0.386354   -2.814931    0.761666
  H     -1.244251   -5.095341   -0.200606
  H     -0.614104   -4.840573    1.413761
  H     -3.262774   -4.603538    1.477181
  H     -3.648532   -2.056382    1.115528

 Total Charge           Charge          ....    0
 Multiplicity           Mult            ....    1
 Number of Electrons    NEL             ....   68
 Basis Dimension        Dim             ....  339

ORBITAL ENERGIES
----------------

  NO   OCC          E(Eh)            E(eV)
   0   2.0000     -20.565110      -559.6051
   1   2.0000     -20.556115      -559.3603
   2   2.0000     -11.298973      -307.4607
   3   2.0000     -11.284302      -307.0615
   4   2.0000     -11.281623      -306.9886
   5   2.0000     -11.242749      -305.9307
   6   2.0000     -11.238814      -305.8237
   7   2.0000     -11.236253      -305.7540
   8   2.0000     -11.232925      -305.6634
   9   2.0000      -1.409838       -38.3636
  10   2.0000      -1.358900       -36.9775
  11   2.0000      -1.137412       -30.9506
  12   2.0000      -0.994800       -27.0699
  13   2.0000      -0.982878       -26.7455
  14   2.0000      -0.943447       -25.6725
  15   2.0000      -0.846546       -23.0357
  16   2.0000      -0.783173       -21.3112
  17   2.0000      -0.750572       -20.4241
  18   2.0000      -0.699103       -19.0235
  19   2.0000      -0.698673       -19.0119
  20   2.0000      -0.640175       -17.4201
  21   2.0000      -0.630311       -17.1516
  22   2.0000      -0.617238       -16.7959
  23   2.0000      -0.601736       -16.3741
  24   2.0000      -0.556041       -15.1306
  25   2.0000      -0.537697       -14.6315
  26   2.0000      -0.528907       -14.3923
  27   2.0000      -0.509216       -13.8565
  28   2.0000      -0.506821       -13.7913
  29   2.0000      -0.493597       -13.4315
  30   2.0000      -0.464210       -12.6318
  31   2.0000      -0.448156       -12.1950
  32   2.0000      -0.435212       -11.8427
  33   2.0000      -0.354972        -9.6593
  34   0.0000       0.134787         3.6678
  35   0.0000       0.142531         3.8785
  36   0.0000       0.156523         4.2592
  37   0.0000       0.165399         4.5007
  38   0.0000       0.169662         4.6167

MULLIKEN ATOMIC CHARGES
-----------------------
   0 O :   -0.474452
   1 C :   -0.012182
   2 C :   -0.036671
   3 O :   -0.350707
   4 C :    0.231128
   5 C :   -0.274573
   6 C :   -0.150555
   7 C :   -0.161341
   8 C :   -0.227918
   9 H :    0.326608
  10 H :    0.119273
  11 H :    0.109196
  12 H :    0.116457
  13 H :    0.140204
  14 H :    0.126728
  15 H :    0.122698
  16 H :    0.122929
  17 H :    0.134532
  18 H :    0.138645
Sum of atomic charges:    0.0000000

LOEWDIN ATOMIC CHARGES
----------------------
   0 O :   -0.044290
   1 C :   -0.330820
   2 C :   -0.260250
   3 O :    0.163822
   4 C :   -0.271263
   5 C :   -0.195134
   6 C :   -0.233175
   7 C :   -0.139548
   8 C :   -0.121879
   9 H :    0.180138
  10 H :    0.124198
  11 H :    0.133952
  12 H :    0.140499
  13 H :    0.145888
  14 H :    0.142001
  15 H :    0.141397
  16 H :    0.140191
  17 H :    0.138872
  18 H :    0.145402

  Mayer bond orders larger than 0.1
B(  0-O ,  1-C ) :   0.9029 B(  0-O ,  9-H ) :   0.8383 B(  1-C ,  2-C ) :   0.9312
B(  1-C , 10-H ) :   0.9267 B(  1-C , 11-H ) :   0.9204 B(  2-C ,  3-O ) :   0.8352
B(  2-C ,  4-C ) :   0.9304 B(  2-C , 12-H ) :   0.9118 B(  3-O ,  4-C ) :   0.8824
B(  4-C ,  5-C ) :   0.8694 B(  4-C ,  8-C ) :   0.9385 B(  5-C ,  6-C ) :   0.9669
B(  5-C , 13-H ) :   0.9330 B(  5-C , 14-H ) :   0.9272 B(  6-C ,  7-C ) :   0.9388
B(  6-C , 15-H ) :   0.9145 B(  6-C , 16-H ) :   0.9239 B(  7-C ,  8-C ) :   1.7779
B(  7-C , 17-H ) :   0.9254 B(  8-C , 18-H ) :   0.9213

MP2 TOTAL ENERGY:     -422.307329888 Eh
FINAL SINGLE POINT ENERGY      -422.307329888426

DIPOLE MOMENT
-------------
                                X             Y             Z
Electronic contribution:     -2.39656       3.37133      -1.58994
Nuclear contribution   :      2.42877      -4.30103       2.07880
                        -----------------------------------------
Total Dipole Moment    :      0.03220      -0.92969       0.48886
                        -----------------------------------------
Magnitude (a.u.)       :      1.05088
Magnitude (Debye)      :      2.67112

                             ****ORCA TERMINATED NORMALLY****
TOTAL RUN TIME: 0 days 0 hours 27 minutes 24 seconds 971 msec
