                         Program Version 3.0.3 - RELEASE   -
|  1> ! RI-MP2 RIJK def2-TZVP def2-TZVP/C def2-TZVP/JK TIGHTSCF
|  2> % maxcore 2000
|  3> % mp2 density relaxed end
|  4> *xyz 0 1
|  5>  C        0.2114672228     1.5595274853    -0.1025550459
|  6>  C        0.1348030292     0.0637742943     0.0501393543
|  7>  O        1.3817248205    -0.6628678654     0.0862639843
|  8>  C        0.5396582322    -0.6820285840     1.2536682153
|  9>  C        1.0705189897    -0.0544593942     2.5203577666
| 10>  C       -0.0842120529    -2.0615793606     1.3879043744
| 11>  O       -1.2232603169    -2.3257261804     1.0831509297
| 12>  C        0.8040149225    -3.2185567367     1.8763070222
| 13>  O        1.9137474063    -3.0906963188     2.3186678005
| 14>  H        0.9860776794     2.0003019449     0.5271199246
| 15>  H        0.4362226369     1.8153145512    -1.1429336421
| 16>  H       -0.7521454004     2.0131738599     0.1523933331
| 17>  H       -0.6238739024    -0.4146666970    -0.5695777868
| 18>  H        1.5114607924     0.9220528909     2.3145890772
| 19>  H        0.2609471768     0.0773246110     3.2468853730
| 20>  H        1.8354095930    -0.6949997217     2.9634528708
| 21>  H        0.2867917108    -4.1978659887     1.7906357786
| 22> *
| 23>
| 24>                          ****END OF INPUT****

CARTESIAN COORDINATES (ANGSTROEM)
---------------------------------
  C      0.211467    1.559527   -0.102555
  C      0.134803    0.063774    0.050139
  O      1.381725   -0.662868    0.086264
  C      0.539658   -0.682029    1.253668
  C      1.070519   -0.054459    2.520358
  C     -0.084212   -2.061579    1.387904
  O     -1.223260   -2.325726    1.083151
  C      0.804015   -3.218557    1.876307
  O      1.913747   -3.090696    2.318668
  H      0.986078    2.000302    0.527120
  H      0.436223    1.815315   -1.142934
  H     -0.752145    2.013174    0.152393
  H     -0.623874   -0.414667   -0.569578
  H      1.511461    0.922053    2.314589
  H      0.260947    0.077325    3.246885
  H      1.835410   -0.695000    2.963453
  H      0.286792   -4.197866    1.790636

 Total Charge           Charge          ....    0
 Multiplicity           Mult            ....    1
 Number of Electrons    NEL             ....   68
 Basis Dimension        Dim             ....  327

ORBITAL ENERGIES
----------------

  NO   OCC          E(Eh)            E(eV)
   0   2.0000     -20.596350      -560.4552
   1   2.0000     -20.595909      -560.4432
   2   2.0000     -20.582748      -560.0851
   3   2.0000     -11.362897      -309.2001
   4   2.0000     -11.359546      -309.1090
   5   2.0000     -11.316301      -307.9322
   6   2.0000     -11.302507      -307.5569
   7   2.0000     -11.239504      -305.8424
   8   2.0000     -11.236930      -305.7724
   9   2.0000      -1.445606       -39.3369
  10   2.0000      -1.426558       -38.8186
  11   2.0000      -1.416685       -38.5500
  12   2.0000      -1.048225       -28.5236
  13   2.0000      -1.024011       -27.8648
  14   2.0000      -0.955602       -26.0033
  15   2.0000      -0.900067       -24.4921
  16   2.0000      -0.830062       -22.5871
  17   2.0000      -0.757827       -20.6215
  18   2.0000      -0.714405       -19.4400
  19   2.0000      -0.703320       -19.1383
  20   2.0000      -0.673950       -18.3391
  21   2.0000      -0.648440       -17.6450
  22   2.0000      -0.618555       -16.8317
  23   2.0000      -0.596960       -16.2441
  24   2.0000      -0.591989       -16.1088
  25   2.0000      -0.577330       -15.7100
  26   2.0000      -0.563752       -15.3405
  27   2.0000      -0.543202       -14.7813
  28   2.0000      -0.532267       -14.4837
  29   2.0000      -0.522801       -14.2262
  30   2.0000      -0.514145       -13.9906
  31   2.0000      -0.469716       -12.7816
  32   2.0000      -0.446956       -12.1623
  33   2.0000      -0.413623       -11.2553
  34   0.0000       0.051072         1.3897
  35   0.0000       0.136733         3.7207
  36   0.0000       0.164104         4.4655
  37   0.0000       0.171821         4.6755
  38   0.0000       0.181514         4.9393

MULLIKEN ATOMIC CHARGES
-----------------------
   0 C :   -0.388846
   1 C :    0.042360
   2 O :   -0.336008
   3 C :    0.199375
   4 C :   -0.426208
   5 C :    0.189835
   6 O :   -0.248003
   7 C :    0.087534
   8 O :   -0.239864
   9 H :    0.133987
  10 H :    0.146990
  11 H :    0.137073
  12 H :    0.129517
  13 H :    0.134052
  14 H :    0.141841
  15 H :    0.179031
  16 H :    0.117334
Sum of atomic charges:   -0.0000000

LOEWDIN ATOMIC CHARGES
----------------------
   0 C :   -0.288348
   1 C :   -0.255825
   2 O :    0.188894
   3 C :   -0.303188
   4 C :   -0.257127
   5 C :   -0.274315
   6 O :    0.196543
   7 C :   -0.248898
   8 O :    0.171048
   9 H :    0.127215
  10 H :    0.133293
  11 H :    0.134157
  12 H :    0.144917
  13 H :    0.132631
  14 H :    0.136609
  15 H :    0.139246
  16 H :    0.123148

  Mayer bond orders larger than 0.1
B(  0-C ,  1-C ) :   0.8913 B(  0-C ,  9-H ) :   0.9420 B(  0-C , 10-H ) :   0.9354
B(  0-C , 11-H ) :   0.9238 B(  1-C ,  2-O ) :   0.8629 B(  1-C ,  3-C ) :   0.9759
B(  1-C , 12-H ) :   0.9008 B(  2-O ,  3-C ) :   0.8510 B(  3-C ,  4-C ) :   0.8778
B(  3-C ,  5-C ) :   0.8210 B(  4-C , 13-H ) :   0.9323 B(  4-C , 14-H ) :   0.9281
B(  4-C , 15-H ) :   0.9299 B(  5-C ,  6-O ) :   1.9707 B(  5-C ,  7-C ) :   0.8699
B(  7-C ,  8-O ) :   1.9514 B(  7-C , 16-H ) :   0.9231

MP2 TOTAL ENERGY:     -458.214770691 Eh
FINAL SINGLE POINT ENERGY      -458.214770691126

DIPOLE MOMENT
-------------
                                X             Y             Z
Electronic contribution:     -0.10588      -9.41052       0.22809
Nuclear contribution   :     -0.35379      10.08684      -0.02352
                        -----------------------------------------
Total Dipole Moment    :     -0.45967       0.67632       0.20456
                        -----------------------------------------
Magnitude (a.u.)       :      0.84294
Magnitude (Debye)      :      2.14259

                             ****ORCA TERMINATED NORMALLY****
TOTAL RUN TIME: 0 days 0 hours 20 minutes 18 seconds 821 msec
