                         Program Version 3.0.3 - RELEASE   -
|  1> ! RI-MP2 RIJK def2-TZVP def2-TZVP/C def2-TZVP/JK TIGHTSCF
|  2> % maxcore 2000
|  3> % mp2 density relaxed end
|  4> *xyz 0 1
|  5>  C       -0.0012281816     1.3796912304     0.0760785022
|  6>  O        0.0186898937    -0.0372568755     0.0313790843
|  7>  C        0.6121749795    -0.5662337139    -1.0591231560
|  8>  C        1.2062841202     0.0006729821    -2.1445044291
|  9>  O        1.6524487164    -0.9733421924    -2.9676064979
| 10>  N        1.3480274520    -2.2091778325    -2.4168500985
| 11>  C        0.7307036863    -1.9730872946    -1.2843372371
| 12>  C        0.2474541140    -3.0784804019    -0.4051859926
| 13>  H        1.0184507483     1.7877327748     0.0761253951
| 14>  H       -0.5509605300     1.7926898471    -0.7803499016
| 15>  H       -0.5055766698     1.6591770717     1.0018659300
| 16>  H        1.3838351569     1.0133739789    -2.4640420684
| 17>  H        0.7108358780    -3.0179423898     0.5848146738
| 18>  H       -0.8357284059    -3.0138541560    -0.2601349322
| 19>  H        0.4895570118    -4.0437789884    -0.8530509520
| 20> *
| 21>
| 22>                          ****END OF INPUT****

CARTESIAN COORDINATES (ANGSTROEM)
---------------------------------
  C     -0.001228    1.379691    0.076079
  O      0.018690   -0.037257    0.031379
  C      0.612175   -0.566234   -1.059123
  C      1.206284    0.000673   -2.144504
  O      1.652449   -0.973342   -2.967606
  N      1.348027   -2.209178   -2.416850
  C      0.730704   -1.973087   -1.284337
  C      0.247454   -3.078480   -0.405186
  H      1.018451    1.787733    0.076125
  H     -0.550961    1.792690   -0.780350
  H     -0.505577    1.659177    1.001866
  H      1.383835    1.013374   -2.464042
  H      0.710836   -3.017942    0.584815
  H     -0.835728   -3.013854   -0.260135
  H      0.489557   -4.043779   -0.853051

 Total Charge           Charge          ....    0
 Multiplicity           Mult            ....    1
 Number of Electrons    NEL             ....   60
 Basis Dimension        Dim             ....  290

ORBITAL ENERGIES
----------------

  NO   OCC          E(Eh)            E(eV)
   0   2.0000     -20.633874      -561.4763
   1   2.0000     -20.601155      -560.5859
   2   2.0000     -15.616697      -424.9519
   3   2.0000     -11.300001      -307.4887
   4   2.0000     -11.298257      -307.4412
   5   2.0000     -11.298096      -307.4368
   6   2.0000     -11.281213      -306.9774
   7   2.0000     -11.236873      -305.7708
   8   2.0000      -1.485302       -40.4171
   9   2.0000      -1.426273       -38.8109
  10   2.0000      -1.169074       -31.8121
  11   2.0000      -1.063615       -28.9424
  12   2.0000      -0.982427       -26.7332
  13   2.0000      -0.964444       -26.2439
  14   2.0000      -0.814809       -22.1721
  15   2.0000      -0.789700       -21.4888
  16   2.0000      -0.733426       -19.9575
  17   2.0000      -0.680904       -18.5284
  18   2.0000      -0.663251       -18.0480
  19   2.0000      -0.643499       -17.5105
  20   2.0000      -0.642519       -17.4838
  21   2.0000      -0.594145       -16.1675
  22   2.0000      -0.579172       -15.7601
  23   2.0000      -0.551253       -15.0004
  24   2.0000      -0.546158       -14.8617
  25   2.0000      -0.519787       -14.1441
  26   2.0000      -0.516384       -14.0515
  27   2.0000      -0.469860       -12.7855
  28   2.0000      -0.398199       -10.8355
  29   2.0000      -0.342922        -9.3314
  30   0.0000       0.129371         3.5204
  31   0.0000       0.132027         3.5926
  32   0.0000       0.146498         3.9864
  33   0.0000       0.184090         5.0094
  34   0.0000       0.202464         5.5093

MULLIKEN ATOMIC CHARGES
-----------------------
   0 C :   -0.241647
   1 O :   -0.290280
   2 C :    0.158946
   3 C :   -0.084503
   4 O :   -0.116708
   5 N :   -0.111800
   6 C :    0.067028
   7 C :   -0.415877
   8 H :    0.133151
   9 H :    0.133151
  10 H :    0.152843
  11 H :    0.163619
  12 H :    0.146497
  13 H :    0.146489
  14 H :    0.159091
Sum of atomic charges:   -0.0000000

LOEWDIN ATOMIC CHARGES
----------------------
   0 C :   -0.320233
   1 O :    0.231179
   2 C :   -0.298378
   3 C :   -0.274649
   4 O :    0.262165
   5 N :    0.052867
   6 C :   -0.279834
   7 C :   -0.263122
   8 H :    0.110830
   9 H :    0.110830
  10 H :    0.118409
  11 H :    0.136951
  12 H :    0.136998
  13 H :    0.136999
  14 H :    0.138987

  Mayer bond orders larger than 0.1
B(  0-C ,  1-O ) :   0.8736 B(  0-C ,  8-H ) :   0.9335 B(  0-C ,  9-H ) :   0.9335
B(  0-C , 10-H ) :   0.9383 B(  1-O ,  2-C ) :   1.0865 B(  2-C ,  3-C ) :   1.4753
B(  2-C ,  6-C ) :   1.1593 B(  3-C ,  4-O ) :   1.0822 B(  3-C ,  5-N ) :   0.1025
B(  3-C , 11-H ) :   0.9224 B(  4-O ,  5-N ) :   0.8875 B(  5-N ,  6-C ) :   1.6136
B(  6-C ,  7-C ) :   0.8801 B(  7-C , 12-H ) :   0.9272 B(  7-C , 13-H ) :   0.9272
B(  7-C , 14-H ) :   0.9471

MP2 TOTAL ENERGY:     -399.123273573 Eh
FINAL SINGLE POINT ENERGY      -399.123273573166

DIPOLE MOMENT
-------------
                                X             Y             Z
Electronic contribution:      2.63823      -1.26285      -4.84156
Nuclear contribution   :     -3.08618       2.33204       5.66850
                        -----------------------------------------
Total Dipole Moment    :     -0.44795       1.06919       0.82694
                        -----------------------------------------
Magnitude (a.u.)       :      1.42396
Magnitude (Debye)      :      3.61942

                             ****ORCA TERMINATED NORMALLY****
TOTAL RUN TIME: 0 days 0 hours 10 minutes 35 seconds 564 msec
