                         Program Version 3.0.3 - RELEASE   -
|  1> ! RI-MP2 RIJK def2-TZVP def2-TZVP/C def2-TZVP/JK TIGHTSCF
|  2> % maxcore 2000
|  3> % mp2 density relaxed end
|  4> *xyz 0 1
|  5>  C        0.0880258839     1.5160424156    -0.1534812665
|  6>  C       -0.0233564481    -0.0116482207     0.0443197610
|  7>  N        0.8119216686    -0.5890847536     1.0942343429
|  8>  C        2.2461181639    -0.5793433299     0.8281599439
|  9>  C        2.9625638900    -1.2782267920     1.9553365404
| 10>  C        4.2905292694    -0.8535682910     2.4093925225
| 11>  O        3.1212935752    -0.5070959167     3.1530298445
| 12>  C       -1.4279331302    -0.3766919833     0.3053594284
| 13>  N       -2.5356403133    -0.6315869113     0.5112573898
| 14>  H        1.1152735453     1.7898527689    -0.4062907498
| 15>  H       -0.5666096208     1.8520882127    -0.9623690622
| 16>  H       -0.1998391772     2.0415538355     0.7617109957
| 17>  H        0.2601687817    -0.5059944926    -0.8946004063
| 18>  H        0.6242113169    -0.1350104824     1.9832253118
| 19>  H        2.4251189389    -1.1244078719    -0.1085281595
| 20>  H        2.6794982595     0.4281142029     0.7106918323
| 21>  H        2.6522465560    -2.3083923374     2.1295946411
| 22>  H        4.9519684089    -1.5755043456     2.8853711934
| 23>  H        4.7911321412    -0.0236197573     1.9121354568
| 24> *
| 25>
| 26>                          ****END OF INPUT****

CARTESIAN COORDINATES (ANGSTROEM)
---------------------------------
  C      0.088026    1.516042   -0.153481
  C     -0.023356   -0.011648    0.044320
  N      0.811922   -0.589085    1.094234
  C      2.246118   -0.579343    0.828160
  C      2.962564   -1.278227    1.955337
  C      4.290529   -0.853568    2.409393
  O      3.121294   -0.507096    3.153030
  C     -1.427933   -0.376692    0.305359
  N     -2.535640   -0.631587    0.511257
  H      1.115274    1.789853   -0.406291
  H     -0.566610    1.852088   -0.962369
  H     -0.199839    2.041554    0.761711
  H      0.260169   -0.505994   -0.894600
  H      0.624211   -0.135010    1.983225
  H      2.425119   -1.124408   -0.108528
  H      2.679498    0.428114    0.710692
  H      2.652247   -2.308392    2.129595
  H      4.951968   -1.575504    2.885371
  H      4.791132   -0.023620    1.912135

 Total Charge           Charge          ....    0
 Multiplicity           Mult            ....    1
 Number of Electrons    NEL             ....   68
 Basis Dimension        Dim             ....  339

ORBITAL ENERGIES
----------------

  NO   OCC          E(Eh)            E(eV)
   0   2.0000     -20.579668      -560.0012
   1   2.0000     -15.572380      -423.7460
   2   2.0000     -15.568403      -423.6378
   3   2.0000     -11.318710      -307.9978
   4   2.0000     -11.299042      -307.4626
   5   2.0000     -11.295569      -307.3681
   6   2.0000     -11.278504      -306.9037
   7   2.0000     -11.269014      -306.6455
   8   2.0000     -11.246720      -306.0388
   9   2.0000      -1.423171       -38.7264
  10   2.0000      -1.250623       -34.0312
  11   2.0000      -1.209380       -32.9089
  12   2.0000      -1.064263       -28.9601
  13   2.0000      -0.985290       -26.8111
  14   2.0000      -0.922987       -25.1157
  15   2.0000      -0.887651       -24.1542
  16   2.0000      -0.830023       -22.5861
  17   2.0000      -0.743435       -20.2299
  18   2.0000      -0.706156       -19.2155
  19   2.0000      -0.670001       -18.2316
  20   2.0000      -0.644876       -17.5480
  21   2.0000      -0.643088       -17.4993
  22   2.0000      -0.601403       -16.3650
  23   2.0000      -0.589296       -16.0356
  24   2.0000      -0.569481       -15.4964
  25   2.0000      -0.554871       -15.0988
  26   2.0000      -0.537507       -14.6263
  27   2.0000      -0.536913       -14.6101
  28   2.0000      -0.530802       -14.4439
  29   2.0000      -0.469984       -12.7889
  30   2.0000      -0.459660       -12.5080
  31   2.0000      -0.458629       -12.4799
  32   2.0000      -0.452314       -12.3081
  33   2.0000      -0.400755       -10.9051
  34   0.0000       0.120290         3.2733
  35   0.0000       0.144486         3.9317
  36   0.0000       0.150080         4.0839
  37   0.0000       0.163983         4.4622
  38   0.0000       0.173662         4.7256

MULLIKEN ATOMIC CHARGES
-----------------------
   0 C :   -0.383963
   1 C :    0.063236
   2 N :   -0.315591
   3 C :   -0.163435
   4 C :    0.053960
   5 C :   -0.083946
   6 O :   -0.339849
   7 C :   -0.150335
   8 N :   -0.056943
   9 H :    0.141179
  10 H :    0.147937
  11 H :    0.138043
  12 H :    0.123163
  13 H :    0.222005
  14 H :    0.118323
  15 H :    0.108793
  16 H :    0.134810
  17 H :    0.123941
  18 H :    0.118672
Sum of atomic charges:   -0.0000000

LOEWDIN ATOMIC CHARGES
----------------------
   0 C :   -0.277001
   1 C :   -0.321402
   2 N :    0.022376
   3 C :   -0.294563
   4 C :   -0.293079
   5 C :   -0.264804
   6 O :    0.139139
   7 C :   -0.166774
   8 N :    0.064044
   9 H :    0.124775
  10 H :    0.133002
  11 H :    0.129818
  12 H :    0.170073
  13 H :    0.182762
  14 H :    0.141187
  15 H :    0.126874
  16 H :    0.141641
  17 H :    0.121626
  18 H :    0.120304

  Mayer bond orders larger than 0.1
B(  0-C ,  1-C ) :   0.9141 B(  0-C ,  9-H ) :   0.9363 B(  0-C , 10-H ) :   0.9265
B(  0-C , 11-H ) :   0.9213 B(  1-C ,  2-N ) :   0.9796 B(  1-C ,  7-C ) :   0.9138
B(  1-C , 12-H ) :   0.9092 B(  2-N ,  3-C ) :   0.9347 B(  2-N , 13-H ) :   0.8669
B(  3-C ,  4-C ) :   0.9320 B(  3-C , 14-H ) :   0.9179 B(  3-C , 15-H ) :   0.9085
B(  4-C ,  5-C ) :   0.9733 B(  4-C ,  6-O ) :   0.8596 B(  4-C , 16-H ) :   0.9187
B(  5-C ,  6-O ) :   0.9163 B(  5-C , 17-H ) :   0.9212 B(  5-C , 18-H ) :   0.9080
B(  7-C ,  8-N ) :   2.8756

MP2 TOTAL ENERGY:     -418.475972846 Eh
FINAL SINGLE POINT ENERGY      -418.475972846124

DIPOLE MOMENT
-------------
                                X             Y             Z
Electronic contribution:     -5.12603      -3.21440       2.50534
Nuclear contribution   :      6.99324       3.66253      -3.29632
                        -----------------------------------------
Total Dipole Moment    :      1.86721       0.44813      -0.79098
                        -----------------------------------------
Magnitude (a.u.)       :      2.07676
Magnitude (Debye)      :      5.27871

                             ****ORCA TERMINATED NORMALLY****
TOTAL RUN TIME: 0 days 0 hours 16 minutes 49 seconds 687 msec
