                         Program Version 3.0.3 - RELEASE   -
|  1> ! RI-MP2 RIJK def2-TZVP def2-TZVP/C def2-TZVP/JK TIGHTSCF
|  2> % maxcore 2000
|  3> % mp2 density relaxed end
|  4> *xyz 0 1
|  5>  O       -0.2343033345     1.4621982160    -0.1179263074
|  6>  C       -0.1545243437     0.0719309718    -0.1691087162
|  7>  C        0.7168651657    -0.4395749222     0.9853777241
|  8>  O        1.2611914169     0.3328771195     1.7303304925
|  9>  C       -1.5527837386    -0.5417282643    -0.0117754513
| 10>  O       -1.7763031770    -1.7168214633    -0.1368064833
| 11>  C        0.4631363304    -0.4474865837    -1.4777877301
| 12>  C        0.6268273926     0.4432404246    -2.6298845788
| 13>  O        1.7404096140     0.0782451011    -1.8036305837
| 14>  H        0.3906309732     1.7402610218     0.5726227293
| 15>  H        0.8105904056    -1.5367066904     1.0753039095
| 16>  H       -2.3300950850     0.2105499498     0.2363410594
| 17>  H        0.3359458994    -1.5184784190    -1.6280771583
| 18>  H        0.6333061578     0.0195354652    -3.6323008766
| 19>  H        0.3094402131     1.4775878731    -2.5378467790
| 20> *
| 21>
| 22>                          ****END OF INPUT****

CARTESIAN COORDINATES (ANGSTROEM)
---------------------------------
  O     -0.234303    1.462198   -0.117926
  C     -0.154524    0.071931   -0.169109
  C      0.716865   -0.439575    0.985378
  O      1.261191    0.332877    1.730330
  C     -1.552784   -0.541728   -0.011775
  O     -1.776303   -1.716821   -0.136806
  C      0.463136   -0.447487   -1.477788
  C      0.626827    0.443240   -2.629885
  O      1.740410    0.078245   -1.803631
  H      0.390631    1.740261    0.572623
  H      0.810590   -1.536707    1.075304
  H     -2.330095    0.210550    0.236341
  H      0.335946   -1.518478   -1.628077
  H      0.633306    0.019535   -3.632301
  H      0.309440    1.477588   -2.537847

 Total Charge           Charge          ....    0
 Multiplicity           Mult            ....    1
 Number of Electrons    NEL             ....   68
 Basis Dimension        Dim             ....  315

ORBITAL ENERGIES
----------------

  NO   OCC          E(Eh)            E(eV)
   0   2.0000     -20.597671      -560.4911
   1   2.0000     -20.593149      -560.3681
   2   2.0000     -20.590241      -560.2889
   3   2.0000     -20.589452      -560.2675
   4   2.0000     -11.367919      -309.3368
   5   2.0000     -11.363692      -309.2218
   6   2.0000     -11.336393      -308.4789
   7   2.0000     -11.316115      -307.9271
   8   2.0000     -11.301335      -307.5249
   9   2.0000      -1.453181       -39.5431
  10   2.0000      -1.434109       -39.0241
  11   2.0000      -1.431600       -38.9558
  12   2.0000      -1.395424       -37.9714
  13   2.0000      -1.070978       -29.1428
  14   2.0000      -0.945805       -25.7367
  15   2.0000      -0.891730       -24.2652
  16   2.0000      -0.869108       -23.6496
  17   2.0000      -0.793746       -21.5989
  18   2.0000      -0.758834       -20.6489
  19   2.0000      -0.731244       -19.8982
  20   2.0000      -0.720249       -19.5990
  21   2.0000      -0.678399       -18.4602
  22   2.0000      -0.678018       -18.4498
  23   2.0000      -0.657049       -17.8792
  24   2.0000      -0.594974       -16.1901
  25   2.0000      -0.576896       -15.6981
  26   2.0000      -0.570023       -15.5111
  27   2.0000      -0.557679       -15.1752
  28   2.0000      -0.551981       -15.0202
  29   2.0000      -0.523944       -14.2572
  30   2.0000      -0.490663       -13.3516
  31   2.0000      -0.480679       -13.0799
  32   2.0000      -0.447456       -12.1759
  33   2.0000      -0.429859       -11.6971
  34   0.0000       0.078583         2.1384
  35   0.0000       0.121780         3.3138
  36   0.0000       0.153700         4.1824
  37   0.0000       0.160978         4.3804
  38   0.0000       0.172995         4.7074

MULLIKEN ATOMIC CHARGES
-----------------------
   0 O :   -0.481699
   1 C :    0.246802
   2 C :    0.084618
   3 O :   -0.271194
   4 C :    0.072952
   5 O :   -0.256124
   6 C :   -0.012882
   7 C :   -0.084348
   8 O :   -0.330018
   9 H :    0.343986
  10 H :    0.128164
  11 H :    0.117271
  12 H :    0.167117
  13 H :    0.125540
  14 H :    0.149815
Sum of atomic charges:   -0.0000000

LOEWDIN ATOMIC CHARGES
----------------------
   0 O :    0.048754
   1 C :   -0.392923
   2 C :   -0.232200
   3 O :    0.153306
   4 C :   -0.237920
   5 O :    0.154903
   6 C :   -0.262797
   7 C :   -0.242722
   8 O :    0.161064
   9 H :    0.191881
  10 H :    0.132901
  11 H :    0.124428
  12 H :    0.149452
  13 H :    0.122755
  14 H :    0.129117

  Mayer bond orders larger than 0.1
B(  0-O ,  1-C ) :   1.1090 B(  0-O ,  9-H ) :   0.7975 B(  1-C ,  2-C ) :   0.8360
B(  1-C ,  4-C ) :   0.8065 B(  1-C ,  6-C ) :   0.8516 B(  2-C ,  3-O ) :   1.9125
B(  2-C , 10-H ) :   0.9169 B(  4-C ,  5-O ) :   1.9676 B(  4-C , 11-H ) :   0.9114
B(  6-C ,  7-C ) :   0.9699 B(  6-C ,  8-O ) :   0.8637 B(  6-C , 12-H ) :   0.8961
B(  7-C ,  8-O ) :   0.9136 B(  7-C , 13-H ) :   0.9252 B(  7-C , 14-H ) :   0.8985

MP2 TOTAL ENERGY:     -494.114891475 Eh
FINAL SINGLE POINT ENERGY      -494.114891475308

DIPOLE MOMENT
-------------
                                X             Y             Z
Electronic contribution:      0.19953      -0.71491       2.99363
Nuclear contribution   :     -0.59687       0.72378      -3.32843
                        -----------------------------------------
Total Dipole Moment    :     -0.39734       0.00887      -0.33480
                        -----------------------------------------
Magnitude (a.u.)       :      0.51966
Magnitude (Debye)      :      1.32087

                             ****ORCA TERMINATED NORMALLY****
TOTAL RUN TIME: 0 days 0 hours 15 minutes 35 seconds 309 msec
