                         Program Version 3.0.3 - RELEASE   -
|  1> ! RI-MP2 RIJK def2-TZVP def2-TZVP/C def2-TZVP/JK TIGHTSCF
|  2> % maxcore 2000
|  3> % mp2 density relaxed end
|  4> *xyz 0 1
|  5>  O        0.1061143102     0.0561429588     0.1973054199
|  6>  C       -0.0077319316     1.2360285840     0.1136772178
|  7>  C       -1.2156401383     2.1437850022    -0.0838237275
|  8>  N       -0.6853579576     3.5001607561    -0.1065297388
|  9>  C        0.5700828048     3.3854907809     0.0578311613
| 10>  O        1.0837376277     2.1034199519     0.1931764954
| 11>  C        1.5555573822     4.4721835026     0.1074287248
| 12>  C        2.7339975950     4.3545119223     1.0199981523
| 13>  N        2.9155168986     4.2594785080    -0.4260692789
| 14>  H       -1.7333164691     1.8954279641    -1.0169553752
| 15>  H       -1.9365379858     2.0027653711     0.7291991679
| 16>  H        1.1226624145     5.4451475955    -0.0955764187
| 17>  H        3.1212191519     5.2598644692     1.4773937148
| 18>  H        2.8184175759     3.4536047819     1.6197498264
| 19>  H        3.0234666316     3.2830376415    -0.6925515615
| 20> *
| 21>
| 22>                          ****END OF INPUT****

CARTESIAN COORDINATES (ANGSTROEM)
---------------------------------
  O      0.106114    0.056143    0.197305
  C     -0.007732    1.236029    0.113677
  C     -1.215640    2.143785   -0.083824
  N     -0.685358    3.500161   -0.106530
  C      0.570083    3.385491    0.057831
  O      1.083738    2.103420    0.193176
  C      1.555557    4.472184    0.107429
  C      2.733998    4.354512    1.019998
  N      2.915517    4.259479   -0.426069
  H     -1.733316    1.895428   -1.016955
  H     -1.936538    2.002765    0.729199
  H      1.122662    5.445148   -0.095576
  H      3.121219    5.259864    1.477394
  H      2.818418    3.453605    1.619750
  H      3.023467    3.283038   -0.692552

 Total Charge           Charge          ....    0
 Multiplicity           Mult            ....    1
 Number of Electrons    NEL             ....   66
 Basis Dimension        Dim             ....  315

ORBITAL ENERGIES
----------------

  NO   OCC          E(Eh)            E(eV)
   0   2.0000     -20.645826      -561.8015
   1   2.0000     -20.576668      -559.9196
   2   2.0000     -15.586875      -424.1404
   3   2.0000     -15.580417      -423.9647
   4   2.0000     -11.409087      -310.4570
   5   2.0000     -11.371538      -309.4353
   6   2.0000     -11.298456      -307.4466
   7   2.0000     -11.293746      -307.3184
   8   2.0000     -11.283529      -307.0404
   9   2.0000      -1.507240       -41.0141
  10   2.0000      -1.414584       -38.4928
  11   2.0000      -1.291414       -35.1412
  12   2.0000      -1.254131       -34.1266
  13   2.0000      -1.045775       -28.4570
  14   2.0000      -0.934763       -25.4362
  15   2.0000      -0.896893       -24.4057
  16   2.0000      -0.856213       -23.2987
  17   2.0000      -0.796847       -21.6833
  18   2.0000      -0.745631       -20.2897
  19   2.0000      -0.706168       -19.2158
  20   2.0000      -0.683618       -18.6022
  21   2.0000      -0.671448       -18.2710
  22   2.0000      -0.637577       -17.3494
  23   2.0000      -0.616477       -16.7752
  24   2.0000      -0.603957       -16.4345
  25   2.0000      -0.566315       -15.4102
  26   2.0000      -0.554859       -15.0985
  27   2.0000      -0.521361       -14.1870
  28   2.0000      -0.509942       -13.8762
  29   2.0000      -0.507332       -13.8052
  30   2.0000      -0.446274       -12.1437
  31   2.0000      -0.442446       -12.0396
  32   2.0000      -0.397685       -10.8215
  33   0.0000       0.117510         3.1976
  34   0.0000       0.129274         3.5177
  35   0.0000       0.154691         4.2094
  36   0.0000       0.158924         4.3245
  37   0.0000       0.168111         4.5745

MULLIKEN ATOMIC CHARGES
-----------------------
   0 O :   -0.248440
   1 C :    0.229185
   2 C :   -0.126061
   3 N :   -0.229822
   4 C :    0.182635
   5 O :   -0.238598
   6 C :   -0.063551
   7 C :   -0.152157
   8 N :   -0.351852
   9 H :    0.159377
  10 H :    0.158929
  11 H :    0.152456
  12 H :    0.137880
  13 H :    0.150614
  14 H :    0.239404
Sum of atomic charges:    0.0000000

LOEWDIN ATOMIC CHARGES
----------------------
   0 O :    0.169890
   1 C :   -0.414552
   2 C :   -0.249265
   3 N :    0.108496
   4 C :   -0.334514
   5 O :    0.286199
   6 C :   -0.234079
   7 C :   -0.245126
   8 N :    0.008349
   9 H :    0.156833
  10 H :    0.156706
  11 H :    0.159708
  12 H :    0.130018
  13 H :    0.128901
  14 H :    0.172434

  Mayer bond orders larger than 0.1
B(  0-O ,  1-C ) :   2.0715 B(  1-C ,  2-C ) :   0.9399 B(  1-C ,  5-O ) :   0.9948
B(  2-C ,  3-N ) :   0.9376 B(  2-C ,  9-H ) :   0.8974 B(  2-C , 10-H ) :   0.8975
B(  3-N ,  4-C ) :   1.8529 B(  4-C ,  5-O ) :   0.9841 B(  4-C ,  6-C ) :   0.9627
B(  6-C ,  7-C ) :   0.9032 B(  6-C ,  8-N ) :   0.9216 B(  6-C , 11-H ) :   0.9194
B(  7-C ,  8-N ) :   0.9139 B(  7-C , 12-H ) :   0.9253 B(  7-C , 13-H ) :   0.9130
B(  8-N , 14-H ) :   0.8711

MP2 TOTAL ENERGY:     -453.225890275 Eh
FINAL SINGLE POINT ENERGY      -453.225890274940

DIPOLE MOMENT
-------------
                                X             Y             Z
Electronic contribution:     -1.77100      -3.96558      -0.84483
Nuclear contribution   :      1.53478       4.26945       1.20595
                        -----------------------------------------
Total Dipole Moment    :     -0.23622       0.30387       0.36111
                        -----------------------------------------
Magnitude (a.u.)       :      0.52777
Magnitude (Debye)      :      1.34148

                             ****ORCA TERMINATED NORMALLY****
TOTAL RUN TIME: 0 days 0 hours 13 minutes 51 seconds 453 msec
