                         Program Version 3.0.3 - RELEASE   -
|  1> ! RI-MP2 RIJK def2-TZVP def2-TZVP/C def2-TZVP/JK TIGHTSCF
|  2> % maxcore 2000
|  3> % mp2 density relaxed end
|  4> *xyz 0 1
|  5>  C        0.1034160038     1.5478586860    -0.2378698820
|  6>  C       -0.0049822131     0.0461369906    -0.0507864559
|  7>  C       -1.2584582142    -0.5846820862    -0.6277873908
|  8>  C        1.2881083332    -0.7746335889    -0.0925240387
|  9>  C        0.5710492001    -0.5471829459     1.1932763912
| 10>  C        1.0126136649     0.0648930234     2.5142044929
| 11>  C        0.2840685627    -1.1432725182     3.1107729819
| 12>  O        0.0483596785    -1.5973964872     4.1824139312
| 13>  O       -0.0828113468    -1.6487887243     1.8850105993
| 14>  H        1.0171057978     1.9500014503     0.2106879855
| 15>  H        0.1180892557     1.8026346311    -1.3035669087
| 16>  H       -0.7501959889     2.0649958530     0.2152631631
| 17>  H       -1.2925358517    -0.4475737466    -1.7141969958
| 18>  H       -1.3057873725    -1.6547240245    -0.4136570512
| 19>  H       -2.1568306312    -0.1218543806    -0.2041311954
| 20>  H        1.2349634298    -1.7722337313    -0.5160433078
| 21>  H        2.2305262912    -0.2606562989    -0.2555411363
| 22>  H        2.0860360048     0.0793026894     2.7124880280
| 23>  H        0.5738429959     1.0287571489     2.7796910594
| 24> *
| 25>
| 26>                          ****END OF INPUT****

CARTESIAN COORDINATES (ANGSTROEM)
---------------------------------
  C      0.103416    1.547859   -0.237870
  C     -0.004982    0.046137   -0.050786
  C     -1.258458   -0.584682   -0.627787
  C      1.288108   -0.774634   -0.092524
  C      0.571049   -0.547183    1.193276
  C      1.012614    0.064893    2.514204
  C      0.284069   -1.143273    3.110773
  O      0.048360   -1.597396    4.182414
  O     -0.082811   -1.648789    1.885011
  H      1.017106    1.950001    0.210688
  H      0.118089    1.802635   -1.303567
  H     -0.750196    2.064996    0.215263
  H     -1.292536   -0.447574   -1.714197
  H     -1.305787   -1.654724   -0.413657
  H     -2.156831   -0.121854   -0.204131
  H      1.234963   -1.772234   -0.516043
  H      2.230526   -0.260656   -0.255541
  H      2.086036    0.079303    2.712488
  H      0.573843    1.028757    2.779691

 Total Charge           Charge          ....    0
 Multiplicity           Mult            ....    1
 Number of Electrons    NEL             ....   68
 Basis Dimension        Dim             ....  339

ORBITAL ENERGIES
----------------

  NO   OCC          E(Eh)            E(eV)
   0   2.0000     -20.602119      -560.6122
   1   2.0000     -20.552837      -559.2711
   2   2.0000     -11.385850      -309.8247
   3   2.0000     -11.313685      -307.8610
   4   2.0000     -11.265934      -306.5616
   5   2.0000     -11.258441      -306.3578
   6   2.0000     -11.240689      -305.8747
   7   2.0000     -11.235665      -305.7380
   8   2.0000     -11.226996      -305.5021
   9   2.0000      -1.465777       -39.8858
  10   2.0000      -1.381745       -37.5992
  11   2.0000      -1.173099       -31.9216
  12   2.0000      -1.041937       -28.3525
  13   2.0000      -0.991612       -26.9831
  14   2.0000      -0.950829       -25.8734
  15   2.0000      -0.831619       -22.6295
  16   2.0000      -0.779765       -21.2185
  17   2.0000      -0.745735       -20.2925
  18   2.0000      -0.692913       -18.8551
  19   2.0000      -0.679723       -18.4962
  20   2.0000      -0.671944       -18.2845
  21   2.0000      -0.627852       -17.0847
  22   2.0000      -0.615393       -16.7457
  23   2.0000      -0.595432       -16.2025
  24   2.0000      -0.574066       -15.6211
  25   2.0000      -0.568997       -15.4832
  26   2.0000      -0.549832       -14.9617
  27   2.0000      -0.542412       -14.7598
  28   2.0000      -0.521649       -14.1948
  29   2.0000      -0.506574       -13.7846
  30   2.0000      -0.495524       -13.4839
  31   2.0000      -0.445256       -12.1160
  32   2.0000      -0.419653       -11.4193
  33   2.0000      -0.402187       -10.9441
  34   0.0000       0.117883         3.2078
  35   0.0000       0.149925         4.0797
  36   0.0000       0.157927         4.2974
  37   0.0000       0.170018         4.6264
  38   0.0000       0.178018         4.8441

MULLIKEN ATOMIC CHARGES
-----------------------
   0 C :   -0.416508
   1 C :    0.085111
   2 C :   -0.406692
   3 C :   -0.304081
   4 C :    0.132667
   5 C :   -0.260236
   6 C :    0.254402
   7 O :   -0.258360
   8 O :   -0.236399
   9 H :    0.132467
  10 H :    0.139633
  11 H :    0.138941
  12 H :    0.134983
  13 H :    0.151314
  14 H :    0.133798
  15 H :    0.145144
  16 H :    0.136486
  17 H :    0.147251
  18 H :    0.150079
Sum of atomic charges:    0.0000000

LOEWDIN ATOMIC CHARGES
----------------------
   0 C :   -0.260967
   1 C :   -0.261974
   2 C :   -0.258619
   3 C :   -0.165279
   4 C :   -0.244662
   5 C :   -0.170762
   6 C :   -0.441521
   7 O :    0.155513
   8 O :    0.277602
   9 H :    0.128774
  10 H :    0.130891
  11 H :    0.129660
  12 H :    0.128818
  13 H :    0.134204
  14 H :    0.130323
  15 H :    0.145861
  16 H :    0.139216
  17 H :    0.151171
  18 H :    0.151751

  Mayer bond orders larger than 0.1
B(  0-C ,  1-C ) :   0.8927 B(  0-C ,  9-H ) :   0.9307 B(  0-C , 10-H ) :   0.9361
B(  0-C , 11-H ) :   0.9383 B(  1-C ,  2-C ) :   0.9129 B(  1-C ,  3-C ) :   0.8773
B(  1-C ,  4-C ) :   0.8318 B(  2-C , 12-H ) :   0.9382 B(  2-C , 13-H ) :   0.9234
B(  2-C , 14-H ) :   0.9361 B(  3-C ,  4-C ) :   0.8743 B(  3-C , 15-H ) :   0.9124
B(  3-C , 16-H ) :   0.9143 B(  4-C ,  5-C ) :   0.9077 B(  4-C ,  8-O ) :   0.9221
B(  5-C ,  6-C ) :   0.9424 B(  5-C , 17-H ) :   0.8958 B(  5-C , 18-H ) :   0.8988
B(  6-C ,  7-O ) :   2.0657 B(  6-C ,  8-O ) :   1.0763

MP2 TOTAL ENERGY:     -422.333805399 Eh
FINAL SINGLE POINT ENERGY      -422.333805399158

DIPOLE MOMENT
-------------
                                X             Y             Z
Electronic contribution:      0.73717      -6.28572       9.88834
Nuclear contribution   :     -0.23300       7.37574     -11.05342
                        -----------------------------------------
Total Dipole Moment    :      0.50416       1.09002      -1.16508
                        -----------------------------------------
Magnitude (a.u.)       :      1.67324
Magnitude (Debye)      :      4.25304

                             ****ORCA TERMINATED NORMALLY****
TOTAL RUN TIME: 0 days 0 hours 20 minutes 32 seconds 639 msec
