                         Program Version 3.0.3 - RELEASE   -
|  1> ! RI-MP2 RIJK def2-TZVP def2-TZVP/C def2-TZVP/JK TIGHTSCF
|  2> % maxcore 2000
|  3> % mp2 density relaxed end
|  4> *xyz 0 1
|  5>  C       -0.0292325625     1.5024356732     0.1211573358
|  6>  C        0.1103928075     0.0195515263    -0.0316956794
|  7>  C        0.0616573927    -0.7862573012    -1.3230173839
|  8>  C       -0.3045742699    -1.9549135347    -0.3981700476
|  9>  C        0.9542709596    -2.2372062684     0.4624748775
| 10>  C        0.6723760183    -0.8650145255     1.0396846510
| 11>  N       -0.7974299888    -0.9408678244     0.6995037220
| 12>  C       -1.2040640120    -3.0689164758    -0.8191534704
| 13>  O       -1.4628515422    -3.3307212196    -1.9671156968
| 14>  H        0.8748354439     2.0157683185    -0.2251935804
| 15>  H       -0.8777200579     1.8770429028    -0.4602355128
| 16>  H       -0.1924886720     1.7709265846     1.1693149545
| 17>  H       -0.7890093800    -0.4922838172    -1.9426199761
| 18>  H        0.9598367291    -0.8742122558    -1.9414747334
| 19>  H        0.7633853092    -3.0200138830     1.2020374984
| 20>  H        1.8949482280    -2.4341649914    -0.0609046172
| 21>  H        1.0019373642    -0.4677151989     1.9936399108
| 22>  H       -1.6246575771    -3.6607335797     0.0244973280
| 23> *
| 24>
| 25>                          ****END OF INPUT****

CARTESIAN COORDINATES (ANGSTROEM)
---------------------------------
  C     -0.029233    1.502436    0.121157
  C      0.110393    0.019552   -0.031696
  C      0.061657   -0.786257   -1.323017
  C     -0.304574   -1.954914   -0.398170
  C      0.954271   -2.237206    0.462475
  C      0.672376   -0.865015    1.039685
  N     -0.797430   -0.940868    0.699504
  C     -1.204064   -3.068916   -0.819153
  O     -1.462852   -3.330721   -1.967116
  H      0.874835    2.015768   -0.225194
  H     -0.877720    1.877043   -0.460236
  H     -0.192489    1.770927    1.169315
  H     -0.789009   -0.492284   -1.942620
  H      0.959837   -0.874212   -1.941475
  H      0.763385   -3.020014    1.202037
  H      1.894948   -2.434165   -0.060905
  H      1.001937   -0.467715    1.993640
  H     -1.624658   -3.660734    0.024497

 Total Charge           Charge          ....    0
 Multiplicity           Mult            ....    1
 Number of Electrons    NEL             ....   66
 Basis Dimension        Dim             ....  333

ORBITAL ENERGIES
----------------

  NO   OCC          E(Eh)            E(eV)
   0   2.0000     -20.564630      -559.5920
   1   2.0000     -15.573758      -423.7835
   2   2.0000     -11.335359      -308.4508
   3   2.0000     -11.286235      -307.1141
   4   2.0000     -11.280729      -306.9643
   5   2.0000     -11.274505      -306.7949
   6   2.0000     -11.252624      -306.1995
   7   2.0000     -11.240553      -305.8710
   8   2.0000     -11.231331      -305.6200
   9   2.0000      -1.401651       -38.1409
  10   2.0000      -1.328950       -36.1626
  11   2.0000      -1.047006       -28.4905
  12   2.0000      -1.016294       -27.6548
  13   2.0000      -0.974751       -26.5243
  14   2.0000      -0.930951       -25.3325
  15   2.0000      -0.826061       -22.4782
  16   2.0000      -0.750637       -20.4259
  17   2.0000      -0.735118       -20.0036
  18   2.0000      -0.701758       -19.0958
  19   2.0000      -0.658828       -17.9276
  20   2.0000      -0.640479       -17.4283
  21   2.0000      -0.620604       -16.8875
  22   2.0000      -0.584572       -15.9070
  23   2.0000      -0.573305       -15.6004
  24   2.0000      -0.565732       -15.3944
  25   2.0000      -0.551326       -15.0023
  26   2.0000      -0.538143       -14.6436
  27   2.0000      -0.519569       -14.1382
  28   2.0000      -0.468019       -12.7354
  29   2.0000      -0.450438       -12.2570
  30   2.0000      -0.418658       -11.3923
  31   2.0000      -0.416302       -11.3281
  32   2.0000      -0.386659       -10.5215
  33   0.0000       0.112510         3.0615
  34   0.0000       0.135622         3.6905
  35   0.0000       0.157883         4.2962
  36   0.0000       0.166014         4.5175
  37   0.0000       0.178991         4.8706

MULLIKEN ATOMIC CHARGES
-----------------------
   0 C :   -0.420896
   1 C :    0.058099
   2 C :   -0.123815
   3 C :    0.073712
   4 C :   -0.180713
   5 C :   -0.134749
   6 N :   -0.212315
   7 C :    0.054533
   8 O :   -0.251825
   9 H :    0.137737
  10 H :    0.138992
  11 H :    0.142357
  12 H :    0.122232
  13 H :    0.122383
  14 H :    0.124575
  15 H :    0.125883
  16 H :    0.137994
  17 H :    0.085815
Sum of atomic charges:   -0.0000000

LOEWDIN ATOMIC CHARGES
----------------------
   0 C :   -0.267311
   1 C :   -0.265988
   2 C :   -0.155662
   3 C :   -0.227897
   4 C :   -0.179709
   5 C :   -0.190866
   6 N :    0.175531
   7 C :   -0.256187
   8 O :    0.147758
   9 H :    0.132442
  10 H :    0.132043
  11 H :    0.135709
  12 H :    0.151315
  13 H :    0.134468
  14 H :    0.146238
  15 H :    0.132652
  16 H :    0.136562
  17 H :    0.118902

  Mayer bond orders larger than 0.1
B(  0-C ,  1-C ) :   0.8725 B(  0-C ,  9-H ) :   0.9389 B(  0-C , 10-H ) :   0.9375
B(  0-C , 11-H ) :   0.9362 B(  1-C ,  2-C ) :   0.9325 B(  1-C ,  5-C ) :   0.9080
B(  1-C ,  6-N ) :   0.8414 B(  2-C ,  3-C ) :   0.9295 B(  2-C , 12-H ) :   0.8976
B(  2-C , 13-H ) :   0.9016 B(  3-C ,  4-C ) :   0.9209 B(  3-C ,  6-N ) :   0.9297
B(  3-C ,  7-C ) :   0.8128 B(  4-C ,  5-C ) :   0.9469 B(  4-C , 14-H ) :   0.9160
B(  4-C , 15-H ) :   0.9025 B(  5-C ,  6-N ) :   0.9086 B(  5-C , 16-H ) :   0.9049
B(  7-C ,  8-O ) :   2.0200 B(  7-C , 17-H ) :   0.9586

MP2 TOTAL ENERGY:     -401.213336364 Eh
FINAL SINGLE POINT ENERGY      -401.213336363624

DIPOLE MOMENT
-------------
                                X             Y             Z
Electronic contribution:     -2.93109      -5.56229      -1.53030
Nuclear contribution   :      3.88219       6.02148       2.03809
                        -----------------------------------------
Total Dipole Moment    :      0.95110       0.45919       0.50779
                        -----------------------------------------
Magnitude (a.u.)       :      1.17188
Magnitude (Debye)      :      2.97867

                             ****ORCA TERMINATED NORMALLY****
TOTAL RUN TIME: 0 days 0 hours 18 minutes 56 seconds 409 msec
