                         Program Version 3.0.3 - RELEASE   -
|  1> ! RI-MP2 RIJK def2-TZVP def2-TZVP/C def2-TZVP/JK TIGHTSCF
|  2> % maxcore 2000
|  3> % mp2 density relaxed end
|  4> *xyz 0 1
|  5>  C       -0.1359112199     1.6452579980     0.0567176886
|  6>  C        0.3982570656     0.2157640386     0.0822819325
|  7>  N        1.3501859604     0.0140660986    -1.0046591652
|  8>  C        2.0946510507    -0.9898593469    -0.9713667389
|  9>  O        2.1381451523    -1.9762723985    -0.0043892053
| 10>  C        3.1218524507    -2.8656042280    -0.3903215052
| 11>  C        3.6620207775    -2.4669728661    -1.5374814824
| 12>  N        4.6669923732    -3.0092052302    -2.3231059440
| 13>  O        3.0245796804    -1.2794342167    -1.9275044221
| 14>  H        0.6784583701     2.3639255531     0.1890385897
| 15>  H       -0.6166805115     1.8576080892    -0.9025852944
| 16>  H       -0.8677716389     1.8002469982     0.8560759601
| 17>  H        0.8565065363     0.0030522394     1.0591563567
| 18>  H       -0.4380794841    -0.4909185614    -0.0229650108
| 19>  H        3.3110019574    -3.7126739263     0.2441167076
| 20>  H        5.4522029766    -2.3731554325    -2.4278640304
| 21>  H        4.3349431032    -3.2486055785    -3.2529054164
| 22> *
| 23>
| 24>                          ****END OF INPUT****

CARTESIAN COORDINATES (ANGSTROEM)
---------------------------------
  C     -0.135911    1.645258    0.056718
  C      0.398257    0.215764    0.082282
  N      1.350186    0.014066   -1.004659
  C      2.094651   -0.989859   -0.971367
  O      2.138145   -1.976272   -0.004389
  C      3.121852   -2.865604   -0.390322
  C      3.662021   -2.466973   -1.537481
  N      4.666992   -3.009205   -2.323106
  O      3.024580   -1.279434   -1.927504
  H      0.678458    2.363926    0.189039
  H     -0.616681    1.857608   -0.902585
  H     -0.867772    1.800247    0.856076
  H      0.856507    0.003052    1.059156
  H     -0.438079   -0.490919   -0.022965
  H      3.311002   -3.712674    0.244117
  H      5.452203   -2.373155   -2.427864
  H      4.334943   -3.248606   -3.252905

 Total Charge           Charge          ....    0
 Multiplicity           Mult            ....    1
 Number of Electrons    NEL             ....   68
 Basis Dimension        Dim             ....  327

ORBITAL ENERGIES
----------------

  NO   OCC          E(Eh)            E(eV)
   0   2.0000     -20.628735      -561.3364
   1   2.0000     -20.624589      -561.2236
   2   2.0000     -15.589015      -424.1987
   3   2.0000     -15.531879      -422.6439
   4   2.0000     -11.394551      -310.0615
   5   2.0000     -11.340382      -308.5875
   6   2.0000     -11.304814      -307.6196
   7   2.0000     -11.246748      -306.0396
   8   2.0000     -11.202461      -304.8345
   9   2.0000      -1.519756       -41.3547
  10   2.0000      -1.400227       -38.1021
  11   2.0000      -1.243380       -33.8341
  12   2.0000      -1.213980       -33.0341
  13   2.0000      -1.033842       -28.1323
  14   2.0000      -0.993724       -27.0406
  15   2.0000      -0.866989       -23.5920
  16   2.0000      -0.853563       -23.2266
  17   2.0000      -0.805259       -21.9122
  18   2.0000      -0.734606       -19.9897
  19   2.0000      -0.719432       -19.5767
  20   2.0000      -0.677136       -18.4258
  21   2.0000      -0.675169       -18.3723
  22   2.0000      -0.651721       -17.7342
  23   2.0000      -0.609439       -16.5837
  24   2.0000      -0.607041       -16.5184
  25   2.0000      -0.578192       -15.7334
  26   2.0000      -0.568539       -15.4707
  27   2.0000      -0.521569       -14.1926
  28   2.0000      -0.519058       -14.1243
  29   2.0000      -0.499442       -13.5905
  30   2.0000      -0.462389       -12.5822
  31   2.0000      -0.424278       -11.5452
  32   2.0000      -0.414865       -11.2890
  33   2.0000      -0.331476        -9.0199
  34   0.0000       0.123470         3.3598
  35   0.0000       0.151262         4.1161
  36   0.0000       0.155201         4.2232
  37   0.0000       0.170171         4.6306
  38   0.0000       0.187353         5.0981

MULLIKEN ATOMIC CHARGES
-----------------------
   0 C :   -0.337665
   1 C :   -0.099441
   2 N :   -0.243396
   3 C :    0.297621
   4 O :   -0.242358
   5 C :   -0.047502
   6 C :    0.160038
   7 N :   -0.526694
   8 O :   -0.217886
   9 H :    0.118354
  10 H :    0.123693
  11 H :    0.115685
  12 H :    0.105726
  13 H :    0.109161
  14 H :    0.163612
  15 H :    0.260542
  16 H :    0.260509
Sum of atomic charges:   -0.0000000

LOEWDIN ATOMIC CHARGES
----------------------
   0 C :   -0.320316
   1 C :   -0.317208
   2 N :    0.082090
   3 C :   -0.450239
   4 O :    0.285720
   5 C :   -0.225237
   6 C :   -0.378602
   7 N :   -0.087278
   8 O :    0.303400
   9 H :    0.120515
  10 H :    0.121838
  11 H :    0.118469
  12 H :    0.124271
  13 H :    0.128477
  14 H :    0.143023
  15 H :    0.175535
  16 H :    0.175543

  Mayer bond orders larger than 0.1
B(  0-C ,  1-C ) :   0.9433 B(  0-C ,  9-H ) :   0.9350 B(  0-C , 10-H ) :   0.9375
B(  0-C , 11-H ) :   0.9364 B(  1-C ,  2-N ) :   0.8590 B(  1-C , 12-H ) :   0.9237
B(  1-C , 13-H ) :   0.9244 B(  2-N ,  3-C ) :   1.9610 B(  3-C ,  4-O ) :   1.0036
B(  3-C ,  8-O ) :   1.0632 B(  4-O ,  5-C ) :   0.9819 B(  5-C ,  6-C ) :   1.7426
B(  5-C , 14-H ) :   0.9188 B(  6-C ,  7-N ) :   1.1430 B(  6-C ,  8-O ) :   0.9619
B(  7-N , 15-H ) :   0.8736 B(  7-N , 16-H ) :   0.8732

MP2 TOTAL ENERGY:     -454.408223068 Eh
FINAL SINGLE POINT ENERGY      -454.408223068348

DIPOLE MOMENT
-------------
                                X             Y             Z
Electronic contribution:      5.62457      -6.08591      -2.73210
Nuclear contribution   :     -5.01431       5.28959       2.72902
                        -----------------------------------------
Total Dipole Moment    :      0.61027      -0.79631      -0.00308
                        -----------------------------------------
Magnitude (a.u.)       :      1.00327
Magnitude (Debye)      :      2.55011

                             ****ORCA TERMINATED NORMALLY****
TOTAL RUN TIME: 0 days 0 hours 13 minutes 5 seconds 12 msec
