                         Program Version 3.0.3 - RELEASE   -
|  1> ! RI-MP2 RIJK def2-TZVP def2-TZVP/C def2-TZVP/JK TIGHTSCF
|  2> % maxcore 2000
|  3> % mp2 density relaxed end
|  4> *xyz 0 1
|  5>  C        0.0056377761     1.5502317892    -0.0077746452
|  6>  C        1.3345840430     0.7939172130    -0.0238405077
|  7>  C        0.0424424662     0.0670309632     0.0849115299
|  8>  C       -0.5336775339    -0.9652109840     1.0236527791
|  9>  C       -1.7175599361    -1.1627674603     0.0237311554
| 10>  C       -1.5213992006    -2.6770811538    -0.0872934744
| 11>  C       -0.1174005453    -2.0734797369     0.0043848050
| 12>  N       -0.5158230360    -0.8922769164    -0.9329737134
| 13>  H       -0.2447360427     2.1258640601     0.8777230460
| 14>  H       -0.3280018033     1.9894967289    -0.9423263383
| 15>  H        1.8654822169     0.7411736620    -0.9688383871
| 16>  H        1.9734232710     0.8634834260     0.8509117877
| 17>  H       -0.5488854601    -1.0151644201     2.1172415716
| 18>  H       -2.6246386562    -0.5619432081    -0.0546457241
| 19>  H       -1.8564891886    -3.2837948991     0.7576246995
| 20>  H       -1.7903266976    -3.1292416255    -1.0454541086
| 21>  H        0.8607493221    -2.5456151653    -0.0967851553
| 22> *
| 23>
| 24>                          ****END OF INPUT****

CARTESIAN COORDINATES (ANGSTROEM)
---------------------------------
  C      0.005638    1.550232   -0.007775
  C      1.334584    0.793917   -0.023841
  C      0.042442    0.067031    0.084912
  C     -0.533678   -0.965211    1.023653
  C     -1.717560   -1.162767    0.023731
  C     -1.521399   -2.677081   -0.087293
  C     -0.117401   -2.073480    0.004385
  N     -0.515823   -0.892277   -0.932974
  H     -0.244736    2.125864    0.877723
  H     -0.328002    1.989497   -0.942326
  H      1.865482    0.741174   -0.968838
  H      1.973423    0.863483    0.850912
  H     -0.548885   -1.015164    2.117242
  H     -2.624639   -0.561943   -0.054646
  H     -1.856489   -3.283795    0.757625
  H     -1.790327   -3.129242   -1.045454
  H      0.860749   -2.545615   -0.096785

 Total Charge           Charge          ....    0
 Multiplicity           Mult            ....    1
 Number of Electrons    NEL             ....   58
 Basis Dimension        Dim             ....  302

ORBITAL ENERGIES
----------------

  NO   OCC          E(Eh)            E(eV)
   0   2.0000     -15.562810      -423.4856
   1   2.0000     -11.272901      -306.7512
   2   2.0000     -11.272832      -306.7494
   3   2.0000     -11.261812      -306.4495
   4   2.0000     -11.248335      -306.0828
   5   2.0000     -11.230435      -305.5957
   6   2.0000     -11.221229      -305.3452
   7   2.0000     -11.220635      -305.3290
   8   2.0000      -1.318064       -35.8664
   9   2.0000      -1.130464       -30.7615
  10   2.0000      -1.000536       -27.2260
  11   2.0000      -0.925275       -25.1780
  12   2.0000      -0.878521       -23.9058
  13   2.0000      -0.820154       -22.3175
  14   2.0000      -0.776876       -21.1399
  15   2.0000      -0.696098       -18.9418
  16   2.0000      -0.675845       -18.3907
  17   2.0000      -0.652963       -17.7680
  18   2.0000      -0.645575       -17.5670
  19   2.0000      -0.584948       -15.9172
  20   2.0000      -0.549659       -14.9570
  21   2.0000      -0.515221       -14.0199
  22   2.0000      -0.498418       -13.5627
  23   2.0000      -0.466978       -12.7071
  24   2.0000      -0.455988       -12.4081
  25   2.0000      -0.454306       -12.3623
  26   2.0000      -0.399247       -10.8641
  27   2.0000      -0.386717       -10.5231
  28   2.0000      -0.374932       -10.2024
  29   0.0000       0.154652         4.2083
  30   0.0000       0.159481         4.3397
  31   0.0000       0.160435         4.3657
  32   0.0000       0.180570         4.9136
  33   0.0000       0.190967         5.1965

MULLIKEN ATOMIC CHARGES
-----------------------
   0 C :   -0.284951
   1 C :   -0.284949
   2 C :    0.037431
   3 C :   -0.042399
   4 C :   -0.097464
   5 C :   -0.174327
   6 C :   -0.097464
   7 N :   -0.183967
   8 H :    0.127298
   9 H :    0.132936
  10 H :    0.132936
  11 H :    0.127297
  12 H :    0.112967
  13 H :    0.128852
  14 H :    0.118524
  15 H :    0.118427
  16 H :    0.128852
Sum of atomic charges:    0.0000000

LOEWDIN ATOMIC CHARGES
----------------------
   0 C :   -0.207677
   1 C :   -0.207678
   2 C :   -0.273285
   3 C :   -0.126433
   4 C :   -0.164836
   5 C :   -0.211507
   6 C :   -0.164835
   7 N :    0.170939
   8 H :    0.133629
   9 H :    0.138409
  10 H :    0.138409
  11 H :    0.133630
  12 H :    0.125419
  13 H :    0.125653
  14 H :    0.131631
  15 H :    0.132880
  16 H :    0.125652

  Mayer bond orders larger than 0.1
B(  0-C ,  1-C ) :   0.9560 B(  0-C ,  2-C ) :   0.8709 B(  0-C ,  8-H ) :   0.9183
B(  0-C ,  9-H ) :   0.9136 B(  1-C ,  2-C ) :   0.8709 B(  1-C , 10-H ) :   0.9136
B(  1-C , 11-H ) :   0.9183 B(  2-C ,  3-C ) :   0.8768 B(  2-C ,  7-N ) :   0.9388
B(  3-C ,  4-C ) :   0.9019 B(  3-C ,  6-C ) :   0.9019 B(  3-C , 12-H ) :   0.8942
B(  4-C ,  5-C ) :   0.9283 B(  4-C ,  7-N ) :   0.8963 B(  4-C , 13-H ) :   0.8950
B(  5-C ,  6-C ) :   0.9283 B(  5-C , 14-H ) :   0.9293 B(  5-C , 15-H ) :   0.9109
B(  6-C ,  7-N ) :   0.8963 B(  6-C , 16-H ) :   0.8950

MP2 TOTAL ENERGY:     -326.011624147 Eh
FINAL SINGLE POINT ENERGY      -326.011624147150

DIPOLE MOMENT
-------------
                                X             Y             Z
Electronic contribution:     -0.69093      -1.20045      -0.64461
Nuclear contribution   :      0.62862       1.07609       1.34553
                        -----------------------------------------
Total Dipole Moment    :     -0.06231      -0.12436       0.70092
                        -----------------------------------------
Magnitude (a.u.)       :      0.71458
Magnitude (Debye)      :      1.81633

                             ****ORCA TERMINATED NORMALLY****
TOTAL RUN TIME: 0 days 0 hours 13 minutes 13 seconds 667 msec
