                         Program Version 3.0.3 - RELEASE   -
|  1> ! RI-MP2 RIJK def2-TZVP def2-TZVP/C def2-TZVP/JK TIGHTSCF
|  2> % maxcore 2000
|  3> % mp2 density relaxed end
|  4> *xyz 0 1
|  5>  C       -0.1509927659     1.3141878380    -0.0528199246
|  6>  N        0.0879558382    -0.1199610433     0.0847342631
|  7>  C        1.4881816690    -0.4964364237    -0.1682302645
|  8>  C        0.9353532333    -0.4676070263     1.2283961965
|  9>  C        1.0165224329    -2.0166871738     1.3335039331
| 10>  C        1.7407789525    -2.5771771712     2.5343655576
| 11>  C       -0.1611519329    -2.8042440073     0.7003940701
| 12>  O        0.4717516557    -2.7919508264    -0.6061331698
| 13>  C        1.5884414200    -2.0429721068    -0.1061741049
| 14>  H        0.6964311481     1.9441133957     0.2671756845
| 15>  H       -0.3681733656     1.5390153184    -1.1014255128
| 16>  H       -1.0254682121     1.5881696082     0.5454608464
| 17>  H        2.1497583211     0.1966710698    -0.6756017933
| 18>  H        1.1033059211     0.2454411160     2.0283971558
| 19>  H        1.1307217872    -2.4868592463     3.4413320217
| 20>  H        1.9785885591    -3.6366118576     2.3941190871
| 21>  H        2.6800348823    -2.0420224546     2.7143981394
| 22>  H       -0.2655514477    -3.8300232890     1.0763240859
| 23>  H       -1.1311368041    -2.3007301200     0.6880882875
| 24>  H        2.5620162978    -2.4684805699    -0.3678311888
| 25> *
| 26>
| 27>                          ****END OF INPUT****

CARTESIAN COORDINATES (ANGSTROEM)
---------------------------------
  C     -0.150993    1.314188   -0.052820
  N      0.087956   -0.119961    0.084734
  C      1.488182   -0.496436   -0.168230
  C      0.935353   -0.467607    1.228396
  C      1.016522   -2.016687    1.333504
  C      1.740779   -2.577177    2.534366
  C     -0.161152   -2.804244    0.700394
  O      0.471752   -2.791951   -0.606133
  C      1.588441   -2.042972   -0.106174
  H      0.696431    1.944113    0.267176
  H     -0.368173    1.539015   -1.101426
  H     -1.025468    1.588170    0.545461
  H      2.149758    0.196671   -0.675602
  H      1.103306    0.245441    2.028397
  H      1.130722   -2.486859    3.441332
  H      1.978589   -3.636612    2.394119
  H      2.680035   -2.042022    2.714398
  H     -0.265551   -3.830023    1.076324
  H     -1.131137   -2.300730    0.688088
  H      2.562016   -2.468481   -0.367831

 Total Charge           Charge          ....    0
 Multiplicity           Mult            ....    1
 Number of Electrons    NEL             ....   68
 Basis Dimension        Dim             ....  345

ORBITAL ENERGIES
----------------

  NO   OCC          E(Eh)            E(eV)
   0   2.0000     -20.538275      -558.8749
   1   2.0000     -15.564504      -423.5317
   2   2.0000     -11.280023      -306.9450
   3   2.0000     -11.266648      -306.5811
   4   2.0000     -11.263405      -306.4928
   5   2.0000     -11.259683      -306.3916
   6   2.0000     -11.250070      -306.1300
   7   2.0000     -11.239918      -305.8537
   8   2.0000     -11.225743      -305.4680
   9   2.0000      -1.374481       -37.4015
  10   2.0000      -1.282499       -34.8986
  11   2.0000      -1.079091       -29.3636
  12   2.0000      -0.996968       -27.1289
  13   2.0000      -0.926499       -25.2113
  14   2.0000      -0.905118       -24.6295
  15   2.0000      -0.840370       -22.8676
  16   2.0000      -0.799329       -21.7509
  17   2.0000      -0.720532       -19.6067
  18   2.0000      -0.686717       -18.6865
  19   2.0000      -0.656116       -17.8538
  20   2.0000      -0.631658       -17.1883
  21   2.0000      -0.615054       -16.7365
  22   2.0000      -0.588150       -16.0044
  23   2.0000      -0.579883       -15.7794
  24   2.0000      -0.562570       -15.3083
  25   2.0000      -0.550102       -14.9690
  26   2.0000      -0.541624       -14.7383
  27   2.0000      -0.511089       -13.9074
  28   2.0000      -0.502714       -13.6795
  29   2.0000      -0.452788       -12.3210
  30   2.0000      -0.439217       -11.9517
  31   2.0000      -0.409837       -11.1522
  32   2.0000      -0.396494       -10.7892
  33   2.0000      -0.348327        -9.4785
  34   0.0000       0.134069         3.6482
  35   0.0000       0.146748         3.9932
  36   0.0000       0.165599         4.5062
  37   0.0000       0.184097         5.0095
  38   0.0000       0.191189         5.2025

MULLIKEN ATOMIC CHARGES
-----------------------
   0 C :   -0.330111
   1 N :   -0.195215
   2 C :   -0.091269
   3 C :   -0.237626
   4 C :    0.225075
   5 C :   -0.439526
   6 C :   -0.031864
   7 O :   -0.332178
   8 C :    0.074387
   9 H :    0.104523
  10 H :    0.147792
  11 H :    0.142439
  12 H :    0.131435
  13 H :    0.124968
  14 H :    0.137581
  15 H :    0.143194
  16 H :    0.134747
  17 H :    0.091992
  18 H :    0.099035
  19 H :    0.100621
Sum of atomic charges:   -0.0000000

LOEWDIN ATOMIC CHARGES
----------------------
   0 C :   -0.325787
   1 N :    0.118971
   2 C :   -0.190689
   3 C :   -0.181505
   4 C :   -0.228134
   5 C :   -0.273812
   6 C :   -0.222321
   7 O :    0.141201
   8 C :   -0.209820
   9 H :    0.106727
  10 H :    0.120815
  11 H :    0.119176
  12 H :    0.130791
  13 H :    0.133775
  14 H :    0.129740
  15 H :    0.130454
  16 H :    0.129780
  17 H :    0.117210
  18 H :    0.121979
  19 H :    0.131451

  Mayer bond orders larger than 0.1
B(  0-C ,  1-N ) :   0.8625 B(  0-C ,  9-H ) :   0.9211 B(  0-C , 10-H ) :   0.9410
B(  0-C , 11-H ) :   0.9404 B(  1-N ,  2-C ) :   0.8738 B(  1-N ,  3-C ) :   0.9592
B(  2-C ,  3-C ) :   0.8763 B(  2-C ,  8-C ) :   0.8649 B(  2-C , 12-H ) :   0.9127
B(  3-C ,  4-C ) :   0.8737 B(  3-C , 13-H ) :   0.9177 B(  4-C ,  5-C ) :   0.8841
B(  4-C ,  6-C ) :   0.9681 B(  4-C ,  8-C ) :   0.9702 B(  5-C , 14-H ) :   0.9364
B(  5-C , 15-H ) :   0.9437 B(  5-C , 16-H ) :   0.9340 B(  6-C ,  7-O ) :   0.9535
B(  6-C , 17-H ) :   0.9039 B(  6-C , 18-H ) :   0.8955 B(  7-O ,  8-C ) :   0.9872
B(  8-C , 19-H ) :   0.9312

MP2 TOTAL ENERGY:     -402.370345735 Eh
FINAL SINGLE POINT ENERGY      -402.370345735070

DIPOLE MOMENT
-------------
                                X             Y             Z
Electronic contribution:     -0.50767      -2.55416      -3.87946
Nuclear contribution   :      1.00594       3.18820       4.68060
                        -----------------------------------------
Total Dipole Moment    :      0.49827       0.63404       0.80114
                        -----------------------------------------
Magnitude (a.u.)       :      1.13671
Magnitude (Debye)      :      2.88928

                             ****ORCA TERMINATED NORMALLY****
TOTAL RUN TIME: 0 days 0 hours 20 minutes 25 seconds 754 msec
