                         Program Version 3.0.3 - RELEASE   -
|  1> ! RI-MP2 RIJK def2-TZVP def2-TZVP/C def2-TZVP/JK TIGHTSCF
|  2> % maxcore 2000
|  3> % mp2 density relaxed end
|  4> *xyz 0 1
|  5>  O        0.5363137632     0.7279273389     0.6501975050
|  6>  C        0.1440362463    -0.5023675733     0.0947428426
|  7>  C       -1.3549245351    -0.8232334759    -0.0780962505
|  8>  C       -2.3335824382    -1.2682065708     0.9605566526
|  9>  C       -2.4553134335     0.1084059725     0.3457194519
| 10>  C       -1.1123116332    -1.3602194073    -1.4990767299
| 11>  C        0.2850841850    -0.7287826344    -1.4220718365
| 12>  C        0.9256256494     0.2237697279    -2.3552475110
| 13>  N        1.4591528350    -1.1428315118    -2.1739182393
| 14>  H        0.0666952041     1.4200852734     0.1706027095
| 15>  H        0.6691475774    -1.2686367390     0.6776026516
| 16>  H       -3.0670061466    -2.0186961476     0.6830264618
| 17>  H       -1.9914343915    -1.3347033712     1.9888008560
| 18>  H       -2.1876410785     0.9583411453     0.9665662920
| 19>  H       -3.2679816686     0.2937418742    -0.3493525429
| 20>  H       -1.0735861977    -2.4528084081    -1.5513005736
| 21>  H       -1.7738795951    -0.9906372315    -2.2873019868
| 22>  H        0.4821350656     0.4160679923    -3.3288055053
| 23>  H        1.4789115495     1.0566487559    -1.9273119091
| 24>  H        2.2833480325    -1.1137197995    -1.5764981882
| 25> *
| 26>
| 27>                          ****END OF INPUT****

CARTESIAN COORDINATES (ANGSTROEM)
---------------------------------
  O      0.536314    0.727927    0.650198
  C      0.144036   -0.502368    0.094743
  C     -1.354925   -0.823233   -0.078096
  C     -2.333582   -1.268207    0.960557
  C     -2.455313    0.108406    0.345719
  C     -1.112312   -1.360219   -1.499077
  C      0.285084   -0.728783   -1.422072
  C      0.925626    0.223770   -2.355248
  N      1.459153   -1.142832   -2.173918
  H      0.066695    1.420085    0.170603
  H      0.669148   -1.268637    0.677603
  H     -3.067006   -2.018696    0.683026
  H     -1.991434   -1.334703    1.988801
  H     -2.187641    0.958341    0.966566
  H     -3.267982    0.293742   -0.349353
  H     -1.073586   -2.452808   -1.551301
  H     -1.773880   -0.990637   -2.287302
  H      0.482135    0.416068   -3.328806
  H      1.478912    1.056649   -1.927312
  H      2.283348   -1.113720   -1.576498

 Total Charge           Charge          ....    0
 Multiplicity           Mult            ....    1
 Number of Electrons    NEL             ....   68
 Basis Dimension        Dim             ....  345

ORBITAL ENERGIES
----------------

  NO   OCC          E(Eh)            E(eV)
   0   2.0000     -20.565221      -559.6081
   1   2.0000     -15.558100      -423.3574
   2   2.0000     -11.286342      -307.1170
   3   2.0000     -11.263975      -306.5083
   4   2.0000     -11.256230      -306.2976
   5   2.0000     -11.240574      -305.8716
   6   2.0000     -11.231374      -305.6212
   7   2.0000     -11.229050      -305.5580
   8   2.0000     -11.228380      -305.5398
   9   2.0000      -1.373741       -37.3814
  10   2.0000      -1.264493       -34.4086
  11   2.0000      -1.161338       -31.6016
  12   2.0000      -1.052171       -28.6310
  13   2.0000      -0.904933       -24.6245
  14   2.0000      -0.884808       -24.0769
  15   2.0000      -0.830293       -22.5934
  16   2.0000      -0.785301       -21.3691
  17   2.0000      -0.756048       -20.5731
  18   2.0000      -0.707865       -19.2620
  19   2.0000      -0.673606       -18.3298
  20   2.0000      -0.639681       -17.4066
  21   2.0000      -0.629559       -17.1312
  22   2.0000      -0.603320       -16.4172
  23   2.0000      -0.589898       -16.0519
  24   2.0000      -0.571548       -15.5526
  25   2.0000      -0.541599       -14.7377
  26   2.0000      -0.518683       -14.1141
  27   2.0000      -0.491630       -13.3779
  28   2.0000      -0.482317       -13.1245
  29   2.0000      -0.447577       -12.1792
  30   2.0000      -0.445143       -12.1130
  31   2.0000      -0.408469       -11.1150
  32   2.0000      -0.397171       -10.8076
  33   2.0000      -0.386056       -10.5051
  34   0.0000       0.138180         3.7601
  35   0.0000       0.144873         3.9422
  36   0.0000       0.156378         4.2553
  37   0.0000       0.168233         4.5779
  38   0.0000       0.177894         4.8407

MULLIKEN ATOMIC CHARGES
-----------------------
   0 O :   -0.455758
   1 C :    0.111091
   2 C :   -0.011404
   3 C :   -0.287463
   4 C :   -0.310032
   5 C :   -0.124645
   6 C :    0.033035
   7 C :   -0.233171
   8 N :   -0.378175
   9 H :    0.319127
  10 H :    0.105419
  11 H :    0.131282
  12 H :    0.132914
  13 H :    0.128860
  14 H :    0.130767
  15 H :    0.113134
  16 H :    0.119551
  17 H :    0.121733
  18 H :    0.129917
  19 H :    0.223819
Sum of atomic charges:    0.0000000

LOEWDIN ATOMIC CHARGES
----------------------
   0 O :   -0.001787
   1 C :   -0.260780
   2 C :   -0.212031
   3 C :   -0.206531
   4 C :   -0.209874
   5 C :   -0.150928
   6 C :   -0.279000
   7 C :   -0.243566
   8 N :    0.005963
   9 H :    0.176543
  10 H :    0.147845
  11 H :    0.135344
  12 H :    0.136928
  13 H :    0.132752
  14 H :    0.133135
  15 H :    0.142432
  16 H :    0.134586
  17 H :    0.125843
  18 H :    0.122821
  19 H :    0.170307

  Mayer bond orders larger than 0.1
B(  0-O ,  1-C ) :   0.9931 B(  0-O ,  9-H ) :   0.8354 B(  1-C ,  2-C ) :   0.9107
B(  1-C ,  6-C ) :   0.9302 B(  1-C , 10-H ) :   0.9141 B(  2-C ,  3-C ) :   0.8379
B(  2-C ,  4-C ) :   0.8351 B(  2-C ,  5-C ) :   0.8908 B(  3-C ,  4-C ) :   0.9528
B(  3-C , 11-H ) :   0.9255 B(  3-C , 12-H ) :   0.9254 B(  4-C , 13-H ) :   0.9197
B(  4-C , 14-H ) :   0.9241 B(  5-C ,  6-C ) :   0.8873 B(  5-C , 15-H ) :   0.8981
B(  5-C , 16-H ) :   0.9106 B(  6-C ,  7-C ) :   0.8898 B(  6-C ,  8-N ) :   0.9391
B(  7-C ,  8-N ) :   0.9679 B(  7-C , 17-H ) :   0.9144 B(  7-C , 18-H ) :   0.9200
B(  8-N , 19-H ) :   0.8697

MP2 TOTAL ENERGY:     -402.399640635 Eh
FINAL SINGLE POINT ENERGY      -402.399640635287

DIPOLE MOMENT
-------------
                                X             Y             Z
Electronic contribution:      3.25110       0.00048       0.02241
Nuclear contribution   :     -3.69102       0.37767      -0.00949
                        -----------------------------------------
Total Dipole Moment    :     -0.43993       0.37814       0.01292
                        -----------------------------------------
Magnitude (a.u.)       :      0.58025
Magnitude (Debye)      :      1.47489

                             ****ORCA TERMINATED NORMALLY****
TOTAL RUN TIME: 0 days 0 hours 17 minutes 18 seconds 690 msec
