                         Program Version 3.0.3 - RELEASE   -
|  1> ! RI-MP2 RIJK def2-TZVP def2-TZVP/C def2-TZVP/JK TIGHTSCF
|  2> % maxcore 2000
|  3> % mp2 density relaxed end
|  4> *xyz 0 1
|  5>  C       -0.1297216565     1.5290803981    -0.0192160035
|  6>  C       -0.0247393176     0.0159045884    -0.0311140747
|  7>  C        1.2774624099    -0.6038126037    -0.6510668759
|  8>  O        1.9784597141    -0.2440084184     0.5911071210
|  9>  C        0.7127363941    -0.6499263284     1.2017457810
| 10>  C        0.6422822133    -2.1458813191     0.8276655266
| 11>  C        1.0364311412    -2.1066328546    -0.4457266119
| 12>  C        0.5006309131    -0.2308723651     2.5708952462
| 13>  N        0.2871444253     0.1064205203     3.6550899392
| 14>  H        0.8217494206     1.9863818458     0.2597848886
| 15>  H       -0.4193634350     1.8963930065    -1.0093495942
| 16>  H       -0.8953429557     1.8567223659     0.6915176498
| 17>  H       -0.9620767138    -0.4671696292    -0.3152580395
| 18>  H        1.7514114206    -0.2306007713    -1.5564613210
| 19>  H        0.3375455403    -2.9550611618     1.4727730787
| 20>  H        1.1483545860    -2.8959705433    -1.1734814404
| 21> *
| 22>
| 23>                          ****END OF INPUT****

CARTESIAN COORDINATES (ANGSTROEM)
---------------------------------
  C     -0.129722    1.529080   -0.019216
  C     -0.024739    0.015905   -0.031114
  C      1.277462   -0.603813   -0.651067
  O      1.978460   -0.244008    0.591107
  C      0.712736   -0.649926    1.201746
  C      0.642282   -2.145881    0.827666
  C      1.036431   -2.106633   -0.445727
  C      0.500631   -0.230872    2.570895
  N      0.287144    0.106421    3.655090
  H      0.821749    1.986382    0.259785
  H     -0.419363    1.896393   -1.009350
  H     -0.895343    1.856722    0.691518
  H     -0.962077   -0.467170   -0.315258
  H      1.751411   -0.230601   -1.556461
  H      0.337546   -2.955061    1.472773
  H      1.148355   -2.895971   -1.173481

 Total Charge           Charge          ....    0
 Multiplicity           Mult            ....    1
 Number of Electrons    NEL             ....   64
 Basis Dimension        Dim             ....  321

ORBITAL ENERGIES
----------------

  NO   OCC          E(Eh)            E(eV)
   0   2.0000     -20.579297      -559.9912
   1   2.0000     -15.584866      -424.0858
   2   2.0000     -11.351489      -308.8897
   3   2.0000     -11.319793      -308.0272
   4   2.0000     -11.281650      -306.9893
   5   2.0000     -11.274469      -306.7939
   6   2.0000     -11.262924      -306.4797
   7   2.0000     -11.259463      -306.3856
   8   2.0000     -11.231662      -305.6291
   9   2.0000      -1.422328       -38.7035
  10   2.0000      -1.228029       -33.4164
  11   2.0000      -1.126954       -30.6660
  12   2.0000      -1.049174       -28.5495
  13   2.0000      -1.002908       -27.2905
  14   2.0000      -0.917431       -24.9646
  15   2.0000      -0.824018       -22.4227
  16   2.0000      -0.773733       -21.0543
  17   2.0000      -0.747078       -20.3290
  18   2.0000      -0.695742       -18.9321
  19   2.0000      -0.624241       -16.9865
  20   2.0000      -0.613580       -16.6964
  21   2.0000      -0.587486       -15.9863
  22   2.0000      -0.579170       -15.7600
  23   2.0000      -0.571242       -15.5443
  24   2.0000      -0.559242       -15.2177
  25   2.0000      -0.544040       -14.8041
  26   2.0000      -0.508018       -13.8239
  27   2.0000      -0.503617       -13.7041
  28   2.0000      -0.472437       -12.8557
  29   2.0000      -0.457093       -12.4381
  30   2.0000      -0.438604       -11.9350
  31   2.0000      -0.379005       -10.3133
  32   0.0000       0.108059         2.9404
  33   0.0000       0.133005         3.6193
  34   0.0000       0.144972         3.9449
  35   0.0000       0.155119         4.2210
  36   0.0000       0.161507         4.3948

MULLIKEN ATOMIC CHARGES
-----------------------
   0 C :   -0.450923
   1 C :    0.001951
   2 C :    0.017911
   3 O :   -0.286393
   4 C :    0.328301
   5 C :   -0.209642
   6 C :   -0.189373
   7 C :   -0.228355
   8 N :   -0.025993
   9 H :    0.164356
  10 H :    0.140353
  11 H :    0.149279
  12 H :    0.123491
  13 H :    0.155719
  14 H :    0.158579
  15 H :    0.150738
Sum of atomic charges:    0.0000000

LOEWDIN ATOMIC CHARGES
----------------------
   0 C :   -0.288363
   1 C :   -0.163338
   2 C :   -0.200767
   3 O :    0.192931
   4 C :   -0.264726
   5 C :   -0.086227
   6 C :   -0.114888
   7 C :   -0.133102
   8 N :    0.089810
   9 H :    0.136164
  10 H :    0.129938
  11 H :    0.133279
  12 H :    0.149265
  13 H :    0.137074
  14 H :    0.143424
  15 H :    0.139526

  Mayer bond orders larger than 0.1
B(  0-C ,  1-C ) :   0.9106 B(  0-C ,  9-H ) :   0.9359 B(  0-C , 10-H ) :   0.9306
B(  0-C , 11-H ) :   0.9282 B(  1-C ,  2-C ) :   0.9341 B(  1-C ,  4-C ) :   0.8543
B(  1-C , 12-H ) :   0.9042 B(  2-C ,  3-O ) :   0.8757 B(  2-C ,  6-C ) :   0.9564
B(  2-C , 13-H ) :   0.8945 B(  3-O ,  4-C ) :   0.9147 B(  4-C ,  5-C ) :   0.9128
B(  4-C ,  7-C ) :   0.8664 B(  5-C ,  6-C ) :   1.7753 B(  5-C , 14-H ) :   0.9220
B(  6-C , 15-H ) :   0.9234 B(  7-C ,  8-N ) :   2.8703

MP2 TOTAL ENERGY:     -400.017686498 Eh
FINAL SINGLE POINT ENERGY      -400.017686498245

DIPOLE MOMENT
-------------
                                X             Y             Z
Electronic contribution:      2.46346      -2.66798       5.26416
Nuclear contribution   :     -2.95727       2.15143      -6.96526
                        -----------------------------------------
Total Dipole Moment    :     -0.49381      -0.51655      -1.70110
                        -----------------------------------------
Magnitude (a.u.)       :      1.84510
Magnitude (Debye)      :      4.68988

                             ****ORCA TERMINATED NORMALLY****
TOTAL RUN TIME: 0 days 0 hours 17 minutes 33 seconds 18 msec
