                         Program Version 3.0.3 - RELEASE   -
|  1> ! RI-MP2 RIJK def2-TZVP def2-TZVP/C def2-TZVP/JK TIGHTSCF
|  2> % maxcore 2000
|  3> % mp2 density relaxed end
|  4> *xyz 0 1
|  5>  C       -0.0095209121     1.4165285154     0.0671806810
|  6>  N        0.0194280130    -0.0117003858    -0.1840189178
|  7>  C       -1.1899521182    -0.7057968148    -0.0461925987
|  8>  C       -2.4599334291    -0.1763003320     0.0117090234
|  9>  N       -3.3514244212    -1.2451542895     0.0443164406
| 10>  C       -2.6605433821    -2.4231844828     0.0418467736
| 11>  N       -3.3635573460    -3.6399780054     0.1626028851
| 12>  C       -1.3164139083    -2.1330290980    -0.0290199084
| 13>  H        1.0049486201     1.8179646113     0.0013382638
| 14>  H       -0.6139650091     1.9121994743    -0.7014093870
| 15>  H       -0.4340879186     1.6864491141     1.0495086102
| 16>  H        0.7735121162    -0.4724944929     0.3064398389
| 17>  H       -2.8116816029     0.8402846220    -0.0056133591
| 18>  H       -4.3271605632    -1.1778851823     0.2733078200
| 19>  H       -3.8657939835    -3.8781160910    -0.6882004781
| 20>  H       -2.7233711793    -4.3984730859     0.3624272215
| 21>  H       -0.5129986058    -2.8501757065    -0.1085290589
| 22> *
| 23>
| 24>                          ****END OF INPUT****

CARTESIAN COORDINATES (ANGSTROEM)
---------------------------------
  C     -0.009521    1.416529    0.067181
  N      0.019428   -0.011700   -0.184019
  C     -1.189952   -0.705797   -0.046193
  C     -2.459933   -0.176300    0.011709
  N     -3.351424   -1.245154    0.044316
  C     -2.660543   -2.423184    0.041847
  N     -3.363557   -3.639978    0.162603
  C     -1.316414   -2.133029   -0.029020
  H      1.004949    1.817965    0.001338
  H     -0.613965    1.912199   -0.701409
  H     -0.434088    1.686449    1.049509
  H      0.773512   -0.472494    0.306440
  H     -2.811682    0.840285   -0.005613
  H     -4.327161   -1.177885    0.273308
  H     -3.865794   -3.878116   -0.688200
  H     -2.723371   -4.398473    0.362427
  H     -0.512999   -2.850176   -0.108529

 Total Charge           Charge          ....    0
 Multiplicity           Mult            ....    1
 Number of Electrons    NEL             ....   60
 Basis Dimension        Dim             ....  302

ORBITAL ENERGIES
----------------

  NO   OCC          E(Eh)            E(eV)
   0   2.0000     -15.582409      -424.0189
   1   2.0000     -15.564754      -423.5385
   2   2.0000     -15.546534      -423.0427
   3   2.0000     -11.286874      -307.1315
   4   2.0000     -11.241755      -305.9037
   5   2.0000     -11.241719      -305.9027
   6   2.0000     -11.222314      -305.3747
   7   2.0000     -11.192096      -304.5524
   8   2.0000      -1.290635       -35.1200
   9   2.0000      -1.211373       -32.9631
  10   2.0000      -1.179469       -32.0950
  11   2.0000      -1.023479       -27.8503
  12   2.0000      -0.942242       -25.6397
  13   2.0000      -0.905259       -24.6333
  14   2.0000      -0.777161       -21.1476
  15   2.0000      -0.753741       -20.5103
  16   2.0000      -0.722954       -19.6726
  17   2.0000      -0.667833       -18.1727
  18   2.0000      -0.644187       -17.5292
  19   2.0000      -0.605423       -16.4744
  20   2.0000      -0.596759       -16.2386
  21   2.0000      -0.576939       -15.6993
  22   2.0000      -0.570257       -15.5175
  23   2.0000      -0.553493       -15.0613
  24   2.0000      -0.520015       -14.1503
  25   2.0000      -0.511312       -13.9135
  26   2.0000      -0.450079       -12.2473
  27   2.0000      -0.423328       -11.5193
  28   2.0000      -0.310204        -8.4411
  29   2.0000      -0.261950        -7.1280
  30   0.0000       0.132008         3.5921
  31   0.0000       0.148444         4.0394
  32   0.0000       0.158907         4.3241
  33   0.0000       0.171092         4.6557
  34   0.0000       0.180533         4.9126

MULLIKEN ATOMIC CHARGES
-----------------------
   0 C :   -0.299749
   1 N :   -0.334263
   2 C :    0.207909
   3 C :   -0.227509
   4 N :   -0.279438
   5 C :    0.224108
   6 N :   -0.541718
   7 C :   -0.361874
   8 H :    0.135458
   9 H :    0.132086
  10 H :    0.118059
  11 H :    0.221025
  12 H :    0.141434
  13 H :    0.241807
  14 H :    0.251723
  15 H :    0.249563
  16 H :    0.121381
Sum of atomic charges:    0.0000000

LOEWDIN ATOMIC CHARGES
----------------------
   0 C :   -0.339053
   1 N :    0.019270
   2 C :   -0.268892
   3 C :   -0.248776
   4 N :    0.176464
   5 C :   -0.343321
   6 N :   -0.115597
   7 C :   -0.183559
   8 H :    0.115575
   9 H :    0.116883
  10 H :    0.102633
  11 H :    0.178417
  12 H :    0.130312
  13 H :    0.188868
  14 H :    0.165426
  15 H :    0.169512
  16 H :    0.135841

  Mayer bond orders larger than 0.1
B(  0-C ,  1-N ) :   0.9362 B(  0-C ,  8-H ) :   0.9376 B(  0-C ,  9-H ) :   0.9346
B(  0-C , 10-H ) :   0.9292 B(  1-N ,  2-C ) :   1.0314 B(  1-N , 11-H ) :   0.8772
B(  2-C ,  3-C ) :   1.4951 B(  2-C ,  7-C ) :   1.2206 B(  3-C ,  4-N ) :   1.0642
B(  3-C , 12-H ) :   0.9103 B(  4-N ,  5-C ) :   1.1528 B(  4-N , 13-H ) :   0.8690
B(  5-C ,  6-N ) :   1.0241 B(  5-C ,  7-C ) :   1.5099 B(  6-N , 14-H ) :   0.8736
B(  6-N , 15-H ) :   0.8897 B(  7-C , 16-H ) :   0.9110

MP2 TOTAL ENERGY:     -359.439047357 Eh
FINAL SINGLE POINT ENERGY      -359.439047356864

DIPOLE MOMENT
-------------
                                X             Y             Z
Electronic contribution:     -2.66801      -3.44882      -0.31411
Nuclear contribution   :      2.44424       3.25374       0.35557
                        -----------------------------------------
Total Dipole Moment    :     -0.22377      -0.19507       0.04146
                        -----------------------------------------
Magnitude (a.u.)       :      0.29974
Magnitude (Debye)      :      0.76188

                             ****ORCA TERMINATED NORMALLY****
TOTAL RUN TIME: 0 days 0 hours 12 minutes 25 seconds 892 msec
