                         Program Version 3.0.3 - RELEASE   -
|  1> ! RI-MP2 RIJK def2-TZVP def2-TZVP/C def2-TZVP/JK TIGHTSCF
|  2> % maxcore 2000
|  3> % mp2 density relaxed end
|  4> *xyz 0 1
|  5>  O       -0.1387345034     1.3241278276    -0.0068154413
|  6>  N        0.0148560721    -0.0747066411    -0.0117838933
|  7>  C       -1.1008221315    -0.6598837849     0.0774935871
|  8>  C       -2.5782986452    -0.2940580778     0.0314116828
|  9>  C       -2.7350016160    -1.6046497866    -0.7955933899
| 10>  C       -1.4950667444    -2.1194143542     0.0146043425
| 11>  N       -1.9659623349    -2.5172891131     1.3609655915
| 12>  C       -2.7522205769    -1.6747461042     1.8902929348
| 13>  O       -3.1518447094    -0.4972567438     1.3462595262
| 14>  H        0.7723963402     1.6273748284    -0.0858872589
| 15>  H       -2.9223523583     0.6717297006    -0.3274161435
| 16>  H       -3.6661252196    -2.1613588771    -0.6722768015
| 17>  H       -2.5084336360    -1.4358237568    -1.8493723218
| 18>  H       -0.8212906466    -2.8654011175    -0.4003885771
| 19>  H       -3.1974157701    -1.8306092597     2.8692894423
| 20> *
| 21>
| 22>                          ****END OF INPUT****

CARTESIAN COORDINATES (ANGSTROEM)
---------------------------------
  O     -0.138735    1.324128   -0.006815
  N      0.014856   -0.074707   -0.011784
  C     -1.100822   -0.659884    0.077494
  C     -2.578299   -0.294058    0.031412
  C     -2.735002   -1.604650   -0.795593
  C     -1.495067   -2.119414    0.014604
  N     -1.965962   -2.517289    1.360966
  C     -2.752221   -1.674746    1.890293
  O     -3.151845   -0.497257    1.346260
  H      0.772396    1.627375   -0.085887
  H     -2.922352    0.671730   -0.327416
  H     -3.666125   -2.161359   -0.672277
  H     -2.508434   -1.435824   -1.849372
  H     -0.821291   -2.865401   -0.400389
  H     -3.197416   -1.830609    2.869289

 Total Charge           Charge          ....    0
 Multiplicity           Mult            ....    1
 Number of Electrons    NEL             ....   66
 Basis Dimension        Dim             ....  315

ORBITAL ENERGIES
----------------

  NO   OCC          E(Eh)            E(eV)
   0   2.0000     -20.613225      -560.9144
   1   2.0000     -20.601021      -560.5823
   2   2.0000     -15.630910      -425.3387
   3   2.0000     -15.561373      -423.4465
   4   2.0000     -11.343791      -308.6802
   5   2.0000     -11.323213      -308.1203
   6   2.0000     -11.289571      -307.2048
   7   2.0000     -11.287386      -307.1454
   8   2.0000     -11.255170      -306.2687
   9   2.0000      -1.449991       -39.4562
  10   2.0000      -1.426288       -38.8113
  11   2.0000      -1.242127       -33.8000
  12   2.0000      -1.181263       -32.1438
  13   2.0000      -1.102936       -30.0124
  14   2.0000      -0.919651       -25.0250
  15   2.0000      -0.898317       -24.4444
  16   2.0000      -0.848014       -23.0756
  17   2.0000      -0.745799       -20.2942
  18   2.0000      -0.719474       -19.5779
  19   2.0000      -0.695004       -18.9120
  20   2.0000      -0.660967       -17.9858
  21   2.0000      -0.651405       -17.7256
  22   2.0000      -0.627205       -17.0671
  23   2.0000      -0.620441       -16.8831
  24   2.0000      -0.590280       -16.0623
  25   2.0000      -0.561830       -15.2882
  26   2.0000      -0.558264       -15.1911
  27   2.0000      -0.523053       -14.2330
  28   2.0000      -0.503757       -13.7079
  29   2.0000      -0.459831       -12.5126
  30   2.0000      -0.420942       -11.4544
  31   2.0000      -0.396417       -10.7871
  32   2.0000      -0.386110       -10.5066
  33   0.0000       0.137592         3.7441
  34   0.0000       0.141294         3.8448
  35   0.0000       0.145958         3.9717
  36   0.0000       0.159364         4.3365
  37   0.0000       0.179565         4.8862

MULLIKEN ATOMIC CHARGES
-----------------------
   0 O :   -0.358337
   1 N :   -0.060518
   2 C :   -0.113471
   3 C :    0.104069
   4 C :   -0.267903
   5 C :    0.098692
   6 N :   -0.280786
   7 C :    0.087788
   8 O :   -0.263310
   9 H :    0.340879
  10 H :    0.148633
  11 H :    0.139634
  12 H :    0.141245
  13 H :    0.135949
  14 H :    0.147435
Sum of atomic charges:   -0.0000000

LOEWDIN ATOMIC CHARGES
----------------------
   0 O :   -0.072764
   1 N :    0.039898
   2 C :   -0.253599
   3 C :   -0.203559
   4 C :   -0.182081
   5 C :   -0.203849
   6 N :    0.099561
   7 C :   -0.346789
   8 O :    0.245231
   9 H :    0.171604
  10 H :    0.143238
  11 H :    0.138297
  12 H :    0.146708
  13 H :    0.141753
  14 H :    0.136353

  Mayer bond orders larger than 0.1
B(  0-O ,  1-N ) :   0.8032 B(  0-O ,  9-H ) :   0.8410 B(  1-N ,  2-C ) :   1.9013
B(  2-C ,  3-C ) :   0.8998 B(  2-C ,  5-C ) :   0.9497 B(  3-C ,  4-C ) :   0.9355
B(  3-C ,  8-O ) :   0.8326 B(  3-C , 10-H ) :   0.9109 B(  4-C ,  5-C ) :   0.9497
B(  4-C , 11-H ) :   0.9064 B(  4-C , 12-H ) :   0.9228 B(  5-C ,  6-N ) :   0.8787
B(  5-C , 13-H ) :   0.9224 B(  6-N ,  7-C ) :   1.8447 B(  7-C ,  8-O ) :   1.0698
B(  7-C , 14-H ) :   0.9209

MP2 TOTAL ENERGY:     -453.137374682 Eh
FINAL SINGLE POINT ENERGY      -453.137374682286

DIPOLE MOMENT
-------------
                                X             Y             Z
Electronic contribution:      1.48020       1.25368       2.22306
Nuclear contribution   :     -1.72798      -0.88619      -2.85966
                        -----------------------------------------
Total Dipole Moment    :     -0.24778       0.36749      -0.63660
                        -----------------------------------------
Magnitude (a.u.)       :      0.77570
Magnitude (Debye)      :      1.97166

                             ****ORCA TERMINATED NORMALLY****
TOTAL RUN TIME: 0 days 0 hours 14 minutes 30 seconds 460 msec
