                         Program Version 3.0.3 - RELEASE   -
|  1> ! RI-MP2 RIJK def2-TZVP def2-TZVP/C def2-TZVP/JK TIGHTSCF
|  2> % maxcore 2000
|  3> % mp2 density relaxed end
|  4> *xyz 0 1
|  5>  C        1.0238915241     0.8862284321     0.6135470172
|  6>  N        0.2333171012    -0.2673649385     0.2096337031
|  7>  C        0.2881358300    -0.8602831725    -1.0328356465
|  8>  C       -0.6049916921    -1.8972942209    -0.9989151037
|  9>  N       -1.2144004526    -1.9587993946     0.2265663235
| 10>  C       -0.6891627339    -0.9761064714     0.9355414031
| 11>  C       -1.0868254127    -0.7487399649     2.3401559587
| 12>  C       -0.1669951925    -0.4381120131     3.4479466951
| 13>  O       -1.0135910292     0.5742620969     2.8985188618
| 14>  H        2.0242416541     0.5852052610     0.9439074258
| 15>  H        1.1296650583     1.5649925019    -0.2358750434
| 16>  H        0.5107955554     1.4045997186     1.4218597482
| 17>  H        0.9349342628    -0.4766733726    -1.8052461697
| 18>  H       -0.8506109284    -2.5911275727    -1.7884027569
| 19>  H       -1.9974757674    -1.2934980388     2.5794095415
| 20>  H       -0.4195023525    -0.7601913375     4.4568169755
| 21>  H        0.8970045654    -0.3185183930     3.2507221868
| 22> *
| 23>
| 24>                          ****END OF INPUT****

CARTESIAN COORDINATES (ANGSTROEM)
---------------------------------
  C      1.023892    0.886228    0.613547
  N      0.233317   -0.267365    0.209634
  C      0.288136   -0.860283   -1.032836
  C     -0.604992   -1.897294   -0.998915
  N     -1.214400   -1.958799    0.226566
  C     -0.689163   -0.976106    0.935541
  C     -1.086825   -0.748740    2.340156
  C     -0.166995   -0.438112    3.447947
  O     -1.013591    0.574262    2.898519
  H      2.024242    0.585205    0.943907
  H      1.129665    1.564993   -0.235875
  H      0.510796    1.404600    1.421860
  H      0.934934   -0.476673   -1.805246
  H     -0.850611   -2.591128   -1.788403
  H     -1.997476   -1.293498    2.579410
  H     -0.419502   -0.760191    4.456817
  H      0.897005   -0.318518    3.250722

 Total Charge           Charge          ....    0
 Multiplicity           Mult            ....    1
 Number of Electrons    NEL             ....   66
 Basis Dimension        Dim             ....  327

ORBITAL ENERGIES
----------------

  NO   OCC          E(Eh)            E(eV)
   0   2.0000     -20.585081      -560.1485
   1   2.0000     -15.621423      -425.0805
   2   2.0000     -15.542508      -422.9331
   3   2.0000     -11.306871      -307.6756
   4   2.0000     -11.299392      -307.4721
   5   2.0000     -11.298748      -307.4546
   6   2.0000     -11.276824      -306.8580
   7   2.0000     -11.255203      -306.2697
   8   2.0000     -11.239854      -305.8520
   9   2.0000      -1.426585       -38.8193
  10   2.0000      -1.343151       -36.5490
  11   2.0000      -1.184367       -32.2283
  12   2.0000      -1.034408       -28.1477
  13   2.0000      -0.975977       -26.5577
  14   2.0000      -0.936513       -25.4838
  15   2.0000      -0.883413       -24.0389
  16   2.0000      -0.811661       -22.0864
  17   2.0000      -0.766067       -20.8457
  18   2.0000      -0.717780       -19.5318
  19   2.0000      -0.694385       -18.8952
  20   2.0000      -0.649626       -17.6772
  21   2.0000      -0.645316       -17.5599
  22   2.0000      -0.607489       -16.5306
  23   2.0000      -0.594714       -16.1830
  24   2.0000      -0.568861       -15.4795
  25   2.0000      -0.561615       -15.2823
  26   2.0000      -0.546398       -14.8682
  27   2.0000      -0.543335       -14.7849
  28   2.0000      -0.471128       -12.8201
  29   2.0000      -0.466886       -12.7046
  30   2.0000      -0.435565       -11.8523
  31   2.0000      -0.385639       -10.4938
  32   2.0000      -0.311240        -8.4693
  33   0.0000       0.131299         3.5728
  34   0.0000       0.141490         3.8501
  35   0.0000       0.168595         4.5877
  36   0.0000       0.174570         4.7503
  37   0.0000       0.186463         5.0739

MULLIKEN ATOMIC CHARGES
-----------------------
   0 C :   -0.371574
   1 N :   -0.026309
   2 C :   -0.119910
   3 C :   -0.103768
   4 N :   -0.281999
   5 C :    0.164257
   6 C :   -0.052825
   7 C :   -0.063027
   8 O :   -0.334492
   9 H :    0.152849
  10 H :    0.155095
  11 H :    0.197039
  12 H :    0.148240
  13 H :    0.133964
  14 H :    0.147152
  15 H :    0.131059
  16 H :    0.124246
Sum of atomic charges:    0.0000000

LOEWDIN ATOMIC CHARGES
----------------------
   0 C :   -0.267568
   1 N :    0.252274
   2 C :   -0.222771
   3 C :   -0.260949
   4 N :    0.115903
   5 C :   -0.298750
   6 C :   -0.251475
   7 C :   -0.259563
   8 O :    0.141185
   9 H :    0.121109
  10 H :    0.127289
  11 H :    0.135663
  12 H :    0.136635
  13 H :    0.132855
  14 H :    0.156178
  15 H :    0.122506
  16 H :    0.119478

  Mayer bond orders larger than 0.1
B(  0-C ,  1-N ) :   0.8466 B(  0-C ,  9-H ) :   0.9277 B(  0-C , 10-H ) :   0.9303
B(  0-C , 11-H ) :   0.9160 B(  1-N ,  2-C ) :   1.1181 B(  1-N ,  5-C ) :   1.1866
B(  2-C ,  3-C ) :   1.4959 B(  2-C , 12-H ) :   0.9100 B(  3-C ,  4-N ) :   1.2839
B(  3-C , 13-H ) :   0.9413 B(  4-N ,  5-C ) :   1.5338 B(  5-C ,  6-C ) :   0.9210
B(  6-C ,  7-C ) :   0.9614 B(  6-C ,  8-O ) :   0.9164 B(  6-C , 14-H ) :   0.9296
B(  7-C ,  8-O ) :   0.8714 B(  7-C , 15-H ) :   0.9248 B(  7-C , 16-H ) :   0.9150

MP2 TOTAL ENERGY:     -417.306968870 Eh
FINAL SINGLE POINT ENERGY      -417.306968869684

DIPOLE MOMENT
-------------
                                X             Y             Z
Electronic contribution:     -3.42524      -2.04277      -0.66263
Nuclear contribution   :      4.65257       2.61677       0.73367
                        -----------------------------------------
Total Dipole Moment    :      1.22734       0.57400       0.07103
                        -----------------------------------------
Magnitude (a.u.)       :      1.35679
Magnitude (Debye)      :      3.44868

                             ****ORCA TERMINATED NORMALLY****
TOTAL RUN TIME: 0 days 0 hours 16 minutes 25 seconds 578 msec
