                         Program Version 3.0.3 - RELEASE   -
|  1> ! RI-MP2 RIJK def2-TZVP def2-TZVP/C def2-TZVP/JK TIGHTSCF
|  2> % maxcore 2000
|  3> % mp2 density relaxed end
|  4> *xyz 0 1
|  5>  C       -0.0292321888     1.5291536895     0.0701916166
|  6>  C       -0.0217592486     0.0269658256    -0.0196799946
|  7>  C       -0.0156517616    -0.6180716335    -1.1889116410
|  8>  C        0.0207927949    -2.1169628400    -1.3321662499
|  9>  C        0.3961686309    -2.8164001241    -0.0185450018
| 10>  C       -0.3655079373    -2.2037705604     1.1636249694
| 11>  C       -0.1028299407    -2.9670934748     2.4569905777
| 12>  O       -0.8869793293    -2.3867957108     3.4910333210
| 13>  C       -0.0160961109    -0.7134113186     1.2996134709
| 14>  H        0.8329874396     1.8949676898     0.6435879353
| 15>  H       -0.0013649395     1.9958473880    -0.9183585283
| 16>  H       -0.9230819980     1.8905361048     0.5951971303
| 17>  H       -0.0384155754    -0.0415063299    -2.1121326226
| 18>  H       -0.9584758120    -2.4788661483    -1.6814553721
| 19>  H        0.7300387318    -2.3970966835    -2.1217459012
| 20>  H        0.1959643038    -3.8918713063    -0.0928339675
| 21>  H        1.4753252248    -2.7067911690     0.1556546437
| 22>  H       -1.4422028898    -2.2817740373     0.9558409662
| 23>  H       -0.3596238572    -4.0297222403     2.3160110204
| 24>  H        0.9723555435    -2.9188874752     2.7005648490
| 25>  H       -0.6843704222    -2.8406643464     4.3138241528
| 26>  H        0.9762946235    -0.6085628422     1.7681935459
| 27>  H       -0.7122048113    -0.2367760272     1.9987031598
| 28> *
| 29>
| 30>                          ****END OF INPUT****

CARTESIAN COORDINATES (ANGSTROEM)
---------------------------------
  C     -0.029232    1.529154    0.070192
  C     -0.021759    0.026966   -0.019680
  C     -0.015652   -0.618072   -1.188912
  C      0.020793   -2.116963   -1.332166
  C      0.396169   -2.816400   -0.018545
  C     -0.365508   -2.203771    1.163625
  C     -0.102830   -2.967093    2.456991
  O     -0.886979   -2.386796    3.491033
  C     -0.016096   -0.713411    1.299613
  H      0.832987    1.894968    0.643588
  H     -0.001365    1.995847   -0.918359
  H     -0.923082    1.890536    0.595197
  H     -0.038416   -0.041506   -2.112133
  H     -0.958476   -2.478866   -1.681455
  H      0.730039   -2.397097   -2.121746
  H      0.195964   -3.891871   -0.092834
  H      1.475325   -2.706791    0.155655
  H     -1.442203   -2.281774    0.955841
  H     -0.359624   -4.029722    2.316011
  H      0.972356   -2.918887    2.700565
  H     -0.684370   -2.840664    4.313824
  H      0.976295   -0.608563    1.768194
  H     -0.712205   -0.236776    1.998703

 Total Charge           Charge          ....    0
 Multiplicity           Mult            ....    1
 Number of Electrons    NEL             ....   70
 Basis Dimension        Dim             ....  363

ORBITAL ENERGIES
----------------

  NO   OCC          E(Eh)            E(eV)
   0   2.0000     -20.553468      -559.2883
   1   2.0000     -11.271637      -306.7168
   2   2.0000     -11.222514      -305.3801
   3   2.0000     -11.219949      -305.3103
   4   2.0000     -11.218720      -305.2769
   5   2.0000     -11.216813      -305.2250
   6   2.0000     -11.213019      -305.1218
   7   2.0000     -11.212540      -305.1087
   8   2.0000     -11.208117      -304.9884
   9   2.0000      -1.357490       -36.9392
  10   2.0000      -1.124487       -30.5988
  11   2.0000      -1.042531       -28.3687
  12   2.0000      -1.009908       -27.4810
  13   2.0000      -0.922885       -25.1130
  14   2.0000      -0.904051       -24.6005
  15   2.0000      -0.830354       -22.5951
  16   2.0000      -0.780035       -21.2258
  17   2.0000      -0.696397       -18.9499
  18   2.0000      -0.689971       -18.7751
  19   2.0000      -0.646030       -17.5794
  20   2.0000      -0.619991       -16.8708
  21   2.0000      -0.599482       -16.3127
  22   2.0000      -0.580940       -15.8082
  23   2.0000      -0.579968       -15.7817
  24   2.0000      -0.562109       -15.2958
  25   2.0000      -0.547466       -14.8973
  26   2.0000      -0.523359       -14.2413
  27   2.0000      -0.511879       -13.9289
  28   2.0000      -0.505060       -13.7434
  29   2.0000      -0.493571       -13.4308
  30   2.0000      -0.460015       -12.5176
  31   2.0000      -0.450694       -12.2640
  32   2.0000      -0.438548       -11.9335
  33   2.0000      -0.427924       -11.6444
  34   2.0000      -0.328128        -8.9288
  35   0.0000       0.132854         3.6151
  36   0.0000       0.145397         3.9565
  37   0.0000       0.157120         4.2755
  38   0.0000       0.162106         4.4111
  39   0.0000       0.176174         4.7939

MULLIKEN ATOMIC CHARGES
-----------------------
   0 C :   -0.416185
   1 C :    0.069027
   2 C :   -0.237991
   3 C :   -0.129038
   4 C :   -0.265854
   5 C :   -0.007007
   6 C :   -0.081227
   7 O :   -0.467138
   8 C :   -0.269308
   9 H :    0.130743
  10 H :    0.128398
  11 H :    0.135074
  12 H :    0.108130
  13 H :    0.111360
  14 H :    0.121253
  15 H :    0.119251
  16 H :    0.106786
  17 H :    0.087689
  18 H :    0.099173
  19 H :    0.092981
  20 H :    0.314214
  21 H :    0.105317
  22 H :    0.144353
Sum of atomic charges:   -0.0000000

LOEWDIN ATOMIC CHARGES
----------------------
   0 C :   -0.274135
   1 C :   -0.196775
   2 C :   -0.158273
   3 C :   -0.254387
   4 C :   -0.233072
   5 C :   -0.254540
   6 C :   -0.330588
   7 O :   -0.047422
   8 C :   -0.200275
   9 H :    0.128511
  10 H :    0.126321
  11 H :    0.128309
  12 H :    0.140801
  13 H :    0.142909
  14 H :    0.141186
  15 H :    0.136609
  16 H :    0.141409
  17 H :    0.160010
  18 H :    0.116670
  19 H :    0.116432
  20 H :    0.171458
  21 H :    0.147690
  22 H :    0.151152

  Mayer bond orders larger than 0.1
B(  0-C ,  1-C ) :   0.8947 B(  0-C ,  9-H ) :   0.9287 B(  0-C , 10-H ) :   0.9453
B(  0-C , 11-H ) :   0.9345 B(  1-C ,  2-C ) :   1.7633 B(  1-C ,  8-C ) :   0.9254
B(  2-C ,  3-C ) :   0.9528 B(  2-C , 12-H ) :   0.9273 B(  3-C ,  4-C ) :   0.9544
B(  3-C , 13-H ) :   0.9105 B(  3-C , 14-H ) :   0.9295 B(  4-C ,  5-C ) :   0.9066
B(  4-C , 15-H ) :   0.9321 B(  4-C , 16-H ) :   0.9187 B(  5-C ,  6-C ) :   0.9200
B(  5-C ,  8-C ) :   0.9534 B(  5-C , 17-H ) :   0.9198 B(  6-C ,  7-O ) :   1.0295
B(  6-C , 18-H ) :   0.9364 B(  6-C , 19-H ) :   0.9201 B(  7-O , 20-H ) :   0.8487
B(  8-C , 21-H ) :   0.8993 B(  8-C , 22-H ) :   0.9310

MP2 TOTAL ENERGY:     -387.637728884 Eh
FINAL SINGLE POINT ENERGY      -387.637728883952

DIPOLE MOMENT
-------------
                                X             Y             Z
Electronic contribution:     -1.33875      -1.23443       1.90843
Nuclear contribution   :      1.68601       0.76845      -1.71116
                        -----------------------------------------
Total Dipole Moment    :      0.34726      -0.46598       0.19727
                        -----------------------------------------
Magnitude (a.u.)       :      0.61371
Magnitude (Debye)      :      1.55992

                             ****ORCA TERMINATED NORMALLY****
TOTAL RUN TIME: 0 days 0 hours 21 minutes 24 seconds 74 msec
