                         Program Version 3.0.3 - RELEASE   -
|  1> ! RI-MP2 RIJK def2-TZVP def2-TZVP/C def2-TZVP/JK TIGHTSCF
|  2> % maxcore 2000
|  3> % mp2 density relaxed end
|  4> *xyz 0 1
|  5>  C       -0.0808989182     1.6105752719    -0.0747119470
|  6>  C        0.1148735068     0.0951081448    -0.1022305883
|  7>  C        1.0711445789    -0.4235655357    -1.1962953923
|  8>  C        1.3301194474    -1.8843543564    -0.7873548140
|  9>  C        1.4008007245    -1.8691763810     0.7547035818
| 10>  C        0.9433259713    -3.1713306082     1.3962794417
| 11>  C        2.7373879547    -1.2916356931     1.3206859542
| 12>  C        2.0137272233     0.0163604679     1.7395676157
| 13>  C        0.6674488796    -0.5409653989     1.1884426876
| 14>  H        0.8636946335     2.1373662067     0.0972406405
| 15>  H       -0.4878661004     1.9702482972    -1.0260350026
| 16>  H       -0.7765750611     1.9090531319     0.7171315948
| 17>  H       -0.8661145170    -0.3681267067    -0.2848843295
| 18>  H        0.6549556882    -0.3266112481    -2.2038880731
| 19>  H        2.0057426479     0.1529183557    -1.1813020232
| 20>  H        0.4862792597    -2.5081747368    -1.1094209411
| 21>  H        2.2328161035    -2.3086890822    -1.2404332448
| 22>  H        1.5822565480    -4.0089913648     1.0902393836
| 23>  H        0.9796262337    -3.1129057243     2.4899576589
| 24>  H       -0.0857101261    -3.4177511474     1.1088767210
| 25>  H        3.1463528122    -1.8686467306     2.1548045729
| 26>  H        3.5310867303    -1.1652154372     0.5779487318
| 27>  H        2.0109622796     0.2098871353     2.8148756936
| 28>  H        2.3790199744     0.9188150068     1.2426757379
| 29>  H       -0.1068554648    -0.6531487968     1.9526012497
| 30> *
| 31>
| 32>                          ****END OF INPUT****

CARTESIAN COORDINATES (ANGSTROEM)
---------------------------------
  C     -0.080899    1.610575   -0.074712
  C      0.114874    0.095108   -0.102231
  C      1.071145   -0.423566   -1.196295
  C      1.330119   -1.884354   -0.787355
  C      1.400801   -1.869176    0.754704
  C      0.943326   -3.171331    1.396279
  C      2.737388   -1.291636    1.320686
  C      2.013727    0.016360    1.739568
  C      0.667449   -0.540965    1.188443
  H      0.863695    2.137366    0.097241
  H     -0.487866    1.970248   -1.026035
  H     -0.776575    1.909053    0.717132
  H     -0.866115   -0.368127   -0.284884
  H      0.654956   -0.326611   -2.203888
  H      2.005743    0.152918   -1.181302
  H      0.486279   -2.508175   -1.109421
  H      2.232816   -2.308689   -1.240433
  H      1.582257   -4.008991    1.090239
  H      0.979626   -3.112906    2.489958
  H     -0.085710   -3.417751    1.108877
  H      3.146353   -1.868647    2.154805
  H      3.531087   -1.165215    0.577949
  H      2.010962    0.209887    2.814876
  H      2.379020    0.918815    1.242676
  H     -0.106855   -0.653149    1.952601

 Total Charge           Charge          ....    0
 Multiplicity           Mult            ....    1
 Number of Electrons    NEL             ....   70
 Basis Dimension        Dim             ....  375

ORBITAL ENERGIES
----------------

  NO   OCC          E(Eh)            E(eV)
   0   2.0000     -11.221698      -305.3579
   1   2.0000     -11.218097      -305.2599
   2   2.0000     -11.212378      -305.1043
   3   2.0000     -11.211009      -305.0671
   4   2.0000     -11.210569      -305.0551
   5   2.0000     -11.210114      -305.0427
   6   2.0000     -11.209434      -305.0242
   7   2.0000     -11.208150      -304.9893
   8   2.0000     -11.207939      -304.9835
   9   2.0000      -1.153586       -31.3907
  10   2.0000      -1.047621       -28.5072
  11   2.0000      -1.005890       -27.3717
  12   2.0000      -0.956760       -26.0348
  13   2.0000      -0.899851       -24.4862
  14   2.0000      -0.855049       -23.2671
  15   2.0000      -0.829333       -22.5673
  16   2.0000      -0.753451       -20.5024
  17   2.0000      -0.694024       -18.8854
  18   2.0000      -0.659402       -17.9432
  19   2.0000      -0.613257       -16.6876
  20   2.0000      -0.603163       -16.4129
  21   2.0000      -0.583755       -15.8848
  22   2.0000      -0.572496       -15.5784
  23   2.0000      -0.559091       -15.2136
  24   2.0000      -0.552059       -15.0223
  25   2.0000      -0.545528       -14.8446
  26   2.0000      -0.509846       -13.8736
  27   2.0000      -0.496564       -13.5122
  28   2.0000      -0.480662       -13.0795
  29   2.0000      -0.458254       -12.4697
  30   2.0000      -0.449858       -12.2413
  31   2.0000      -0.439020       -11.9463
  32   2.0000      -0.431496       -11.7416
  33   2.0000      -0.403132       -10.9698
  34   2.0000      -0.397344       -10.8123
  35   0.0000       0.132540         3.6066
  36   0.0000       0.148136         4.0310
  37   0.0000       0.157300         4.2803
  38   0.0000       0.166020         4.5176
  39   0.0000       0.183873         5.0034

MULLIKEN ATOMIC CHARGES
-----------------------
   0 C :   -0.388611
   1 C :   -0.112128
   2 C :   -0.241891
   3 C :   -0.270610
   4 C :    0.176494
   5 C :   -0.436446
   6 C :   -0.277342
   7 C :   -0.269774
   8 C :   -0.016806
   9 H :    0.116807
  10 H :    0.131023
  11 H :    0.130818
  12 H :    0.080783
  13 H :    0.121791
  14 H :    0.108593
  15 H :    0.105898
  16 H :    0.121124
  17 H :    0.131428
  18 H :    0.128150
  19 H :    0.124978
  20 H :    0.112249
  21 H :    0.103147
  22 H :    0.110990
  23 H :    0.109813
  24 H :    0.099525
Sum of atomic charges:    0.0000000

LOEWDIN ATOMIC CHARGES
----------------------
   0 C :   -0.294833
   1 C :   -0.257629
   2 C :   -0.230956
   3 C :   -0.216737
   4 C :   -0.243806
   5 C :   -0.279413
   6 C :   -0.198643
   7 C :   -0.218114
   8 C :   -0.156851
   9 H :    0.120414
  10 H :    0.123434
  11 H :    0.123823
  12 H :    0.154679
  13 H :    0.132619
  14 H :    0.137692
  15 H :    0.139892
  16 H :    0.134987
  17 H :    0.126355
  18 H :    0.124349
  19 H :    0.123953
  20 H :    0.129893
  21 H :    0.128667
  22 H :    0.128022
  23 H :    0.127509
  24 H :    0.140694

  Mayer bond orders larger than 0.1
B(  0-C ,  1-C ) :   0.9126 B(  0-C ,  9-H ) :   0.9317 B(  0-C , 10-H ) :   0.9411
B(  0-C , 11-H ) :   0.9424 B(  1-C ,  2-C ) :   0.9335 B(  1-C ,  8-C ) :   0.9051
B(  1-C , 12-H ) :   0.9250 B(  2-C ,  3-C ) :   0.9416 B(  2-C , 13-H ) :   0.9283
B(  2-C , 14-H ) :   0.9250 B(  3-C ,  4-C ) :   0.9121 B(  3-C , 15-H ) :   0.9292
B(  3-C , 16-H ) :   0.9247 B(  4-C ,  5-C ) :   0.8709 B(  4-C ,  6-C ) :   0.9174
B(  4-C ,  8-C ) :   0.9023 B(  5-C , 17-H ) :   0.9415 B(  5-C , 18-H ) :   0.9406
B(  5-C , 19-H ) :   0.9390 B(  6-C ,  7-C ) :   0.9926 B(  6-C , 20-H ) :   0.9151
B(  6-C , 21-H ) :   0.9070 B(  7-C ,  8-C ) :   0.9418 B(  7-C , 22-H ) :   0.9169
B(  7-C , 23-H ) :   0.9196 B(  8-C , 24-H ) :   0.9045

MP2 TOTAL ENERGY:     -351.729118633 Eh
FINAL SINGLE POINT ENERGY      -351.729118632539

DIPOLE MOMENT
-------------
                                X             Y             Z
Electronic contribution:      0.40847      -0.69128       0.26112
Nuclear contribution   :     -0.47348       0.66979      -0.27411
                        -----------------------------------------
Total Dipole Moment    :     -0.06501      -0.02149      -0.01299
                        -----------------------------------------
Magnitude (a.u.)       :      0.06970
Magnitude (Debye)      :      0.17715

                             ****ORCA TERMINATED NORMALLY****
TOTAL RUN TIME: 0 days 0 hours 24 minutes 21 seconds 211 msec
