                         Program Version 3.0.3 - RELEASE   -
|  1> ! RI-MP2 RIJK def2-TZVP def2-TZVP/C def2-TZVP/JK TIGHTSCF
|  2> % maxcore 2000
|  3> % mp2 density relaxed end
|  4> *xyz 0 1
|  5>  C       -0.0999497170     1.3889735867     0.0525788908
|  6>  O        0.3215074296     0.0642679030    -0.1925278583
|  7>  C        0.8073519663    -0.5792092597     0.9597097147
|  8>  C       -0.1726511820    -1.1829195268     2.0063798221
|  9>  N        0.4787561895    -2.5367642173     1.8945363528
| 10>  C        0.2945146404    -2.9980622915     0.5034151374
| 11>  C       -0.9643455309    -2.8231187466    -0.3175163449
| 12>  C        1.3439755601    -1.9837409837     0.7504436144
| 13>  H        0.7214825253     2.0074182421     0.4469986630
| 14>  H       -0.4315165309     1.8070314567    -0.9005841969
| 15>  H       -0.9354720530     1.4307549613     0.7673499544
| 16>  H        1.5538413775     0.0589354723     1.4547799944
| 17>  H       -0.0419838344    -0.7933811658     3.0176394148
| 18>  H       -1.2352785448    -1.1673956429     1.7488183559
| 19>  H        0.7108341010    -4.0016363424     0.4218318595
| 20>  H       -1.2618716690    -1.7808499891    -0.4228326452
| 21>  H       -0.7912341150    -3.2154702980    -1.3249297537
| 22>  H       -1.7903340751    -3.3937053321     0.1223844770
| 23>  H        2.4006446824    -2.2204829061     0.6721576377
| 24> *
| 25>
| 26>                          ****END OF INPUT****

CARTESIAN COORDINATES (ANGSTROEM)
---------------------------------
  C     -0.099950    1.388974    0.052579
  O      0.321507    0.064268   -0.192528
  C      0.807352   -0.579209    0.959710
  C     -0.172651   -1.182920    2.006380
  N      0.478756   -2.536764    1.894536
  C      0.294515   -2.998062    0.503415
  C     -0.964346   -2.823119   -0.317516
  C      1.343976   -1.983741    0.750444
  H      0.721483    2.007418    0.446999
  H     -0.431517    1.807031   -0.900584
  H     -0.935472    1.430755    0.767350
  H      1.553841    0.058935    1.454780
  H     -0.041984   -0.793381    3.017639
  H     -1.235279   -1.167396    1.748818
  H      0.710834   -4.001636    0.421832
  H     -1.261872   -1.780850   -0.422833
  H     -0.791234   -3.215470   -1.324930
  H     -1.790334   -3.393705    0.122384
  H      2.400645   -2.220483    0.672158

 Total Charge           Charge          ....    0
 Multiplicity           Mult            ....    1
 Number of Electrons    NEL             ....   62
 Basis Dimension        Dim             ....  314

ORBITAL ENERGIES
----------------

  NO   OCC          E(Eh)            E(eV)
   0   2.0000     -20.561747      -559.5136
   1   2.0000     -15.557533      -423.3420
   2   2.0000     -11.288430      -307.1738
   3   2.0000     -11.277005      -306.8629
   4   2.0000     -11.259971      -306.3994
   5   2.0000     -11.255645      -306.2817
   6   2.0000     -11.251292      -306.1632
   7   2.0000     -11.215007      -305.1759
   8   2.0000      -1.385214       -37.6936
   9   2.0000      -1.280136       -34.8343
  10   2.0000      -1.021640       -27.8002
  11   2.0000      -0.975255       -26.5380
  12   2.0000      -0.942975       -25.6597
  13   2.0000      -0.894199       -24.3324
  14   2.0000      -0.773586       -21.0503
  15   2.0000      -0.753383       -20.5006
  16   2.0000      -0.706489       -19.2246
  17   2.0000      -0.659128       -17.9358
  18   2.0000      -0.643311       -17.5054
  19   2.0000      -0.624883       -17.0039
  20   2.0000      -0.591109       -16.0849
  21   2.0000      -0.584055       -15.8929
  22   2.0000      -0.563901       -15.3445
  23   2.0000      -0.543361       -14.7856
  24   2.0000      -0.523136       -14.2352
  25   2.0000      -0.505758       -13.7624
  26   2.0000      -0.472838       -12.8666
  27   2.0000      -0.449317       -12.2265
  28   2.0000      -0.429385       -11.6842
  29   2.0000      -0.410203       -11.1622
  30   2.0000      -0.367569       -10.0021
  31   0.0000       0.136071         3.7027
  32   0.0000       0.158912         4.3242
  33   0.0000       0.161871         4.4047
  34   0.0000       0.181580         4.9411
  35   0.0000       0.193964         5.2780

MULLIKEN ATOMIC CHARGES
-----------------------
   0 C :   -0.225224
   1 O :   -0.311420
   2 C :    0.064815
   3 C :   -0.184753
   4 N :   -0.233622
   5 C :   -0.001293
   6 C :   -0.395461
   7 C :   -0.081782
   8 H :    0.115692
   9 H :    0.143630
  10 H :    0.116584
  11 H :    0.087110
  12 H :    0.126222
  13 H :    0.120754
  14 H :    0.113021
  15 H :    0.149985
  16 H :    0.133419
  17 H :    0.131427
  18 H :    0.130896
Sum of atomic charges:    0.0000000

LOEWDIN ATOMIC CHARGES
----------------------
   0 C :   -0.356225
   1 O :    0.156451
   2 C :   -0.314234
   3 C :   -0.235032
   4 N :    0.111099
   5 C :   -0.272317
   6 C :   -0.296941
   7 C :   -0.175424
   8 H :    0.103459
   9 H :    0.114544
  10 H :    0.102482
  11 H :    0.138649
  12 H :    0.126878
  13 H :    0.124970
  14 H :    0.152757
  15 H :    0.127287
  16 H :    0.132037
  17 H :    0.126828
  18 H :    0.132730

  Mayer bond orders larger than 0.1
B(  0-C ,  1-O ) :   0.9053 B(  0-C ,  8-H ) :   0.9348 B(  0-C ,  9-H ) :   0.9400
B(  0-C , 10-H ) :   0.9352 B(  1-O ,  2-C ) :   0.9624 B(  2-C ,  3-C ) :   0.9733
B(  2-C ,  7-C ) :   0.9224 B(  2-C , 11-H ) :   0.9278 B(  3-C ,  4-N ) :   0.9391
B(  3-C , 12-H ) :   0.9165 B(  3-C , 13-H ) :   0.9276 B(  4-N ,  5-C ) :   0.9092
B(  4-N ,  7-C ) :   0.8575 B(  5-C ,  6-C ) :   0.8783 B(  5-C ,  7-C ) :   0.9508
B(  5-C , 14-H ) :   0.9330 B(  6-C , 15-H ) :   0.9331 B(  6-C , 16-H ) :   0.9295
B(  6-C , 17-H ) :   0.9345 B(  7-C , 18-H ) :   0.9015

MP2 TOTAL ENERGY:     -364.380150004 Eh
FINAL SINGLE POINT ENERGY      -364.380150003503

DIPOLE MOMENT
-------------
                                X             Y             Z
Electronic contribution:      3.17393      -1.93783       1.22018
Nuclear contribution   :     -3.33363       2.58141      -1.39708
                        -----------------------------------------
Total Dipole Moment    :     -0.15970       0.64359      -0.17690
                        -----------------------------------------
Magnitude (a.u.)       :      0.68629
Magnitude (Debye)      :      1.74442

                             ****ORCA TERMINATED NORMALLY****
TOTAL RUN TIME: 0 days 0 hours 13 minutes 34 seconds 492 msec
