                         Program Version 3.0.3 - RELEASE   -
|  1> ! RI-MP2 RIJK def2-TZVP def2-TZVP/C def2-TZVP/JK TIGHTSCF
|  2> % maxcore 2000
|  3> % mp2 density relaxed end
|  4> *xyz 0 1
|  5>  C        0.4153165930     1.3814086391    -0.4591769518
|  6>  C       -0.0157053794    -0.0286347293    -0.0091429846
|  7>  C       -1.5237176022    -0.0351374191     0.2699219733
|  8>  C        0.3695244061    -1.0725815235    -1.0844477644
|  9>  C        1.8766933734    -1.3468166658    -0.8840645500
| 10>  C        2.1681832924    -0.9973848614     0.6022639360
| 11>  C        0.8170772103    -0.5401153152     1.2024037613
| 12>  C        0.9628363226     0.4181624117     2.3752746972
| 13>  O        1.6031852591    -0.2915243807     3.4304814586
| 14>  H        1.4911215839     1.4448219398    -0.6503492816
| 15>  H       -0.1009964950     1.6579164102    -1.3850167827
| 16>  H        0.1664556085     2.1390266726     0.2912547409
| 17>  H       -2.0901015392     0.2351225373    -0.6286056359
| 18>  H       -1.8614385703    -1.0264237470     0.5913604422
| 19>  H       -1.7954130637     0.6813801312     1.0529663918
| 20>  H       -0.2040946933    -1.9903565364    -0.9063890791
| 21>  H        0.1259069831    -0.7361671108    -2.0977311875
| 22>  H        2.1304201014    -2.3830677423    -1.1236861548
| 23>  H        2.4765730511    -0.7209349573    -1.5518255181
| 24>  H        2.5821436154    -1.8392820202     1.1607504843
| 25>  H        2.9063107935    -0.1908102290     0.6746561583
| 26>  H        0.2980367633    -1.4266897880     1.5920577495
| 27>  H        1.5602555829     1.2938542212     2.0764459353
| 28>  H       -0.0255311692     0.7862207325     2.6953541313
| 29>  H        1.7408194621     0.3181293103     4.1611614905
| 30> *
| 31>
| 32>                          ****END OF INPUT****

CARTESIAN COORDINATES (ANGSTROEM)
---------------------------------
  C      0.415317    1.381409   -0.459177
  C     -0.015705   -0.028635   -0.009143
  C     -1.523718   -0.035137    0.269922
  C      0.369524   -1.072582   -1.084448
  C      1.876693   -1.346817   -0.884065
  C      2.168183   -0.997385    0.602264
  C      0.817077   -0.540115    1.202404
  C      0.962836    0.418162    2.375275
  O      1.603185   -0.291524    3.430481
  H      1.491122    1.444822   -0.650349
  H     -0.100996    1.657916   -1.385017
  H      0.166456    2.139027    0.291255
  H     -2.090102    0.235123   -0.628606
  H     -1.861439   -1.026424    0.591360
  H     -1.795413    0.681380    1.052966
  H     -0.204095   -1.990357   -0.906389
  H      0.125907   -0.736167   -2.097731
  H      2.130420   -2.383068   -1.123686
  H      2.476573   -0.720935   -1.551826
  H      2.582144   -1.839282    1.160750
  H      2.906311   -0.190810    0.674656
  H      0.298037   -1.426690    1.592058
  H      1.560256    1.293854    2.076446
  H     -0.025531    0.786221    2.695354
  H      1.740819    0.318129    4.161161

 Total Charge           Charge          ....    0
 Multiplicity           Mult            ....    1
 Number of Electrons    NEL             ....   72
 Basis Dimension        Dim             ....  375

ORBITAL ENERGIES
----------------

  NO   OCC          E(Eh)            E(eV)
   0   2.0000     -20.551017      -559.2216
   1   2.0000     -11.269162      -306.6495
   2   2.0000     -11.228651      -305.5471
   3   2.0000     -11.214660      -305.1664
   4   2.0000     -11.210783      -305.0609
   5   2.0000     -11.210456      -305.0520
   6   2.0000     -11.209748      -305.0328
   7   2.0000     -11.209028      -305.0132
   8   2.0000     -11.206672      -304.9491
   9   2.0000      -1.354290       -36.8521
  10   2.0000      -1.133405       -30.8415
  11   2.0000      -1.017667       -27.6921
  12   2.0000      -0.993546       -27.0358
  13   2.0000      -0.929342       -25.2887
  14   2.0000      -0.898482       -24.4489
  15   2.0000      -0.854972       -23.2650
  16   2.0000      -0.764954       -20.8155
  17   2.0000      -0.726158       -19.7598
  18   2.0000      -0.682569       -18.5736
  19   2.0000      -0.646395       -17.5893
  20   2.0000      -0.623906       -16.9773
  21   2.0000      -0.617621       -16.8063
  22   2.0000      -0.591776       -16.1030
  23   2.0000      -0.583508       -15.8781
  24   2.0000      -0.553377       -15.0581
  25   2.0000      -0.547664       -14.9027
  26   2.0000      -0.530826       -14.4445
  27   2.0000      -0.522358       -14.2141
  28   2.0000      -0.503622       -13.7042
  29   2.0000      -0.466344       -12.6899
  30   2.0000      -0.461029       -12.5452
  31   2.0000      -0.451573       -12.2879
  32   2.0000      -0.447782       -12.1848
  33   2.0000      -0.439983       -11.9725
  34   2.0000      -0.433670       -11.8008
  35   2.0000      -0.425353       -11.5744
  36   0.0000       0.129986         3.5371
  37   0.0000       0.143732         3.9111
  38   0.0000       0.156933         4.2704
  39   0.0000       0.165830         4.5125
  40   0.0000       0.184902         5.0314

MULLIKEN ATOMIC CHARGES
-----------------------
   0 C :   -0.477157
   1 C :    0.147777
   2 C :   -0.405937
   3 C :   -0.248463
   4 C :   -0.223612
   5 C :   -0.267347
   6 C :   -0.032900
   7 C :   -0.126673
   8 O :   -0.464731
   9 H :    0.140343
  10 H :    0.133487
  11 H :    0.133442
  12 H :    0.131481
  13 H :    0.130579
  14 H :    0.124624
  15 H :    0.108115
  16 H :    0.117429
  17 H :    0.117607
  18 H :    0.116796
  19 H :    0.130447
  20 H :    0.111232
  21 H :    0.085828
  22 H :    0.105167
  23 H :    0.099960
  24 H :    0.312507
Sum of atomic charges:   -0.0000000

LOEWDIN ATOMIC CHARGES
----------------------
   0 C :   -0.266180
   1 C :   -0.297329
   2 C :   -0.272913
   3 C :   -0.217198
   4 C :   -0.252239
   5 C :   -0.226002
   6 C :   -0.217919
   7 C :   -0.328852
   8 O :   -0.046339
   9 H :    0.127672
  10 H :    0.126367
  11 H :    0.124101
  12 H :    0.126018
  13 H :    0.125256
  14 H :    0.121751
  15 H :    0.139612
  16 H :    0.134203
  17 H :    0.131256
  18 H :    0.131793
  19 H :    0.136431
  20 H :    0.135521
  21 H :    0.160871
  22 H :    0.117346
  23 H :    0.116459
  24 H :    0.170313

  Mayer bond orders larger than 0.1
B(  0-C ,  1-C ) :   0.8929 B(  0-C ,  9-H ) :   0.9339 B(  0-C , 10-H ) :   0.9356
B(  0-C , 11-H ) :   0.9384 B(  1-C ,  2-C ) :   0.9104 B(  1-C ,  3-C ) :   0.8894
B(  1-C ,  6-C ) :   0.8710 B(  2-C , 12-H ) :   0.9388 B(  2-C , 13-H ) :   0.9336
B(  2-C , 14-H ) :   0.9352 B(  3-C ,  4-C ) :   0.9467 B(  3-C , 15-H ) :   0.9254
B(  3-C , 16-H ) :   0.9287 B(  4-C ,  5-C ) :   0.9201 B(  4-C , 17-H ) :   0.9336
B(  4-C , 18-H ) :   0.9362 B(  5-C ,  6-C ) :   0.9407 B(  5-C , 19-H ) :   0.9360
B(  5-C , 20-H ) :   0.9295 B(  6-C ,  7-C ) :   0.8924 B(  6-C , 21-H ) :   0.9224
B(  7-C ,  8-O ) :   1.0351 B(  7-C , 22-H ) :   0.9282 B(  7-C , 23-H ) :   0.9398
B(  8-O , 24-H ) :   0.8496

MP2 TOTAL ENERGY:     -388.844337583 Eh
FINAL SINGLE POINT ENERGY      -388.844337583340

DIPOLE MOMENT
-------------
                                X             Y             Z
Electronic contribution:      2.27489      -1.68552       4.37250
Nuclear contribution   :     -2.41004       2.22761      -4.33344
                        -----------------------------------------
Total Dipole Moment    :     -0.13515       0.54209       0.03906
                        -----------------------------------------
Magnitude (a.u.)       :      0.56004
Magnitude (Debye)      :      1.42352

                             ****ORCA TERMINATED NORMALLY****
TOTAL RUN TIME: 0 days 0 hours 22 minutes 59 seconds 68 msec
