                         Program Version 3.0.3 - RELEASE   -
|  1> ! RI-MP2 RIJK def2-TZVP def2-TZVP/C def2-TZVP/JK TIGHTSCF
|  2> % maxcore 2000
|  3> % mp2 density relaxed end
|  4> *xyz 0 1
|  5>  C       -0.0117093275     1.5675577739     0.0008200574
|  6>  C       -0.0211630680     0.0361094922    -0.0080631651
|  7>  O       -1.3723261826    -0.4426248827     0.0607112332
|  8>  C        0.6710409753    -0.5126748150    -1.2717322673
|  9>  C        0.6925227305    -2.0520806079    -1.3018298259
| 10>  C        1.2876172754    -2.6349706782    -0.0269823429
| 11>  O        2.1445682369    -3.4882415923    -0.0372814143
| 12>  C        0.7050906721    -2.0645091970     1.2574394470
| 13>  C        0.6716788740    -0.5242561034     1.2436498514
| 14>  H        1.0095093444     1.9616975793    -0.0001350571
| 15>  H       -0.5197813225     1.9637972505    -0.8867505894
| 16>  H       -0.5297401636     1.9454034281     0.8868985840
| 17>  H       -1.8551299233    -0.0748609755    -0.6873095461
| 18>  H        0.1606005121    -0.1303270492    -2.1652143463
| 19>  H        1.6961461547    -0.1242367041    -1.3131695821
| 20>  H       -0.3418405377    -2.4118414766    -1.3719121048
| 21>  H        1.2487214740    -2.4363112672    -2.1597798914
| 22>  H       -0.3253694299    -2.4310962323     1.3428637068
| 23>  H        1.2765688558    -2.4494939024     2.1050987667
| 24>  H        1.6935165333    -0.1291443266     1.2816461202
| 25>  H        0.1509118766    -0.1577792335     2.1341280558
| 26> *
| 27>
| 28>                          ****END OF INPUT****

CARTESIAN COORDINATES (ANGSTROEM)
---------------------------------
  C     -0.011709    1.567558    0.000820
  C     -0.021163    0.036109   -0.008063
  O     -1.372326   -0.442625    0.060711
  C      0.671041   -0.512675   -1.271732
  C      0.692523   -2.052081   -1.301830
  C      1.287617   -2.634971   -0.026982
  O      2.144568   -3.488242   -0.037281
  C      0.705091   -2.064509    1.257439
  C      0.671679   -0.524256    1.243650
  H      1.009509    1.961698   -0.000135
  H     -0.519781    1.963797   -0.886751
  H     -0.529740    1.945403    0.886899
  H     -1.855130   -0.074861   -0.687310
  H      0.160601   -0.130327   -2.165214
  H      1.696146   -0.124237   -1.313170
  H     -0.341841   -2.411841   -1.371912
  H      1.248721   -2.436311   -2.159780
  H     -0.325369   -2.431096    1.342864
  H      1.276569   -2.449494    2.105099
  H      1.693517   -0.129144    1.281646
  H      0.150912   -0.157779    2.134128

 Total Charge           Charge          ....    0
 Multiplicity           Mult            ....    1
 Number of Electrons    NEL             ....   70
 Basis Dimension        Dim             ....  351

ORBITAL ENERGIES
----------------

  NO   OCC          E(Eh)            E(eV)
   0   2.0000     -20.564363      -559.5848
   1   2.0000     -20.537131      -558.8437
   2   2.0000     -11.320315      -308.0414
   3   2.0000     -11.298480      -307.4473
   4   2.0000     -11.239892      -305.8530
   5   2.0000     -11.234897      -305.7171
   6   2.0000     -11.232870      -305.6619
   7   2.0000     -11.229300      -305.5648
   8   2.0000     -11.228437      -305.5413
   9   2.0000      -1.380134       -37.5554
  10   2.0000      -1.372883       -37.3581
  11   2.0000      -1.115126       -30.3441
  12   2.0000      -1.027299       -27.9542
  13   2.0000      -1.022245       -27.8167
  14   2.0000      -0.919196       -25.0126
  15   2.0000      -0.868401       -23.6304
  16   2.0000      -0.793862       -21.6021
  17   2.0000      -0.733502       -19.9596
  18   2.0000      -0.673157       -18.3175
  19   2.0000      -0.661931       -18.0120
  20   2.0000      -0.637507       -17.3475
  21   2.0000      -0.628326       -17.0976
  22   2.0000      -0.617258       -16.7965
  23   2.0000      -0.605402       -16.4738
  24   2.0000      -0.573445       -15.6042
  25   2.0000      -0.554732       -15.0950
  26   2.0000      -0.542104       -14.7514
  27   2.0000      -0.540021       -14.6947
  28   2.0000      -0.527009       -14.3407
  29   2.0000      -0.505741       -13.7619
  30   2.0000      -0.501869       -13.6565
  31   2.0000      -0.480924       -13.0866
  32   2.0000      -0.458779       -12.4840
  33   2.0000      -0.440342       -11.9823
  34   2.0000      -0.393591       -10.7101
  35   0.0000       0.109709         2.9853
  36   0.0000       0.149698         4.0735
  37   0.0000       0.155579         4.2335
  38   0.0000       0.163334         4.4445
  39   0.0000       0.171482         4.6663

MULLIKEN ATOMIC CHARGES
-----------------------
   0 C :   -0.387644
   1 C :    0.190605
   2 O :   -0.479795
   3 C :   -0.317152
   4 C :   -0.159214
   5 C :    0.132794
   6 O :   -0.276462
   7 C :   -0.197574
   8 C :   -0.246305
   9 H :    0.130490
  10 H :    0.124277
  11 H :    0.147481
  12 H :    0.312607
  13 H :    0.123377
  14 H :    0.126339
  15 H :    0.116736
  16 H :    0.137377
  17 H :    0.136814
  18 H :    0.135791
  19 H :    0.124517
  20 H :    0.124942
Sum of atomic charges:    0.0000000

LOEWDIN ATOMIC CHARGES
----------------------
   0 C :   -0.277891
   1 C :   -0.404129
   2 O :    0.005904
   3 C :   -0.225408
   4 C :   -0.225077
   5 C :   -0.323287
   6 O :    0.145039
   7 C :   -0.222267
   8 C :   -0.213942
   9 H :    0.129254
  10 H :    0.123251
  11 H :    0.129584
  12 H :    0.175118
  13 H :    0.139431
  14 H :    0.147267
  15 H :    0.154770
  16 H :    0.144913
  17 H :    0.159020
  18 H :    0.145337
  19 H :    0.146808
  20 H :    0.146304

  Mayer bond orders larger than 0.1
B(  0-C ,  1-C ) :   0.9139 B(  0-C ,  9-H ) :   0.9326 B(  0-C , 10-H ) :   0.9237
B(  0-C , 11-H ) :   0.9457 B(  1-C ,  2-O ) :   0.9142 B(  1-C ,  3-C ) :   0.9418
B(  1-C ,  8-C ) :   0.8967 B(  2-O , 12-H ) :   0.8424 B(  3-C ,  4-C ) :   0.9006
B(  3-C , 13-H ) :   0.9174 B(  3-C , 14-H ) :   0.9271 B(  4-C ,  5-C ) :   0.9243
B(  4-C , 15-H ) :   0.8959 B(  4-C , 16-H ) :   0.9191 B(  5-C ,  6-O ) :   2.0434
B(  5-C ,  7-C ) :   0.9231 B(  7-C ,  8-C ) :   0.9135 B(  7-C , 17-H ) :   0.8983
B(  7-C , 18-H ) :   0.9176 B(  8-C , 19-H ) :   0.9289 B(  8-C , 20-H ) :   0.9143

MP2 TOTAL ENERGY:     -423.572882100 Eh
FINAL SINGLE POINT ENERGY      -423.572882099914

DIPOLE MOMENT
-------------
                                X             Y             Z
Electronic contribution:      1.56748      -6.94421       0.24042
Nuclear contribution   :     -2.19025       8.22220      -0.62790
                        -----------------------------------------
Total Dipole Moment    :     -0.62277       1.27799      -0.38747
                        -----------------------------------------
Magnitude (a.u.)       :      1.47351
Magnitude (Debye)      :      3.74537

                             ****ORCA TERMINATED NORMALLY****
TOTAL RUN TIME: 0 days 0 hours 20 minutes 18 seconds 970 msec
