                         Program Version 3.0.3 - RELEASE   -
|  1> ! RI-MP2 RIJK def2-TZVP def2-TZVP/C def2-TZVP/JK TIGHTSCF
|  2> % maxcore 2000
|  3> % mp2 density relaxed end
|  4> *xyz 0 1
|  5>  C       -0.0265801861    -1.1231286354     0.0637144484
|  6>  C       -0.0308065253     0.0787190696     0.0498139321
|  7>  C       -0.0282234019     1.5032452332     0.0216916690
|  8>  O       -0.7120673716     2.2785924948     1.0586049553
|  9>  C       -0.1574311913     3.3032348413     0.1895592695
| 10>  C        1.1615027083     2.5211337284    -0.1176261253
| 11>  N        1.0206644259     2.5664304120    -1.6069398746
| 12>  C       -0.3975648954     2.5039094277    -1.1329560362
| 13>  H       -0.0242973436    -2.1852970262     0.0781646479
| 14>  H       -0.3289729345     4.3507610775     0.4351933802
| 15>  H        2.1148650933     2.5187640747     0.4103861909
| 16>  H        1.2350834032     3.5050086051    -1.9521093500
| 17>  H       -1.2658064911     2.4814142276    -1.7912515772
| 18> *
| 19>
| 20>                          ****END OF INPUT****

CARTESIAN COORDINATES (ANGSTROEM)
---------------------------------
  C     -0.026580   -1.123129    0.063714
  C     -0.030807    0.078719    0.049814
  C     -0.028223    1.503245    0.021692
  O     -0.712067    2.278592    1.058605
  C     -0.157431    3.303235    0.189559
  C      1.161503    2.521134   -0.117626
  N      1.020664    2.566430   -1.606940
  C     -0.397565    2.503909   -1.132956
  H     -0.024297   -2.185297    0.078165
  H     -0.328973    4.350761    0.435193
  H      2.114865    2.518764    0.410386
  H      1.235083    3.505009   -1.952109
  H     -1.265806    2.481414   -1.791252

 Total Charge           Charge          ....    0
 Multiplicity           Mult            ....    1
 Number of Electrons    NEL             ....   56
 Basis Dimension        Dim             ....  278

ORBITAL ENERGIES
----------------

  NO   OCC          E(Eh)            E(eV)
   0   2.0000     -20.566952      -559.6552
   1   2.0000     -15.569950      -423.6799
   2   2.0000     -11.334606      -308.4303
   3   2.0000     -11.313574      -307.8580
   4   2.0000     -11.294858      -307.3487
   5   2.0000     -11.294827      -307.3479
   6   2.0000     -11.246002      -306.0193
   7   2.0000     -11.241983      -305.9099
   8   2.0000      -1.425924       -38.8014
   9   2.0000      -1.261218       -34.3195
  10   2.0000      -1.057930       -28.7877
  11   2.0000      -0.999436       -27.1960
  12   2.0000      -0.926621       -25.2146
  13   2.0000      -0.904552       -24.6141
  14   2.0000      -0.788707       -21.4618
  15   2.0000      -0.725389       -19.7388
  16   2.0000      -0.710539       -19.3348
  17   2.0000      -0.682163       -18.5626
  18   2.0000      -0.632478       -17.2106
  19   2.0000      -0.625867       -17.0307
  20   2.0000      -0.552652       -15.0384
  21   2.0000      -0.509100       -13.8533
  22   2.0000      -0.497804       -13.5459
  23   2.0000      -0.489028       -13.3071
  24   2.0000      -0.422190       -11.4884
  25   2.0000      -0.408631       -11.1194
  26   2.0000      -0.399423       -10.8688
  27   2.0000      -0.382403       -10.4057
  28   0.0000       0.124551         3.3892
  29   0.0000       0.148699         4.0463
  30   0.0000       0.148888         4.0514
  31   0.0000       0.156015         4.2454
  32   0.0000       0.172346         4.6898

MULLIKEN ATOMIC CHARGES
-----------------------
   0 C :   -0.066292
   1 C :   -0.019673
   2 C :   -0.054469
   3 O :   -0.317192
   4 C :   -0.009935
   5 C :   -0.011738
   6 N :   -0.343289
   7 C :   -0.011739
   8 H :    0.200142
   9 H :    0.139406
  10 H :    0.144271
  11 H :    0.206238
  12 H :    0.144271
Sum of atomic charges:   -0.0000000

LOEWDIN ATOMIC CHARGES
----------------------
   0 C :   -0.046463
   1 C :   -0.058242
   2 C :   -0.227268
   3 O :    0.162495
   4 C :   -0.204080
   5 C :   -0.152257
   6 N :   -0.001739
   7 C :   -0.152257
   8 H :    0.131022
   9 H :    0.127116
  10 H :    0.130237
  11 H :    0.161199
  12 H :    0.130237

  Mayer bond orders larger than 0.1
B(  0-C ,  1-C ) :   2.6291 B(  0-C ,  2-C ) :  -0.1645 B(  0-C ,  8-H ) :   0.8583
B(  1-C ,  2-C ) :   1.1718 B(  2-C ,  3-O ) :   0.9725 B(  2-C ,  5-C ) :   0.8263
B(  2-C ,  7-C ) :   0.8263 B(  3-O ,  4-C ) :   0.9245 B(  4-C ,  5-C ) :   0.8757
B(  4-C ,  7-C ) :   0.8757 B(  4-C ,  9-H ) :   0.9146 B(  5-C ,  6-N ) :   0.9345
B(  5-C , 10-H ) :   0.8926 B(  6-N ,  7-C ) :   0.9345 B(  6-N , 11-H ) :   0.8696
B(  7-C , 12-H ) :   0.8926

MP2 TOTAL ENERGY:     -360.673288386 Eh
FINAL SINGLE POINT ENERGY      -360.673288385769

DIPOLE MOMENT
-------------
                                X             Y             Z
Electronic contribution:     -0.93882      -1.24672       1.46277
Nuclear contribution   :      1.13930       1.75901      -1.77932
                        -----------------------------------------
Total Dipole Moment    :      0.20047       0.51230      -0.31655
                        -----------------------------------------
Magnitude (a.u.)       :      0.63470
Magnitude (Debye)      :      1.61328

                             ****ORCA TERMINATED NORMALLY****
TOTAL RUN TIME: 0 days 0 hours 10 minutes 28 seconds 667 msec
