                         Program Version 3.0.3 - RELEASE   -
|  1> ! RI-MP2 RIJK def2-TZVP def2-TZVP/C def2-TZVP/JK TIGHTSCF
|  2> % maxcore 2000
|  3> % mp2 density relaxed end
|  4> *xyz 0 1
|  5>  O        0.0083561078    -0.0966693140    -0.0033909132
|  6>  C        0.0257626656     1.1126590981     0.0274696722
|  7>  C       -1.2629085986     1.9315839697     0.0591159145
|  8>  C       -1.5399889118     2.8026867828    -1.1886816181
|  9>  C       -0.4670720213     3.8634216066    -1.4924717013
| 10>  C        0.7742163660     3.2728390456    -2.1366045927
| 11>  N        2.0898265194     3.7064141619    -1.6327679355
| 12>  C        1.6524417132     2.3172942641    -1.4109410440
| 13>  C        1.3405916679     1.8914304145     0.0163471167
| 14>  H       -2.0847275627     1.2254009387     0.2044121834
| 15>  H       -1.2220992720     2.5891865556     0.9385010617
| 16>  H       -1.6722337742     2.1518567239    -2.0623056414
| 17>  H       -2.5033818161     3.2995979366    -1.0299757863
| 18>  H       -0.8869248623     4.6232620015    -2.1618648508
| 19>  H       -0.1814647570     4.3884029315    -0.5747231777
| 20>  H        0.6861202280     3.1060559209    -3.2094588812
| 21>  H        2.7673117826     3.7468687658    -2.3897838470
| 22>  H        2.1164071259     1.5392524597    -2.0131592635
| 23>  H        1.2694963065     2.7832101268     0.6447116268
| 24>  H        2.1316529230     1.2464373897     0.4073154574
| 25> *
| 26>
| 27>                          ****END OF INPUT****

CARTESIAN COORDINATES (ANGSTROEM)
---------------------------------
  O      0.008356   -0.096669   -0.003391
  C      0.025763    1.112659    0.027470
  C     -1.262909    1.931584    0.059116
  C     -1.539989    2.802687   -1.188682
  C     -0.467072    3.863422   -1.492472
  C      0.774216    3.272839   -2.136605
  N      2.089827    3.706414   -1.632768
  C      1.652442    2.317294   -1.410941
  C      1.340592    1.891430    0.016347
  H     -2.084728    1.225401    0.204412
  H     -1.222099    2.589187    0.938501
  H     -1.672234    2.151857   -2.062306
  H     -2.503382    3.299598   -1.029976
  H     -0.886925    4.623262   -2.161865
  H     -0.181465    4.388403   -0.574723
  H      0.686120    3.106056   -3.209459
  H      2.767312    3.746869   -2.389784
  H      2.116407    1.539252   -2.013159
  H      1.269496    2.783210    0.644712
  H      2.131653    1.246437    0.407315

 Total Charge           Charge          ....    0
 Multiplicity           Mult            ....    1
 Number of Electrons    NEL             ....   68
 Basis Dimension        Dim             ....  345

ORBITAL ENERGIES
----------------

  NO   OCC          E(Eh)            E(eV)
   0   2.0000     -20.542005      -558.9764
   1   2.0000     -15.565423      -423.5567
   2   2.0000     -11.325831      -308.1915
   3   2.0000     -11.270826      -306.6948
   4   2.0000     -11.266576      -306.5791
   5   2.0000     -11.240018      -305.8564
   6   2.0000     -11.236499      -305.7607
   7   2.0000     -11.235562      -305.7352
   8   2.0000     -11.233017      -305.6659
   9   2.0000      -1.385251       -37.6946
  10   2.0000      -1.272080       -34.6151
  11   2.0000      -1.088459       -29.6185
  12   2.0000      -1.031649       -28.0726
  13   2.0000      -0.979966       -26.6662
  14   2.0000      -0.875189       -23.8151
  15   2.0000      -0.855281       -23.2734
  16   2.0000      -0.768928       -20.9236
  17   2.0000      -0.733240       -19.9525
  18   2.0000      -0.716522       -19.4976
  19   2.0000      -0.659132       -17.9359
  20   2.0000      -0.648695       -17.6519
  21   2.0000      -0.622688       -16.9442
  22   2.0000      -0.590429       -16.0664
  23   2.0000      -0.572982       -15.5916
  24   2.0000      -0.571656       -15.5556
  25   2.0000      -0.539014       -14.6673
  26   2.0000      -0.531974       -14.4758
  27   2.0000      -0.516808       -14.0631
  28   2.0000      -0.487914       -13.2768
  29   2.0000      -0.480357       -13.0712
  30   2.0000      -0.464416       -12.6374
  31   2.0000      -0.452594       -12.3157
  32   2.0000      -0.402334       -10.9481
  33   2.0000      -0.391987       -10.6665
  34   0.0000       0.124011         3.3745
  35   0.0000       0.131499         3.5783
  36   0.0000       0.157853         4.2954
  37   0.0000       0.161009         4.3813
  38   0.0000       0.174170         4.7394

MULLIKEN ATOMIC CHARGES
-----------------------
   0 O :   -0.279963
   1 C :    0.183671
   2 C :   -0.252099
   3 C :   -0.223042
   4 C :   -0.221618
   5 C :   -0.083659
   6 N :   -0.392433
   7 C :   -0.035801
   8 C :   -0.219118
   9 H :    0.135097
  10 H :    0.122644
  11 H :    0.120868
  12 H :    0.131426
  13 H :    0.129588
  14 H :    0.130245
  15 H :    0.121972
  16 H :    0.221224
  17 H :    0.131082
  18 H :    0.147333
  19 H :    0.132584
Sum of atomic charges:   -0.0000000

LOEWDIN ATOMIC CHARGES
----------------------
   0 O :    0.149087
   1 C :   -0.318137
   2 C :   -0.230824
   3 C :   -0.253349
   4 C :   -0.247987
   5 C :   -0.259076
   6 N :    0.004113
   7 C :   -0.251651
   8 C :   -0.210257
   9 H :    0.147809
  10 H :    0.148939
  11 H :    0.142236
  12 H :    0.140994
  13 H :    0.142577
  14 H :    0.146183
  15 H :    0.138706
  16 H :    0.166703
  17 H :    0.141876
  18 H :    0.152504
  19 H :    0.149551

  Mayer bond orders larger than 0.1
B(  0-O ,  1-C ) :   2.0127 B(  1-C ,  2-C ) :   0.9208 B(  1-C ,  8-C ) :   0.8856
B(  2-C ,  3-C ) :   0.9069 B(  2-C ,  9-H ) :   0.9226 B(  2-C , 10-H ) :   0.9168
B(  3-C ,  4-C ) :   0.9095 B(  3-C , 11-H ) :   0.9272 B(  3-C , 12-H ) :   0.9283
B(  4-C ,  5-C ) :   0.8807 B(  4-C , 13-H ) :   0.9275 B(  4-C , 14-H ) :   0.9385
B(  5-C ,  6-N ) :   0.9892 B(  5-C ,  7-C ) :   0.9201 B(  5-C , 15-H ) :   0.9276
B(  6-N ,  7-C ) :   0.9215 B(  6-N , 16-H ) :   0.8693 B(  7-C ,  8-C ) :   0.8643
B(  7-C , 17-H ) :   0.9198 B(  8-C , 18-H ) :   0.9272 B(  8-C , 19-H ) :   0.9139

MP2 TOTAL ENERGY:     -402.466356008 Eh
FINAL SINGLE POINT ENERGY      -402.466356008033

DIPOLE MOMENT
-------------
                                X             Y             Z
Electronic contribution:      2.46806      -4.28501       1.09524
Nuclear contribution   :     -2.57733       5.04520      -1.65176
                        -----------------------------------------
Total Dipole Moment    :     -0.10928       0.76019      -0.55652
                        -----------------------------------------
Magnitude (a.u.)       :      0.94844
Magnitude (Debye)      :      2.41074

                             ****ORCA TERMINATED NORMALLY****
TOTAL RUN TIME: 0 days 0 hours 24 minutes 15 seconds 289 msec
