                         Program Version 3.0.3 - RELEASE   -
|  1> ! RI-MP2 RIJK def2-TZVP def2-TZVP/C def2-TZVP/JK TIGHTSCF
|  2> % maxcore 2000
|  3> % mp2 density relaxed end
|  4> *xyz 0 1
|  5>  C       -0.0830315033     1.4930862205     0.0364285992
|  6>  C        0.0085969293     0.0050217850     0.0289088832
|  7>  N       -0.1357046024    -0.7372720908    -1.0712936619
|  8>  N        0.0157775754    -1.9829969132    -0.6431655139
|  9>  N        0.2644364575    -2.1409310740     0.6536998736
| 10>  C        0.2538023140    -0.8879090382     1.0912307255
| 11>  O        0.4912714573    -0.5370108706     2.3843403326
| 12>  C        0.0327099644    -1.3646918333     3.3791869411
| 13>  O        0.2877166572    -1.1541224167     4.5207949903
| 14>  H        0.8584858150     1.9462457622     0.3628977308
| 15>  H       -0.3147671486     1.8549460810    -0.9667447506
| 16>  H       -0.8630207993     1.8386114862     0.7224057166
| 17>  H       -0.0368493808    -2.7703509598    -1.2679526324
| 18>  H       -0.5731433156    -2.1943325883     2.9845913660
| 19> *
| 20>
| 21>                          ****END OF INPUT****

CARTESIAN COORDINATES (ANGSTROEM)
---------------------------------
  C     -0.083032    1.493086    0.036429
  C      0.008597    0.005022    0.028909
  N     -0.135705   -0.737272   -1.071294
  N      0.015778   -1.982997   -0.643166
  N      0.264436   -2.140931    0.653700
  C      0.253802   -0.887909    1.091231
  O      0.491271   -0.537011    2.384340
  C      0.032710   -1.364692    3.379187
  O      0.287717   -1.154122    4.520795
  H      0.858486    1.946246    0.362898
  H     -0.314767    1.854946   -0.966745
  H     -0.863021    1.838611    0.722406
  H     -0.036849   -2.770351   -1.267953
  H     -0.573143   -2.194333    2.984591

 Total Charge           Charge          ....    0
 Multiplicity           Mult            ....    1
 Number of Electrons    NEL             ....   66
 Basis Dimension        Dim             ....  309

ORBITAL ENERGIES
----------------

  NO   OCC          E(Eh)            E(eV)
   0   2.0000     -20.640316      -561.6515
   1   2.0000     -20.571048      -559.7667
   2   2.0000     -15.691792      -426.9954
   3   2.0000     -15.633605      -425.4120
   4   2.0000     -15.632839      -425.3912
   5   2.0000     -11.400648      -310.2274
   6   2.0000     -11.346180      -308.7452
   7   2.0000     -11.287899      -307.1594
   8   2.0000     -11.244847      -305.9878
   9   2.0000      -1.499542       -40.8046
  10   2.0000      -1.460676       -39.7470
  11   2.0000      -1.400280       -38.1036
  12   2.0000      -1.214739       -33.0547
  13   2.0000      -1.129646       -30.7392
  14   2.0000      -0.996719       -27.1221
  15   2.0000      -0.933124       -25.3916
  16   2.0000      -0.839656       -22.8482
  17   2.0000      -0.828560       -22.5463
  18   2.0000      -0.776308       -21.1244
  19   2.0000      -0.735797       -20.0221
  20   2.0000      -0.697700       -18.9854
  21   2.0000      -0.672086       -18.2884
  22   2.0000      -0.643354       -17.5066
  23   2.0000      -0.608478       -16.5575
  24   2.0000      -0.602266       -16.3885
  25   2.0000      -0.584787       -15.9129
  26   2.0000      -0.573763       -15.6129
  27   2.0000      -0.532706       -14.4957
  28   2.0000      -0.511463       -13.9176
  29   2.0000      -0.494017       -13.4429
  30   2.0000      -0.473241       -12.8775
  31   2.0000      -0.415079       -11.2949
  32   2.0000      -0.371319       -10.1041
  33   0.0000       0.116516         3.1706
  34   0.0000       0.128646         3.5006
  35   0.0000       0.134444         3.6584
  36   0.0000       0.146132         3.9765
  37   0.0000       0.182934         4.9779

MULLIKEN ATOMIC CHARGES
-----------------------
   0 C :   -0.417278
   1 C :    0.043065
   2 N :   -0.188299
   3 N :   -0.005339
   4 N :   -0.211999
   5 C :    0.192938
   6 O :   -0.223017
   7 C :    0.196130
   8 O :   -0.243201
   9 H :    0.153837
  10 H :    0.159981
  11 H :    0.149443
  12 H :    0.275326
  13 H :    0.118412
Sum of atomic charges:    0.0000000

LOEWDIN ATOMIC CHARGES
----------------------
   0 C :   -0.266502
   1 C :   -0.282600
   2 N :    0.052113
   3 N :    0.065274
   4 N :    0.034755
   5 C :   -0.374740
   6 O :    0.301954
   7 C :   -0.399255
   8 O :    0.146594
   9 H :    0.138821
  10 H :    0.139674
  11 H :    0.137613
  12 H :    0.190305
  13 H :    0.115993

  Mayer bond orders larger than 0.1
B(  0-C ,  1-C ) :   0.8800 B(  0-C ,  9-H ) :   0.9265 B(  0-C , 10-H ) :   0.9470
B(  0-C , 11-H ) :   0.9285 B(  1-C ,  2-N ) :   1.5102 B(  1-C ,  5-C ) :   1.3183
B(  2-N ,  3-N ) :   1.1320 B(  3-N ,  4-N ) :   1.1188 B(  3-N , 12-H ) :   0.8728
B(  4-N ,  5-C ) :   1.4623 B(  5-C ,  6-O ) :   1.0320 B(  6-O ,  7-C ) :   0.9718
B(  7-C ,  8-O ) :   2.0534 B(  7-C , 13-H ) :   0.9176

MP2 TOTAL ENERGY:     -469.278671256 Eh
FINAL SINGLE POINT ENERGY      -469.278671255534

DIPOLE MOMENT
-------------
                                X             Y             Z
Electronic contribution:      1.02511      -4.70890       2.65729
Nuclear contribution   :     -1.45947       4.44001      -3.84483
                        -----------------------------------------
Total Dipole Moment    :     -0.43436      -0.26890      -1.18754
                        -----------------------------------------
Magnitude (a.u.)       :      1.29276
Magnitude (Debye)      :      3.28594

                             ****ORCA TERMINATED NORMALLY****
TOTAL RUN TIME: 0 days 0 hours 12 minutes 24 seconds 782 msec
