                         Program Version 3.0.3 - RELEASE   -
|  1> ! RI-MP2 RIJK def2-TZVP def2-TZVP/C def2-TZVP/JK TIGHTSCF
|  2> % maxcore 2000
|  3> % mp2 density relaxed end
|  4> *xyz 0 1
|  5>  C        0.1835294011     1.4195883694    -0.2107427182
|  6>  C        0.0567375701    -0.0972727548    -0.0121463738
|  7>  C        0.8925822929    -0.5413449393     1.1960687418
|  8>  C       -1.4286283357    -0.5505207702     0.1389006808
|  9>  C       -2.3286630294    -0.0822007674    -1.0272308308
| 10>  C       -3.7870053432    -0.5007109197    -0.8825993111
| 11>  O       -4.5051523990     0.0947782312    -1.9549002007
| 12>  C       -1.5099767952    -2.0050074083     0.2955158567
| 13>  C       -1.5701330113    -3.2026203050     0.3938945123
| 14>  H        1.2391629318     1.7087551974    -0.2288694380
| 15>  H       -0.2651611272     1.7620613027    -1.1461047333
| 16>  H       -0.2920353772     1.9660158495     0.6131151486
| 17>  H        0.4529416885    -0.5979512774    -0.9056988723
| 18>  H        0.5469116810    -0.0457290251     2.1116952856
| 19>  H        0.8303219295    -1.6205725221     1.3532461746
| 20>  H        1.9450208406    -0.2760450287     1.0545703709
| 21>  H       -1.8126116338    -0.0911178921     1.0634010757
| 22>  H       -2.3031841403     1.0089012511    -1.0899282252
| 23>  H       -1.9392560457    -0.4714035987    -1.9749500132
| 24>  H       -3.8687579387    -1.5960352060    -0.9032278753
| 25>  H       -4.1751412712    -0.1605378257     0.0925453401
| 26>  H       -5.4098787279    -0.2289158281    -1.9241579593
| 27>  H       -1.6268626697    -4.2582572228     0.4940061438
| 28> *
| 29>
| 30>                          ****END OF INPUT****

CARTESIAN COORDINATES (ANGSTROEM)
---------------------------------
  C      0.183529    1.419588   -0.210743
  C      0.056738   -0.097273   -0.012146
  C      0.892582   -0.541345    1.196069
  C     -1.428628   -0.550521    0.138901
  C     -2.328663   -0.082201   -1.027231
  C     -3.787005   -0.500711   -0.882599
  O     -4.505152    0.094778   -1.954900
  C     -1.509977   -2.005007    0.295516
  C     -1.570133   -3.202620    0.393895
  H      1.239163    1.708755   -0.228869
  H     -0.265161    1.762061   -1.146105
  H     -0.292035    1.966016    0.613115
  H      0.452942   -0.597951   -0.905699
  H      0.546912   -0.045729    2.111695
  H      0.830322   -1.620573    1.353246
  H      1.945021   -0.276045    1.054570
  H     -1.812612   -0.091118    1.063401
  H     -2.303184    1.008901   -1.089928
  H     -1.939256   -0.471404   -1.974950
  H     -3.868758   -1.596035   -0.903228
  H     -4.175141   -0.160538    0.092545
  H     -5.409879   -0.228916   -1.924158
  H     -1.626863   -4.258257    0.494006

 Total Charge           Charge          ....    0
 Multiplicity           Mult            ....    1
 Number of Electrons    NEL             ....   70
 Basis Dimension        Dim             ....  363

ORBITAL ENERGIES
----------------

  NO   OCC          E(Eh)            E(eV)
   0   2.0000     -20.553038      -559.2766
   1   2.0000     -11.271746      -306.7198
   2   2.0000     -11.255596      -306.2803
   3   2.0000     -11.236080      -305.7493
   4   2.0000     -11.231082      -305.6133
   5   2.0000     -11.223792      -305.4149
   6   2.0000     -11.218313      -305.2658
   7   2.0000     -11.215217      -305.1816
   8   2.0000     -11.209919      -305.0374
   9   2.0000      -1.356703       -36.9178
  10   2.0000      -1.121321       -30.5127
  11   2.0000      -1.038412       -28.2566
  12   2.0000      -1.010013       -27.4838
  13   2.0000      -0.930724       -25.3263
  14   2.0000      -0.923042       -25.1172
  15   2.0000      -0.820575       -22.3290
  16   2.0000      -0.784603       -21.3501
  17   2.0000      -0.719132       -19.5686
  18   2.0000      -0.694543       -18.8995
  19   2.0000      -0.668746       -18.1975
  20   2.0000      -0.633581       -17.2406
  21   2.0000      -0.615505       -16.7487
  22   2.0000      -0.587239       -15.9796
  23   2.0000      -0.573398       -15.6030
  24   2.0000      -0.557950       -15.1826
  25   2.0000      -0.538887       -14.6639
  26   2.0000      -0.527406       -14.3514
  27   2.0000      -0.504866       -13.7381
  28   2.0000      -0.497253       -13.5310
  29   2.0000      -0.474583       -12.9141
  30   2.0000      -0.469358       -12.7719
  31   2.0000      -0.465781       -12.6745
  32   2.0000      -0.441879       -12.0241
  33   2.0000      -0.383224       -10.4281
  34   2.0000      -0.380949       -10.3662
  35   0.0000       0.132038         3.5929
  36   0.0000       0.142989         3.8909
  37   0.0000       0.159331         4.3356
  38   0.0000       0.163595         4.4516
  39   0.0000       0.171583         4.6690

MULLIKEN ATOMIC CHARGES
-----------------------
   0 C :   -0.418922
   1 C :   -0.009929
   2 C :   -0.407097
   3 C :   -0.189751
   4 C :   -0.165461
   5 C :   -0.083725
   6 O :   -0.466691
   7 C :   -0.045053
   8 C :   -0.169584
   9 H :    0.136597
  10 H :    0.145658
  11 H :    0.123937
  12 H :    0.091575
  13 H :    0.118090
  14 H :    0.152893
  15 H :    0.130780
  16 H :    0.107282
  17 H :    0.122715
  18 H :    0.117603
  19 H :    0.117825
  20 H :    0.088918
  21 H :    0.315666
  22 H :    0.186672
Sum of atomic charges:   -0.0000000

LOEWDIN ATOMIC CHARGES
----------------------
   0 C :   -0.294007
   1 C :   -0.269537
   2 C :   -0.289243
   3 C :   -0.222805
   4 C :   -0.230266
   5 C :   -0.346109
   6 O :   -0.052591
   7 C :   -0.089367
   8 C :   -0.107419
   9 H :    0.126022
  10 H :    0.122419
  11 H :    0.124581
  12 H :    0.155304
  13 H :    0.123693
  14 H :    0.129443
  15 H :    0.123111
  16 H :    0.171565
  17 H :    0.145031
  18 H :    0.146102
  19 H :    0.121140
  20 H :    0.115373
  21 H :    0.171610
  22 H :    0.125950

  Mayer bond orders larger than 0.1
B(  0-C ,  1-C ) :   0.8959 B(  0-C ,  9-H ) :   0.9383 B(  0-C , 10-H ) :   0.9427
B(  0-C , 11-H ) :   0.9293 B(  1-C ,  2-C ) :   0.9218 B(  1-C ,  3-C ) :   0.9251
B(  1-C , 12-H ) :   0.9212 B(  2-C , 13-H ) :   0.9291 B(  2-C , 14-H ) :   0.9370
B(  2-C , 15-H ) :   0.9401 B(  3-C ,  4-C ) :   0.8860 B(  3-C ,  7-C ) :   1.0846
B(  3-C , 16-H ) :   0.9138 B(  4-C ,  5-C ) :   0.9404 B(  4-C ,  6-O ) :  -0.1008
B(  4-C , 17-H ) :   0.9298 B(  4-C , 18-H ) :   0.9110 B(  5-C ,  6-O ) :   1.0195
B(  5-C , 19-H ) :   0.9349 B(  5-C , 20-H ) :   0.9278 B(  6-O , 21-H ) :   0.8497
B(  7-C ,  8-C ) :   2.6186 B(  8-C , 22-H ) :   0.8973

MP2 TOTAL ENERGY:     -387.582191108 Eh
FINAL SINGLE POINT ENERGY      -387.582191108490

DIPOLE MOMENT
-------------
                                X             Y             Z
Electronic contribution:     -5.60147      -4.57396      -1.88163
Nuclear contribution   :      5.42633       4.38493       2.20714
                        -----------------------------------------
Total Dipole Moment    :     -0.17514      -0.18902       0.32551
                        -----------------------------------------
Magnitude (a.u.)       :      0.41516
Magnitude (Debye)      :      1.05526

                             ****ORCA TERMINATED NORMALLY****
TOTAL RUN TIME: 0 days 0 hours 21 minutes 10 seconds 697 msec
