                         Program Version 3.0.3 - RELEASE   -
|  1> ! RI-MP2 RIJK def2-TZVP def2-TZVP/C def2-TZVP/JK TIGHTSCF
|  2> % maxcore 2000
|  3> % mp2 density relaxed end
|  4> *xyz 0 1
|  5>  C       -0.1027700314     1.7137826984    -0.1496488624
|  6>  C        0.0233455302     0.1948909555     0.0137421388
|  7>  C       -1.3309450349    -0.5059267460     0.0461424103
|  8>  C       -2.0962720021    -0.6284572143    -1.2834959941
|  9>  O       -1.3227409070    -1.4709062769    -2.1495616884
| 10>  C       -2.1706796906    -2.0916590512    -1.1729170714
| 11>  C       -1.4116493722    -2.0899778322     0.1659576098
| 12>  C       -0.1353961891    -2.9209274064     0.2495331811
| 13>  C       -0.4155848914    -4.4265338316     0.3149270593
| 14>  H        0.8806405797     2.1931878273    -0.1728753353
| 15>  H       -0.6176610499     1.9721032952    -1.0814234204
| 16>  H       -0.6704232851     2.1575259542     0.6762865876
| 17>  H        0.6174711428    -0.2166813907    -0.8087206078
| 18>  H        0.5695063281    -0.0290318943     0.9386439597
| 19>  H       -1.9705829856    -0.0511990904     0.8114186474
| 20>  H       -2.7702242515     0.0749963722    -1.7595271536
| 21>  H       -2.9157721963    -2.7869015780    -1.5432419262
| 22>  H       -2.0881481214    -2.3577566680     0.9858419766
| 23>  H        0.4910366348    -2.6995856831    -0.6207600800
| 24>  H        0.4375729071    -2.6170936359     1.1345565732
| 25>  H       -0.9609817751    -4.7683838992    -0.5714853358
| 26>  H        0.5141441797    -5.0008769422     0.3714864451
| 27>  H       -1.0189045288    -4.6816673425     1.1936875667
| 28> *
| 29>
| 30>                          ****END OF INPUT****

CARTESIAN COORDINATES (ANGSTROEM)
---------------------------------
  C     -0.102770    1.713783   -0.149649
  C      0.023346    0.194891    0.013742
  C     -1.330945   -0.505927    0.046142
  C     -2.096272   -0.628457   -1.283496
  O     -1.322741   -1.470906   -2.149562
  C     -2.170680   -2.091659   -1.172917
  C     -1.411649   -2.089978    0.165958
  C     -0.135396   -2.920927    0.249533
  C     -0.415585   -4.426534    0.314927
  H      0.880641    2.193188   -0.172875
  H     -0.617661    1.972103   -1.081423
  H     -0.670423    2.157526    0.676287
  H      0.617471   -0.216681   -0.808721
  H      0.569506   -0.029032    0.938644
  H     -1.970583   -0.051199    0.811419
  H     -2.770224    0.074996   -1.759527
  H     -2.915772   -2.786902   -1.543242
  H     -2.088148   -2.357757    0.985842
  H      0.491037   -2.699586   -0.620760
  H      0.437573   -2.617094    1.134557
  H     -0.960982   -4.768384   -0.571485
  H      0.514144   -5.000877    0.371486
  H     -1.018905   -4.681667    1.193688

 Total Charge           Charge          ....    0
 Multiplicity           Mult            ....    1
 Number of Electrons    NEL             ....   70
 Basis Dimension        Dim             ....  363

ORBITAL ENERGIES
----------------

  NO   OCC          E(Eh)            E(eV)
   0   2.0000     -20.561873      -559.5170
   1   2.0000     -11.279085      -306.9195
   2   2.0000     -11.278300      -306.8981
   3   2.0000     -11.234220      -305.6987
   4   2.0000     -11.233741      -305.6856
   5   2.0000     -11.216349      -305.2124
   6   2.0000     -11.216346      -305.2123
   7   2.0000     -11.212649      -305.1117
   8   2.0000     -11.212648      -305.1117
   9   2.0000      -1.411477       -38.4082
  10   2.0000      -1.105840       -30.0914
  11   2.0000      -1.040636       -28.3172
  12   2.0000      -1.001122       -27.2419
  13   2.0000      -0.902722       -24.5643
  14   2.0000      -0.885690       -24.1009
  15   2.0000      -0.827003       -22.5039
  16   2.0000      -0.799403       -21.7529
  17   2.0000      -0.725520       -19.7424
  18   2.0000      -0.716844       -19.5063
  19   2.0000      -0.645516       -17.5654
  20   2.0000      -0.607147       -16.5213
  21   2.0000      -0.601792       -16.3756
  22   2.0000      -0.575177       -15.6514
  23   2.0000      -0.566048       -15.4029
  24   2.0000      -0.562984       -15.3196
  25   2.0000      -0.543824       -14.7982
  26   2.0000      -0.509810       -13.8726
  27   2.0000      -0.501755       -13.6534
  28   2.0000      -0.498061       -13.5529
  29   2.0000      -0.489776       -13.3275
  30   2.0000      -0.480408       -13.0726
  31   2.0000      -0.454000       -12.3540
  32   2.0000      -0.442106       -12.0303
  33   2.0000      -0.416890       -11.3442
  34   2.0000      -0.393171       -10.6987
  35   0.0000       0.138156         3.7594
  36   0.0000       0.143500         3.9048
  37   0.0000       0.159501         4.3402
  38   0.0000       0.167831         4.5669
  39   0.0000       0.188681         5.1343

MULLIKEN ATOMIC CHARGES
-----------------------
   0 C :   -0.407324
   1 C :   -0.231215
   2 C :   -0.016930
   3 C :   -0.042811
   4 O :   -0.338718
   5 C :   -0.042979
   6 C :   -0.016843
   7 C :   -0.231206
   8 C :   -0.407322
   9 H :    0.136000
  10 H :    0.130497
  11 H :    0.120974
  12 H :    0.132336
  13 H :    0.109122
  14 H :    0.100478
  15 H :    0.138271
  16 H :    0.138264
  17 H :    0.100488
  18 H :    0.132329
  19 H :    0.109120
  20 H :    0.130494
  21 H :    0.136000
  22 H :    0.120975
Sum of atomic charges:   -0.0000000

LOEWDIN ATOMIC CHARGES
----------------------
   0 C :   -0.315781
   1 C :   -0.275647
   2 C :   -0.191159
   3 C :   -0.226504
   4 O :    0.170052
   5 C :   -0.226492
   6 C :   -0.191158
   7 C :   -0.275651
   8 C :   -0.315781
   9 H :    0.121311
  10 H :    0.121769
  11 H :    0.119479
  12 H :    0.143241
  13 H :    0.137075
  14 H :    0.152439
  15 H :    0.128745
  16 H :    0.128745
  17 H :    0.152443
  18 H :    0.143241
  19 H :    0.137074
  20 H :    0.121769
  21 H :    0.121311
  22 H :    0.119479

  Mayer bond orders larger than 0.1
B(  0-C ,  1-C ) :   0.9098 B(  0-C ,  9-H ) :   0.9430 B(  0-C , 10-H ) :   0.9420
B(  0-C , 11-H ) :   0.9394 B(  1-C ,  2-C ) :   0.8842 B(  1-C , 12-H ) :   0.9353
B(  1-C , 13-H ) :   0.9343 B(  2-C ,  3-C ) :   0.9006 B(  2-C ,  6-C ) :   0.9636
B(  2-C , 14-H ) :   0.9051 B(  3-C ,  4-O ) :   0.9082 B(  3-C ,  5-C ) :   0.9044
B(  3-C , 15-H ) :   0.9226 B(  4-O ,  5-C ) :   0.9083 B(  5-C ,  6-C ) :   0.9006
B(  5-C , 16-H ) :   0.9226 B(  6-C ,  7-C ) :   0.8842 B(  6-C , 17-H ) :   0.9051
B(  7-C ,  8-C ) :   0.9098 B(  7-C , 18-H ) :   0.9353 B(  7-C , 19-H ) :   0.9343
B(  8-C , 20-H ) :   0.9420 B(  8-C , 21-H ) :   0.9430 B(  8-C , 22-H ) :   0.9395

MP2 TOTAL ENERGY:     -387.580449894 Eh
FINAL SINGLE POINT ENERGY      -387.580449893803

DIPOLE MOMENT
-------------
                                X             Y             Z
Electronic contribution:     -4.17341      -0.15433      -4.85358
Nuclear contribution   :      3.82987       0.21705       5.45226
                        -----------------------------------------
Total Dipole Moment    :     -0.34353       0.06272       0.59869
                        -----------------------------------------
Magnitude (a.u.)       :      0.69309
Magnitude (Debye)      :      1.76170

                             ****ORCA TERMINATED NORMALLY****
TOTAL RUN TIME: 0 days 0 hours 31 minutes 23 seconds 578 msec
