                         Program Version 3.0.3 - RELEASE   -
|  1> ! RI-MP2 RIJK def2-TZVP def2-TZVP/C def2-TZVP/JK TIGHTSCF
|  2> % maxcore 2000
|  3> % mp2 density relaxed end
|  4> *xyz 0 1
|  5>  O       -0.0980194946     1.4338379734     0.0666007962
|  6>  C        0.0039941087     0.0563553248     0.0573177360
|  7>  C       -0.1730619693    -0.7670992432    -1.1830280037
|  8>  C       -1.1427270539    -0.9414743755    -0.0279516729
|  9>  C       -0.5189091876    -1.7716708653     1.1011843039
| 10>  C       -0.2291158194    -3.2541247308     0.8165654983
| 11>  C        0.5018061028    -3.8968489133     1.9070900450
| 12>  N        1.0811011807    -4.3835928834     2.7807802903
| 13>  C        0.6813118315    -0.7644769033     1.1649076230
| 14>  H        0.6561271998     1.7994380026    -0.4090272372
| 15>  H       -0.5948901358    -0.2215863871    -2.0211216564
| 16>  H        0.5376047874    -1.5419468377    -1.4631760211
| 17>  H       -2.2025474012    -0.7606741978    -0.1588645192
| 18>  H       -1.1175627703    -1.7003660060     2.0123683299
| 19>  H       -1.1690345974    -3.7962818833     0.6591176024
| 20>  H        0.3552830555    -3.3653090438    -0.1034640257
| 21>  H        1.6762413548    -1.1630948868     0.9394462704
| 22>  H        0.7190386382    -0.2316543137     2.1163379707
| 23> *
| 24>
| 25>                          ****END OF INPUT****

CARTESIAN COORDINATES (ANGSTROEM)
---------------------------------
  O     -0.098019    1.433838    0.066601
  C      0.003994    0.056355    0.057318
  C     -0.173062   -0.767099   -1.183028
  C     -1.142727   -0.941474   -0.027952
  C     -0.518909   -1.771671    1.101184
  C     -0.229116   -3.254125    0.816565
  C      0.501806   -3.896849    1.907090
  N      1.081101   -4.383593    2.780780
  C      0.681312   -0.764477    1.164908
  H      0.656127    1.799438   -0.409027
  H     -0.594890   -0.221586   -2.021122
  H      0.537605   -1.541947   -1.463176
  H     -2.202547   -0.760674   -0.158865
  H     -1.117563   -1.700366    2.012368
  H     -1.169035   -3.796282    0.659118
  H      0.355283   -3.365309   -0.103464
  H      1.676241   -1.163095    0.939446
  H      0.719039   -0.231654    2.116338

 Total Charge           Charge          ....    0
 Multiplicity           Mult            ....    1
 Number of Electrons    NEL             ....   66
 Basis Dimension        Dim             ....  333

ORBITAL ENERGIES
----------------

  NO   OCC          E(Eh)            E(eV)
   0   2.0000     -20.578837      -559.9786
   1   2.0000     -15.566546      -423.5872
   2   2.0000     -11.303220      -307.5763
   3   2.0000     -11.280826      -306.9669
   4   2.0000     -11.271267      -306.7068
   5   2.0000     -11.262860      -306.4780
   6   2.0000     -11.247615      -306.0632
   7   2.0000     -11.243970      -305.9640
   8   2.0000     -11.240390      -305.8665
   9   2.0000      -1.391176       -37.8558
  10   2.0000      -1.218223       -33.1495
  11   2.0000      -1.200117       -32.6568
  12   2.0000      -1.067645       -29.0521
  13   2.0000      -0.983324       -26.7576
  14   2.0000      -0.891836       -24.2681
  15   2.0000      -0.822412       -22.3790
  16   2.0000      -0.753658       -20.5081
  17   2.0000      -0.724457       -19.7135
  18   2.0000      -0.701427       -19.0868
  19   2.0000      -0.657868       -17.9015
  20   2.0000      -0.649595       -17.6764
  21   2.0000      -0.626689       -17.0531
  22   2.0000      -0.607411       -16.5285
  23   2.0000      -0.564106       -15.3501
  24   2.0000      -0.554274       -15.0826
  25   2.0000      -0.549822       -14.9614
  26   2.0000      -0.526693       -14.3320
  27   2.0000      -0.499584       -13.5944
  28   2.0000      -0.479243       -13.0409
  29   2.0000      -0.455411       -12.3924
  30   2.0000      -0.453141       -12.3306
  31   2.0000      -0.410451       -11.1689
  32   2.0000      -0.391008       -10.6399
  33   0.0000       0.123430         3.3587
  34   0.0000       0.133922         3.6442
  35   0.0000       0.149587         4.0705
  36   0.0000       0.166448         4.5293
  37   0.0000       0.169362         4.6086

MULLIKEN ATOMIC CHARGES
-----------------------
   0 O :   -0.451426
   1 C :    0.189275
   2 C :   -0.319109
   3 C :   -0.131971
   4 C :   -0.062904
   5 C :   -0.169583
   6 C :   -0.172503
   7 N :   -0.059953
   8 C :   -0.259026
   9 H :    0.329697
  10 H :    0.141392
  11 H :    0.127014
  12 H :    0.143154
  13 H :    0.127221
  14 H :    0.161680
  15 H :    0.149661
  16 H :    0.126659
  17 H :    0.130724
Sum of atomic charges:    0.0000000

LOEWDIN ATOMIC CHARGES
----------------------
   0 O :    0.032303
   1 C :   -0.336353
   2 C :   -0.197447
   3 C :   -0.143041
   4 C :   -0.190577
   5 C :   -0.227316
   6 C :   -0.191474
   7 N :    0.054311
   8 C :   -0.169169
   9 H :    0.187707
  10 H :    0.145376
  11 H :    0.127491
  12 H :    0.140527
  13 H :    0.160001
  14 H :    0.166888
  15 H :    0.163833
  16 H :    0.133656
  17 H :    0.143282

  Mayer bond orders larger than 0.1
B(  0-O ,  1-C ) :   1.0541 B(  0-O ,  9-H ) :   0.8334 B(  1-C ,  2-C ) :   0.9151
B(  1-C ,  3-C ) :   0.8256 B(  1-C ,  8-C ) :   0.9517 B(  2-C ,  3-C ) :   0.8605
B(  2-C , 10-H ) :   0.9286 B(  2-C , 11-H ) :   0.9005 B(  3-C ,  4-C ) :   0.9226
B(  3-C , 12-H ) :   0.9029 B(  4-C ,  5-C ) :   0.8926 B(  4-C ,  8-C ) :   0.9725
B(  4-C , 13-H ) :   0.9182 B(  5-C ,  6-C ) :   0.9358 B(  5-C , 14-H ) :   0.9081
B(  5-C , 15-H ) :   0.9123 B(  6-C ,  7-N ) :   2.8757 B(  8-C , 16-H ) :   0.9083
B(  8-C , 17-H ) :   0.9160

MP2 TOTAL ENERGY:     -401.240018727 Eh
FINAL SINGLE POINT ENERGY      -401.240018726738

DIPOLE MOMENT
-------------
                                X             Y             Z
Electronic contribution:      0.85409      -1.73648       3.14559
Nuclear contribution   :     -1.19507       2.45869      -4.53478
                        -----------------------------------------
Total Dipole Moment    :     -0.34097       0.72221      -1.38918
                        -----------------------------------------
Magnitude (a.u.)       :      1.60240
Magnitude (Debye)      :      4.07297

                             ****ORCA TERMINATED NORMALLY****
TOTAL RUN TIME: 0 days 0 hours 15 minutes 32 seconds 381 msec
