                         Program Version 3.0.3 - RELEASE   -
|  1> ! RI-MP2 RIJK def2-TZVP def2-TZVP/C def2-TZVP/JK TIGHTSCF
|  2> % maxcore 2000
|  3> % mp2 density relaxed end
|  4> *xyz 0 1
|  5>  C       -0.1019582445     1.5284817828    -0.0016865681
|  6>  C        0.0002525648     0.0026883689     0.0233882278
|  7>  C        0.7394239740    -0.5583107754    -1.2092059477
|  8>  C        0.9966335860    -2.0134806043    -1.0369676849
|  9>  N        1.1625365751    -3.1552715878    -0.9553544834
| 10>  N        0.0292697784    -0.2646626391    -2.4382084561
| 11>  C       -1.2420788110    -0.9542588480    -2.7657171975
| 12>  C       -0.8240242792    -0.9254883136    -4.2562413927
| 13>  C        0.6101595475    -0.6477621087    -3.7442612045
| 14>  H        0.8910765878     1.9902636785     0.0309924105
| 15>  H       -0.5997205532     1.8717722199    -0.9114216273
| 16>  H       -0.6661319128     1.8907932123     0.8623778380
| 17>  H        0.5266705297    -0.3326459149     0.9231291886
| 18>  H       -0.9978589619    -0.4487957634     0.0640641152
| 19>  H        1.7210901206    -0.0705467088    -1.2780887700
| 20>  H       -1.2942055333    -1.9793471035    -2.3702154433
| 21>  H       -2.1448454365    -0.4097898861    -2.4727955174
| 22>  H       -0.9752521473    -1.8407401701    -4.8277211963
| 23>  H       -1.2502600718    -0.0797422092    -4.7979621204
| 24>  H        1.1922131796     0.1422531285    -4.2295928651
| 25>  H        1.2156499079    -1.5651802879    -3.6975261754
| 26> *
| 27>
| 28>                          ****END OF INPUT****

CARTESIAN COORDINATES (ANGSTROEM)
---------------------------------
  C     -0.101958    1.528482   -0.001687
  C      0.000253    0.002688    0.023388
  C      0.739424   -0.558311   -1.209206
  C      0.996634   -2.013481   -1.036968
  N      1.162537   -3.155272   -0.955354
  N      0.029270   -0.264663   -2.438208
  C     -1.242079   -0.954259   -2.765717
  C     -0.824024   -0.925488   -4.256241
  C      0.610160   -0.647762   -3.744261
  H      0.891077    1.990264    0.030992
  H     -0.599721    1.871772   -0.911422
  H     -0.666132    1.890793    0.862378
  H      0.526671   -0.332646    0.923129
  H     -0.997859   -0.448796    0.064064
  H      1.721090   -0.070547   -1.278089
  H     -1.294206   -1.979347   -2.370215
  H     -2.144845   -0.409790   -2.472796
  H     -0.975252   -1.840740   -4.827721
  H     -1.250260   -0.079742   -4.797962
  H      1.192213    0.142253   -4.229593
  H      1.215650   -1.565180   -3.697526

 Total Charge           Charge          ....    0
 Multiplicity           Mult            ....    1
 Number of Electrons    NEL             ....   68
 Basis Dimension        Dim             ....  351

ORBITAL ENERGIES
----------------

  NO   OCC          E(Eh)            E(eV)
   0   2.0000     -15.567413      -423.6108
   1   2.0000     -15.564652      -423.5357
   2   2.0000     -11.306880      -307.6758
   3   2.0000     -11.266403      -306.5744
   4   2.0000     -11.262004      -306.4547
   5   2.0000     -11.261906      -306.4521
   6   2.0000     -11.244610      -305.9814
   7   2.0000     -11.234341      -305.7020
   8   2.0000     -11.223789      -305.4148
   9   2.0000      -1.271329       -34.5946
  10   2.0000      -1.211949       -32.9788
  11   2.0000      -1.098672       -29.8964
  12   2.0000      -1.008899       -27.4535
  13   2.0000      -0.929443       -25.2914
  14   2.0000      -0.927787       -25.2464
  15   2.0000      -0.833864       -22.6906
  16   2.0000      -0.780784       -21.2462
  17   2.0000      -0.713463       -19.4143
  18   2.0000      -0.692616       -18.8470
  19   2.0000      -0.661945       -18.0124
  20   2.0000      -0.625456       -17.0195
  21   2.0000      -0.597384       -16.2556
  22   2.0000      -0.565816       -15.3966
  23   2.0000      -0.564368       -15.3572
  24   2.0000      -0.542271       -14.7559
  25   2.0000      -0.540044       -14.6953
  26   2.0000      -0.519381       -14.1331
  27   2.0000      -0.506739       -13.7891
  28   2.0000      -0.501653       -13.6507
  29   2.0000      -0.478972       -13.0335
  30   2.0000      -0.472234       -12.8501
  31   2.0000      -0.457668       -12.4538
  32   2.0000      -0.447870       -12.1872
  33   2.0000      -0.381468       -10.3803
  34   0.0000       0.125538         3.4161
  35   0.0000       0.146097         3.9755
  36   0.0000       0.154376         4.2008
  37   0.0000       0.159440         4.3386
  38   0.0000       0.177803         4.8383

MULLIKEN ATOMIC CHARGES
-----------------------
   0 C :   -0.397822
   1 C :   -0.197122
   2 C :    0.064527
   3 C :   -0.222023
   4 N :   -0.047466
   5 N :   -0.142455
   6 C :   -0.190731
   7 C :   -0.206757
   8 C :   -0.182479
   9 H :    0.121395
  10 H :    0.146190
  11 H :    0.139114
  12 H :    0.133630
  13 H :    0.126095
  14 H :    0.132869
  15 H :    0.121018
  16 H :    0.118180
  17 H :    0.127290
  18 H :    0.120771
  19 H :    0.116908
  20 H :    0.118870
Sum of atomic charges:   -0.0000000

LOEWDIN ATOMIC CHARGES
----------------------
   0 C :   -0.313406
   1 C :   -0.251613
   2 C :   -0.293427
   3 C :   -0.181057
   4 N :    0.056199
   5 N :    0.122328
   6 C :   -0.246416
   7 C :   -0.237332
   8 C :   -0.246405
   9 H :    0.122496
  10 H :    0.125941
  11 H :    0.123744
  12 H :    0.145472
  13 H :    0.143769
  14 H :    0.173376
  15 H :    0.128208
  16 H :    0.119366
  17 H :    0.128134
  18 H :    0.133923
  19 H :    0.119584
  20 H :    0.127117

  Mayer bond orders larger than 0.1
B(  0-C ,  1-C ) :   0.9186 B(  0-C ,  9-H ) :   0.9355 B(  0-C , 10-H ) :   0.9362
B(  0-C , 11-H ) :   0.9384 B(  1-C ,  2-C ) :   0.9113 B(  1-C , 12-H ) :   0.9350
B(  1-C , 13-H ) :   0.9180 B(  2-C ,  3-C ) :   0.8901 B(  2-C ,  5-N ) :   0.9436
B(  2-C , 14-H ) :   0.9137 B(  3-C ,  4-N ) :   2.8706 B(  5-N ,  6-C ) :   0.9100
B(  5-N ,  8-C ) :   0.9216 B(  6-C ,  7-C ) :   0.9469 B(  6-C , 15-H ) :   0.9132
B(  6-C , 16-H ) :   0.9263 B(  7-C ,  8-C ) :   0.9469 B(  7-C , 17-H ) :   0.9290
B(  7-C , 18-H ) :   0.9231 B(  8-C , 19-H ) :   0.9246 B(  8-C , 20-H ) :   0.9181

MP2 TOTAL ENERGY:     -382.586351489 Eh
FINAL SINGLE POINT ENERGY      -382.586351488915

DIPOLE MOMENT
-------------
                                X             Y             Z
Electronic contribution:      3.35908      -6.37205       0.46057
Nuclear contribution   :     -3.71922       7.51280      -0.77084
                        -----------------------------------------
Total Dipole Moment    :     -0.36014       1.14075      -0.31027
                        -----------------------------------------
Magnitude (a.u.)       :      1.23583
Magnitude (Debye)      :      3.14123

                             ****ORCA TERMINATED NORMALLY****
TOTAL RUN TIME: 0 days 0 hours 20 minutes 51 seconds 476 msec
