                         Program Version 3.0.3 - RELEASE   -
|  1> ! RI-MP2 RIJK def2-TZVP def2-TZVP/C def2-TZVP/JK TIGHTSCF
|  2> % maxcore 2000
|  3> % mp2 density relaxed end
|  4> *xyz 0 1
|  5>  O       -0.0403590606     0.3269362673     0.8745506192
|  6>  C        0.0301531707     1.3310345195     0.1959498131
|  7>  N        1.1300243506     1.7465481034    -0.4822413176
|  8>  C        2.4050501864     1.0568084956    -0.4404903085
|  9>  C        3.5326587024     2.0187580786    -0.0770596933
| 10>  C        4.9405461180     1.4087833199    -0.1591283756
| 11>  C        5.7860364589     2.5820288411    -0.6778199829
| 12>  C        4.7945127556     3.2830018521    -1.6093717314
| 13>  O        3.5134413578     3.1210150452    -1.0019640597
| 14>  H       -0.8220858272     2.0257366490     0.0563284780
| 15>  H        1.1012307990     2.6173139754    -0.9896888739
| 16>  H        2.3151604519     0.2570787469     0.2988274785
| 17>  H        2.6242287296     0.5995954088    -1.4152501123
| 18>  H        3.3392145213     2.4260546663     0.9255165098
| 19>  H        5.2796494334     1.0177542119     0.8024147481
| 20>  H        4.9530828873     0.5829358620    -0.8802861964
| 21>  H        6.0670015735     3.2465358891     0.1458365823
| 22>  H        6.6995345002     2.2667037412    -1.1875439520
| 23>  H        4.9856230928     4.3542087393    -1.7279325476
| 24>  H        4.8026069785     2.8233472275    -2.6098450477
| 25> *
| 26>
| 27>                          ****END OF INPUT****

CARTESIAN COORDINATES (ANGSTROEM)
---------------------------------
  O     -0.040359    0.326936    0.874551
  C      0.030153    1.331035    0.195950
  N      1.130024    1.746548   -0.482241
  C      2.405050    1.056808   -0.440490
  C      3.532659    2.018758   -0.077060
  C      4.940546    1.408783   -0.159128
  C      5.786036    2.582029   -0.677820
  C      4.794513    3.283002   -1.609372
  O      3.513441    3.121015   -1.001964
  H     -0.822086    2.025737    0.056328
  H      1.101231    2.617314   -0.989689
  H      2.315160    0.257079    0.298827
  H      2.624229    0.599595   -1.415250
  H      3.339215    2.426055    0.925517
  H      5.279649    1.017754    0.802415
  H      4.953083    0.582936   -0.880286
  H      6.067002    3.246536    0.145837
  H      6.699535    2.266704   -1.187544
  H      4.985623    4.354209   -1.727933
  H      4.802607    2.823347   -2.609845

 Total Charge           Charge          ....    0
 Multiplicity           Mult            ....    1
 Number of Electrons    NEL             ....   70
 Basis Dimension        Dim             ....  345

ORBITAL ENERGIES
----------------

  NO   OCC          E(Eh)            E(eV)
   0   2.0000     -20.558469      -559.4244
   1   2.0000     -20.515058      -558.2431
   2   2.0000     -15.581432      -423.9923
   3   2.0000     -11.342621      -308.6484
   4   2.0000     -11.287020      -307.1354
   5   2.0000     -11.281743      -306.9918
   6   2.0000     -11.263010      -306.4821
   7   2.0000     -11.236874      -305.7709
   8   2.0000     -11.235934      -305.7453
   9   2.0000      -1.382988       -37.6330
  10   2.0000      -1.374825       -37.4109
  11   2.0000      -1.230072       -33.4720
  12   2.0000      -1.072131       -29.1742
  13   2.0000      -1.034672       -28.1548
  14   2.0000      -0.934360       -25.4252
  15   2.0000      -0.829110       -22.5612
  16   2.0000      -0.812700       -22.1147
  17   2.0000      -0.786479       -21.4012
  18   2.0000      -0.737977       -20.0814
  19   2.0000      -0.696315       -18.9477
  20   2.0000      -0.674027       -18.3412
  21   2.0000      -0.642996       -17.4968
  22   2.0000      -0.615593       -16.7511
  23   2.0000      -0.599415       -16.3109
  24   2.0000      -0.593774       -16.1574
  25   2.0000      -0.577964       -15.7272
  26   2.0000      -0.551972       -15.0199
  27   2.0000      -0.525990       -14.3129
  28   2.0000      -0.514630       -14.0038
  29   2.0000      -0.499364       -13.5884
  30   2.0000      -0.486976       -13.2513
  31   2.0000      -0.478179       -13.0119
  32   2.0000      -0.428419       -11.6579
  33   2.0000      -0.422920       -11.5082
  34   2.0000      -0.386256       -10.5106
  35   0.0000       0.129499         3.5238
  36   0.0000       0.151283         4.1166
  37   0.0000       0.154925         4.2157
  38   0.0000       0.163353         4.4451
  39   0.0000       0.179989         4.8977

MULLIKEN ATOMIC CHARGES
-----------------------
   0 O :   -0.376400
   1 C :    0.189773
   2 N :   -0.312820
   3 C :   -0.127791
   4 C :    0.085557
   5 C :   -0.262330
   6 C :   -0.226527
   7 C :   -0.043794
   8 O :   -0.347718
   9 H :    0.077423
  10 H :    0.251610
  11 H :    0.157834
  12 H :    0.122511
  13 H :    0.100169
  14 H :    0.136076
  15 H :    0.119161
  16 H :    0.118786
  17 H :    0.129380
  18 H :    0.117237
  19 H :    0.091861
Sum of atomic charges:   -0.0000000

LOEWDIN ATOMIC CHARGES
----------------------
   0 O :    0.045772
   1 C :   -0.441456
   2 N :    0.088422
   3 C :   -0.259374
   4 C :   -0.305351
   5 C :   -0.237771
   6 C :   -0.262425
   7 C :   -0.304378
   8 O :    0.146871
   9 H :    0.109001
  10 H :    0.188569
  11 H :    0.151798
  12 H :    0.134864
  13 H :    0.141671
  14 H :    0.140810
  15 H :    0.141935
  16 H :    0.139416
  17 H :    0.137547
  18 H :    0.124972
  19 H :    0.119107

  Mayer bond orders larger than 0.1
B(  0-O ,  1-C ) :   1.8789 B(  1-C ,  2-N ) :   1.1706 B(  1-C ,  9-H ) :   0.9308
B(  2-N ,  3-C ) :   0.8157 B(  2-N , 10-H ) :   0.8640 B(  3-C ,  4-C ) :   0.9501
B(  3-C , 11-H ) :   0.9264 B(  3-C , 12-H ) :   0.9154 B(  4-C ,  5-C ) :   0.9327
B(  4-C ,  8-O ) :   0.8644 B(  4-C , 13-H ) :   0.9239 B(  5-C ,  6-C ) :   0.9192
B(  5-C , 14-H ) :   0.9263 B(  5-C , 15-H ) :   0.9265 B(  6-C ,  7-C ) :   0.9582
B(  6-C , 16-H ) :   0.9269 B(  6-C , 17-H ) :   0.9267 B(  7-C ,  8-O ) :   0.9378
B(  7-C , 18-H ) :   0.9277 B(  7-C , 19-H ) :   0.9247

MP2 TOTAL ENERGY:     -439.600984467 Eh
FINAL SINGLE POINT ENERGY      -439.600984466756

DIPOLE MOMENT
-------------
                                X             Y             Z
Electronic contribution:     -7.73948      -0.71633       1.54503
Nuclear contribution   :      9.08870       1.47719      -2.27702
                        -----------------------------------------
Total Dipole Moment    :      1.34923       0.76086      -0.73199
                        -----------------------------------------
Magnitude (a.u.)       :      1.71322
Magnitude (Debye)      :      4.35466

                             ****ORCA TERMINATED NORMALLY****
TOTAL RUN TIME: 0 days 0 hours 16 minutes 31 seconds 121 msec
