                         Program Version 3.0.3 - RELEASE   -
|  1> ! RI-MP2 RIJK def2-TZVP def2-TZVP/C def2-TZVP/JK TIGHTSCF
|  2> % maxcore 2000
|  3> % mp2 density relaxed end
|  4> *xyz 0 1
|  5>  C        0.0464332732     1.4832255028     0.1709698488
|  6>  C       -0.0765986327    -0.0120176243     0.0112861399
|  7>  C       -1.2676089600    -0.6418440238     0.0842601000
|  8>  C       -1.4818028751    -2.0813329379    -0.1656996571
|  9>  N       -2.4949428238    -2.4480919101    -0.8468077525
| 10>  N       -0.6232026374    -2.9778941288     0.4931576041
| 11>  C        0.6489089977    -2.8502786439     0.4986187396
| 12>  N        1.4796317465    -1.9520744509    -0.1563264356
| 13>  C        1.1497110538    -0.7234478111    -0.3478551865
| 14>  H        0.4857765048     1.9380233094    -0.7247221316
| 15>  H       -0.9270811655     1.9450810161     0.3462539642
| 16>  H        0.7023745975     1.7388337155     1.0112213482
| 17>  H       -2.1706075570    -0.0623401763     0.2588271191
| 18>  H       -2.5237262182    -3.4705471619    -0.8868984935
| 19>  H        1.2137894686    -3.5988733969     1.0564496060
| 20>  H        1.9128732176    -0.1064867476    -0.8327593631
| 21> *
| 22>
| 23>                          ****END OF INPUT****

CARTESIAN COORDINATES (ANGSTROEM)
---------------------------------
  C      0.046433    1.483226    0.170970
  C     -0.076599   -0.012018    0.011286
  C     -1.267609   -0.641844    0.084260
  C     -1.481803   -2.081333   -0.165700
  N     -2.494943   -2.448092   -0.846808
  N     -0.623203   -2.977894    0.493158
  C      0.648909   -2.850279    0.498619
  N      1.479632   -1.952074   -0.156326
  C      1.149711   -0.723448   -0.347855
  H      0.485777    1.938023   -0.724722
  H     -0.927081    1.945081    0.346254
  H      0.702375    1.738834    1.011221
  H     -2.170608   -0.062340    0.258827
  H     -2.523726   -3.470547   -0.886898
  H      1.213789   -3.598873    1.056450
  H      1.912873   -0.106487   -0.832759

 Total Charge           Charge          ....    0
 Multiplicity           Mult            ....    1
 Number of Electrons    NEL             ....   64
 Basis Dimension        Dim             ....  321

ORBITAL ENERGIES
----------------

  NO   OCC          E(Eh)            E(eV)
   0   2.0000     -15.587276      -424.1514
   1   2.0000     -15.572985      -423.7625
   2   2.0000     -15.540967      -422.8912
   3   2.0000     -11.331647      -308.3498
   4   2.0000     -11.325099      -308.1716
   5   2.0000     -11.319829      -308.0282
   6   2.0000     -11.275481      -306.8214
   7   2.0000     -11.271451      -306.7118
   8   2.0000     -11.251196      -306.1606
   9   2.0000      -1.311004       -35.6742
  10   2.0000      -1.241632       -33.7865
  11   2.0000      -1.171765       -31.8853
  12   2.0000      -1.116120       -30.3712
  13   2.0000      -0.984933       -26.8014
  14   2.0000      -0.948039       -25.7974
  15   2.0000      -0.880350       -23.9555
  16   2.0000      -0.782464       -21.2919
  17   2.0000      -0.772355       -21.0169
  18   2.0000      -0.701817       -19.0974
  19   2.0000      -0.653914       -17.7939
  20   2.0000      -0.641933       -17.4679
  21   2.0000      -0.621903       -16.9228
  22   2.0000      -0.591642       -16.0994
  23   2.0000      -0.576868       -15.6974
  24   2.0000      -0.567379       -15.4392
  25   2.0000      -0.531985       -14.4761
  26   2.0000      -0.507457       -13.8086
  27   2.0000      -0.464289       -12.6339
  28   2.0000      -0.444139       -12.0856
  29   2.0000      -0.417287       -11.3550
  30   2.0000      -0.403759       -10.9868
  31   2.0000      -0.355466        -9.6727
  32   0.0000       0.051826         1.4103
  33   0.0000       0.091852         2.4994
  34   0.0000       0.129176         3.5151
  35   0.0000       0.169779         4.6199
  36   0.0000       0.174466         4.7475

MULLIKEN ATOMIC CHARGES
-----------------------
   0 C :   -0.414203
   1 C :    0.099827
   2 C :   -0.131657
   3 C :    0.110105
   4 N :   -0.345771
   5 N :   -0.219610
   6 C :    0.062947
   7 N :   -0.214608
   8 C :   -0.044349
   9 H :    0.149081
  10 H :    0.145787
  11 H :    0.153090
  12 H :    0.147114
  13 H :    0.219877
  14 H :    0.143182
  15 H :    0.139187
Sum of atomic charges:    0.0000000

LOEWDIN ATOMIC CHARGES
----------------------
   0 C :   -0.257894
   1 C :   -0.172718
   2 C :   -0.056725
   3 C :   -0.366720
   4 N :   -0.026002
   5 N :    0.156248
   6 C :   -0.279598
   7 N :    0.135312
   8 C :   -0.155552
   9 H :    0.136232
  10 H :    0.133946
  11 H :    0.135857
  12 H :    0.161457
  13 H :    0.166788
  14 H :    0.140703
  15 H :    0.148666

  Mayer bond orders larger than 0.1
B(  0-C ,  1-C ) :   0.8907 B(  0-C ,  9-H ) :   0.9254 B(  0-C , 10-H ) :   0.9420
B(  0-C , 11-H ) :   0.9256 B(  1-C ,  2-C ) :   1.6361 B(  1-C ,  8-C ) :   0.9793
B(  2-C ,  3-C ) :   0.9356 B(  2-C , 12-H ) :   0.9209 B(  3-C ,  4-N ) :   1.9834
B(  3-C ,  5-N ) :   1.0110 B(  4-N , 13-H ) :   0.8559 B(  5-N ,  6-C ) :   1.7317
B(  6-C ,  7-N ) :   1.0708 B(  6-C , 14-H ) :   0.9248 B(  7-N ,  8-C ) :   1.7379
B(  8-C , 15-H ) :   0.9410

MP2 TOTAL ENERGY:     -396.233348378 Eh
FINAL SINGLE POINT ENERGY      -396.233348378264

DIPOLE MOMENT
-------------
                                X             Y             Z
Electronic contribution:     -0.07613      -6.29864      -0.08852
Nuclear contribution   :      0.72436       7.29802       0.42293
                        -----------------------------------------
Total Dipole Moment    :      0.64823       0.99938       0.33440
                        -----------------------------------------
Magnitude (a.u.)       :      1.23725
Magnitude (Debye)      :      3.14483

                             ****ORCA TERMINATED NORMALLY****
TOTAL RUN TIME: 0 days 0 hours 16 minutes 44 seconds 315 msec
