                         Program Version 3.0.3 - RELEASE   -
|  1> ! RI-MP2 RIJK def2-TZVP def2-TZVP/C def2-TZVP/JK TIGHTSCF
|  2> % maxcore 2000
|  3> % mp2 density relaxed end
|  4> *xyz 0 1
|  5>  C       -0.2852567366     1.5202132152     0.1365078461
|  6>  C        0.2199477953     0.0908657206    -0.0927389569
|  7>  C        0.8750319458    -0.5011613442     1.1384075191
|  8>  C        0.0478452799    -1.1907400621     2.1933885081
|  9>  C        0.9764695460    -1.9899803382     1.3229118051
| 10>  C        0.6939974595    -3.1465623091     0.3451758750
| 11>  N        1.8977722585    -3.7811809657     0.9006639111
| 12>  C        2.2077852084    -2.7583858940     1.7736082454
| 13>  O        3.1065395385    -2.5814914711     2.5531739314
| 14>  H        0.5369960443     2.1876711434     0.4155795021
| 15>  H       -0.7515701209     1.9243842811    -0.7672257120
| 16>  H       -1.0252141755     1.5513358303     0.9427691887
| 17>  H       -0.6162261175    -0.5490031245    -0.4027632676
| 18>  H        0.9351593130     0.0845904532    -0.9255043653
| 19>  H        1.7380829440     0.0499762759     1.5068653212
| 20>  H        0.3235335076    -1.0766932769     3.2364883168
| 21>  H       -1.0180022362    -1.2943068017     2.0111267366
| 22>  H       -0.2294796644    -3.7065676550     0.5256711577
| 23>  H        0.7713397340    -2.8921423576    -0.7175069428
| 24>  H        2.3975469563    -4.6174659298     0.6416202403
| 25> *
| 26>
| 27>                          ****END OF INPUT****

CARTESIAN COORDINATES (ANGSTROEM)
---------------------------------
  C     -0.285257    1.520213    0.136508
  C      0.219948    0.090866   -0.092739
  C      0.875032   -0.501161    1.138408
  C      0.047845   -1.190740    2.193389
  C      0.976470   -1.989980    1.322912
  C      0.693997   -3.146562    0.345176
  N      1.897772   -3.781181    0.900664
  C      2.207785   -2.758386    1.773608
  O      3.106540   -2.581491    2.553174
  H      0.536996    2.187671    0.415580
  H     -0.751570    1.924384   -0.767226
  H     -1.025214    1.551336    0.942769
  H     -0.616226   -0.549003   -0.402763
  H      0.935159    0.084590   -0.925504
  H      1.738083    0.049976    1.506865
  H      0.323534   -1.076693    3.236488
  H     -1.018002   -1.294307    2.011127
  H     -0.229480   -3.706568    0.525671
  H      0.771340   -2.892142   -0.717507
  H      2.397547   -4.617466    0.641620

 Total Charge           Charge          ....    0
 Multiplicity           Mult            ....    1
 Number of Electrons    NEL             ....   68
 Basis Dimension        Dim             ....  345

ORBITAL ENERGIES
----------------

  NO   OCC          E(Eh)            E(eV)
   0   2.0000     -20.519763      -558.3712
   1   2.0000     -15.580265      -423.9606
   2   2.0000     -11.345279      -308.7207
   3   2.0000     -11.280504      -306.9581
   4   2.0000     -11.251864      -306.1788
   5   2.0000     -11.245011      -305.9923
   6   2.0000     -11.239034      -305.8297
   7   2.0000     -11.235168      -305.7245
   8   2.0000     -11.220623      -305.3287
   9   2.0000      -1.381540       -37.5936
  10   2.0000      -1.265950       -34.4483
  11   2.0000      -1.156130       -31.4599
  12   2.0000      -1.033645       -28.1269
  13   2.0000      -0.945546       -25.7296
  14   2.0000      -0.890906       -24.2428
  15   2.0000      -0.875191       -23.8152
  16   2.0000      -0.793041       -21.5797
  17   2.0000      -0.724146       -19.7050
  18   2.0000      -0.681921       -18.5560
  19   2.0000      -0.671724       -18.2785
  20   2.0000      -0.647036       -17.6068
  21   2.0000      -0.623416       -16.9640
  22   2.0000      -0.613530       -16.6950
  23   2.0000      -0.584329       -15.9004
  24   2.0000      -0.560937       -15.2639
  25   2.0000      -0.540417       -14.7055
  26   2.0000      -0.529885       -14.4189
  27   2.0000      -0.524891       -14.2830
  28   2.0000      -0.503507       -13.7011
  29   2.0000      -0.486593       -13.2409
  30   2.0000      -0.435148       -11.8410
  31   2.0000      -0.418079       -11.3765
  32   2.0000      -0.401626       -10.9288
  33   2.0000      -0.395476       -10.7614
  34   0.0000       0.129044         3.5115
  35   0.0000       0.141319         3.8455
  36   0.0000       0.154703         4.2097
  37   0.0000       0.161572         4.3966
  38   0.0000       0.178469         4.8564

MULLIKEN ATOMIC CHARGES
-----------------------
   0 C :   -0.386395
   1 C :   -0.231181
   2 C :   -0.109190
   3 C :   -0.310835
   4 C :    0.029551
   5 C :   -0.069872
   6 N :   -0.333014
   7 C :    0.212004
   8 O :   -0.322178
   9 H :    0.126921
  10 H :    0.134636
  11 H :    0.128624
  12 H :    0.108610
  13 H :    0.121695
  14 H :    0.137250
  15 H :    0.150076
  16 H :    0.133082
  17 H :    0.119579
  18 H :    0.124546
  19 H :    0.236089
Sum of atomic charges:   -0.0000000

LOEWDIN ATOMIC CHARGES
----------------------
   0 C :   -0.311761
   1 C :   -0.271518
   2 C :   -0.180364
   3 C :   -0.173325
   4 C :   -0.173742
   5 C :   -0.203488
   6 N :    0.120150
   7 C :   -0.411877
   8 O :    0.098723
   9 H :    0.122775
  10 H :    0.120868
  11 H :    0.122481
  12 H :    0.139813
  13 H :    0.140170
  14 H :    0.159753
  15 H :    0.142865
  16 H :    0.139292
  17 H :    0.125158
  18 H :    0.125672
  19 H :    0.168355

  Mayer bond orders larger than 0.1
B(  0-C ,  1-C ) :   0.9245 B(  0-C ,  9-H ) :   0.9373 B(  0-C , 10-H ) :   0.9405
B(  0-C , 11-H ) :   0.9393 B(  1-C ,  2-C ) :   0.9053 B(  1-C , 12-H ) :   0.9300
B(  1-C , 13-H ) :   0.9356 B(  2-C ,  3-C ) :   0.9503 B(  2-C ,  4-C ) :   0.8015
B(  2-C , 14-H ) :   0.9148 B(  3-C ,  4-C ) :   0.8203 B(  3-C , 15-H ) :   0.9214
B(  3-C , 16-H ) :   0.9220 B(  4-C ,  5-C ) :   0.8864 B(  4-C ,  7-C ) :   0.8562
B(  5-C ,  6-N ) :   0.9095 B(  5-C , 17-H ) :   0.9243 B(  5-C , 18-H ) :   0.9266
B(  6-N ,  7-C ) :   1.1552 B(  6-N , 19-H ) :   0.8583 B(  7-C ,  8-O ) :   2.0407

MP2 TOTAL ENERGY:     -402.463753342 Eh
FINAL SINGLE POINT ENERGY      -402.463753341976

DIPOLE MOMENT
-------------
                                X             Y             Z
Electronic contribution:      7.26927      -8.67860       4.51699
Nuclear contribution   :     -8.32640       8.51333      -5.60927
                        -----------------------------------------
Total Dipole Moment    :     -1.05713      -0.16527      -1.09228
                        -----------------------------------------
Magnitude (a.u.)       :      1.52903
Magnitude (Debye)      :      3.88647

                             ****ORCA TERMINATED NORMALLY****
TOTAL RUN TIME: 0 days 0 hours 28 minutes 1 seconds 626 msec
