                         Program Version 3.0.3 - RELEASE   -
|  1> ! RI-MP2 RIJK def2-TZVP def2-TZVP/C def2-TZVP/JK TIGHTSCF
|  2> % maxcore 2000
|  3> % mp2 density relaxed end
|  4> *xyz 0 1
|  5>  C       -0.0093156192     1.5327330860     0.0694800046
|  6>  C        0.0134970144     0.0483536678    -0.0236455685
|  7>  C        0.0183379241    -0.7983415347    -1.1179379996
|  8>  N       -0.0032200555    -0.3955635046    -2.4428598891
|  9>  C        0.0094267949    -1.2954434620    -3.3540000140
| 10>  N        0.0536291614    -0.9747738416    -4.6781030757
| 11>  N        0.0440685785    -2.0934102381    -0.6682941052
| 12>  N        0.0539814713    -2.0990323796     0.6322784252
| 13>  N        0.0357591740    -0.8106650029     1.0278672235
| 14>  H        0.8722980600     1.9286704917     0.5870865755
| 15>  H       -0.0211207971     1.9402942118    -0.9434654527
| 16>  H       -0.8970761793     1.9011450775     0.5968853346
| 17>  H        0.0265041357    -2.3677053456    -3.1417249914
| 18>  H       -0.1227472234    -0.0116189095    -4.9207609398
| 19>  H       -0.2240153434    -1.6673336406    -5.3520698550
| 20>  H        0.0419624634    -0.6019703355     2.0132188777
| 21> *
| 22>
| 23>                          ****END OF INPUT****

CARTESIAN COORDINATES (ANGSTROEM)
---------------------------------
  C     -0.009316    1.532733    0.069480
  C      0.013497    0.048354   -0.023646
  C      0.018338   -0.798342   -1.117938
  N     -0.003220   -0.395564   -2.442860
  C      0.009427   -1.295443   -3.354000
  N      0.053629   -0.974774   -4.678103
  N      0.044069   -2.093410   -0.668294
  N      0.053981   -2.099032    0.632278
  N      0.035759   -0.810665    1.027867
  H      0.872298    1.928670    0.587087
  H     -0.021121    1.940294   -0.943465
  H     -0.897076    1.901145    0.596885
  H      0.026504   -2.367705   -3.141725
  H     -0.122747   -0.011619   -4.920761
  H     -0.224015   -1.667334   -5.352070
  H      0.041962   -0.601970    2.013219

 Total Charge           Charge          ....    0
 Multiplicity           Mult            ....    1
 Number of Electrons    NEL             ....   66
 Basis Dimension        Dim             ....  321

ORBITAL ENERGIES
----------------

  NO   OCC          E(Eh)            E(eV)
   0   2.0000     -15.640690      -425.6048
   1   2.0000     -15.628118      -425.2627
   2   2.0000     -15.580708      -423.9726
   3   2.0000     -15.579337      -423.9353
   4   2.0000     -15.537256      -422.7902
   5   2.0000     -11.317313      -307.9598
   6   2.0000     -11.268936      -306.6433
   7   2.0000     -11.267297      -306.5987
   8   2.0000     -11.237922      -305.7994
   9   2.0000      -1.421770       -38.6883
  10   2.0000      -1.274404       -34.6783
  11   2.0000      -1.198025       -32.5999
  12   2.0000      -1.171752       -31.8850
  13   2.0000      -1.066838       -29.0301
  14   2.0000      -0.965329       -26.2679
  15   2.0000      -0.870390       -23.6845
  16   2.0000      -0.845056       -22.9951
  17   2.0000      -0.788709       -21.4619
  18   2.0000      -0.739495       -20.1227
  19   2.0000      -0.711153       -19.3515
  20   2.0000      -0.640723       -17.4350
  21   2.0000      -0.639380       -17.3984
  22   2.0000      -0.623375       -16.9629
  23   2.0000      -0.587115       -15.9762
  24   2.0000      -0.569370       -15.4933
  25   2.0000      -0.556245       -15.1362
  26   2.0000      -0.543016       -14.7762
  27   2.0000      -0.505816       -13.7640
  28   2.0000      -0.450963       -12.2713
  29   2.0000      -0.437667       -11.9095
  30   2.0000      -0.404337       -11.0026
  31   2.0000      -0.389116       -10.5884
  32   2.0000      -0.290884        -7.9154
  33   0.0000       0.130016         3.5379
  34   0.0000       0.133686         3.6378
  35   0.0000       0.140818         3.8318
  36   0.0000       0.153360         4.1731
  37   0.0000       0.163258         4.4425

MULLIKEN ATOMIC CHARGES
-----------------------
   0 C :   -0.429233
   1 C :   -0.014659
   2 C :    0.162710
   3 N :   -0.340852
   4 C :    0.136567
   5 N :   -0.458571
   6 N :   -0.170932
   7 N :   -0.180709
   8 N :   -0.068055
   9 H :    0.146475
  10 H :    0.171317
  11 H :    0.146003
  12 H :    0.124604
  13 H :    0.256947
  14 H :    0.260846
  15 H :    0.257543
Sum of atomic charges:   -0.0000000

LOEWDIN ATOMIC CHARGES
----------------------
   0 C :   -0.274746
   1 C :   -0.250927
   2 C :   -0.344036
   3 N :    0.085270
   4 C :   -0.312564
   5 N :   -0.048824
   6 N :    0.004690
   7 N :   -0.063093
   8 N :    0.133983
   9 H :    0.132537
  10 H :    0.145673
  11 H :    0.132325
  12 H :    0.130302
  13 H :    0.170977
  14 H :    0.169031
  15 H :    0.189402

  Mayer bond orders larger than 0.1
B(  0-C ,  1-C ) :   0.8459 B(  0-C ,  9-H ) :   0.9343 B(  0-C , 10-H ) :   0.9400
B(  0-C , 11-H ) :   0.9341 B(  1-C ,  2-C ) :   1.3854 B(  1-C ,  7-N ) :   0.1556
B(  1-C ,  8-N ) :   1.2082 B(  2-C ,  3-N ) :   1.1113 B(  2-C ,  6-N ) :   1.3216
B(  3-N ,  4-C ) :   1.6789 B(  4-C ,  5-N ) :   1.1389 B(  4-C , 12-H ) :   0.9107
B(  5-N , 13-H ) :   0.8614 B(  5-N , 14-H ) :   0.8730 B(  6-N ,  7-N ) :   1.2947
B(  7-N ,  8-N ) :   1.0333 B(  8-N , 15-H ) :   0.8632

MP2 TOTAL ENERGY:     -429.541564852 Eh
FINAL SINGLE POINT ENERGY      -429.541564851809

DIPOLE MOMENT
-------------
                                X             Y             Z
Electronic contribution:      0.16155      -4.86500       2.18159
Nuclear contribution   :     -0.44212       5.98680      -2.58556
                        -----------------------------------------
Total Dipole Moment    :     -0.28058       1.12180      -0.40397
                        -----------------------------------------
Magnitude (a.u.)       :      1.22489
Magnitude (Debye)      :      3.11341

                             ****ORCA TERMINATED NORMALLY****
TOTAL RUN TIME: 0 days 0 hours 13 minutes 51 seconds 276 msec
