                         Program Version 3.0.3 - RELEASE   -
|  1> ! RI-MP2 RIJK def2-TZVP def2-TZVP/C def2-TZVP/JK TIGHTSCF
|  2> % maxcore 2000
|  3> % mp2 density relaxed end
|  4> *xyz 0 1
|  5>  C       -0.2398959323     1.4639958564     0.1232504129
|  6>  C        0.1000736064    -0.0080193452    -0.0325468094
|  7>  O        0.6200064819    -0.4889406903     1.1941714299
|  8>  C        0.9667998759    -1.8685503137     1.1651637941
|  9>  C        1.5967920854    -2.2483995673     2.4833563083
| 10>  C        2.8506349736    -1.4654466675     2.8356651100
| 11>  O        2.5848489121    -0.1243720690     3.2015162676
| 12>  C        0.6883265266    -2.6645746445     3.6125308264
| 13>  C        1.5133526007    -3.7003200871     2.8916026283
| 14>  H        0.6540988370     2.0436678114     0.3713852168
| 15>  H       -0.6574540947     1.8573822952    -0.8082502700
| 16>  H       -0.9744453454     1.6063208310     0.9207706213
| 17>  H       -0.7974890133    -0.5866441308    -0.3060974596
| 18>  H        0.8374056630    -0.1555534349    -0.8389482044
| 19>  H        0.0683964537    -2.4771455873     0.9720330273
| 20>  H        1.6727103546    -2.0518193667     0.3367790661
| 21>  H        3.3487766377    -1.9304310534     3.6939641072
| 22>  H        3.5561750357    -1.5162392999     1.9870005418
| 23>  H        1.9506650733     0.2063866876     2.5519612676
| 24>  H        0.9790441307    -2.3791189195     4.6172452455
| 25>  H       -0.3823210899    -2.6522977676     3.4382801459
| 26>  H        1.0046707205    -4.3929061616     2.2286114346
| 27>  H        2.3675229166    -4.1294195855     3.4044191119
| 28> *
| 29>
| 30>                          ****END OF INPUT****

CARTESIAN COORDINATES (ANGSTROEM)
---------------------------------
  C     -0.239896    1.463996    0.123250
  C      0.100074   -0.008019   -0.032547
  O      0.620006   -0.488941    1.194171
  C      0.966800   -1.868550    1.165164
  C      1.596792   -2.248400    2.483356
  C      2.850635   -1.465447    2.835665
  O      2.584849   -0.124372    3.201516
  C      0.688327   -2.664575    3.612531
  C      1.513353   -3.700320    2.891603
  H      0.654099    2.043668    0.371385
  H     -0.657454    1.857382   -0.808250
  H     -0.974445    1.606321    0.920771
  H     -0.797489   -0.586644   -0.306097
  H      0.837406   -0.155553   -0.838948
  H      0.068396   -2.477146    0.972033
  H      1.672710   -2.051819    0.336779
  H      3.348777   -1.930431    3.693964
  H      3.556175   -1.516239    1.987001
  H      1.950665    0.206387    2.551961
  H      0.979044   -2.379119    4.617245
  H     -0.382321   -2.652298    3.438280
  H      1.004671   -4.392906    2.228611
  H      2.367523   -4.129420    3.404419

 Total Charge           Charge          ....    0
 Multiplicity           Mult            ....    1
 Number of Electrons    NEL             ....   72
 Basis Dimension        Dim             ....  363

ORBITAL ENERGIES
----------------

  NO   OCC          E(Eh)            E(eV)
   0   2.0000     -20.566119      -559.6325
   1   2.0000     -20.530394      -558.6604
   2   2.0000     -11.284735      -307.0733
   3   2.0000     -11.283955      -307.0520
   4   2.0000     -11.267283      -306.5984
   5   2.0000     -11.236282      -305.7548
   6   2.0000     -11.230605      -305.6003
   7   2.0000     -11.224632      -305.4378
   8   2.0000     -11.221778      -305.3601
   9   2.0000      -1.387180       -37.7471
  10   2.0000      -1.338775       -36.4299
  11   2.0000      -1.155280       -31.4368
  12   2.0000      -1.033167       -28.1139
  13   2.0000      -0.953238       -25.9389
  14   2.0000      -0.913148       -24.8480
  15   2.0000      -0.843666       -22.9573
  16   2.0000      -0.826061       -22.4783
  17   2.0000      -0.763254       -20.7692
  18   2.0000      -0.696392       -18.9498
  19   2.0000      -0.675224       -18.3738
  20   2.0000      -0.666188       -18.1279
  21   2.0000      -0.653084       -17.7713
  22   2.0000      -0.619526       -16.8582
  23   2.0000      -0.594066       -16.1654
  24   2.0000      -0.581953       -15.8357
  25   2.0000      -0.572829       -15.5875
  26   2.0000      -0.551211       -14.9992
  27   2.0000      -0.542230       -14.7548
  28   2.0000      -0.517448       -14.0805
  29   2.0000      -0.512307       -13.9406
  30   2.0000      -0.495779       -13.4908
  31   2.0000      -0.463811       -12.6210
  32   2.0000      -0.441861       -12.0237
  33   2.0000      -0.432026       -11.7560
  34   2.0000      -0.413476       -11.2513
  35   2.0000      -0.405845       -11.0436
  36   0.0000       0.130519         3.5516
  37   0.0000       0.148205         4.0329
  38   0.0000       0.169639         4.6161
  39   0.0000       0.172753         4.7008
  40   0.0000       0.178327         4.8525

MULLIKEN ATOMIC CHARGES
-----------------------
   0 C :   -0.372848
   1 C :   -0.055441
   2 O :   -0.329388
   3 C :   -0.089662
   4 C :    0.079717
   5 C :    0.004261
   6 O :   -0.486188
   7 C :   -0.272911
   8 C :   -0.313685
   9 H :    0.133472
  10 H :    0.129189
  11 H :    0.134850
  12 H :    0.095932
  13 H :    0.095567
  14 H :    0.099482
  15 H :    0.107023
  16 H :    0.095758
  17 H :    0.088996
  18 H :    0.329518
  19 H :    0.137127
  20 H :    0.128723
  21 H :    0.127196
  22 H :    0.133312
Sum of atomic charges:   -0.0000000

LOEWDIN ATOMIC CHARGES
----------------------
   0 C :   -0.316748
   1 C :   -0.352037
   2 O :    0.146947
   3 C :   -0.278592
   4 C :   -0.271345
   5 C :   -0.306144
   6 O :   -0.049556
   7 C :   -0.200366
   8 C :   -0.204452
   9 H :    0.124408
  10 H :    0.126461
  11 H :    0.125595
  12 H :    0.118847
  13 H :    0.117332
  14 H :    0.128583
  15 H :    0.126655
  16 H :    0.131585
  17 H :    0.121331
  18 H :    0.169256
  19 H :    0.139228
  20 H :    0.135037
  21 H :    0.133151
  22 H :    0.134824

  Mayer bond orders larger than 0.1
B(  0-C ,  1-C ) :   0.9514 B(  0-C ,  9-H ) :   0.9356 B(  0-C , 10-H ) :   0.9323
B(  0-C , 11-H ) :   0.9358 B(  1-C ,  2-O ) :   0.9068 B(  1-C , 12-H ) :   0.9245
B(  1-C , 13-H ) :   0.9255 B(  2-O ,  3-C ) :   0.9219 B(  3-C ,  4-C ) :   0.9527
B(  3-C , 14-H ) :   0.9071 B(  3-C , 15-H ) :   0.9308 B(  4-C ,  5-C ) :   0.9750
B(  4-C ,  7-C ) :   0.8415 B(  4-C ,  8-C ) :   0.8488 B(  5-C ,  6-O ) :   0.9671
B(  5-C , 16-H ) :   0.9090 B(  5-C , 17-H ) :   0.9231 B(  6-O , 18-H ) :   0.8202
B(  7-C ,  8-C ) :   0.9251 B(  7-C , 19-H ) :   0.9277 B(  7-C , 20-H ) :   0.9275
B(  8-C , 21-H ) :   0.9185 B(  8-C , 22-H ) :   0.9211

MP2 TOTAL ENERGY:     -424.702289928 Eh
FINAL SINGLE POINT ENERGY      -424.702289928060

DIPOLE MOMENT
-------------
                                X             Y             Z
Electronic contribution:      2.30043      -0.40557       3.09390
Nuclear contribution   :     -2.82085      -0.12156      -4.05729
                        -----------------------------------------
Total Dipole Moment    :     -0.52042      -0.52714      -0.96339
                        -----------------------------------------
Magnitude (a.u.)       :      1.21525
Magnitude (Debye)      :      3.08892

                             ****ORCA TERMINATED NORMALLY****
TOTAL RUN TIME: 0 days 0 hours 17 minutes 24 seconds 857 msec
