                         Program Version 3.0.3 - RELEASE   -
|  1> ! RI-MP2 RIJK def2-TZVP def2-TZVP/C def2-TZVP/JK TIGHTSCF
|  2> % maxcore 2000
|  3> % mp2 density relaxed end
|  4> *xyz 0 1
|  5>  C        0.1368085004     1.4710681310    -0.0609315731
|  6>  O        0.1051240594     0.0720436631    -0.2058596840
|  7>  C        1.3697967248    -0.4771192014    -0.5176799437
|  8>  C        1.1870066113    -1.9813293300    -0.5938659377
|  9>  C        0.8706449062    -2.7609407888    -1.8952354451
| 10>  C        2.3479583220    -2.5109202103    -2.2649836894
| 11>  N        2.4496588213    -2.8569046805    -0.7634958120
| 12>  C        1.4378927183    -3.9667054824    -1.1160876718
| 13>  H        0.8141647445     1.7828082607     0.7501464560
| 14>  H        0.4606374561     1.9725049573    -0.9870868901
| 15>  H       -0.8775014612     1.7981491180     0.1805557134
| 16>  H        1.7523562355    -0.0370861257    -1.4506865859
| 17>  H        2.1030803470    -0.2480253089     0.2750408593
| 18>  H        0.6065417545    -2.2843628980     0.2841188925
| 19>  H       -0.0207315512    -2.7068773835    -2.5293369229
| 20>  H        2.8412547641    -3.2455546163    -2.9074509679
| 21>  H        2.6763689839    -1.5020425518    -2.5175321853
| 22>  H        0.8780435328    -4.3366675600    -0.2527252919
| 23>  H        1.8817592204    -4.7860174725    -1.6876267202
| 24> *
| 25>
| 26>                          ****END OF INPUT****

CARTESIAN COORDINATES (ANGSTROEM)
---------------------------------
  C      0.136809    1.471068   -0.060932
  O      0.105124    0.072044   -0.205860
  C      1.369797   -0.477119   -0.517680
  C      1.187007   -1.981329   -0.593866
  C      0.870645   -2.760941   -1.895235
  C      2.347958   -2.510920   -2.264984
  N      2.449659   -2.856905   -0.763496
  C      1.437893   -3.966705   -1.116088
  H      0.814165    1.782808    0.750146
  H      0.460637    1.972505   -0.987087
  H     -0.877501    1.798149    0.180556
  H      1.752356   -0.037086   -1.450687
  H      2.103080   -0.248025    0.275041
  H      0.606542   -2.284363    0.284119
  H     -0.020732   -2.706877   -2.529337
  H      2.841255   -3.245555   -2.907451
  H      2.676369   -1.502043   -2.517532
  H      0.878044   -4.336668   -0.252725
  H      1.881759   -4.786017   -1.687627

 Total Charge           Charge          ....    0
 Multiplicity           Mult            ....    1
 Number of Electrons    NEL             ....   62
 Basis Dimension        Dim             ....  314

ORBITAL ENERGIES
----------------

  NO   OCC          E(Eh)            E(eV)
   0   2.0000     -20.558189      -559.4168
   1   2.0000     -15.566859      -423.5958
   2   2.0000     -11.275698      -306.8273
   3   2.0000     -11.272676      -306.7451
   4   2.0000     -11.261189      -306.4325
   5   2.0000     -11.258130      -306.3493
   6   2.0000     -11.257726      -306.3383
   7   2.0000     -11.247242      -306.0530
   8   2.0000      -1.379338       -37.5337
   9   2.0000      -1.291121       -35.1332
  10   2.0000      -1.010067       -27.4853
  11   2.0000      -0.924913       -25.1682
  12   2.0000      -0.921398       -25.0725
  13   2.0000      -0.908363       -24.7178
  14   2.0000      -0.846005       -23.0210
  15   2.0000      -0.743313       -20.2266
  16   2.0000      -0.676041       -18.3960
  17   2.0000      -0.658614       -17.9218
  18   2.0000      -0.648040       -17.6341
  19   2.0000      -0.643473       -17.5098
  20   2.0000      -0.615505       -16.7487
  21   2.0000      -0.580005       -15.7827
  22   2.0000      -0.553641       -15.0653
  23   2.0000      -0.504575       -13.7302
  24   2.0000      -0.492894       -13.4123
  25   2.0000      -0.490034       -13.3345
  26   2.0000      -0.480145       -13.0654
  27   2.0000      -0.455430       -12.3929
  28   2.0000      -0.445471       -12.1219
  29   2.0000      -0.425059       -11.5664
  30   2.0000      -0.371589       -10.1115
  31   0.0000       0.143698         3.9102
  32   0.0000       0.161980         4.4077
  33   0.0000       0.172356         4.6901
  34   0.0000       0.173333         4.7166
  35   0.0000       0.182466         4.9651

MULLIKEN ATOMIC CHARGES
-----------------------
   0 C :   -0.220255
   1 O :   -0.302033
   2 C :   -0.100486
   3 C :    0.015343
   4 C :   -0.084858
   5 C :   -0.183760
   6 N :   -0.207080
   7 C :   -0.152824
   8 H :    0.113763
   9 H :    0.110241
  10 H :    0.139909
  11 H :    0.087746
  12 H :    0.111326
  13 H :    0.101559
  14 H :    0.112299
  15 H :    0.112971
  16 H :    0.114879
  17 H :    0.114444
  18 H :    0.116815
Sum of atomic charges:    0.0000000

LOEWDIN ATOMIC CHARGES
----------------------
   0 C :   -0.361911
   1 O :    0.135281
   2 C :   -0.308260
   3 C :   -0.230651
   4 C :   -0.198777
   5 C :   -0.228362
   6 N :    0.100184
   7 C :   -0.228612
   8 H :    0.101958
   9 H :    0.100901
  10 H :    0.113730
  11 H :    0.119790
  12 H :    0.127468
  13 H :    0.148146
  14 H :    0.120458
  15 H :    0.123143
  16 H :    0.118658
  17 H :    0.123757
  18 H :    0.123098

  Mayer bond orders larger than 0.1
B(  0-C ,  1-O ) :   0.9215 B(  0-C ,  8-H ) :   0.9379 B(  0-C ,  9-H ) :   0.9367
B(  0-C , 10-H ) :   0.9393 B(  1-O ,  2-C ) :   0.9619 B(  2-C ,  3-C ) :   0.9516
B(  2-C , 11-H ) :   0.9115 B(  2-C , 12-H ) :   0.9270 B(  3-C ,  4-C ) :   0.9123
B(  3-C ,  6-N ) :   0.9025 B(  3-C , 13-H ) :   0.9229 B(  4-C ,  5-C ) :   0.9308
B(  4-C ,  7-C ) :   0.9358 B(  4-C , 14-H ) :   0.9017 B(  5-C ,  6-N ) :   0.9126
B(  5-C , 15-H ) :   0.9283 B(  5-C , 16-H ) :   0.9274 B(  6-N ,  7-C ) :   0.9149
B(  7-C , 17-H ) :   0.9220 B(  7-C , 18-H ) :   0.9272

MP2 TOTAL ENERGY:     -364.343551833 Eh
FINAL SINGLE POINT ENERGY      -364.343551833092

DIPOLE MOMENT
-------------
                                X             Y             Z
Electronic contribution:      0.01695      -2.91654       0.37440
Nuclear contribution   :     -0.24397       3.25916      -0.82491
                        -----------------------------------------
Total Dipole Moment    :     -0.22702       0.34261      -0.45051
                        -----------------------------------------
Magnitude (a.u.)       :      0.60982
Magnitude (Debye)      :      1.55004

                             ****ORCA TERMINATED NORMALLY****
TOTAL RUN TIME: 0 days 0 hours 11 minutes 56 seconds 956 msec
