                         Program Version 3.0.3 - RELEASE   -
|  1> ! RI-MP2 RIJK def2-TZVP def2-TZVP/C def2-TZVP/JK TIGHTSCF
|  2> % maxcore 2000
|  3> % mp2 density relaxed end
|  4> *xyz 0 1
|  5>  C       -0.0760420310     1.4057702786    -0.1105454885
|  6>  C        1.2990453171     0.8351731476     0.1058947938
|  7>  C        0.0801110320    -0.0891857232     0.1412683252
|  8>  C        0.6313135384    -0.7087608175    -1.1332198182
|  9>  C        0.6244130159    -1.2146275599    -2.4103115868
| 10>  N        1.7163395201    -0.6782790587    -3.0573462884
| 11>  N        2.3462015236     0.1789023227    -2.2928300596
| 12>  N        1.7202373393     0.0952335445    -1.1020413698
| 13>  H       -0.4727859778     1.9841051244     0.7201174810
| 14>  H       -0.3624761614     1.7602463164    -1.0951195867
| 15>  H        1.9996838162     1.1120316015     0.8798440553
| 16>  H       -0.3422589021    -0.5993730890     0.9938230374
| 17>  H       -0.0203811303    -1.9202001072    -2.9059748046
| 18> *
| 19>
| 20>                          ****END OF INPUT****

CARTESIAN COORDINATES (ANGSTROEM)
---------------------------------
  C     -0.076042    1.405770   -0.110545
  C      1.299045    0.835173    0.105895
  C      0.080111   -0.089186    0.141268
  C      0.631314   -0.708761   -1.133220
  C      0.624413   -1.214628   -2.410312
  N      1.716340   -0.678279   -3.057346
  N      2.346202    0.178902   -2.292830
  N      1.720237    0.095234   -1.102041
  H     -0.472786    1.984105    0.720117
  H     -0.362476    1.760246   -1.095120
  H      1.999684    1.112032    0.879844
  H     -0.342259   -0.599373    0.993823
  H     -0.020381   -1.920200   -2.905975

 Total Charge           Charge          ....    0
 Multiplicity           Mult            ....    1
 Number of Electrons    NEL             ....   56
 Basis Dimension        Dim             ....  278

ORBITAL ENERGIES
----------------

  NO   OCC          E(Eh)            E(eV)
   0   2.0000     -15.643567      -425.6831
   1   2.0000     -15.636675      -425.4956
   2   2.0000     -15.596000      -424.3887
   3   2.0000     -11.318461      -307.9910
   4   2.0000     -11.289810      -307.2114
   5   2.0000     -11.286132      -307.1113
   6   2.0000     -11.276521      -306.8497
   7   2.0000     -11.257338      -306.3277
   8   2.0000      -1.438237       -39.1364
   9   2.0000      -1.276755       -34.7423
  10   2.0000      -1.118955       -30.4483
  11   2.0000      -1.070008       -29.1164
  12   2.0000      -0.905422       -24.6378
  13   2.0000      -0.894035       -24.3279
  14   2.0000      -0.813191       -22.1280
  15   2.0000      -0.757857       -20.6223
  16   2.0000      -0.728593       -19.8260
  17   2.0000      -0.695742       -18.9321
  18   2.0000      -0.644594       -17.5403
  19   2.0000      -0.603419       -16.4199
  20   2.0000      -0.578356       -15.7379
  21   2.0000      -0.563309       -15.3284
  22   2.0000      -0.500375       -13.6159
  23   2.0000      -0.493606       -13.4317
  24   2.0000      -0.482069       -13.1178
  25   2.0000      -0.423291       -11.5183
  26   2.0000      -0.384319       -10.4579
  27   2.0000      -0.348926        -9.4948
  28   0.0000       0.123925         3.3722
  29   0.0000       0.140789         3.8311
  30   0.0000       0.155959         4.2438
  31   0.0000       0.160295         4.3618
  32   0.0000       0.175180         4.7669

MULLIKEN ATOMIC CHARGES
-----------------------
   0 C :   -0.231554
   1 C :   -0.035897
   2 C :   -0.159626
   3 C :    0.034720
   4 C :   -0.149555
   5 N :   -0.131913
   6 N :   -0.184809
   7 N :    0.070960
   8 H :    0.144219
   9 H :    0.169155
  10 H :    0.166878
  11 H :    0.163022
  12 H :    0.144399
Sum of atomic charges:   -0.0000000

LOEWDIN ATOMIC CHARGES
----------------------
   0 C :   -0.170142
   1 C :   -0.154669
   2 C :   -0.141596
   3 C :   -0.194478
   4 C :   -0.251061
   5 N :    0.008689
   6 N :   -0.039843
   7 N :    0.227704
   8 H :    0.145629
   9 H :    0.145250
  10 H :    0.143640
  11 H :    0.144843
  12 H :    0.136035

  Mayer bond orders larger than 0.1
B(  0-C ,  1-C ) :   0.8878 B(  0-C ,  2-C ) :   0.8579 B(  0-C ,  8-H ) :   0.9184
B(  0-C ,  9-H ) :   0.9147 B(  1-C ,  2-C ) :   0.8840 B(  1-C ,  7-N ) :   0.8454
B(  1-C , 10-H ) :   0.9155 B(  2-C ,  3-C ) :   0.9236 B(  2-C , 11-H ) :   0.9150
B(  3-C ,  4-C ) :   1.4035 B(  3-C ,  6-N ) :   0.1001 B(  3-C ,  7-N ) :   1.1284
B(  4-C ,  5-N ) :   1.3531 B(  4-C , 12-H ) :   0.9431 B(  5-N ,  6-N ) :   1.2654
B(  6-N ,  7-N ) :   1.0204

MP2 TOTAL ENERGY:     -356.941538525 Eh
FINAL SINGLE POINT ENERGY      -356.941538525174

DIPOLE MOMENT
-------------
                                X             Y             Z
Electronic contribution:      2.93164      -1.86127      -2.72156
Nuclear contribution   :     -4.16179       2.21483       4.47657
                        -----------------------------------------
Total Dipole Moment    :     -1.23015       0.35356       1.75501
                        -----------------------------------------
Magnitude (a.u.)       :      2.17217
Magnitude (Debye)      :      5.52122

                             ****ORCA TERMINATED NORMALLY****
TOTAL RUN TIME: 0 days 0 hours 11 minutes 40 seconds 225 msec
