                         Program Version 3.0.3 - RELEASE   -
|  1> ! RI-MP2 RIJK def2-TZVP def2-TZVP/C def2-TZVP/JK TIGHTSCF
|  2> % maxcore 2000
|  3> % mp2 density relaxed end
|  4> *xyz 0 1
|  5>  C       -0.0116341640     1.4777744124     0.2668449019
|  6>  C        0.1554139414    -0.0170340363     0.0633660247
|  7>  O        1.2442914419    -0.5356733026    -0.0463854561
|  8>  C       -1.1202107350    -0.8369705597     0.0288116662
|  9>  C       -1.1024002144    -2.2975474938    -0.3738587465
| 10>  C       -0.8086378098    -3.1389156342     0.8227793670
| 11>  C       -0.6141587759    -2.2374213114     2.0261008576
| 12>  C       -1.7154606634    -1.3904520625     1.3601124897
| 13>  N       -2.2135297464    -2.6510551643     0.5845576555
| 14>  H        0.9620327345     1.9479998717     0.4087114296
| 15>  H       -0.5048517448     1.9183526121    -0.6078896790
| 16>  H       -0.6570047227     1.6836627536     1.1285198066
| 17>  H       -1.9139589780    -0.3027383130    -0.5044948356
| 18>  H       -1.0813251065    -2.7018424653    -1.3788810565
| 19>  H       -0.5582011791    -4.1888404409     0.7247986053
| 20>  H       -0.9922644302    -2.7138366523     2.9340218439
| 21>  H        0.3660329309    -1.7899822299     2.2106434083
| 22>  H       -2.4217663086    -0.7995068937     1.9395988675
| 23> *
| 24>
| 25>                          ****END OF INPUT****

CARTESIAN COORDINATES (ANGSTROEM)
---------------------------------
  C     -0.011634    1.477774    0.266845
  C      0.155414   -0.017034    0.063366
  O      1.244291   -0.535673   -0.046385
  C     -1.120211   -0.836971    0.028812
  C     -1.102400   -2.297547   -0.373859
  C     -0.808638   -3.138916    0.822779
  C     -0.614159   -2.237421    2.026101
  C     -1.715461   -1.390452    1.360112
  N     -2.213530   -2.651055    0.584558
  H      0.962033    1.948000    0.408711
  H     -0.504852    1.918353   -0.607890
  H     -0.657005    1.683663    1.128520
  H     -1.913959   -0.302738   -0.504495
  H     -1.081325   -2.701842   -1.378881
  H     -0.558201   -4.188840    0.724799
  H     -0.992264   -2.713837    2.934022
  H      0.366033   -1.789982    2.210643
  H     -2.421766   -0.799507    1.939599

 Total Charge           Charge          ....    0
 Multiplicity           Mult            ....    1
 Number of Electrons    NEL             ....   66
 Basis Dimension        Dim             ....  333

ORBITAL ENERGIES
----------------

  NO   OCC          E(Eh)            E(eV)
   0   2.0000     -20.549947      -559.1925
   1   2.0000     -15.566901      -423.5969
   2   2.0000     -11.334482      -308.4269
   3   2.0000     -11.283036      -307.0270
   4   2.0000     -11.269331      -306.6541
   5   2.0000     -11.267450      -306.6029
   6   2.0000     -11.253601      -306.2260
   7   2.0000     -11.241131      -305.8867
   8   2.0000     -11.237037      -305.7753
   9   2.0000      -1.393192       -37.9107
  10   2.0000      -1.323006       -36.0008
  11   2.0000      -1.051156       -28.6034
  12   2.0000      -1.003603       -27.3094
  13   2.0000      -0.989898       -26.9365
  14   2.0000      -0.916308       -24.9340
  15   2.0000      -0.805650       -21.9228
  16   2.0000      -0.749387       -20.3918
  17   2.0000      -0.723670       -19.6921
  18   2.0000      -0.715450       -19.4684
  19   2.0000      -0.661052       -17.9881
  20   2.0000      -0.637672       -17.3519
  21   2.0000      -0.627732       -17.0815
  22   2.0000      -0.597261       -16.2523
  23   2.0000      -0.566153       -15.4058
  24   2.0000      -0.565532       -15.3889
  25   2.0000      -0.546351       -14.8670
  26   2.0000      -0.521902       -14.2017
  27   2.0000      -0.499346       -13.5879
  28   2.0000      -0.470536       -12.8039
  29   2.0000      -0.450240       -12.2517
  30   2.0000      -0.432074       -11.7573
  31   2.0000      -0.404156       -10.9976
  32   2.0000      -0.380624       -10.3573
  33   0.0000       0.121657         3.3105
  34   0.0000       0.135708         3.6928
  35   0.0000       0.161458         4.3935
  36   0.0000       0.168175         4.5763
  37   0.0000       0.174530         4.7492

MULLIKEN ATOMIC CHARGES
-----------------------
   0 C :   -0.421880
   1 C :    0.163555
   2 O :   -0.285424
   3 C :   -0.032006
   4 C :   -0.058862
   5 C :   -0.139944
   6 C :   -0.165504
   7 C :   -0.092556
   8 N :   -0.217745
   9 H :    0.155576
  10 H :    0.149923
  11 H :    0.143941
  12 H :    0.127661
  13 H :    0.141973
  14 H :    0.135107
  15 H :    0.123924
  16 H :    0.130432
  17 H :    0.141829
Sum of atomic charges:   -0.0000000

LOEWDIN ATOMIC CHARGES
----------------------
   0 C :   -0.278329
   1 C :   -0.333443
   2 O :    0.157179
   3 C :   -0.186358
   4 C :   -0.181551
   5 C :   -0.206750
   6 C :   -0.209574
   7 C :   -0.160836
   8 N :    0.140556
   9 H :    0.133608
  10 H :    0.139297
  11 H :    0.135994
  12 H :    0.167332
  13 H :    0.138790
  14 H :    0.136733
  15 H :    0.144502
  16 H :    0.132780
  17 H :    0.130069

  Mayer bond orders larger than 0.1
B(  0-C ,  1-C ) :   0.9234 B(  0-C ,  9-H ) :   0.9382 B(  0-C , 10-H ) :   0.9151
B(  0-C , 11-H ) :   0.9158 B(  1-C ,  2-O ) :   2.0201 B(  1-C ,  3-C ) :   0.8626
B(  3-C ,  4-C ) :   0.9123 B(  3-C ,  7-C ) :   0.9499 B(  3-C , 12-H ) :   0.8889
B(  4-C ,  5-C ) :   0.9291 B(  4-C ,  8-N ) :   0.8702 B(  4-C , 13-H ) :   0.9074
B(  5-C ,  6-C ) :   0.9609 B(  5-C ,  8-N ) :   0.9049 B(  5-C , 14-H ) :   0.9150
B(  6-C ,  7-C ) :   0.9734 B(  6-C , 15-H ) :   0.9187 B(  6-C , 16-H ) :   0.8984
B(  7-C ,  8-N ) :   0.9459 B(  7-C , 17-H ) :   0.9003

MP2 TOTAL ENERGY:     -401.212263588 Eh
FINAL SINGLE POINT ENERGY      -401.212263588314

DIPOLE MOMENT
-------------
                                X             Y             Z
Electronic contribution:      0.54903      -3.35751      -1.74584
Nuclear contribution   :     -0.83426       4.04982       1.98505
                        -----------------------------------------
Total Dipole Moment    :     -0.28524       0.69230       0.23921
                        -----------------------------------------
Magnitude (a.u.)       :      0.78604
Magnitude (Debye)      :      1.99796

                             ****ORCA TERMINATED NORMALLY****
TOTAL RUN TIME: 0 days 0 hours 21 minutes 2 seconds 353 msec
