                         Program Version 3.0.3 - RELEASE   -
|  1> ! RI-MP2 RIJK def2-TZVP def2-TZVP/C def2-TZVP/JK TIGHTSCF
|  2> % maxcore 2000
|  3> % mp2 density relaxed end
|  4> *xyz 0 1
|  5>  C       -0.2780308643     1.2983102419    -0.5596559147
|  6>  C       -0.2599812319    -0.1697281950    -0.1189160289
|  7>  C        0.5794047626    -0.4222880051     1.1563388244
|  8>  C       -0.2399822398    -0.0311856249     2.3909971961
|  9>  O        0.6164360612     0.1924044840     3.5056499382
| 10>  C        1.1669035720    -1.8634515932     1.1926537959
| 11>  C        2.1232509189    -2.0739375397     2.3740849035
| 12>  C        0.0811890842    -2.9524187447     1.1850470876
| 13>  O        1.9263348225    -1.9516496898    -0.0268267438
| 14>  H        0.7323213760     1.6426133862    -0.8050584774
| 15>  H       -0.9007051952     1.4317030772    -1.4501571866
| 16>  H       -0.6727935156     1.9625763791     0.2168659502
| 17>  H       -1.2906773169    -0.5138002973     0.0431218339
| 18>  H        0.1497380950    -0.7771889581    -0.9283982816
| 19>  H        1.4476513441     0.2484029918     1.1264200014
| 20>  H       -0.8021320392     0.8848775420     2.1581982554
| 21>  H       -0.9842111410    -0.8121692698     2.6137764931
| 22>  H        0.0714200107     0.4669765001     4.2488559560
| 23>  H        1.6137443737    -1.9856295446     3.3341942026
| 24>  H        2.5758538642    -3.0718865371     2.3090884764
| 25>  H        2.9249418184    -1.3312337978     2.3492455249
| 26>  H       -0.5795701429    -2.8467864937     0.3212942480
| 27>  H        0.5486936122    -3.9425083796     1.1313721425
| 28>  H       -0.5267676938    -2.9329289952     2.0947987541
| 29>  H        2.3690240050    -2.8066493466    -0.0289269313
| 30> *
| 31>
| 32>                          ****END OF INPUT****

CARTESIAN COORDINATES (ANGSTROEM)
---------------------------------
  C     -0.278031    1.298310   -0.559656
  C     -0.259981   -0.169728   -0.118916
  C      0.579405   -0.422288    1.156339
  C     -0.239982   -0.031186    2.390997
  O      0.616436    0.192404    3.505650
  C      1.166904   -1.863452    1.192654
  C      2.123251   -2.073938    2.374085
  C      0.081189   -2.952419    1.185047
  O      1.926335   -1.951650   -0.026827
  H      0.732321    1.642613   -0.805058
  H     -0.900705    1.431703   -1.450157
  H     -0.672794    1.962576    0.216866
  H     -1.290677   -0.513800    0.043122
  H      0.149738   -0.777189   -0.928398
  H      1.447651    0.248403    1.126420
  H     -0.802132    0.884878    2.158198
  H     -0.984211   -0.812169    2.613776
  H      0.071420    0.466977    4.248856
  H      1.613744   -1.985630    3.334194
  H      2.575854   -3.071887    2.309088
  H      2.924942   -1.331234    2.349246
  H     -0.579570   -2.846786    0.321294
  H      0.548694   -3.942508    1.131372
  H     -0.526768   -2.932929    2.094799
  H      2.369024   -2.806649   -0.028927

 Total Charge           Charge          ....    0
 Multiplicity           Mult            ....    1
 Number of Electrons    NEL             ....   74
 Basis Dimension        Dim             ....  375

ORBITAL ENERGIES
----------------

  NO   OCC          E(Eh)            E(eV)
   0   2.0000     -20.554364      -559.3127
   1   2.0000     -20.543352      -559.0130
   2   2.0000     -11.280909      -306.9691
   3   2.0000     -11.273387      -306.7645
   4   2.0000     -11.220008      -305.3119
   5   2.0000     -11.212360      -305.1038
   6   2.0000     -11.210541      -305.0543
   7   2.0000     -11.207227      -304.9642
   8   2.0000     -11.201939      -304.8203
   9   2.0000      -1.359333       -36.9893
  10   2.0000      -1.351562       -36.7779
  11   2.0000      -1.086362       -29.5614
  12   2.0000      -1.021787       -27.8042
  13   2.0000      -0.958953       -26.0945
  14   2.0000      -0.932466       -25.3737
  15   2.0000      -0.871475       -23.7140
  16   2.0000      -0.811996       -22.0955
  17   2.0000      -0.742539       -20.2055
  18   2.0000      -0.692422       -18.8418
  19   2.0000      -0.665206       -18.1012
  20   2.0000      -0.658596       -17.9213
  21   2.0000      -0.609454       -16.5841
  22   2.0000      -0.602589       -16.3973
  23   2.0000      -0.587290       -15.9810
  24   2.0000      -0.575203       -15.6521
  25   2.0000      -0.555698       -15.1213
  26   2.0000      -0.548995       -14.9389
  27   2.0000      -0.541087       -14.7237
  28   2.0000      -0.514993       -14.0137
  29   2.0000      -0.503848       -13.7104
  30   2.0000      -0.494526       -13.4567
  31   2.0000      -0.493523       -13.4294
  32   2.0000      -0.468461       -12.7475
  33   2.0000      -0.455068       -12.3830
  34   2.0000      -0.453946       -12.3525
  35   2.0000      -0.425671       -11.5831
  36   2.0000      -0.422220       -11.4892
  37   0.0000       0.128310         3.4915
  38   0.0000       0.144364         3.9283
  39   0.0000       0.155548         4.2327
  40   0.0000       0.168405         4.5825
  41   0.0000       0.189787         5.1644

MULLIKEN ATOMIC CHARGES
-----------------------
   0 C :   -0.399858
   1 C :   -0.256408
   2 C :    0.040280
   3 C :   -0.131418
   4 O :   -0.470723
   5 C :    0.215913
   6 C :   -0.391484
   7 C :   -0.466703
   8 O :   -0.470264
   9 H :    0.133078
  10 H :    0.132540
  11 H :    0.113032
  12 H :    0.106167
  13 H :    0.148884
  14 H :    0.087643
  15 H :    0.105181
  16 H :    0.103076
  17 H :    0.312890
  18 H :    0.133991
  19 H :    0.109158
  20 H :    0.137271
  21 H :    0.152441
  22 H :    0.122580
  23 H :    0.124202
  24 H :    0.308530
Sum of atomic charges:    0.0000000

LOEWDIN ATOMIC CHARGES
----------------------
   0 C :   -0.319591
   1 C :   -0.268483
   2 C :   -0.220943
   3 C :   -0.321902
   4 O :   -0.045741
   5 C :   -0.395221
   6 C :   -0.280760
   7 C :   -0.280165
   8 O :   -0.001597
   9 H :    0.123171
  10 H :    0.120529
  11 H :    0.115230
  12 H :    0.134695
  13 H :    0.145671
  14 H :    0.165117
  15 H :    0.120950
  16 H :    0.117019
  17 H :    0.170970
  18 H :    0.128396
  19 H :    0.117700
  20 H :    0.129077
  21 H :    0.127918
  22 H :    0.122896
  23 H :    0.124391
  24 H :    0.170673

  Mayer bond orders larger than 0.1
B(  0-C ,  1-C ) :   0.9260 B(  0-C ,  9-H ) :   0.9421 B(  0-C , 10-H ) :   0.9437
B(  0-C , 11-H ) :   0.9369 B(  1-C ,  2-C ) :   0.8919 B(  1-C , 12-H ) :   0.9239
B(  1-C , 13-H ) :   0.9296 B(  2-C ,  3-C ) :   0.8984 B(  2-C ,  5-C ) :   0.8735
B(  2-C , 14-H ) :   0.9207 B(  3-C ,  4-O ) :   0.9875 B(  3-C , 15-H ) :   0.9248
B(  3-C , 16-H ) :   0.9306 B(  4-O , 17-H ) :   0.8477 B(  5-C ,  6-C ) :   0.9409
B(  5-C ,  7-C ) :   0.9211 B(  5-C ,  8-O ) :   0.9188 B(  6-C , 18-H ) :   0.9211
B(  6-C , 19-H ) :   0.9238 B(  6-C , 20-H ) :   0.9378 B(  7-C , 21-H ) :   0.9426
B(  7-C , 22-H ) :   0.9280 B(  7-C , 23-H ) :   0.9320 B(  8-O , 24-H ) :   0.8449

MP2 TOTAL ENERGY:     -425.935676080 Eh
FINAL SINGLE POINT ENERGY      -425.935676080396

DIPOLE MOMENT
-------------
                                X             Y             Z
Electronic contribution:      2.81674      -0.11895       1.72521
Nuclear contribution   :     -3.42799      -0.17666      -1.26578
                        -----------------------------------------
Total Dipole Moment    :     -0.61125      -0.29561       0.45943
                        -----------------------------------------
Magnitude (a.u.)       :      0.81981
Magnitude (Debye)      :      2.08379

                             ****ORCA TERMINATED NORMALLY****
TOTAL RUN TIME: 0 days 0 hours 21 minutes 14 seconds 576 msec
