                         Program Version 3.0.3 - RELEASE   -
|  1> ! RI-MP2 RIJK def2-TZVP def2-TZVP/C def2-TZVP/JK TIGHTSCF
|  2> % maxcore 2000
|  3> % mp2 density relaxed end
|  4> *xyz 0 1
|  5>  N        0.0903300208    -1.2154964464     0.0638262891
|  6>  C        0.0346030972    -0.0611957419     0.0804531146
|  7>  C       -0.0105338740     1.4002921314     0.1017699447
|  8>  C        1.3757540069     2.0456090577    -0.0691322159
|  9>  C        2.0572065875     1.7706744217    -1.4195345598
| 10>  C        3.1866734565     2.8189500701    -1.4834215903
| 11>  C        2.6841305588     4.0307630092    -0.6411451854
| 12>  C        1.3408563520     3.5832296732    -0.0137983505
| 13>  H       -0.6810544284     1.7386889079    -0.6980495903
| 14>  H       -0.4649283544     1.7154828195     1.0484411271
| 15>  H        2.0261715779     1.6747012127     0.7340190420
| 16>  H        2.4154057313     0.7428498275    -1.5189516125
| 17>  H        1.3325190631     1.9415705793    -2.2270755864
| 18>  H        4.1020122982     2.4089055755    -1.0451492619
| 19>  H        3.4298075255     3.0967289701    -2.5121022927
| 20>  H        3.4095073368     4.2836633487     0.1374771529
| 21>  H        2.5559109732     4.9294777511    -1.2500399190
| 22>  H        0.5000196564     3.9434839627    -0.6207257815
| 23>  H        1.1921140348     3.9699796599     0.9987766161
| 24> *
| 25>
| 26>                          ****END OF INPUT****

CARTESIAN COORDINATES (ANGSTROEM)
---------------------------------
  N      0.090330   -1.215496    0.063826
  C      0.034603   -0.061196    0.080453
  C     -0.010534    1.400292    0.101770
  C      1.375754    2.045609   -0.069132
  C      2.057207    1.770674   -1.419535
  C      3.186673    2.818950   -1.483422
  C      2.684131    4.030763   -0.641145
  C      1.340856    3.583230   -0.013798
  H     -0.681054    1.738689   -0.698050
  H     -0.464928    1.715483    1.048441
  H      2.026172    1.674701    0.734019
  H      2.415406    0.742850   -1.518952
  H      1.332519    1.941571   -2.227076
  H      4.102012    2.408906   -1.045149
  H      3.429808    3.096729   -2.512102
  H      3.409507    4.283663    0.137477
  H      2.555911    4.929478   -1.250040
  H      0.500020    3.943484   -0.620726
  H      1.192114    3.969980    0.998777

 Total Charge           Charge          ....    0
 Multiplicity           Mult            ....    1
 Number of Electrons    NEL             ....   60
 Basis Dimension        Dim             ....  314

ORBITAL ENERGIES
----------------

  NO   OCC          E(Eh)            E(eV)
   0   2.0000     -15.564176      -423.5227
   1   2.0000     -11.278807      -306.9119
   2   2.0000     -11.269235      -306.6515
   3   2.0000     -11.250130      -306.1316
   4   2.0000     -11.233617      -305.6823
   5   2.0000     -11.228811      -305.5515
   6   2.0000     -11.228470      -305.5422
   7   2.0000     -11.227001      -305.5022
   8   2.0000      -1.214969       -33.0610
   9   2.0000      -1.144034       -31.1307
  10   2.0000      -1.051148       -28.6032
  11   2.0000      -0.974868       -26.5275
  12   2.0000      -0.937922       -25.5222
  13   2.0000      -0.791266       -21.5314
  14   2.0000      -0.788015       -21.4430
  15   2.0000      -0.700656       -19.0658
  16   2.0000      -0.666112       -18.1258
  17   2.0000      -0.647734       -17.6257
  18   2.0000      -0.629658       -17.1339
  19   2.0000      -0.584258       -15.8985
  20   2.0000      -0.567686       -15.4475
  21   2.0000      -0.553468       -15.0606
  22   2.0000      -0.513683       -13.9780
  23   2.0000      -0.493614       -13.4319
  24   2.0000      -0.482284       -13.1236
  25   2.0000      -0.477887       -13.0040
  26   2.0000      -0.474008       -12.8984
  27   2.0000      -0.466139       -12.6843
  28   2.0000      -0.451245       -12.2790
  29   2.0000      -0.446946       -12.1620
  30   0.0000       0.118805         3.2329
  31   0.0000       0.139513         3.7964
  32   0.0000       0.147931         4.0254
  33   0.0000       0.161717         4.4005
  34   0.0000       0.178224         4.8497

MULLIKEN ATOMIC CHARGES
-----------------------
   0 N :   -0.060371
   1 C :   -0.182337
   2 C :   -0.126855
   3 C :   -0.092345
   4 C :   -0.257765
   5 C :   -0.221525
   6 C :   -0.221612
   7 C :   -0.226599
   8 H :    0.152733
   9 H :    0.158676
  10 H :    0.106308
  11 H :    0.146386
  12 H :    0.106990
  13 H :    0.117871
  14 H :    0.125286
  15 H :    0.117784
  16 H :    0.120090
  17 H :    0.108003
  18 H :    0.129281
Sum of atomic charges:   -0.0000000

LOEWDIN ATOMIC CHARGES
----------------------
   0 N :    0.052668
   1 C :   -0.191562
   2 C :   -0.228089
   3 C :   -0.242100
   4 C :   -0.233909
   5 C :   -0.251587
   6 C :   -0.249576
   7 C :   -0.235225
   8 H :    0.165098
   9 H :    0.165877
  10 H :    0.160043
  11 H :    0.140305
  12 H :    0.139940
  13 H :    0.135638
  14 H :    0.132778
  15 H :    0.134019
  16 H :    0.132699
  17 H :    0.138469
  18 H :    0.134516

  Mayer bond orders larger than 0.1
B(  0-N ,  1-C ) :   2.8817 B(  1-C ,  2-C ) :   0.9345 B(  2-C ,  3-C ) :   0.8980
B(  2-C ,  8-H ) :   0.9029 B(  2-C ,  9-H ) :   0.9102 B(  3-C ,  4-C ) :   0.9301
B(  3-C ,  7-C ) :   0.9273 B(  3-C , 10-H ) :   0.9228 B(  4-C ,  5-C ) :   0.9324
B(  4-C , 11-H ) :   0.9288 B(  4-C , 12-H ) :   0.9230 B(  5-C ,  6-C ) :   0.9245
B(  5-C , 13-H ) :   0.9346 B(  5-C , 14-H ) :   0.9360 B(  6-C ,  7-C ) :   0.9415
B(  6-C , 15-H ) :   0.9349 B(  6-C , 16-H ) :   0.9357 B(  7-C , 17-H ) :   0.9219
B(  7-C , 18-H ) :   0.9283

MP2 TOTAL ENERGY:     -327.375683450 Eh
FINAL SINGLE POINT ENERGY      -327.375683450081

DIPOLE MOMENT
-------------
                                X             Y             Z
Electronic contribution:     -4.30224      -7.94034       1.99370
Nuclear contribution   :      4.46421       9.55601      -2.03150
                        -----------------------------------------
Total Dipole Moment    :      0.16197       1.61567      -0.03781
                        -----------------------------------------
Magnitude (a.u.)       :      1.62421
Magnitude (Debye)      :      4.12842

                             ****ORCA TERMINATED NORMALLY****
TOTAL RUN TIME: 0 days 0 hours 13 minutes 31 seconds 367 msec
