                         Program Version 3.0.3 - RELEASE   -
|  1> ! RI-MP2 RIJK def2-TZVP def2-TZVP/C def2-TZVP/JK TIGHTSCF
|  2> % maxcore 2000
|  3> % mp2 density relaxed end
|  4> *xyz 0 1
|  5>  C       -0.0762115056     1.5955094265     0.2051707899
|  6>  C        1.4366008995     1.2987486736     0.0122740872
|  7>  C        1.7018804803     0.4571488419     1.2788296445
|  8>  C        0.6706729430    -0.3956168520     1.2991728722
|  9>  C       -0.0851692425     0.0151228973     0.0342565040
| 10>  C       -1.1454434364    -0.6381123702    -0.7841371742
| 11>  C       -0.8430642453    -0.4613613160    -2.0739081624
| 12>  C        0.4563298218     0.3146663742    -2.2491820419
| 13>  N        1.0881411224     0.1456112906    -0.9250812688
| 14>  H       -0.4037096691     2.0172447902     1.1579609286
| 15>  H       -0.5465500450     2.1185043689    -0.6317989693
| 16>  H        2.1732121825     2.0389595143    -0.2990329178
| 17>  H        2.5386911263     0.5581810493     1.9543298815
| 18>  H        0.4249990404    -1.1894327737     1.9887031458
| 19>  H       -2.0313691885    -1.1209529516    -0.3921306937
| 20>  H       -1.4415371348    -0.7914808312    -2.9153755120
| 21>  H        1.0979842370    -0.1029711219    -3.0343840964
| 22>  H        0.2385265539     1.3577554099    -2.5395256372
| 23> *
| 24>
| 25>                          ****END OF INPUT****

CARTESIAN COORDINATES (ANGSTROEM)
---------------------------------
  C     -0.076212    1.595509    0.205171
  C      1.436601    1.298749    0.012274
  C      1.701880    0.457149    1.278830
  C      0.670673   -0.395617    1.299173
  C     -0.085169    0.015123    0.034257
  C     -1.145443   -0.638112   -0.784137
  C     -0.843064   -0.461361   -2.073908
  C      0.456330    0.314666   -2.249182
  N      1.088141    0.145611   -0.925081
  H     -0.403710    2.017245    1.157961
  H     -0.546550    2.118504   -0.631799
  H      2.173212    2.038960   -0.299033
  H      2.538691    0.558181    1.954330
  H      0.424999   -1.189433    1.988703
  H     -2.031369   -1.120953   -0.392131
  H     -1.441537   -0.791481   -2.915376
  H      1.097984   -0.102971   -3.034384
  H      0.238527    1.357755   -2.539526

 Total Charge           Charge          ....    0
 Multiplicity           Mult            ....    1
 Number of Electrons    NEL             ....   64
 Basis Dimension        Dim             ....  333

ORBITAL ENERGIES
----------------

  NO   OCC          E(Eh)            E(eV)
   0   2.0000     -15.539786      -422.8591
   1   2.0000     -11.270891      -306.6965
   2   2.0000     -11.267901      -306.6152
   3   2.0000     -11.251485      -306.1685
   4   2.0000     -11.233433      -305.6773
   5   2.0000     -11.229476      -305.5696
   6   2.0000     -11.227145      -305.5061
   7   2.0000     -11.226744      -305.4952
   8   2.0000     -11.224851      -305.4437
   9   2.0000      -1.277576       -34.7646
  10   2.0000      -1.106187       -30.1009
  11   2.0000      -1.031657       -28.0728
  12   2.0000      -0.964317       -26.2404
  13   2.0000      -0.922492       -25.1023
  14   2.0000      -0.880896       -23.9704
  15   2.0000      -0.764048       -20.7908
  16   2.0000      -0.738403       -20.0930
  17   2.0000      -0.723533       -19.6883
  18   2.0000      -0.681097       -18.5336
  19   2.0000      -0.644033       -17.5250
  20   2.0000      -0.625486       -17.0203
  21   2.0000      -0.577886       -15.7251
  22   2.0000      -0.552756       -15.0413
  23   2.0000      -0.547745       -14.9049
  24   2.0000      -0.532456       -14.4889
  25   2.0000      -0.507815       -13.8184
  26   2.0000      -0.487185       -13.2570
  27   2.0000      -0.477179       -12.9847
  28   2.0000      -0.431348       -11.7376
  29   2.0000      -0.369401       -10.0519
  30   2.0000      -0.343545        -9.3483
  31   2.0000      -0.331266        -9.0142
  32   0.0000       0.135019         3.6741
  33   0.0000       0.150127         4.0852
  34   0.0000       0.155792         4.2393
  35   0.0000       0.170092         4.6284
  36   0.0000       0.174594         4.7509

MULLIKEN ATOMIC CHARGES
-----------------------
   0 C :   -0.213319
   1 C :   -0.040896
   2 C :   -0.162154
   3 C :   -0.251650
   4 C :    0.289931
   5 C :   -0.270765
   6 C :   -0.135562
   7 C :   -0.156268
   8 N :   -0.197936
   9 H :    0.113504
  10 H :    0.121055
  11 H :    0.132681
  12 H :    0.136467
  13 H :    0.134729
  14 H :    0.133975
  15 H :    0.131531
  16 H :    0.131709
  17 H :    0.102967
Sum of atomic charges:   -0.0000000

LOEWDIN ATOMIC CHARGES
----------------------
   0 C :   -0.162498
   1 C :   -0.206715
   2 C :   -0.123080
   3 C :   -0.105497
   4 C :   -0.215872
   5 C :   -0.126568
   6 C :   -0.140850
   7 C :   -0.268463
   8 N :    0.159758
   9 H :    0.126457
  10 H :    0.131430
  11 H :    0.128950
  12 H :    0.132672
  13 H :    0.135340
  14 H :    0.141341
  15 H :    0.136572
  16 H :    0.130535
  17 H :    0.126488

  Mayer bond orders larger than 0.1
B(  0-C ,  1-C ) :   0.9411 B(  0-C ,  4-C ) :   0.8655 B(  0-C ,  9-H ) :   0.9121
B(  0-C , 10-H ) :   0.9168 B(  1-C ,  2-C ) :   0.9472 B(  1-C ,  8-N ) :   0.8965
B(  1-C , 11-H ) :   0.9029 B(  2-C ,  3-C ) :   1.7651 B(  2-C , 12-H ) :   0.9285
B(  3-C ,  4-C ) :   0.9227 B(  3-C , 13-H ) :   0.9338 B(  4-C ,  5-C ) :   0.9293
B(  4-C ,  8-N ) :   0.8348 B(  5-C ,  6-C ) :   1.7796 B(  5-C , 14-H ) :   0.9227
B(  6-C ,  7-C ) :   0.9566 B(  6-C , 15-H ) :   0.9220 B(  7-C ,  8-N ) :   0.9389
B(  7-C , 16-H ) :   0.9225 B(  7-C , 17-H ) :   0.9006

MP2 TOTAL ENERGY:     -364.079732176 Eh
FINAL SINGLE POINT ENERGY      -364.079732176383

DIPOLE MOMENT
-------------
                                X             Y             Z
Electronic contribution:      0.71653      -1.84484       1.20298
Nuclear contribution   :     -1.09932       2.22908      -1.23013
                        -----------------------------------------
Total Dipole Moment    :     -0.38280       0.38424      -0.02716
                        -----------------------------------------
Magnitude (a.u.)       :      0.54306
Magnitude (Debye)      :      1.38034

                             ****ORCA TERMINATED NORMALLY****
TOTAL RUN TIME: 0 days 0 hours 19 minutes 45 seconds 183 msec
