                         Program Version 3.0.3 - RELEASE   -
|  1> ! RI-MP2 RIJK def2-TZVP def2-TZVP/C def2-TZVP/JK TIGHTSCF
|  2> % maxcore 2000
|  3> % mp2 density relaxed end
|  4> *xyz 0 1
|  5>  C        0.0259502642     1.5006559651    -0.0116008291
|  6>  C        0.0370822642     0.0473472376    -0.0090309637
|  7>  C        0.0515675930    -1.1581088203    -0.0070692584
|  8>  C        0.0314213139    -2.5685306114    -0.0023640676
|  9>  N        1.1314837025    -3.3397951143    -0.0729360833
| 10>  N        0.6564158670    -4.5680672352    -0.0386753254
| 11>  N       -0.6725468784    -4.7012557359     0.0491230368
| 12>  C       -1.0842569750    -3.4420571852     0.0731950975
| 13>  O       -2.3730663646    -3.0828089856     0.1572139495
| 14>  H        1.0457922297     1.9004623629    -0.0072395967
| 15>  H       -0.4823612751     1.8937718263    -0.8992840713
| 16>  H       -0.4907992394     1.8958389270     0.8701877955
| 17>  H        1.2624016581    -5.3703411051    -0.0767393970
| 18>  H       -2.9020186701    -3.8895909158     0.1940192634
| 19> *
| 20>
| 21>                          ****END OF INPUT****

CARTESIAN COORDINATES (ANGSTROEM)
---------------------------------
  C      0.025950    1.500656   -0.011601
  C      0.037082    0.047347   -0.009031
  C      0.051568   -1.158109   -0.007069
  C      0.031421   -2.568531   -0.002364
  N      1.131484   -3.339795   -0.072936
  N      0.656416   -4.568067   -0.038675
  N     -0.672547   -4.701256    0.049123
  C     -1.084257   -3.442057    0.073195
  O     -2.373066   -3.082809    0.157214
  H      1.045792    1.900462   -0.007240
  H     -0.482361    1.893772   -0.899284
  H     -0.490799    1.895839    0.870188
  H      1.262402   -5.370341   -0.076739
  H     -2.902019   -3.889591    0.194019

 Total Charge           Charge          ....    0
 Multiplicity           Mult            ....    1
 Number of Electrons    NEL             ....   64
 Basis Dimension        Dim             ....  309

ORBITAL ENERGIES
----------------

  NO   OCC          E(Eh)            E(eV)
   0   2.0000     -20.607964      -560.7712
   1   2.0000     -15.683092      -426.7586
   2   2.0000     -15.632404      -425.3793
   3   2.0000     -15.611539      -424.8116
   4   2.0000     -11.338437      -308.5346
   5   2.0000     -11.286942      -307.1333
   6   2.0000     -11.250158      -306.1324
   7   2.0000     -11.237172      -305.7790
   8   2.0000     -11.226933      -305.5004
   9   2.0000      -1.464584       -39.8534
  10   2.0000      -1.420738       -38.6602
  11   2.0000      -1.201888       -32.7050
  12   2.0000      -1.118188       -30.4274
  13   2.0000      -1.057470       -28.7752
  14   2.0000      -0.971894       -26.4466
  15   2.0000      -0.889266       -24.1982
  16   2.0000      -0.850772       -23.1507
  17   2.0000      -0.771142       -20.9838
  18   2.0000      -0.727209       -19.7884
  19   2.0000      -0.685768       -18.6607
  20   2.0000      -0.673178       -18.3181
  21   2.0000      -0.627439       -17.0735
  22   2.0000      -0.607491       -16.5307
  23   2.0000      -0.590468       -16.0674
  24   2.0000      -0.590082       -16.0570
  25   2.0000      -0.585550       -15.9336
  26   2.0000      -0.522952       -14.2302
  27   2.0000      -0.484098       -13.1730
  28   2.0000      -0.453532       -12.3412
  29   2.0000      -0.387132       -10.5344
  30   2.0000      -0.383865       -10.4455
  31   2.0000      -0.325259        -8.8508
  32   0.0000       0.113847         3.0979
  33   0.0000       0.134927         3.6715
  34   0.0000       0.139219         3.7883
  35   0.0000       0.143090         3.8937
  36   0.0000       0.180948         4.9239

MULLIKEN ATOMIC CHARGES
-----------------------
   0 C :   -0.471234
   1 C :    0.045357
   2 C :    0.085421
   3 C :   -0.099075
   4 N :   -0.204458
   5 N :   -0.011669
   6 N :   -0.196151
   7 C :    0.155765
   8 O :   -0.414599
   9 H :    0.166553
  10 H :    0.164911
  11 H :    0.165154
  12 H :    0.270836
  13 H :    0.343189
Sum of atomic charges:    0.0000000

LOEWDIN ATOMIC CHARGES
----------------------
   0 C :   -0.290249
   1 C :   -0.067374
   2 C :   -0.047397
   3 C :   -0.260013
   4 N :    0.058429
   5 N :    0.063515
   6 N :    0.022112
   7 C :   -0.396005
   8 O :    0.094230
   9 H :    0.144022
  10 H :    0.142977
  11 H :    0.143095
  12 H :    0.188934
  13 H :    0.203725

  Mayer bond orders larger than 0.1
B(  0-C ,  1-C ) :   0.8541 B(  0-C ,  9-H ) :   0.9448 B(  0-C , 10-H ) :   0.9432
B(  0-C , 11-H ) :   0.9435 B(  1-C ,  2-C ) :   2.6429 B(  1-C ,  3-C ) :  -0.1480
B(  2-C ,  3-C ) :   1.1501 B(  3-C ,  4-N ) :   1.4444 B(  3-C ,  7-C ) :   1.3064
B(  4-N ,  5-N ) :   1.1591 B(  5-N ,  6-N ) :   1.1052 B(  5-N , 12-H ) :   0.8747
B(  6-N ,  7-C ) :   1.5176 B(  7-C ,  8-O ) :   1.1540 B(  8-O , 13-H ) :   0.8166

MP2 TOTAL ENERGY:     -432.122580004 Eh
FINAL SINGLE POINT ENERGY      -432.122580004171

DIPOLE MOMENT
-------------
                                X             Y             Z
Electronic contribution:     -0.03987      -8.16911       0.02143
Nuclear contribution   :     -0.14922       7.92931      -0.00798
                        -----------------------------------------
Total Dipole Moment    :     -0.18909      -0.23980       0.01345
                        -----------------------------------------
Magnitude (a.u.)       :      0.30568
Magnitude (Debye)      :      0.77698

                             ****ORCA TERMINATED NORMALLY****
TOTAL RUN TIME: 0 days 0 hours 12 minutes 35 seconds 513 msec
