                         Program Version 3.0.3 - RELEASE   -
|  1> ! RI-MP2 RIJK def2-TZVP def2-TZVP/C def2-TZVP/JK TIGHTSCF
|  2> % maxcore 2000
|  3> % mp2 density relaxed end
|  4> *xyz 0 1
|  5>  C       -0.0176411337     1.5397496433     0.0443032090
|  6>  C        0.0330896937     0.0366043617    -0.0336344118
|  7>  C        0.0220917739    -0.5827192392    -1.2273455308
|  8>  C       -0.0114850907    -2.0050064549    -1.5565371023
|  9>  C        0.0129762700    -3.0948805833    -0.7751818425
| 10>  C        0.1589436395    -3.1898872595     0.7193418779
| 11>  O        0.8452031551    -4.3978000107     1.0621162203
| 12>  C        0.8407270425    -1.9862704698     1.3799620055
| 13>  C        0.0733314416    -0.6615581665     1.3072295642
| 14>  H        0.8840718004     1.9428427802     0.5244705122
| 15>  H       -0.1142650791     1.9993424718    -0.9424552454
| 16>  H       -0.8651422728     1.8710910013     0.6596515043
| 17>  H       -0.0089555195     0.0636230742    -2.1025114483
| 18>  H       -0.1083972569    -2.1934053090    -2.6243397089
| 19>  H       -0.0736135171    -4.0681839091    -1.2538374449
| 20>  H       -0.8350546140    -3.3208875662     1.1704570989
| 21>  H        1.6966552170    -4.3782326724     0.6104636225
| 22>  H        0.9945554467    -2.2514448763     2.4308103313
| 23>  H        1.8357002141    -1.8546743515     0.9353571325
| 24>  H        0.5226921062     0.0274783119     2.0328216990
| 25>  H       -0.9587298168    -0.8072768460     1.6621588273
| 26> *
| 27>
| 28>                          ****END OF INPUT****

CARTESIAN COORDINATES (ANGSTROEM)
---------------------------------
  C     -0.017641    1.539750    0.044303
  C      0.033090    0.036604   -0.033634
  C      0.022092   -0.582719   -1.227346
  C     -0.011485   -2.005006   -1.556537
  C      0.012976   -3.094881   -0.775182
  C      0.158944   -3.189887    0.719342
  O      0.845203   -4.397800    1.062116
  C      0.840727   -1.986270    1.379962
  C      0.073331   -0.661558    1.307230
  H      0.884072    1.942843    0.524471
  H     -0.114265    1.999342   -0.942455
  H     -0.865142    1.871091    0.659652
  H     -0.008956    0.063623   -2.102511
  H     -0.108397   -2.193405   -2.624340
  H     -0.073614   -4.068184   -1.253837
  H     -0.835055   -3.320888    1.170457
  H      1.696655   -4.378233    0.610464
  H      0.994555   -2.251445    2.430810
  H      1.835700   -1.854674    0.935357
  H      0.522692    0.027478    2.032822
  H     -0.958730   -0.807277    1.662159

 Total Charge           Charge          ....    0
 Multiplicity           Mult            ....    1
 Number of Electrons    NEL             ....   68
 Basis Dimension        Dim             ....  351

ORBITAL ENERGIES
----------------

  NO   OCC          E(Eh)            E(eV)
   0   2.0000     -20.551983      -559.2479
   1   2.0000     -11.281495      -306.9851
   2   2.0000     -11.244413      -305.9760
   3   2.0000     -11.233162      -305.6699
   4   2.0000     -11.232978      -305.6649
   5   2.0000     -11.225339      -305.4570
   6   2.0000     -11.225337      -305.4569
   7   2.0000     -11.224027      -305.4213
   8   2.0000     -11.221716      -305.3584
   9   2.0000      -1.357745       -36.9461
  10   2.0000      -1.124008       -30.5858
  11   2.0000      -1.052224       -28.6325
  12   2.0000      -1.034450       -28.1488
  13   2.0000      -0.945645       -25.7323
  14   2.0000      -0.899296       -24.4711
  15   2.0000      -0.852512       -23.1980
  16   2.0000      -0.770697       -20.9717
  17   2.0000      -0.697906       -18.9910
  18   2.0000      -0.681739       -18.5510
  19   2.0000      -0.649891       -17.6844
  20   2.0000      -0.630493       -17.1566
  21   2.0000      -0.598259       -16.2795
  22   2.0000      -0.589123       -16.0309
  23   2.0000      -0.575897       -15.6709
  24   2.0000      -0.564548       -15.3621
  25   2.0000      -0.549449       -14.9513
  26   2.0000      -0.525963       -14.3122
  27   2.0000      -0.514413       -13.9979
  28   2.0000      -0.494929       -13.4677
  29   2.0000      -0.478996       -13.0342
  30   2.0000      -0.457339       -12.4448
  31   2.0000      -0.443407       -12.0657
  32   2.0000      -0.417961       -11.3733
  33   2.0000      -0.304167        -8.2768
  34   0.0000       0.097707         2.6587
  35   0.0000       0.133894         3.6434
  36   0.0000       0.153766         4.1842
  37   0.0000       0.165067         4.4917
  38   0.0000       0.169191         4.6039

MULLIKEN ATOMIC CHARGES
-----------------------
   0 C :   -0.422041
   1 C :    0.061232
   2 C :   -0.193879
   3 C :   -0.100453
   4 C :   -0.309057
   5 C :    0.192717
   6 O :   -0.469147
   7 C :   -0.209608
   8 C :   -0.236385
   9 H :    0.137976
  10 H :    0.130877
  11 H :    0.138230
  12 H :    0.110051
  13 H :    0.120165
  14 H :    0.127245
  15 H :    0.101954
  16 H :    0.309377
  17 H :    0.134440
  18 H :    0.110073
  19 H :    0.137192
  20 H :    0.129041
Sum of atomic charges:   -0.0000000

LOEWDIN ATOMIC CHARGES
----------------------
   0 C :   -0.273382
   1 C :   -0.177768
   2 C :   -0.156504
   3 C :   -0.166992
   4 C :   -0.161202
   5 C :   -0.333755
   6 O :   -0.024948
   7 C :   -0.242213
   8 C :   -0.223029
   9 H :    0.129498
  10 H :    0.127074
  11 H :    0.131298
  12 H :    0.150899
  13 H :    0.152269
  14 H :    0.149669
  15 H :    0.152716
  16 H :    0.173579
  17 H :    0.144788
  18 H :    0.143580
  19 H :    0.151149
  20 H :    0.153274

  Mayer bond orders larger than 0.1
B(  0-C ,  1-C ) :   0.8924 B(  0-C ,  9-H ) :   0.9283 B(  0-C , 10-H ) :   0.9442
B(  0-C , 11-H ) :   0.9299 B(  1-C ,  2-C ) :   1.6964 B(  1-C ,  8-C ) :   0.9253
B(  2-C ,  3-C ) :   1.0148 B(  2-C , 12-H ) :   0.9232 B(  3-C ,  4-C ) :   1.6741
B(  3-C , 13-H ) :   0.9243 B(  4-C ,  5-C ) :   0.9699 B(  4-C , 14-H ) :   0.9398
B(  5-C ,  6-O ) :   0.8818 B(  5-C ,  7-C ) :   0.9387 B(  5-C , 15-H ) :   0.9070
B(  6-O , 16-H ) :   0.8438 B(  7-C ,  8-C ) :   0.8985 B(  7-C , 17-H ) :   0.9330
B(  7-C , 18-H ) :   0.9154 B(  8-C , 19-H ) :   0.9288 B(  8-C , 20-H ) :   0.9093

MP2 TOTAL ENERGY:     -386.421495278 Eh
FINAL SINGLE POINT ENERGY      -386.421495278105

DIPOLE MOMENT
-------------
                                X             Y             Z
Electronic contribution:      0.09390      -5.51248      -1.39060
Nuclear contribution   :      0.08672       6.18299       1.25510
                        -----------------------------------------
Total Dipole Moment    :      0.18062       0.67051      -0.13550
                        -----------------------------------------
Magnitude (a.u.)       :      0.70750
Magnitude (Debye)      :      1.79833

                             ****ORCA TERMINATED NORMALLY****
TOTAL RUN TIME: 0 days 0 hours 19 minutes 6 seconds 794 msec
