                         Program Version 3.0.3 - RELEASE   -
|  1> ! RI-MP2 RIJK def2-TZVP def2-TZVP/C def2-TZVP/JK TIGHTSCF
|  2> % maxcore 2000
|  3> % mp2 density relaxed end
|  4> *xyz 0 1
|  5>  C       -0.0285111498     1.3871049392    -0.3422058783
|  6>  O        1.3221568766     1.6452944441     0.0837973832
|  7>  C        1.4521963012     0.3203399343     0.6315421722
|  8>  C        0.0689857631    -0.1067303491     0.0700497732
|  9>  C       -0.9443794303    -0.6568659137     1.0082328232
| 10>  N       -1.5969319246    -1.7960408267     0.7504342198
| 11>  N       -2.3921840407    -1.9409912275     1.8013758415
| 12>  N       -2.3259891361    -1.0012580434     2.7332647591
| 13>  C       -1.4065212691    -0.1674453483     2.2486155763
| 14>  H       -0.7622410229     1.9685129024     0.2317340723
| 15>  H       -0.1719511831     1.5847439985    -1.4104511276
| 16>  H        2.3216513895    -0.2117464411     0.2293975458
| 17>  H        1.5129706134     0.3294103445     1.7279162479
| 18>  H        0.1519299998    -0.7746228524    -0.7877878086
| 19>  H       -3.0159109824    -2.7272032495     1.8873030630
| 20>  H       -1.1245813947     0.7195732785     2.7934223171
| 21> *
| 22>
| 23>                          ****END OF INPUT****

CARTESIAN COORDINATES (ANGSTROEM)
---------------------------------
  C     -0.028511    1.387105   -0.342206
  O      1.322157    1.645294    0.083797
  C      1.452196    0.320340    0.631542
  C      0.068986   -0.106730    0.070050
  C     -0.944379   -0.656866    1.008233
  N     -1.596932   -1.796041    0.750434
  N     -2.392184   -1.940991    1.801376
  N     -2.325989   -1.001258    2.733265
  C     -1.406521   -0.167445    2.248616
  H     -0.762241    1.968513    0.231734
  H     -0.171951    1.584744   -1.410451
  H      2.321651   -0.211746    0.229398
  H      1.512971    0.329410    1.727916
  H      0.151930   -0.774623   -0.787788
  H     -3.015911   -2.727203    1.887303
  H     -1.124581    0.719573    2.793422

 Total Charge           Charge          ....    0
 Multiplicity           Mult            ....    1
 Number of Electrons    NEL             ....   66
 Basis Dimension        Dim             ....  321

ORBITAL ENERGIES
----------------

  NO   OCC          E(Eh)            E(eV)
   0   2.0000     -20.554563      -559.3181
   1   2.0000     -15.682895      -426.7533
   2   2.0000     -15.623550      -425.1384
   3   2.0000     -15.619354      -425.0242
   4   2.0000     -11.288093      -307.1646
   5   2.0000     -11.288088      -307.1645
   6   2.0000     -11.275578      -306.8241
   7   2.0000     -11.267902      -306.6152
   8   2.0000     -11.252877      -306.2064
   9   2.0000      -1.452547       -39.5258
  10   2.0000      -1.386073       -37.7170
  11   2.0000      -1.201146       -32.6848
  12   2.0000      -1.123990       -30.5853
  13   2.0000      -1.025796       -27.9133
  14   2.0000      -0.942218       -25.6391
  15   2.0000      -0.861969       -23.4554
  16   2.0000      -0.850456       -23.1421
  17   2.0000      -0.778855       -21.1937
  18   2.0000      -0.738070       -20.0839
  19   2.0000      -0.691581       -18.8189
  20   2.0000      -0.664216       -18.0742
  21   2.0000      -0.658377       -17.9153
  22   2.0000      -0.626366       -17.0443
  23   2.0000      -0.606871       -16.5138
  24   2.0000      -0.572986       -15.5918
  25   2.0000      -0.571487       -15.5510
  26   2.0000      -0.500619       -13.6225
  27   2.0000      -0.491923       -13.3859
  28   2.0000      -0.482666       -13.1340
  29   2.0000      -0.472849       -12.8669
  30   2.0000      -0.421708       -11.4753
  31   2.0000      -0.403483       -10.9793
  32   2.0000      -0.369599       -10.0573
  33   0.0000       0.127909         3.4806
  34   0.0000       0.134720         3.6659
  35   0.0000       0.146640         3.9903
  36   0.0000       0.160005         4.3539
  37   0.0000       0.171512         4.6671

MULLIKEN ATOMIC CHARGES
-----------------------
   0 C :   -0.027946
   1 O :   -0.326506
   2 C :   -0.027928
   3 C :   -0.097673
   4 C :    0.014431
   5 N :   -0.185197
   6 N :    0.010599
   7 N :   -0.176712
   8 C :   -0.145998
   9 H :    0.100458
  10 H :    0.105844
  11 H :    0.105841
  12 H :    0.100445
  13 H :    0.128651
  14 H :    0.270296
  15 H :    0.151395
Sum of atomic charges:    0.0000000

LOEWDIN ATOMIC CHARGES
----------------------
   0 C :   -0.243132
   1 O :    0.111564
   2 C :   -0.243144
   3 C :   -0.202823
   4 C :   -0.277632
   5 N :    0.051227
   6 N :    0.066271
   7 N :    0.024423
   8 C :   -0.251529
   9 H :    0.118894
  10 H :    0.118279
  11 H :    0.118280
  12 H :    0.118891
  13 H :    0.160700
  14 H :    0.189112
  15 H :    0.140620

  Mayer bond orders larger than 0.1
B(  0-C ,  1-O ) :   0.9540 B(  0-C ,  3-C ) :   0.9458 B(  0-C ,  9-H ) :   0.9056
B(  0-C , 10-H ) :   0.9156 B(  1-O ,  2-C ) :   0.9540 B(  2-C ,  3-C ) :   0.9459
B(  2-C , 11-H ) :   0.9156 B(  2-C , 12-H ) :   0.9056 B(  3-C ,  4-C ) :   0.9422
B(  3-C , 13-H ) :   0.9153 B(  4-C ,  5-N ) :   1.4904 B(  4-C ,  8-C ) :   1.3298
B(  5-N ,  6-N ) :   1.1332 B(  6-N ,  7-N ) :   1.1475 B(  6-N , 14-H ) :   0.8729
B(  7-N ,  8-C ) :   1.4955 B(  8-C , 15-H ) :   0.9302

MP2 TOTAL ENERGY:     -433.325012219 Eh
FINAL SINGLE POINT ENERGY      -433.325012219262

DIPOLE MOMENT
-------------
                                X             Y             Z
Electronic contribution:     -3.47873      -2.96076       2.04449
Nuclear contribution   :      3.11441       2.40473      -2.10011
                        -----------------------------------------
Total Dipole Moment    :     -0.36432      -0.55603      -0.05563
                        -----------------------------------------
Magnitude (a.u.)       :      0.66708
Magnitude (Debye)      :      1.69558

                             ****ORCA TERMINATED NORMALLY****
TOTAL RUN TIME: 0 days 0 hours 14 minutes 46 seconds 159 msec
