                         Program Version 3.0.3 - RELEASE   -
|  1> ! RI-MP2 RIJK def2-TZVP def2-TZVP/C def2-TZVP/JK TIGHTSCF
|  2> % maxcore 2000
|  3> % mp2 density relaxed end
|  4> *xyz 0 1
|  5>  N        0.0905554486    -3.7326048777    -0.0556685871
|  6>  C        0.0679555683    -2.5699634578    -0.0366444483
|  7>  C        0.0425221694    -1.2082624649    -0.0140051380
|  8>  C        0.0265093153     0.0038821522    -0.0000355326
|  9>  C       -0.0075287997     1.4146438795     0.0477489563
| 10>  C        0.2782073277     2.2817862106    -1.1654851019
| 11>  C        1.1717635448     2.4321774789     0.0192547036
| 12>  C        0.4929528433     3.2634044093     1.1115966326
| 13>  C       -0.7045812239     2.2601470063     1.1350500009
| 14>  H        0.7006463508     1.7542011980    -2.0132860181
| 15>  H       -0.4341916863     3.0621138514    -1.4238416040
| 16>  H        2.2270904404     2.1957132083    -0.0335917286
| 17>  H        1.0446767789     3.2635458079     2.0528700025
| 18>  H        0.2642521622     4.2977585531     0.8383066401
| 19>  H       -1.6885230744     2.6483443487     0.8572037737
| 20>  H       -0.7871954153     1.7308265161     2.0848922890
| 21> *
| 22>
| 23>                          ****END OF INPUT****

CARTESIAN COORDINATES (ANGSTROEM)
---------------------------------
  N      0.090555   -3.732605   -0.055669
  C      0.067956   -2.569963   -0.036644
  C      0.042522   -1.208262   -0.014005
  C      0.026509    0.003882   -0.000036
  C     -0.007529    1.414644    0.047749
  C      0.278207    2.281786   -1.165485
  C      1.171764    2.432177    0.019255
  C      0.492953    3.263404    1.111597
  C     -0.704581    2.260147    1.135050
  H      0.700646    1.754201   -2.013286
  H     -0.434192    3.062114   -1.423842
  H      2.227090    2.195713   -0.033592
  H      1.044677    3.263546    2.052870
  H      0.264252    4.297759    0.838307
  H     -1.688523    2.648344    0.857204
  H     -0.787195    1.730827    2.084892

 Total Charge           Charge          ....    0
 Multiplicity           Mult            ....    1
 Number of Electrons    NEL             ....   62
 Basis Dimension        Dim             ....  321

ORBITAL ENERGIES
----------------

  NO   OCC          E(Eh)            E(eV)
   0   2.0000     -15.584666      -424.0803
   1   2.0000     -11.294023      -307.3260
   2   2.0000     -11.289742      -307.2095
   3   2.0000     -11.283894      -307.0504
   4   2.0000     -11.270661      -306.6903
   5   2.0000     -11.268838      -306.6407
   6   2.0000     -11.262965      -306.4809
   7   2.0000     -11.255794      -306.2857
   8   2.0000     -11.251461      -306.1678
   9   2.0000      -1.227492       -33.4018
  10   2.0000      -1.224098       -33.3094
  11   2.0000      -1.082695       -29.4616
  12   2.0000      -1.015099       -27.6222
  13   2.0000      -0.950697       -25.8698
  14   2.0000      -0.884792       -24.0764
  15   2.0000      -0.834142       -22.6981
  16   2.0000      -0.786303       -21.3964
  17   2.0000      -0.729534       -19.8516
  18   2.0000      -0.644862       -17.5476
  19   2.0000      -0.642748       -17.4901
  20   2.0000      -0.570905       -15.5351
  21   2.0000      -0.566186       -15.4067
  22   2.0000      -0.563710       -15.3393
  23   2.0000      -0.538596       -14.6559
  24   2.0000      -0.533251       -14.5105
  25   2.0000      -0.511372       -13.9151
  26   2.0000      -0.499521       -13.5927
  27   2.0000      -0.463681       -12.6174
  28   2.0000      -0.449309       -12.2263
  29   2.0000      -0.389332       -10.5943
  30   2.0000      -0.359122        -9.7722
  31   0.0000       0.091731         2.4961
  32   0.0000       0.100827         2.7436
  33   0.0000       0.130409         3.5486
  34   0.0000       0.146245         3.9795
  35   0.0000       0.157556         4.2873

MULLIKEN ATOMIC CHARGES
-----------------------
   0 N :   -0.045406
   1 C :   -0.217858
   2 C :    0.322830
   3 C :   -0.103657
   4 C :   -0.093829
   5 C :   -0.259662
   6 C :   -0.094677
   7 C :   -0.236629
   8 C :   -0.229197
   9 H :    0.151891
  10 H :    0.138781
  11 H :    0.148616
  12 H :    0.131577
  13 H :    0.124166
  14 H :    0.127607
  15 H :    0.135449
Sum of atomic charges:   -0.0000000

LOEWDIN ATOMIC CHARGES
----------------------
   0 N :    0.090570
   1 C :   -0.184010
   2 C :   -0.050293
   3 C :    0.028893
   4 C :   -0.188810
   5 C :   -0.155923
   6 C :   -0.137699
   7 C :   -0.209752
   8 C :   -0.168155
   9 H :    0.149209
  10 H :    0.139521
  11 H :    0.142260
  12 H :    0.138652
  13 H :    0.130762
  14 H :    0.132743
  15 H :    0.142031

  Mayer bond orders larger than 0.1
B(  0-N ,  1-C ) :   2.7637 B(  0-N ,  3-C ) :   0.1111 B(  1-C ,  2-C ) :   0.9427
B(  2-C ,  3-C ) :   2.4958 B(  2-C ,  4-C ) :  -0.2245 B(  3-C ,  4-C ) :   1.2093
B(  4-C ,  5-C ) :   0.8325 B(  4-C ,  6-C ) :   0.7611 B(  4-C ,  8-C ) :   0.9138
B(  5-C ,  6-C ) :   0.9006 B(  5-C ,  9-H ) :   0.9319 B(  5-C , 10-H ) :   0.9106
B(  6-C ,  7-C ) :   0.9446 B(  6-C , 11-H ) :   0.9114 B(  7-C ,  8-C ) :   0.9718
B(  7-C , 12-H ) :   0.9271 B(  7-C , 13-H ) :   0.9251 B(  8-C , 14-H ) :   0.9171
B(  8-C , 15-H ) :   0.9233

MP2 TOTAL ENERGY:     -362.897487020 Eh
FINAL SINGLE POINT ENERGY      -362.897487019903

DIPOLE MOMENT
-------------
                                X             Y             Z
Electronic contribution:     -0.07459     -12.09193      -1.29177
Nuclear contribution   :      0.17730      14.31304       1.38676
                        -----------------------------------------
Total Dipole Moment    :      0.10272       2.22111       0.09499
                        -----------------------------------------
Magnitude (a.u.)       :      2.22551
Magnitude (Debye)      :      5.65680

                             ****ORCA TERMINATED NORMALLY****
TOTAL RUN TIME: 0 days 0 hours 15 minutes 45 seconds 585 msec
