                         Program Version 3.0.3 - RELEASE   -
|  1> ! RI-MP2 RIJK def2-TZVP def2-TZVP/C def2-TZVP/JK TIGHTSCF
|  2> % maxcore 2000
|  3> % mp2 density relaxed end
|  4> *xyz 0 1
|  5>  C        0.0998158617     1.3787904591     0.3926820763
|  6>  C       -0.0113315879    -0.0487732408    -0.1601658448
|  7>  C       -1.4244234010    -0.5618286241    -0.1954604138
|  8>  C       -2.1242827188    -1.1337375652     1.0265851865
|  9>  C       -1.9699917516    -1.9807323068    -0.2114132302
| 10>  C       -3.0314741931    -1.6155375927    -1.2552788954
| 11>  C       -2.5023505850    -0.1416080379    -1.2110279427
| 12>  O       -1.2398353757    -3.1508756189    -0.2083371915
| 13>  C       -1.9137828363    -4.2396984133     0.3991514760
| 14>  H        1.1387038656     1.7232054651     0.3916289959
| 15>  H       -0.4853154494     2.0830530386    -0.2085902973
| 16>  H       -0.2737822717     1.4313831432     1.4205692219
| 17>  H        0.4096225758    -0.0808765163    -1.1741536079
| 18>  H        0.5996589491    -0.7298297813     0.4444531520
| 19>  H       -1.4531021725    -1.4100088997     1.8346797231
| 20>  H       -3.0945731264    -0.7596016839     1.3489534628
| 21>  H       -2.8363028197    -2.0903785989    -2.2197320741
| 22>  H       -4.0784485682    -1.7809667269    -0.9802896401
| 23>  H       -3.2133920864     0.6164421284    -0.8669425662
| 24>  H       -2.0844841010     0.1792121209    -2.1689168107
| 25>  H       -1.2356631410    -5.0955218968     0.3649154731
| 26>  H       -2.1682488667    -4.0204983497     1.4456279217
| 27>  H       -2.8379086395    -4.4975601220    -0.1374251045
| 28> *
| 29>
| 30>                          ****END OF INPUT****

CARTESIAN COORDINATES (ANGSTROEM)
---------------------------------
  C      0.099816    1.378790    0.392682
  C     -0.011332   -0.048773   -0.160166
  C     -1.424423   -0.561829   -0.195460
  C     -2.124283   -1.133738    1.026585
  C     -1.969992   -1.980732   -0.211413
  C     -3.031474   -1.615538   -1.255279
  C     -2.502351   -0.141608   -1.211028
  O     -1.239835   -3.150876   -0.208337
  C     -1.913783   -4.239698    0.399151
  H      1.138704    1.723205    0.391629
  H     -0.485315    2.083053   -0.208590
  H     -0.273782    1.431383    1.420569
  H      0.409623   -0.080877   -1.174154
  H      0.599659   -0.729830    0.444453
  H     -1.453102   -1.410009    1.834680
  H     -3.094573   -0.759602    1.348953
  H     -2.836303   -2.090379   -2.219732
  H     -4.078449   -1.780967   -0.980290
  H     -3.213392    0.616442   -0.866943
  H     -2.084484    0.179212   -2.168917
  H     -1.235663   -5.095522    0.364915
  H     -2.168249   -4.020498    1.445628
  H     -2.837909   -4.497560   -0.137425

 Total Charge           Charge          ....    0
 Multiplicity           Mult            ....    1
 Number of Electrons    NEL             ....   70
 Basis Dimension        Dim             ....  363

ORBITAL ENERGIES
----------------

  NO   OCC          E(Eh)            E(eV)
   0   2.0000     -20.558882      -559.4356
   1   2.0000     -11.277472      -306.8756
   2   2.0000     -11.269838      -306.6679
   3   2.0000     -11.228564      -305.5448
   4   2.0000     -11.222426      -305.3777
   5   2.0000     -11.221460      -305.3514
   6   2.0000     -11.218898      -305.2817
   7   2.0000     -11.218600      -305.2736
   8   2.0000     -11.209820      -305.0347
   9   2.0000      -1.382567       -37.6216
  10   2.0000      -1.181171       -32.1413
  11   2.0000      -1.029083       -28.0028
  12   2.0000      -0.980916       -26.6921
  13   2.0000      -0.936209       -25.4755
  14   2.0000      -0.884865       -24.0784
  15   2.0000      -0.841205       -22.8904
  16   2.0000      -0.779780       -21.2189
  17   2.0000      -0.717658       -19.5285
  18   2.0000      -0.662604       -18.0304
  19   2.0000      -0.651803       -17.7365
  20   2.0000      -0.631131       -17.1740
  21   2.0000      -0.616298       -16.7703
  22   2.0000      -0.601303       -16.3623
  23   2.0000      -0.583839       -15.8871
  24   2.0000      -0.552336       -15.0298
  25   2.0000      -0.531372       -14.4594
  26   2.0000      -0.525022       -14.2866
  27   2.0000      -0.517842       -14.0912
  28   2.0000      -0.508278       -13.8309
  29   2.0000      -0.487053       -13.2534
  30   2.0000      -0.479531       -13.0487
  31   2.0000      -0.445856       -12.1324
  32   2.0000      -0.442244       -12.0341
  33   2.0000      -0.377701       -10.2778
  34   2.0000      -0.360882        -9.8201
  35   0.0000       0.134774         3.6674
  36   0.0000       0.148066         4.0291
  37   0.0000       0.168053         4.5729
  38   0.0000       0.176295         4.7972
  39   0.0000       0.187474         5.1014

MULLIKEN ATOMIC CHARGES
-----------------------
   0 C :   -0.402431
   1 C :   -0.224712
   2 C :    0.048199
   3 C :   -0.322401
   4 C :    0.188199
   5 C :   -0.235604
   6 C :   -0.223142
   7 O :   -0.305480
   8 C :   -0.218574
   9 H :    0.133322
  10 H :    0.125740
  11 H :    0.127708
  12 H :    0.110418
  13 H :    0.117514
  14 H :    0.132045
  15 H :    0.121526
  16 H :    0.111577
  17 H :    0.112984
  18 H :    0.115815
  19 H :    0.111996
  20 H :    0.139614
  21 H :    0.117233
  22 H :    0.118455
Sum of atomic charges:   -0.0000000

LOEWDIN ATOMIC CHARGES
----------------------
   0 C :   -0.311146
   1 C :   -0.253675
   2 C :   -0.190184
   3 C :   -0.176568
   4 C :   -0.310099
   5 C :   -0.195164
   6 C :   -0.186387
   7 O :    0.192675
   8 C :   -0.338813
   9 H :    0.119661
  10 H :    0.121059
  11 H :    0.121582
  12 H :    0.141671
  13 H :    0.145450
  14 H :    0.145102
  15 H :    0.129573
  16 H :    0.138000
  17 H :    0.124894
  18 H :    0.127157
  19 H :    0.134860
  20 H :    0.112572
  21 H :    0.103746
  22 H :    0.104036

  Mayer bond orders larger than 0.1
B(  0-C ,  1-C ) :   0.9215 B(  0-C ,  9-H ) :   0.9421 B(  0-C , 10-H ) :   0.9376
B(  0-C , 11-H ) :   0.9392 B(  1-C ,  2-C ) :   0.8971 B(  1-C , 12-H ) :   0.9345
B(  1-C , 13-H ) :   0.9325 B(  2-C ,  3-C ) :   0.8589 B(  2-C ,  4-C ) :   0.7997
B(  2-C ,  6-C ) :   0.9267 B(  3-C ,  4-C ) :   0.9100 B(  3-C , 14-H ) :   0.9249
B(  3-C , 15-H ) :   0.8983 B(  4-C ,  5-C ) :   0.9735 B(  4-C ,  7-O ) :   1.0252
B(  5-C ,  6-C ) :   0.9915 B(  5-C , 16-H ) :   0.9082 B(  5-C , 17-H ) :   0.9068
B(  6-C , 18-H ) :   0.9146 B(  6-C , 19-H ) :   0.9189 B(  7-O ,  8-C ) :   0.8885
B(  8-C , 20-H ) :   0.9403 B(  8-C , 21-H ) :   0.9347 B(  8-C , 22-H ) :   0.9378

MP2 TOTAL ENERGY:     -387.576496874 Eh
FINAL SINGLE POINT ENERGY      -387.576496874009

DIPOLE MOMENT
-------------
                                X             Y             Z
Electronic contribution:     -0.44645      -3.67892      -1.29771
Nuclear contribution   :      0.15781       3.62326       1.44375
                        -----------------------------------------
Total Dipole Moment    :     -0.28864      -0.05566       0.14605
                        -----------------------------------------
Magnitude (a.u.)       :      0.32824
Magnitude (Debye)      :      0.83432

                             ****ORCA TERMINATED NORMALLY****
TOTAL RUN TIME: 0 days 0 hours 19 minutes 35 seconds 37 msec
