                         Program Version 3.0.3 - RELEASE   -
|  1> ! RI-MP2 RIJK def2-TZVP def2-TZVP/C def2-TZVP/JK TIGHTSCF
|  2> % maxcore 2000
|  3> % mp2 density relaxed end
|  4> *xyz 0 1
|  5>  C        0.0053299387    -1.2147719662    -0.0314080089
|  6>  C       -0.0255024361    -0.0171541723     0.0578535925
|  7>  C       -0.0160807935     1.4349586558     0.1585161200
|  8>  C        1.3896989884     2.0058474777    -0.1195251121
|  9>  N        1.4120082926     3.4550127145    -0.0090787168
| 10>  C        1.9120484243     4.2619484299     0.9443525733
| 11>  N        1.6619238672     5.5127324288     0.6262071141
| 12>  N        0.9893173876     5.4588203833    -0.5539956518
| 13>  N        0.8310535902     4.2377469821    -0.9443664807
| 14>  H        0.0115195842    -2.2740081167    -0.1094040420
| 15>  H       -0.7192773887     1.8757027172    -0.5566577617
| 16>  H       -0.3422038114     1.7494344089     1.1573217988
| 17>  H        2.1147787542     1.6055529420     0.5920136658
| 18>  H        1.7134089165     1.7355234133    -1.1266162670
| 19>  H        2.4369754959     3.9130332617     1.8187394363
| 20> *
| 21>
| 22>                          ****END OF INPUT****

CARTESIAN COORDINATES (ANGSTROEM)
---------------------------------
  C      0.005330   -1.214772   -0.031408
  C     -0.025502   -0.017154    0.057854
  C     -0.016081    1.434959    0.158516
  C      1.389699    2.005847   -0.119525
  N      1.412008    3.455013   -0.009079
  C      1.912048    4.261948    0.944353
  N      1.661924    5.512732    0.626207
  N      0.989317    5.458820   -0.553996
  N      0.831054    4.237747   -0.944366
  H      0.011520   -2.274008   -0.109404
  H     -0.719277    1.875703   -0.556658
  H     -0.342204    1.749434    1.157322
  H      2.114779    1.605553    0.592014
  H      1.713409    1.735523   -1.126616
  H      2.436975    3.913033    1.818739

 Total Charge           Charge          ....    0
 Multiplicity           Mult            ....    1
 Number of Electrons    NEL             ....   64
 Basis Dimension        Dim             ....  315

ORBITAL ENERGIES
----------------

  NO   OCC          E(Eh)            E(eV)
   0   2.0000     -15.678984      -426.6468
   1   2.0000     -15.656102      -426.0242
   2   2.0000     -15.644071      -425.6968
   3   2.0000     -15.599669      -424.4886
   4   2.0000     -11.330924      -308.3301
   5   2.0000     -11.317178      -307.9561
   6   2.0000     -11.283367      -307.0360
   7   2.0000     -11.254490      -306.2502
   8   2.0000     -11.243293      -305.9456
   9   2.0000      -1.489175       -40.5225
  10   2.0000      -1.271621       -34.6026
  11   2.0000      -1.190379       -32.3919
  12   2.0000      -1.109745       -30.1977
  13   2.0000      -1.028171       -27.9779
  14   2.0000      -0.943872       -25.6841
  15   2.0000      -0.892974       -24.2991
  16   2.0000      -0.847938       -23.0736
  17   2.0000      -0.753797       -20.5119
  18   2.0000      -0.738296       -20.0901
  19   2.0000      -0.697559       -18.9816
  20   2.0000      -0.668149       -18.1813
  21   2.0000      -0.662735       -18.0339
  22   2.0000      -0.633805       -17.2467
  23   2.0000      -0.585604       -15.9351
  24   2.0000      -0.570485       -15.5237
  25   2.0000      -0.555778       -15.1235
  26   2.0000      -0.475063       -12.9271
  27   2.0000      -0.466306       -12.6888
  28   2.0000      -0.440345       -11.9824
  29   2.0000      -0.415897       -11.3171
  30   2.0000      -0.407639       -11.0924
  31   2.0000      -0.405738       -11.0407
  32   0.0000       0.116507         3.1703
  33   0.0000       0.119972         3.2646
  34   0.0000       0.148979         4.0539
  35   0.0000       0.154556         4.2057
  36   0.0000       0.160289         4.3617

MULLIKEN ATOMIC CHARGES
-----------------------
   0 C :   -0.121279
   1 C :   -0.050759
   2 C :   -0.337480
   3 C :   -0.173943
   4 N :    0.091878
   5 C :   -0.029116
   6 N :   -0.172954
   7 N :   -0.101133
   8 N :   -0.132250
   9 H :    0.198871
  10 H :    0.179376
  11 H :    0.155789
  12 H :    0.154996
  13 H :    0.165518
  14 H :    0.172486
Sum of atomic charges:   -0.0000000

LOEWDIN ATOMIC CHARGES
----------------------
   0 C :   -0.087496
   1 C :   -0.114207
   2 C :   -0.241177
   3 C :   -0.222098
   4 N :    0.172245
   5 C :   -0.327968
   6 N :    0.006395
   7 N :   -0.056419
   8 N :   -0.030193
   9 H :    0.129803
  10 H :    0.166125
  11 H :    0.160383
  12 H :    0.149550
  13 H :    0.153067
  14 H :    0.141990

  Mayer bond orders larger than 0.1
B(  0-C ,  1-C ) :   2.6272 B(  0-C ,  9-H ) :   0.8957 B(  1-C ,  2-C ) :   1.0621
B(  2-C ,  3-C ) :   0.9184 B(  2-C , 10-H ) :   0.9253 B(  2-C , 11-H ) :   0.9238
B(  3-C ,  4-N ) :   0.8559 B(  3-C , 12-H ) :   0.9240 B(  3-C , 13-H ) :   0.9184
B(  4-N ,  5-C ) :   1.2144 B(  4-N ,  8-N ) :   0.9998 B(  5-C ,  6-N ) :   1.5153
B(  5-C , 14-H ) :   0.9178 B(  6-N ,  7-N ) :   1.0868 B(  7-N ,  8-N ) :   1.3005

MP2 TOTAL ENERGY:     -412.222851570 Eh
FINAL SINGLE POINT ENERGY      -412.222851569593

DIPOLE MOMENT
-------------
                                X             Y             Z
Electronic contribution:      0.74188       5.84585      -0.86189
Nuclear contribution   :     -0.31040      -7.91815       1.58792
                        -----------------------------------------
Total Dipole Moment    :      0.43148      -2.07230       0.72603
                        -----------------------------------------
Magnitude (a.u.)       :      2.23779
Magnitude (Debye)      :      5.68801

                             ****ORCA TERMINATED NORMALLY****
TOTAL RUN TIME: 0 days 0 hours 13 minutes 10 seconds 875 msec
