                         Program Version 3.0.3 - RELEASE   -
|  1> ! RI-MP2 RIJK def2-TZVP def2-TZVP/C def2-TZVP/JK TIGHTSCF
|  2> % maxcore 2000
|  3> % mp2 density relaxed end
|  4> *xyz 0 1
|  5>  C       -0.0172927128    -1.1750708787    -0.0311212672
|  6>  C       -0.0322115513     0.0277789996    -0.0034019884
|  7>  C        0.0056305039     1.4471257929     0.0438341532
|  8>  C       -0.6943200535     2.4756248372     0.8957933174
|  9>  C        0.6116008681     3.2494895112     1.1086489335
| 10>  C        1.2570088251     2.3883780883    -0.0223633786
| 11>  C        1.1050900405     3.0857817089    -1.3741515225
| 12>  C       -0.4324357545     3.2721292318    -1.4652885408
| 13>  N       -1.0405569261     2.3061587993    -0.5197186552
| 14>  H       -0.0198080079    -2.2362821498    -0.0586599558
| 15>  H       -1.4915016574     2.3359389485     1.6178565546
| 16>  H        0.5949388815     4.3353101080     0.9653408360
| 17>  H        1.0384762940     3.0257066310     2.0890693629
| 18>  H        2.2346271389     1.9577392492     0.1864430909
| 19>  H        1.6473161986     4.0354053460    -1.4197260480
| 20>  H        1.4729512407     2.4474300469    -2.1846381012
| 21>  H       -0.7479773177     4.2854687033    -1.1990787161
| 22>  H       -0.8165523900     3.0590533164    -2.4660127345
| 23> *
| 24>
| 25>                          ****END OF INPUT****

CARTESIAN COORDINATES (ANGSTROEM)
---------------------------------
  C     -0.017293   -1.175071   -0.031121
  C     -0.032212    0.027779   -0.003402
  C      0.005631    1.447126    0.043834
  C     -0.694320    2.475625    0.895793
  C      0.611601    3.249490    1.108649
  C      1.257009    2.388378   -0.022363
  C      1.105090    3.085782   -1.374152
  C     -0.432436    3.272129   -1.465289
  N     -1.040557    2.306159   -0.519719
  H     -0.019808   -2.236282   -0.058660
  H     -1.491502    2.335939    1.617857
  H      0.594939    4.335310    0.965341
  H      1.038476    3.025707    2.089069
  H      2.234627    1.957739    0.186443
  H      1.647316    4.035405   -1.419726
  H      1.472951    2.447430   -2.184638
  H     -0.747977    4.285469   -1.199079
  H     -0.816552    3.059053   -2.466013

 Total Charge           Charge          ....    0
 Multiplicity           Mult            ....    1
 Number of Electrons    NEL             ....   64
 Basis Dimension        Dim             ....  333

ORBITAL ENERGIES
----------------

  NO   OCC          E(Eh)            E(eV)
   0   2.0000     -15.567465      -423.6123
   1   2.0000     -11.280048      -306.9457
   2   2.0000     -11.269645      -306.6626
   3   2.0000     -11.252414      -306.1938
   4   2.0000     -11.245526      -306.0063
   5   2.0000     -11.236061      -305.7488
   6   2.0000     -11.235060      -305.7215
   7   2.0000     -11.228109      -305.5324
   8   2.0000     -11.224306      -305.4289
   9   2.0000      -1.310366       -35.6569
  10   2.0000      -1.063546       -28.9406
  11   2.0000      -1.052190       -28.6316
  12   2.0000      -1.028412       -27.9845
  13   2.0000      -0.925036       -25.1715
  14   2.0000      -0.842361       -22.9218
  15   2.0000      -0.820286       -22.3211
  16   2.0000      -0.754863       -20.5409
  17   2.0000      -0.718950       -19.5636
  18   2.0000      -0.697105       -18.9692
  19   2.0000      -0.651737       -17.7347
  20   2.0000      -0.637282       -17.3413
  21   2.0000      -0.583283       -15.8719
  22   2.0000      -0.562949       -15.3186
  23   2.0000      -0.548467       -14.9245
  24   2.0000      -0.496306       -13.5052
  25   2.0000      -0.489748       -13.3267
  26   2.0000      -0.478235       -13.0134
  27   2.0000      -0.459916       -12.5149
  28   2.0000      -0.446008       -12.1365
  29   2.0000      -0.399644       -10.8749
  30   2.0000      -0.380148       -10.3444
  31   2.0000      -0.352552        -9.5934
  32   0.0000       0.138739         3.7753
  33   0.0000       0.150127         4.0852
  34   0.0000       0.162166         4.4128
  35   0.0000       0.165917         4.5148
  36   0.0000       0.173313         4.7161

MULLIKEN ATOMIC CHARGES
-----------------------
   0 C :   -0.097474
   1 C :    0.003001
   2 C :   -0.023528
   3 C :   -0.120879
   4 C :   -0.260584
   5 C :   -0.041626
   6 C :   -0.273502
   7 C :   -0.158226
   8 N :   -0.224848
   9 H :    0.193325
  10 H :    0.133373
  11 H :    0.115048
  12 H :    0.127759
  13 H :    0.128932
  14 H :    0.123625
  15 H :    0.122640
  16 H :    0.121226
  17 H :    0.131736
Sum of atomic charges:   -0.0000000

LOEWDIN ATOMIC CHARGES
----------------------
   0 C :   -0.081443
   1 C :   -0.070369
   2 C :   -0.206618
   3 C :   -0.176472
   4 C :   -0.199322
   5 C :   -0.162277
   6 C :   -0.238483
   7 C :   -0.255322
   8 N :    0.170980
   9 H :    0.127162
  10 H :    0.135413
  11 H :    0.127623
  12 H :    0.142552
  13 H :    0.145707
  14 H :    0.137676
  15 H :    0.139589
  16 H :    0.130852
  17 H :    0.132754

  Mayer bond orders larger than 0.1
B(  0-C ,  1-C ) :   2.6199 B(  0-C ,  2-C ) :  -0.1751 B(  0-C ,  9-H ) :   0.8596
B(  1-C ,  2-C ) :   1.1839 B(  2-C ,  3-C ) :   0.7660 B(  2-C ,  5-C ) :   0.8233
B(  2-C ,  8-N ) :   0.7794 B(  3-C ,  4-C ) :   0.9413 B(  3-C ,  8-N ) :   0.9568
B(  3-C , 10-H ) :   0.9249 B(  4-C ,  5-C ) :   0.9575 B(  4-C , 11-H ) :   0.9206
B(  4-C , 12-H ) :   0.9107 B(  5-C ,  6-C ) :   0.9278 B(  5-C , 13-H ) :   0.9121
B(  6-C ,  7-C ) :   0.9500 B(  6-C , 14-H ) :   0.9206 B(  6-C , 15-H ) :   0.9229
B(  7-C ,  8-N ) :   0.9043 B(  7-C , 16-H ) :   0.9330 B(  7-C , 17-H ) :   0.9300

MP2 TOTAL ENERGY:     -364.077587855 Eh
FINAL SINGLE POINT ENERGY      -364.077587855100

DIPOLE MOMENT
-------------
                                X             Y             Z
Electronic contribution:     -2.28814      -4.87139       1.03678
Nuclear contribution   :      2.88314       5.29059      -0.90478
                        -----------------------------------------
Total Dipole Moment    :      0.59501       0.41920       0.13200
                        -----------------------------------------
Magnitude (a.u.)       :      0.73972
Magnitude (Debye)      :      1.88023

                             ****ORCA TERMINATED NORMALLY****
TOTAL RUN TIME: 0 days 0 hours 20 minutes 17 seconds 70 msec
