                         Program Version 3.0.3 - RELEASE   -
|  1> ! RI-MP2 RIJK def2-TZVP def2-TZVP/C def2-TZVP/JK TIGHTSCF
|  2> % maxcore 2000
|  3> % mp2 density relaxed end
|  4> *xyz 0 1
|  5>  O        0.0754639281    -0.0625501496     0.0019574834
|  6>  C        0.0105081133     1.1448733005     0.0089903542
|  7>  C       -1.2522810284     1.8899553116     0.0302651774
|  8>  C       -1.2539319053     3.2377495459     0.0371538856
|  9>  O       -0.0759171679     3.9407784267     0.0244461410
| 10>  C        1.0683489974     3.2093587317     0.0048565605
| 11>  N        1.1881599488     1.9470655737    -0.0032441771
| 12>  C       -2.4026877421     4.0662598843     0.0572993653
| 13>  C       -3.3855026910     4.7591321777     0.0744978922
| 14>  H       -2.1845609114     1.3417701699     0.0403888337
| 15>  H        1.9270206434     3.8754910948    -0.0036409774
| 16>  H       -4.2553128650     5.3699506929     0.0898323812
| 17> *
| 18>
| 19>                          ****END OF INPUT****

CARTESIAN COORDINATES (ANGSTROEM)
---------------------------------
  O      0.075464   -0.062550    0.001957
  C      0.010508    1.144873    0.008990
  C     -1.252281    1.889955    0.030265
  C     -1.253932    3.237750    0.037154
  O     -0.075917    3.940778    0.024446
  C      1.068349    3.209359    0.004857
  N      1.188160    1.947066   -0.003244
  C     -2.402688    4.066260    0.057299
  C     -3.385503    4.759132    0.074498
  H     -2.184561    1.341770    0.040389
  H      1.927021    3.875491   -0.003641
  H     -4.255313    5.369951    0.089832

 Total Charge           Charge          ....    0
 Multiplicity           Mult            ....    1
 Number of Electrons    NEL             ....   62
 Basis Dimension        Dim             ....  297

ORBITAL ENERGIES
----------------

  NO   OCC          E(Eh)            E(eV)
   0   2.0000     -20.671068      -562.4883
   1   2.0000     -20.542357      -558.9860
   2   2.0000     -15.587666      -424.1620
   3   2.0000     -11.390161      -309.9420
   4   2.0000     -11.378399      -309.6220
   5   2.0000     -11.369326      -309.3751
   6   2.0000     -11.280634      -306.9617
   7   2.0000     -11.275608      -306.8249
   8   2.0000     -11.273220      -306.7599
   9   2.0000      -1.510542       -41.1039
  10   2.0000      -1.398406       -38.0526
  11   2.0000      -1.256878       -34.2014
  12   2.0000      -1.141284       -31.0559
  13   2.0000      -1.059472       -28.8297
  14   2.0000      -0.956570       -26.0296
  15   2.0000      -0.916507       -24.9394
  16   2.0000      -0.806147       -21.9364
  17   2.0000      -0.769628       -20.9426
  18   2.0000      -0.746046       -20.3009
  19   2.0000      -0.698929       -19.0188
  20   2.0000      -0.695012       -18.9122
  21   2.0000      -0.683041       -18.5865
  22   2.0000      -0.638384       -17.3713
  23   2.0000      -0.589662       -16.0455
  24   2.0000      -0.569545       -15.4981
  25   2.0000      -0.500768       -13.6266
  26   2.0000      -0.490611       -13.3502
  27   2.0000      -0.446166       -12.1408
  28   2.0000      -0.439433       -11.9576
  29   2.0000      -0.433051       -11.7839
  30   2.0000      -0.375329       -10.2132
  31   0.0000       0.050817         1.3828
  32   0.0000       0.099641         2.7114
  33   0.0000       0.134575         3.6620
  34   0.0000       0.141291         3.8447
  35   0.0000       0.158059         4.3010

MULLIKEN ATOMIC CHARGES
-----------------------
   0 O :   -0.278588
   1 C :    0.262844
   2 C :   -0.282919
   3 C :    0.095087
   4 O :   -0.206735
   5 C :    0.115469
   6 N :   -0.206677
   7 C :    0.029000
   8 C :   -0.058576
   9 H :    0.158976
  10 H :    0.160306
  11 H :    0.211814
Sum of atomic charges:    0.0000000

LOEWDIN ATOMIC CHARGES
----------------------
   0 O :    0.144451
   1 C :   -0.416378
   2 C :   -0.079950
   3 C :   -0.217100
   4 O :    0.343048
   5 C :   -0.283420
   6 N :    0.142557
   7 C :   -0.056839
   8 C :   -0.023057
   9 H :    0.167876
  10 H :    0.143085
  11 H :    0.135727

  Mayer bond orders larger than 0.1
B(  0-O ,  1-C ) :   1.9827 B(  1-C ,  2-C ) :   1.0276 B(  1-C ,  6-N ) :   1.0302
B(  2-C ,  3-C ) :   1.5315 B(  2-C ,  9-H ) :   0.9234 B(  3-C ,  4-O ) :   1.0034
B(  3-C ,  7-C ) :   1.1673 B(  3-C ,  8-C ) :  -0.1554 B(  4-O ,  5-C ) :   1.0427
B(  5-C ,  6-N ) :   1.7482 B(  5-C , 10-H ) :   0.9258 B(  7-C ,  8-C ) :   2.5820
B(  8-C , 11-H ) :   0.8725

MP2 TOTAL ENERGY:     -434.748853510 Eh
FINAL SINGLE POINT ENERGY      -434.748853509872

DIPOLE MOMENT
-------------
                                X             Y             Z
Electronic contribution:      1.48947      -0.67367      -0.02419
Nuclear contribution   :     -2.47231       2.47328       0.04703
                        -----------------------------------------
Total Dipole Moment    :     -0.98283       1.79961       0.02285
                        -----------------------------------------
Magnitude (a.u.)       :      2.05063
Magnitude (Debye)      :      5.21228

                             ****ORCA TERMINATED NORMALLY****
TOTAL RUN TIME: 0 days 0 hours 12 minutes 34 seconds 387 msec
