                         Program Version 3.0.3 - RELEASE   -
|  1> ! RI-MP2 RIJK def2-TZVP def2-TZVP/C def2-TZVP/JK TIGHTSCF
|  2> % maxcore 2000
|  3> % mp2 density relaxed end
|  4> *xyz 0 1
|  5>  C       -0.0397722753     1.6001343354    -0.0686341678
|  6>  C       -0.0589439431     0.0596774066    -0.0277769879
|  7>  C       -1.5034034938    -0.4775782540    -0.0199668842
|  8>  C        0.7375168552    -0.5276574942    -1.1465116183
|  9>  C        1.8436354284    -1.3123756349    -1.2445363110
| 10>  C        2.7046952058    -1.8978235894    -0.1756095090
| 11>  N        2.1208782774    -1.5382568068    -2.5965183266
| 12>  C        1.1953106387    -0.8971944310    -3.2247049938
| 13>  O        0.3122041541    -0.2549768620    -2.4302253898
| 14>  H        0.9834325857     1.9844096439    -0.0256746019
| 15>  H       -0.4999207851     1.9670608365    -0.9911829358
| 16>  H       -0.5982361339     2.0131880220     0.7772682914
| 17>  H        0.4310357375    -0.2637810664     0.8982499374
| 18>  H       -2.0241114728    -0.1968111539    -0.9405812499
| 19>  H       -1.5193618360    -1.5685270464     0.0576838351
| 20>  H       -2.0617916956    -0.0642138303     0.8258424282
| 21>  H        2.7219432578    -2.9907842133    -0.2439658792
| 22>  H        3.7393476999    -1.5529406091    -0.2760582156
| 23>  H        2.3487664791    -1.6237917431     0.8206552028
| 24>  H        1.0417617360    -0.8119236695    -4.2893411041
| 25> *
| 26>
| 27>                          ****END OF INPUT****

CARTESIAN COORDINATES (ANGSTROEM)
---------------------------------
  C     -0.039772    1.600134   -0.068634
  C     -0.058944    0.059677   -0.027777
  C     -1.503403   -0.477578   -0.019967
  C      0.737517   -0.527657   -1.146512
  C      1.843635   -1.312376   -1.244536
  C      2.704695   -1.897824   -0.175610
  N      2.120878   -1.538257   -2.596518
  C      1.195311   -0.897194   -3.224705
  O      0.312204   -0.254977   -2.430225
  H      0.983433    1.984410   -0.025675
  H     -0.499921    1.967061   -0.991183
  H     -0.598236    2.013188    0.777268
  H      0.431036   -0.263781    0.898250
  H     -2.024111   -0.196811   -0.940581
  H     -1.519362   -1.568527    0.057684
  H     -2.061792   -0.064214    0.825842
  H      2.721943   -2.990784   -0.243966
  H      3.739348   -1.552941   -0.276058
  H      2.348766   -1.623792    0.820655
  H      1.041762   -0.811924   -4.289341

 Total Charge           Charge          ....    0
 Multiplicity           Mult            ....    1
 Number of Electrons    NEL             ....   68
 Basis Dimension        Dim             ....  345

ORBITAL ENERGIES
----------------

  NO   OCC          E(Eh)            E(eV)
   0   2.0000     -20.626822      -561.2844
   1   2.0000     -15.556485      -423.3135
   2   2.0000     -11.325943      -308.1946
   3   2.0000     -11.282070      -307.0007
   4   2.0000     -11.255575      -306.2798
   5   2.0000     -11.248068      -306.0755
   6   2.0000     -11.225883      -305.4718
   7   2.0000     -11.220313      -305.3202
   8   2.0000     -11.220292      -305.3197
   9   2.0000      -1.476251       -40.1708
  10   2.0000      -1.225932       -33.3593
  11   2.0000      -1.102090       -29.9894
  12   2.0000      -1.029611       -28.0171
  13   2.0000      -0.949599       -25.8399
  14   2.0000      -0.935868       -25.4663
  15   2.0000      -0.847655       -23.0659
  16   2.0000      -0.816057       -22.2060
  17   2.0000      -0.758480       -20.6393
  18   2.0000      -0.707874       -19.2622
  19   2.0000      -0.657742       -17.8981
  20   2.0000      -0.623781       -16.9739
  21   2.0000      -0.614493       -16.7212
  22   2.0000      -0.596227       -16.2242
  23   2.0000      -0.568930       -15.4814
  24   2.0000      -0.564449       -15.3594
  25   2.0000      -0.548911       -14.9366
  26   2.0000      -0.540561       -14.7094
  27   2.0000      -0.536137       -14.5890
  28   2.0000      -0.508644       -13.8409
  29   2.0000      -0.490157       -13.3378
  30   2.0000      -0.484913       -13.1951
  31   2.0000      -0.448905       -12.2153
  32   2.0000      -0.437119       -11.8946
  33   2.0000      -0.320998        -8.7348
  34   0.0000       0.131393         3.5754
  35   0.0000       0.144158         3.9227
  36   0.0000       0.157957         4.2982
  37   0.0000       0.178338         4.8528
  38   0.0000       0.187226         5.0947

MULLIKEN ATOMIC CHARGES
-----------------------
   0 C :   -0.406735
   1 C :   -0.024483
   2 C :   -0.406689
   3 C :    0.136344
   4 C :    0.048623
   5 C :   -0.421357
   6 N :   -0.275909
   7 C :    0.092244
   8 O :   -0.228694
   9 H :    0.136867
  10 H :    0.137425
  11 H :    0.132657
  12 H :    0.092937
  13 H :    0.137394
  14 H :    0.136866
  15 H :    0.132648
  16 H :    0.149332
  17 H :    0.149340
  18 H :    0.127185
  19 H :    0.154006
Sum of atomic charges:   -0.0000000

LOEWDIN ATOMIC CHARGES
----------------------
   0 C :   -0.282563
   1 C :   -0.277295
   2 C :   -0.282546
   3 C :   -0.208261
   4 C :   -0.254882
   5 C :   -0.270487
   6 N :    0.116925
   7 C :   -0.333392
   8 O :    0.348762
   9 H :    0.125623
  10 H :    0.127232
  11 H :    0.123733
  12 H :    0.161838
  13 H :    0.127232
  14 H :    0.125614
  15 H :    0.123730
  16 H :    0.134801
  17 H :    0.134808
  18 H :    0.127953
  19 H :    0.131176

  Mayer bond orders larger than 0.1
B(  0-C ,  1-C ) :   0.9151 B(  0-C ,  9-H ) :   0.9365 B(  0-C , 10-H ) :   0.9310
B(  0-C , 11-H ) :   0.9360 B(  1-C ,  2-C ) :   0.9150 B(  1-C ,  3-C ) :   0.9117
B(  1-C , 12-H ) :   0.9366 B(  2-C , 13-H ) :   0.9310 B(  2-C , 14-H ) :   0.9365
B(  2-C , 15-H ) :   0.9360 B(  3-C ,  4-C ) :   1.5636 B(  3-C ,  8-O ) :   1.0000
B(  4-C ,  5-C ) :   0.8629 B(  4-C ,  6-N ) :   1.1933 B(  5-C , 16-H ) :   0.9365
B(  5-C , 17-H ) :   0.9365 B(  5-C , 18-H ) :   0.9521 B(  6-N ,  7-C ) :   1.6639
B(  7-C ,  8-O ) :   1.0917 B(  7-C , 19-H ) :   0.9274

MP2 TOTAL ENERGY:     -402.503051915 Eh
FINAL SINGLE POINT ENERGY      -402.503051914752

DIPOLE MOMENT
-------------
                                X             Y             Z
Electronic contribution:      3.33812      -2.54133      -8.57846
Nuclear contribution   :     -3.79064       2.87346       9.13222
                        -----------------------------------------
Total Dipole Moment    :     -0.45252       0.33213       0.55376
                        -----------------------------------------
Magnitude (a.u.)       :      0.78850
Magnitude (Debye)      :      2.00421

                             ****ORCA TERMINATED NORMALLY****
TOTAL RUN TIME: 0 days 0 hours 19 minutes 33 seconds 335 msec
