                         Program Version 3.0.3 - RELEASE   -
|  1> ! RI-MP2 RIJK def2-TZVP def2-TZVP/C def2-TZVP/JK TIGHTSCF
|  2> % maxcore 2000
|  3> % mp2 density relaxed end
|  4> *xyz 0 1
|  5>  C       -0.0516700919     1.5345235758     0.0338996698
|  6>  C        0.0592943651     0.0138833443    -0.0304857103
|  7>  C        0.8346775178    -0.5271039680    -1.2611681621
|  8>  C        1.4869509858    -1.7933740040    -0.7075280698
|  9>  C        1.6383859849    -1.4949962459     0.7787099677
| 10>  O        2.3288460891    -2.0281293336     1.5903275617
| 11>  O        0.8170903090    -0.4415414810     1.1074745115
| 12>  C       -1.2857478292    -0.6017352568     0.0358660597
| 13>  N       -2.3365685175    -1.0809616259     0.0603250213
| 14>  H        0.9518619321     1.9667752615     0.0322794905
| 15>  H       -0.6057990734     1.9086798097    -0.8311650906
| 16>  H       -0.5700412202     1.8442453202     0.9435393243
| 17>  H        0.1796381966    -0.6936158716    -2.1168046510
| 18>  H        1.5912359101     0.2109171889    -1.5426811077
| 19>  H        0.8378932741    -2.6698185860    -0.8123967666
| 20>  H        2.4547795176    -2.0409772376    -1.1436910085
| 21> *
| 22>
| 23>                          ****END OF INPUT****

CARTESIAN COORDINATES (ANGSTROEM)
---------------------------------
  C     -0.051670    1.534524    0.033900
  C      0.059294    0.013883   -0.030486
  C      0.834678   -0.527104   -1.261168
  C      1.486951   -1.793374   -0.707528
  C      1.638386   -1.494996    0.778710
  O      2.328846   -2.028129    1.590328
  O      0.817090   -0.441541    1.107475
  C     -1.285748   -0.601735    0.035866
  N     -2.336569   -1.080962    0.060325
  H      0.951862    1.966775    0.032279
  H     -0.605799    1.908680   -0.831165
  H     -0.570041    1.844245    0.943539
  H      0.179638   -0.693616   -2.116805
  H      1.591236    0.210917   -1.542681
  H      0.837893   -2.669819   -0.812397
  H      2.454780   -2.040977   -1.143691

 Total Charge           Charge          ....    0
 Multiplicity           Mult            ....    1
 Number of Electrons    NEL             ....   66
 Basis Dimension        Dim             ....  321

ORBITAL ENERGIES
----------------

  NO   OCC          E(Eh)            E(eV)
   0   2.0000     -20.626363      -561.2719
   1   2.0000     -20.560444      -559.4781
   2   2.0000     -15.592420      -424.2913
   3   2.0000     -11.398091      -310.1578
   4   2.0000     -11.372423      -309.4594
   5   2.0000     -11.288295      -307.1701
   6   2.0000     -11.280722      -306.9640
   7   2.0000     -11.275554      -306.8234
   8   2.0000     -11.261533      -306.4419
   9   2.0000      -1.481751       -40.3205
  10   2.0000      -1.391705       -37.8702
  11   2.0000      -1.237786       -33.6819
  12   2.0000      -1.129105       -30.7245
  13   2.0000      -1.076736       -29.2995
  14   2.0000      -0.945933       -25.7402
  15   2.0000      -0.891876       -24.2692
  16   2.0000      -0.820976       -22.3399
  17   2.0000      -0.764753       -20.8100
  18   2.0000      -0.701720       -19.0948
  19   2.0000      -0.671562       -18.2741
  20   2.0000      -0.656846       -17.8737
  21   2.0000      -0.623885       -16.9768
  22   2.0000      -0.611081       -16.6284
  23   2.0000      -0.602502       -16.3949
  24   2.0000      -0.591787       -16.1034
  25   2.0000      -0.575371       -15.6566
  26   2.0000      -0.561385       -15.2761
  27   2.0000      -0.536809       -14.6073
  28   2.0000      -0.530944       -14.4477
  29   2.0000      -0.494026       -13.4431
  30   2.0000      -0.479600       -13.0506
  31   2.0000      -0.475505       -12.9391
  32   2.0000      -0.456860       -12.4318
  33   0.0000       0.108810         2.9609
  34   0.0000       0.133338         3.6283
  35   0.0000       0.138105         3.7580
  36   0.0000       0.155967         4.2441
  37   0.0000       0.160919         4.3788

MULLIKEN ATOMIC CHARGES
-----------------------
   0 C :   -0.382135
   1 C :    0.360615
   2 C :   -0.275104
   3 C :   -0.250139
   4 C :    0.235321
   5 O :   -0.258592
   6 O :   -0.222030
   7 C :   -0.250221
   8 N :   -0.037546
   9 H :    0.148658
  10 H :    0.146822
  11 H :    0.163439
  12 H :    0.158829
  13 H :    0.142334
  14 H :    0.163749
  15 H :    0.156001
Sum of atomic charges:    0.0000000

LOEWDIN ATOMIC CHARGES
----------------------
   0 C :   -0.239557
   1 C :   -0.336054
   2 C :   -0.192522
   3 C :   -0.219109
   4 C :   -0.446144
   5 O :    0.160635
   6 O :    0.298364
   7 C :   -0.142745
   8 N :    0.083025
   9 H :    0.135406
  10 H :    0.139253
  11 H :    0.140028
  12 H :    0.150586
  13 H :    0.150241
  14 H :    0.163846
  15 H :    0.154744

  Mayer bond orders larger than 0.1
B(  0-C ,  1-C ) :   0.9003 B(  0-C ,  9-H ) :   0.9298 B(  0-C , 10-H ) :   0.9220
B(  0-C , 11-H ) :   0.9300 B(  1-C ,  2-C ) :   0.8697 B(  1-C ,  6-O ) :   0.8637
B(  1-C ,  7-C ) :   0.9120 B(  2-C ,  3-C ) :   0.9464 B(  2-C , 12-H ) :   0.9191
B(  2-C , 13-H ) :   0.9227 B(  3-C ,  4-C ) :   0.9307 B(  3-C , 14-H ) :   0.9027
B(  3-C , 15-H ) :   0.9143 B(  4-C ,  5-O ) :   2.0639 B(  4-C ,  6-O ) :   1.0688
B(  7-C ,  8-N ) :   2.8559

MP2 TOTAL ENERGY:     -437.229769451 Eh
FINAL SINGLE POINT ENERGY      -437.229769450893

DIPOLE MOMENT
-------------
                                X             Y             Z
Electronic contribution:     -1.09602      -4.13833       4.85488
Nuclear contribution   :      1.68810       5.12512      -6.39424
                        -----------------------------------------
Total Dipole Moment    :      0.59208       0.98679      -1.53935
                        -----------------------------------------
Magnitude (a.u.)       :      1.92196
Magnitude (Debye)      :      4.88523

                             ****ORCA TERMINATED NORMALLY****
TOTAL RUN TIME: 0 days 0 hours 17 minutes 19 seconds 812 msec
