                         Program Version 3.0.3 - RELEASE   -
|  1> ! RI-MP2 RIJK def2-TZVP def2-TZVP/C def2-TZVP/JK TIGHTSCF
|  2> % maxcore 2000
|  3> % mp2 density relaxed end
|  4> *xyz 0 1
|  5>  C       -0.8348248256     1.1368951791    -0.0202331425
|  6>  C        0.0136768031    -0.1317592574    -0.0901861763
|  7>  C        1.0134196919    -0.1951224539    -1.2385628275
|  8>  C        2.3144198312     0.5577936493    -1.0837101436
|  9>  C        2.2579856342    -0.9164426554    -0.7617183054
| 10>  C        2.0510453942    -1.3019119737     0.6939066334
| 11>  C        0.8788824275    -0.4284307534     1.1449747648
| 12>  C        0.9691210433     0.4514127109     2.3202903270
| 13>  O        0.2179945123    -0.7670148327     2.3609647053
| 14>  H       -0.2097168560     2.0347069111     0.0216760884
| 15>  H       -1.4771927615     1.2199815362    -0.9025650634
| 16>  H       -1.4835498768     1.1235714067     0.8618104877
| 17>  H       -0.6653664107    -0.9909583980    -0.1947714192
| 18>  H        0.6283708873    -0.3504428544    -2.2404881695
| 19>  H        2.8287138475     0.8474330798    -1.9934713776
| 20>  H        2.4232365108     1.2703016652    -0.2716087201
| 21>  H        2.7852853020    -1.6069337732    -1.4099226926
| 22>  H        1.7574078410    -2.3565279224     0.7665987263
| 23>  H        2.9372454124    -1.1648821651     1.3221038734
| 24>  H        1.8838123239     0.4548075993     2.9130302705
| 25>  H        0.3790896082     1.3635889418     2.3793771110
| 26> *
| 27>
| 28>                          ****END OF INPUT****

CARTESIAN COORDINATES (ANGSTROEM)
---------------------------------
  C     -0.834825    1.136895   -0.020233
  C      0.013677   -0.131759   -0.090186
  C      1.013420   -0.195122   -1.238563
  C      2.314420    0.557794   -1.083710
  C      2.257986   -0.916443   -0.761718
  C      2.051045   -1.301912    0.693907
  C      0.878882   -0.428431    1.144975
  C      0.969121    0.451413    2.320290
  O      0.217995   -0.767015    2.360965
  H     -0.209717    2.034707    0.021676
  H     -1.477193    1.219982   -0.902565
  H     -1.483550    1.123571    0.861810
  H     -0.665366   -0.990958   -0.194771
  H      0.628371   -0.350443   -2.240488
  H      2.828714    0.847433   -1.993471
  H      2.423237    1.270302   -0.271609
  H      2.785285   -1.606934   -1.409923
  H      1.757408   -2.356528    0.766599
  H      2.937245   -1.164882    1.322104
  H      1.883812    0.454808    2.913030
  H      0.379090    1.363589    2.379377

 Total Charge           Charge          ....    0
 Multiplicity           Mult            ....    1
 Number of Electrons    NEL             ....   68
 Basis Dimension        Dim             ....  351

ORBITAL ENERGIES
----------------

  NO   OCC          E(Eh)            E(eV)
   0   2.0000     -20.561434      -559.5051
   1   2.0000     -11.286075      -307.1097
   2   2.0000     -11.276081      -306.8378
   3   2.0000     -11.233573      -305.6811
   4   2.0000     -11.232155      -305.6425
   5   2.0000     -11.230513      -305.5978
   6   2.0000     -11.226643      -305.4925
   7   2.0000     -11.226291      -305.4829
   8   2.0000     -11.215142      -305.1795
   9   2.0000      -1.406892       -38.2835
  10   2.0000      -1.176870       -32.0243
  11   2.0000      -1.036309       -28.1994
  12   2.0000      -0.996291       -27.1105
  13   2.0000      -0.907420       -24.6921
  14   2.0000      -0.891016       -24.2458
  15   2.0000      -0.823053       -22.3964
  16   2.0000      -0.769095       -20.9281
  17   2.0000      -0.740483       -20.1496
  18   2.0000      -0.691255       -18.8100
  19   2.0000      -0.661564       -18.0021
  20   2.0000      -0.637736       -17.3537
  21   2.0000      -0.604831       -16.4583
  22   2.0000      -0.586893       -15.9702
  23   2.0000      -0.569815       -15.5054
  24   2.0000      -0.553843       -15.0708
  25   2.0000      -0.548706       -14.9310
  26   2.0000      -0.515053       -14.0153
  27   2.0000      -0.496269       -13.5042
  28   2.0000      -0.493980       -13.4419
  29   2.0000      -0.479295       -13.0423
  30   2.0000      -0.426036       -11.5930
  31   2.0000      -0.422867       -11.5068
  32   2.0000      -0.409132       -11.1331
  33   2.0000      -0.392561       -10.6821
  34   0.0000       0.140305         3.8179
  35   0.0000       0.149481         4.0676
  36   0.0000       0.158865         4.3229
  37   0.0000       0.169334         4.6078
  38   0.0000       0.191439         5.2093

MULLIKEN ATOMIC CHARGES
-----------------------
   0 C :   -0.439802
   1 C :    0.006684
   2 C :   -0.114524
   3 C :   -0.295896
   4 C :   -0.107004
   5 C :   -0.205567
   6 C :    0.096018
   7 C :   -0.093533
   8 O :   -0.334436
   9 H :    0.127562
  10 H :    0.135640
  11 H :    0.149346
  12 H :    0.092466
  13 H :    0.121800
  14 H :    0.131634
  15 H :    0.132028
  16 H :    0.123507
  17 H :    0.121625
  18 H :    0.120535
  19 H :    0.111848
  20 H :    0.120068
Sum of atomic charges:    0.0000000

LOEWDIN ATOMIC CHARGES
----------------------
   0 C :   -0.286591
   1 C :   -0.215387
   2 C :   -0.174486
   3 C :   -0.203688
   4 C :   -0.194286
   5 C :   -0.189795
   6 C :   -0.290838
   7 C :   -0.244624
   8 O :    0.169788
   9 H :    0.123776
  10 H :    0.125410
  11 H :    0.128262
  12 H :    0.165901
  13 H :    0.143689
  14 H :    0.134504
  15 H :    0.135491
  16 H :    0.142137
  17 H :    0.149839
  18 H :    0.141164
  19 H :    0.119400
  20 H :    0.120337

  Mayer bond orders larger than 0.1
B(  0-C ,  1-C ) :   0.8954 B(  0-C ,  9-H ) :   0.9322 B(  0-C , 10-H ) :   0.9376
B(  0-C , 11-H ) :   0.9415 B(  1-C ,  2-C ) :   0.9289 B(  1-C ,  6-C ) :   0.9120
B(  1-C , 12-H ) :   0.9128 B(  2-C ,  3-C ) :   0.8774 B(  2-C ,  4-C ) :   0.8517
B(  2-C , 13-H ) :   0.9300 B(  3-C ,  4-C ) :   0.8786 B(  3-C , 14-H ) :   0.9327
B(  3-C , 15-H ) :   0.9236 B(  4-C ,  5-C ) :   0.9359 B(  4-C , 16-H ) :   0.9313
B(  5-C ,  6-C ) :   0.8983 B(  5-C , 17-H ) :   0.9227 B(  5-C , 18-H ) :   0.9234
B(  6-C ,  7-C ) :   0.9890 B(  6-C ,  8-O ) :   0.8996 B(  7-C ,  8-O ) :   0.9023
B(  7-C , 19-H ) :   0.9099 B(  7-C , 20-H ) :   0.9093

MP2 TOTAL ENERGY:     -386.398604158 Eh
FINAL SINGLE POINT ENERGY      -386.398604158431

DIPOLE MOMENT
-------------
                                X             Y             Z
Electronic contribution:      0.14933      -3.20930       2.88774
Nuclear contribution   :      0.22044       3.56674      -3.38605
                        -----------------------------------------
Total Dipole Moment    :      0.36977       0.35745      -0.49831
                        -----------------------------------------
Magnitude (a.u.)       :      0.71611
Magnitude (Debye)      :      1.82021

                             ****ORCA TERMINATED NORMALLY****
TOTAL RUN TIME: 0 days 0 hours 19 minutes 21 seconds 975 msec
