                         Program Version 3.0.3 - RELEASE   -
|  1> ! RI-MP2 RIJK def2-TZVP def2-TZVP/C def2-TZVP/JK TIGHTSCF
|  2> % maxcore 2000
|  3> % mp2 density relaxed end
|  4> *xyz 0 1
|  5>  O        0.3269226709    -0.1268871614    -0.2111202864
|  6>  C        0.1243682811     1.0583414483    -0.2556409261
|  7>  C        1.1554038759     2.1210505941     0.0723855847
|  8>  C        1.3093286466     3.1222333325    -1.0568218622
|  9>  C        2.6245486316     3.7514413493    -1.3263870031
| 10>  N        2.0651132372     2.7636396491    -2.2664863249
| 11>  H       -0.8706955814     1.4608807833    -0.5570146180
| 12>  H        0.8158461169     2.6465763705     0.9773234108
| 13>  H        2.1044611691     1.6259759676     0.3022737909
| 14>  H        0.4123504734     3.7007398423    -1.2724788891
| 15>  H        2.6772349558     4.7676126578    -1.7064904306
| 16>  H        3.4621493429     3.4595594186    -0.6977716432
| 17>  H        2.5220800899     1.8635469780    -2.1351736228
| 18> *
| 19>
| 20>                          ****END OF INPUT****

CARTESIAN COORDINATES (ANGSTROEM)
---------------------------------
  O      0.326923   -0.126887   -0.211120
  C      0.124368    1.058341   -0.255641
  C      1.155404    2.121051    0.072386
  C      1.309329    3.122233   -1.056822
  C      2.624549    3.751441   -1.326387
  N      2.065113    2.763640   -2.266486
  H     -0.870696    1.460881   -0.557015
  H      0.815846    2.646576    0.977323
  H      2.104461    1.625976    0.302274
  H      0.412350    3.700740   -1.272479
  H      2.677235    4.767613   -1.706490
  H      3.462149    3.459559   -0.697772
  H      2.522080    1.863547   -2.135174

 Total Charge           Charge          ....    0
 Multiplicity           Mult            ....    1
 Number of Electrons    NEL             ....   46
 Basis Dimension        Dim             ....  228

ORBITAL ENERGIES
----------------

  NO   OCC          E(Eh)            E(eV)
   0   2.0000     -20.563646      -559.5653
   1   2.0000     -15.568484      -423.6400
   2   2.0000     -11.338784      -308.5440
   3   2.0000     -11.279655      -306.9350
   4   2.0000     -11.267567      -306.6061
   5   2.0000     -11.255573      -306.2797
   6   2.0000      -1.402660       -38.1683
   7   2.0000      -1.274361       -34.6771
   8   2.0000      -1.046675       -28.4815
   9   2.0000      -0.903026       -24.5726
  10   2.0000      -0.836296       -22.7568
  11   2.0000      -0.804330       -21.8869
  12   2.0000      -0.696243       -18.9457
  13   2.0000      -0.675848       -18.3908
  14   2.0000      -0.653887       -17.7932
  15   2.0000      -0.630819       -17.1654
  16   2.0000      -0.584258       -15.8985
  17   2.0000      -0.538601       -14.6561
  18   2.0000      -0.516988       -14.0680
  19   2.0000      -0.494329       -13.4514
  20   2.0000      -0.481283       -13.0964
  21   2.0000      -0.431201       -11.7336
  22   2.0000      -0.397573       -10.8185
  23   0.0000       0.128135         3.4867
  24   0.0000       0.139495         3.7958
  25   0.0000       0.145451         3.9579
  26   0.0000       0.166963         4.5433
  27   0.0000       0.176386         4.7997

MULLIKEN ATOMIC CHARGES
-----------------------
   0 O :   -0.262180
   1 C :    0.114171
   2 C :   -0.186392
   3 C :   -0.060091
   4 C :   -0.182898
   5 N :   -0.366591
   6 H :    0.076608
   7 H :    0.131621
   8 H :    0.122540
   9 H :    0.129444
  10 H :    0.128421
  11 H :    0.129354
  12 H :    0.225994
Sum of atomic charges:   -0.0000000

LOEWDIN ATOMIC CHARGES
----------------------
   0 O :    0.134084
   1 C :   -0.289892
   2 C :   -0.256033
   3 C :   -0.284979
   4 C :   -0.263803
   5 N :   -0.016936
   6 H :    0.111470
   7 H :    0.157774
   8 H :    0.148927
   9 H :    0.143729
  10 H :    0.125629
  11 H :    0.122390
  12 H :    0.167642

  Mayer bond orders larger than 0.1
B(  0-O ,  1-C ) :   1.9971 B(  1-C ,  2-C ) :   0.8764 B(  1-C ,  6-H ) :   0.9285
B(  2-C ,  3-C ) :   0.9265 B(  2-C ,  7-H ) :   0.9023 B(  2-C ,  8-H ) :   0.9077
B(  3-C ,  4-C ) :   0.9472 B(  3-C ,  5-N ) :   0.9343 B(  3-C ,  9-H ) :   0.9085
B(  4-C ,  5-N ) :   0.9268 B(  4-C , 10-H ) :   0.9221 B(  4-C , 11-H ) :   0.9182
B(  5-N , 12-H ) :   0.8711

MP2 TOTAL ENERGY:     -285.985678146 Eh
FINAL SINGLE POINT ENERGY      -285.985678146259

DIPOLE MOMENT
-------------
                                X             Y             Z
Electronic contribution:     -1.89245      -3.71908      -0.08752
Nuclear contribution   :      2.09310       4.62224       0.71159
                        -----------------------------------------
Total Dipole Moment    :      0.20065       0.90316       0.62407
                        -----------------------------------------
Magnitude (a.u.)       :      1.11599
Magnitude (Debye)      :      2.83662

                             ****ORCA TERMINATED NORMALLY****
TOTAL RUN TIME: 0 days 0 hours 4 minutes 37 seconds 896 msec
