                         Program Version 3.0.3 - RELEASE   -
|  1> ! RI-MP2 RIJK def2-TZVP def2-TZVP/C def2-TZVP/JK TIGHTSCF
|  2> % maxcore 2000
|  3> % mp2 density relaxed end
|  4> *xyz 0 1
|  5>  O       -0.2278455941     0.0094518680     0.1570137464
|  6>  C       -0.0083825485     1.1347635821    -0.2067305591
|  7>  C        1.2765204672     1.8437554318    -0.0016761041
|  8>  C        1.3213579098     3.3111201223     0.3452623405
|  9>  N        1.7803038113     2.9419300076    -0.9709780524
| 10>  C        3.1913387339     2.4417531356    -0.7816070455
| 11>  C        2.6786771675     1.2938529028     0.1150285716
| 12>  O        3.1549932169     0.2913931604     0.5490714591
| 13>  H       -0.7659600503     1.7477009684    -0.7460440697
| 14>  H        0.3641088801     3.8255260878     0.3588996986
| 15>  H        2.0311414705     3.6417059690     1.1015134205
| 16>  H        3.5992851756     2.0640580901    -1.7222342171
| 17>  H        3.8721953403     3.1793941041    -0.3483927786
| 18> *
| 19>
| 20>                          ****END OF INPUT****

CARTESIAN COORDINATES (ANGSTROEM)
---------------------------------
  O     -0.227846    0.009452    0.157014
  C     -0.008383    1.134764   -0.206731
  C      1.276520    1.843755   -0.001676
  C      1.321358    3.311120    0.345262
  N      1.780304    2.941930   -0.970978
  C      3.191339    2.441753   -0.781607
  C      2.678677    1.293853    0.115029
  O      3.154993    0.291393    0.549071
  H     -0.765960    1.747701   -0.746044
  H      0.364109    3.825526    0.358900
  H      2.031141    3.641706    1.101513
  H      3.599285    2.064058   -1.722234
  H      3.872195    3.179394   -0.348393

 Total Charge           Charge          ....    0
 Multiplicity           Mult            ....    1
 Number of Electrons    NEL             ....   58
 Basis Dimension        Dim             ....  278

ORBITAL ENERGIES
----------------

  NO   OCC          E(Eh)            E(eV)
   0   2.0000     -20.574918      -559.8720
   1   2.0000     -20.573846      -559.8428
   2   2.0000     -15.619513      -425.0286
   3   2.0000     -11.362106      -309.1786
   4   2.0000     -11.354782      -308.9793
   5   2.0000     -11.314223      -307.8757
   6   2.0000     -11.308840      -307.7292
   7   2.0000     -11.297281      -307.4146
   8   2.0000      -1.423620       -38.7387
   9   2.0000      -1.411899       -38.4197
  10   2.0000      -1.339867       -36.4596
  11   2.0000      -1.037721       -28.2378
  12   2.0000      -0.985221       -26.8092
  13   2.0000      -0.889365       -24.2008
  14   2.0000      -0.859735       -23.3946
  15   2.0000      -0.734925       -19.9983
  16   2.0000      -0.709720       -19.3125
  17   2.0000      -0.700655       -19.0658
  18   2.0000      -0.672447       -18.2982
  19   2.0000      -0.655740       -17.8436
  20   2.0000      -0.628417       -17.1001
  21   2.0000      -0.603246       -16.4152
  22   2.0000      -0.574009       -15.6196
  23   2.0000      -0.544075       -14.8050
  24   2.0000      -0.521056       -14.1787
  25   2.0000      -0.494089       -13.4448
  26   2.0000      -0.464609       -12.6427
  27   2.0000      -0.427541       -11.6340
  28   2.0000      -0.409726       -11.1492
  29   0.0000       0.101323         2.7571
  30   0.0000       0.118425         3.2225
  31   0.0000       0.138823         3.7776
  32   0.0000       0.154436         4.2024
  33   0.0000       0.168687         4.5902

MULLIKEN ATOMIC CHARGES
-----------------------
   0 O :   -0.234736
   1 C :   -0.003556
   2 C :    0.099567
   3 C :   -0.131528
   4 N :   -0.209619
   5 C :   -0.154085
   6 C :    0.154957
   7 O :   -0.218959
   8 H :    0.096586
   9 H :    0.153946
  10 H :    0.146594
  11 H :    0.156191
  12 H :    0.144642
Sum of atomic charges:    0.0000000

LOEWDIN ATOMIC CHARGES
----------------------
   0 O :    0.159384
   1 C :   -0.268597
   2 C :   -0.192829
   3 C :   -0.210951
   4 N :    0.141585
   5 C :   -0.204289
   6 C :   -0.300099
   7 O :    0.191703
   8 H :    0.123441
   9 H :    0.143015
  10 H :    0.136848
  11 H :    0.146567
  12 H :    0.134223

  Mayer bond orders larger than 0.1
B(  0-O ,  1-C ) :   2.0381 B(  1-C ,  2-C ) :   0.8317 B(  1-C ,  8-H ) :   0.9651
B(  2-C ,  3-C ) :   0.8474 B(  2-C ,  4-N ) :   0.8484 B(  2-C ,  5-C ) :  -0.1069
B(  2-C ,  6-C ) :   0.8525 B(  3-C ,  4-N ) :   0.8978 B(  3-C ,  9-H ) :   0.9228
B(  3-C , 10-H ) :   0.8979 B(  4-N ,  5-C ) :   0.9065 B(  5-C ,  6-C ) :   0.9484
B(  5-C , 11-H ) :   0.9025 B(  5-C , 12-H ) :   0.9178 B(  6-C ,  7-O ) :   2.0667

MP2 TOTAL ENERGY:     -397.912555862 Eh
FINAL SINGLE POINT ENERGY      -397.912555861561

DIPOLE MOMENT
-------------
                                X             Y             Z
Electronic contribution:     -0.64393      -4.20943       0.74212
Nuclear contribution   :      0.82596       5.88545      -0.84051
                        -----------------------------------------
Total Dipole Moment    :      0.18204       1.67602      -0.09839
                        -----------------------------------------
Magnitude (a.u.)       :      1.68875
Magnitude (Debye)      :      4.29246

                             ****ORCA TERMINATED NORMALLY****
TOTAL RUN TIME: 0 days 0 hours 9 minutes 57 seconds 612 msec
