                         Program Version 3.0.3 - RELEASE   -
|  1> ! RI-MP2 RIJK def2-TZVP def2-TZVP/C def2-TZVP/JK TIGHTSCF
|  2> % maxcore 2000
|  3> % mp2 density relaxed end
|  4> *xyz 0 1
|  5>  O       -0.1833195747     1.4313886440    -0.1172249222
|  6>  C       -0.0253509377     0.0273095933     0.0090109468
|  7>  C       -1.3949775931    -0.5747434764     0.0002342577
|  8>  N       -1.6856331130    -1.8628263939    -0.0354715053
|  9>  C       -3.0473209604    -1.9291194822    -0.0109874689
| 10>  C       -3.5955608780    -0.6613061735     0.0377517004
| 11>  N       -2.5061913717     0.1942668952     0.0469331018
| 12>  C       -4.9299678786    -0.2111371384     0.0707339935
| 13>  N       -6.0266878715     0.1639028702     0.0989005936
| 14>  H        0.6719035409     1.8511126342     0.0070387510
| 15>  H        0.5598605294    -0.4024649988    -0.8164963844
| 16>  H        0.4833915746    -0.2444196130     0.9461079079
| 17>  H       -3.5777248685    -2.8685234836    -0.0308968852
| 18>  H       -2.5098173177     1.2019923029     0.0631579534
| 19> *
| 20>
| 21>                          ****END OF INPUT****

CARTESIAN COORDINATES (ANGSTROEM)
---------------------------------
  O     -0.183320    1.431389   -0.117225
  C     -0.025351    0.027310    0.009011
  C     -1.394978   -0.574743    0.000234
  N     -1.685633   -1.862826   -0.035472
  C     -3.047321   -1.929119   -0.010987
  C     -3.595561   -0.661306    0.037752
  N     -2.506191    0.194267    0.046933
  C     -4.929968   -0.211137    0.070734
  N     -6.026688    0.163903    0.098901
  H      0.671904    1.851113    0.007039
  H      0.559861   -0.402465   -0.816496
  H      0.483392   -0.244420    0.946108
  H     -3.577725   -2.868523   -0.030897
  H     -2.509817    1.201992    0.063158

 Total Charge           Charge          ....    0
 Multiplicity           Mult            ....    1
 Number of Electrons    NEL             ....   64
 Basis Dimension        Dim             ....  309

ORBITAL ENERGIES
----------------

  NO   OCC          E(Eh)            E(eV)
   0   2.0000     -20.599769      -560.5482
   1   2.0000     -15.643782      -425.6890
   2   2.0000     -15.577067      -423.8735
   3   2.0000     -15.567133      -423.6032
   4   2.0000     -11.331885      -308.3563
   5   2.0000     -11.323538      -308.1291
   6   2.0000     -11.303190      -307.5754
   7   2.0000     -11.285043      -307.0816
   8   2.0000     -11.283409      -307.0372
   9   2.0000      -1.409951       -38.3667
  10   2.0000      -1.369149       -37.2564
  11   2.0000      -1.223151       -33.2836
  12   2.0000      -1.195250       -32.5244
  13   2.0000      -1.075554       -29.2673
  14   2.0000      -0.978664       -26.6308
  15   2.0000      -0.869500       -23.6603
  16   2.0000      -0.838974       -22.8296
  17   2.0000      -0.793124       -21.5820
  18   2.0000      -0.730139       -19.8681
  19   2.0000      -0.686263       -18.6742
  20   2.0000      -0.676546       -18.4098
  21   2.0000      -0.636256       -17.3134
  22   2.0000      -0.621222       -16.9043
  23   2.0000      -0.603874       -16.4322
  24   2.0000      -0.565371       -15.3845
  25   2.0000      -0.554877       -15.0990
  26   2.0000      -0.508243       -13.8300
  27   2.0000      -0.489883       -13.3304
  28   2.0000      -0.487887       -13.2761
  29   2.0000      -0.453160       -12.3311
  30   2.0000      -0.426786       -11.6134
  31   2.0000      -0.335346        -9.1252
  32   0.0000       0.103181         2.8077
  33   0.0000       0.109131         2.9696
  34   0.0000       0.141831         3.8594
  35   0.0000       0.159841         4.3495
  36   0.0000       0.165401         4.5008

MULLIKEN ATOMIC CHARGES
-----------------------
   0 O :   -0.491087
   1 C :   -0.099439
   2 C :    0.226862
   3 N :   -0.278736
   4 C :   -0.124028
   5 C :    0.252090
   6 N :   -0.275809
   7 C :   -0.203148
   8 N :   -0.044161
   9 H :    0.333339
  10 H :    0.136001
  11 H :    0.133734
  12 H :    0.153524
  13 H :    0.280858
Sum of atomic charges:    0.0000000

LOEWDIN ATOMIC CHARGES
----------------------
   0 O :   -0.045974
   1 C :   -0.301719
   2 C :   -0.310740
   3 N :    0.122805
   4 C :   -0.198215
   5 C :   -0.233426
   6 N :    0.253541
   7 C :   -0.168337
   8 N :    0.078975
   9 H :    0.181365
  10 H :    0.135259
  11 H :    0.133699
  12 H :    0.142197
  13 H :    0.210571

  Mayer bond orders larger than 0.1
B(  0-O ,  1-C ) :   1.0176 B(  0-O ,  9-H ) :   0.8417 B(  1-C ,  2-C ) :   0.8933
B(  1-C , 10-H ) :   0.9445 B(  1-C , 11-H ) :   0.9344 B(  2-C ,  3-N ) :   1.5174
B(  2-C ,  6-N ) :   1.2060 B(  3-N ,  4-C ) :   1.3305 B(  4-C ,  5-C ) :   1.4444
B(  4-C , 12-H ) :   0.9366 B(  5-C ,  6-N ) :   1.0750 B(  5-C ,  7-C ) :   0.8886
B(  6-N , 13-H ) :   0.8461 B(  7-C ,  8-N ) :   2.8496

MP2 TOTAL ENERGY:     -432.196819265 Eh
FINAL SINGLE POINT ENERGY      -432.196819264761

DIPOLE MOMENT
-------------
                                X             Y             Z
Electronic contribution:     -5.65492      -0.35836       0.01362
Nuclear contribution   :      7.59627       1.06989       0.11428
                        -----------------------------------------
Total Dipole Moment    :      1.94135       0.71153       0.12789
                        -----------------------------------------
Magnitude (a.u.)       :      2.07159
Magnitude (Debye)      :      5.26556

                             ****ORCA TERMINATED NORMALLY****
TOTAL RUN TIME: 0 days 0 hours 13 minutes 54 seconds 438 msec
