                         Program Version 3.0.3 - RELEASE   -
|  1> ! RI-MP2 RIJK def2-TZVP def2-TZVP/C def2-TZVP/JK TIGHTSCF
|  2> % maxcore 2000
|  3> % mp2 density relaxed end
|  4> *xyz 0 1
|  5>  C       -0.0753241872     1.5712588315     0.2043790683
|  6>  C        1.4547425714     1.4426859212     0.0307756192
|  7>  C        1.8147084506     0.5959460734     1.2831405469
|  8>  C        0.6479237734    -0.4668681582     1.2493073409
|  9>  C       -0.0352791042     0.0202099321    -0.0296570133
| 10>  C       -1.1441332908    -0.6111548050    -0.8611262098
| 11>  C       -0.7660170615    -0.1161934466    -2.2537085899
| 12>  C        0.4593970432     0.4211077087    -2.3088471823
| 13>  C        1.1730629727     0.2965255478    -0.9885772411
| 14>  H       -0.4490337460     1.9227230646     1.1713307922
| 15>  H       -0.5646526159     2.1072211266    -0.6081408063
| 16>  H        2.0992009615     2.2967199212    -0.1840449477
| 17>  H        2.8002624518     0.1275629092     1.1993285068
| 18>  H        1.8062554228     1.1986264300     2.1959071566
| 19>  H        1.0195295883    -1.4927408406     1.1659777155
| 20>  H        0.0071532399    -0.4107779527     2.1346241395
| 21>  H       -1.1415372060    -1.7101011467    -0.8167667011
| 22>  H       -2.1476779219    -0.2869163502    -0.5589440398
| 23>  H       -1.4409284917    -0.2035368333    -3.0996156198
| 24>  H        0.9199315671     0.8090523092    -3.2115315904
| 25>  H        1.9686984326    -0.4601741923    -1.0454472941
| 26> *
| 27>
| 28>                          ****END OF INPUT****

CARTESIAN COORDINATES (ANGSTROEM)
---------------------------------
  C     -0.075324    1.571259    0.204379
  C      1.454743    1.442686    0.030776
  C      1.814708    0.595946    1.283141
  C      0.647924   -0.466868    1.249307
  C     -0.035279    0.020210   -0.029657
  C     -1.144133   -0.611155   -0.861126
  C     -0.766017   -0.116193   -2.253709
  C      0.459397    0.421108   -2.308847
  C      1.173063    0.296526   -0.988577
  H     -0.449034    1.922723    1.171331
  H     -0.564653    2.107221   -0.608141
  H      2.099201    2.296720   -0.184045
  H      2.800262    0.127563    1.199329
  H      1.806255    1.198626    2.195907
  H      1.019530   -1.492741    1.165978
  H      0.007153   -0.410778    2.134624
  H     -1.141537   -1.710101   -0.816767
  H     -2.147678   -0.286916   -0.558944
  H     -1.440928   -0.203537   -3.099616
  H      0.919932    0.809052   -3.211532
  H      1.968698   -0.460174   -1.045447

 Total Charge           Charge          ....    0
 Multiplicity           Mult            ....    1
 Number of Electrons    NEL             ....   66
 Basis Dimension        Dim             ....  351

ORBITAL ENERGIES
----------------

  NO   OCC          E(Eh)            E(eV)
   0   2.0000     -11.228553      -305.5445
   1   2.0000     -11.227166      -305.5067
   2   2.0000     -11.223934      -305.4188
   3   2.0000     -11.222818      -305.3884
   4   2.0000     -11.220415      -305.3230
   5   2.0000     -11.219736      -305.3045
   6   2.0000     -11.218530      -305.2717
   7   2.0000     -11.217955      -305.2561
   8   2.0000     -11.210499      -305.0532
   9   2.0000      -1.195343       -32.5269
  10   2.0000      -1.078555       -29.3490
  11   2.0000      -0.977311       -26.5940
  12   2.0000      -0.952059       -25.9068
  13   2.0000      -0.903904       -24.5965
  14   2.0000      -0.871360       -23.7109
  15   2.0000      -0.761487       -20.7211
  16   2.0000      -0.738356       -20.0917
  17   2.0000      -0.697936       -18.9918
  18   2.0000      -0.666675       -18.1412
  19   2.0000      -0.626476       -17.0473
  20   2.0000      -0.620983       -16.8978
  21   2.0000      -0.597366       -16.2552
  22   2.0000      -0.565928       -15.3997
  23   2.0000      -0.526192       -14.3184
  24   2.0000      -0.515476       -14.0268
  25   2.0000      -0.501957       -13.6589
  26   2.0000      -0.493001       -13.4152
  27   2.0000      -0.452508       -12.3134
  28   2.0000      -0.449867       -12.2415
  29   2.0000      -0.444349       -12.0913
  30   2.0000      -0.415960       -11.3188
  31   2.0000      -0.402546       -10.9538
  32   2.0000      -0.340401        -9.2628
  33   0.0000       0.141273         3.8442
  34   0.0000       0.151986         4.1358
  35   0.0000       0.162984         4.4350
  36   0.0000       0.170289         4.6338
  37   0.0000       0.178318         4.8523

MULLIKEN ATOMIC CHARGES
-----------------------
   0 C :   -0.301753
   1 C :   -0.020785
   2 C :   -0.261741
   3 C :   -0.232379
   4 C :    0.108284
   5 C :   -0.163842
   6 C :   -0.189517
   7 C :   -0.214644
   8 C :   -0.127065
   9 H :    0.109783
  10 H :    0.129992
  11 H :    0.120952
  12 H :    0.116029
  13 H :    0.118940
  14 H :    0.113549
  15 H :    0.114971
  16 H :    0.112341
  17 H :    0.121868
  18 H :    0.121846
  19 H :    0.124037
  20 H :    0.099133
Sum of atomic charges:    0.0000000

LOEWDIN ATOMIC CHARGES
----------------------
   0 C :   -0.169995
   1 C :   -0.192661
   2 C :   -0.216507
   3 C :   -0.207439
   4 C :   -0.201037
   5 C :   -0.206045
   6 C :   -0.144698
   7 C :   -0.143874
   8 C :   -0.146371
   9 H :    0.127422
  10 H :    0.141467
  11 H :    0.129958
  12 H :    0.130439
  13 H :    0.130778
  14 H :    0.132941
  15 H :    0.131585
  16 H :    0.143170
  17 H :    0.142167
  18 H :    0.133185
  19 H :    0.136225
  20 H :    0.149289

  Mayer bond orders larger than 0.1
B(  0-C ,  1-C ) :   0.9237 B(  0-C ,  4-C ) :   0.9230 B(  0-C ,  9-H ) :   0.9270
B(  0-C , 10-H ) :   0.9064 B(  1-C ,  2-C ) :   0.9044 B(  1-C ,  8-C ) :   0.8714
B(  1-C , 11-H ) :   0.9118 B(  2-C ,  3-C ) :   0.9736 B(  2-C , 12-H ) :   0.9293
B(  2-C , 13-H ) :   0.9263 B(  3-C ,  4-C ) :   0.9131 B(  3-C , 14-H ) :   0.9227
B(  3-C , 15-H ) :   0.9267 B(  4-C ,  5-C ) :   0.9237 B(  4-C ,  8-C ) :   0.8693
B(  5-C ,  6-C ) :   0.9571 B(  5-C , 16-H ) :   0.8949 B(  5-C , 17-H ) :   0.9159
B(  6-C ,  7-C ) :   1.7751 B(  6-C , 18-H ) :   0.9309 B(  7-C ,  8-C ) :   0.9289
B(  7-C , 19-H ) :   0.9315 B(  8-C , 20-H ) :   0.9131

MP2 TOTAL ENERGY:     -349.305158852 Eh
FINAL SINGLE POINT ENERGY      -349.305158852476

DIPOLE MOMENT
-------------
                                X             Y             Z
Electronic contribution:     -0.19188       0.20384      -2.70025
Nuclear contribution   :      0.14492      -0.25906       2.73527
                        -----------------------------------------
Total Dipole Moment    :     -0.04695      -0.05522       0.03502
                        -----------------------------------------
Magnitude (a.u.)       :      0.08050
Magnitude (Debye)      :      0.20462

                             ****ORCA TERMINATED NORMALLY****
TOTAL RUN TIME: 0 days 0 hours 21 minutes 48 seconds 96 msec
