                         Program Version 3.0.3 - RELEASE   -
|  1> ! RI-MP2 RIJK def2-TZVP def2-TZVP/C def2-TZVP/JK TIGHTSCF
|  2> % maxcore 2000
|  3> % mp2 density relaxed end
|  4> *xyz 0 1
|  5>  C        0.0671315625     1.5702936851     0.0290221418
|  6>  C        0.0166478845     0.0405764521    -0.0025863373
|  7>  C       -1.4102496364    -0.5172390516     0.0238719977
|  8>  C       -1.4654947971    -2.0501997474    -0.0073667031
|  9>  C       -2.8708416545    -2.6055972467     0.0191697852
| 10>  C       -4.0392201068    -2.3945700501    -0.9801876065
| 11>  N       -4.6817592498    -3.3347706891     0.0532970079
| 12>  C       -3.3379052914    -4.0812846518    -0.0017673565
| 13>  C       -3.9809253508    -2.4424270994     1.0912979039
| 14>  H        1.0981430210     1.9370077563     0.0091371099
| 15>  H       -0.4561156936     2.0020779326    -0.8315483381
| 16>  H       -0.4085028242     1.9639979064     0.9343288718
| 17>  H        0.5305821601    -0.3253057813    -0.9014550356
| 18>  H        0.5778124813    -0.3630516605     0.8507261886
| 19>  H       -1.9254835075    -0.1527991873     0.9231988505
| 20>  H       -1.9726783068    -0.1153647928    -0.8300777566
| 21>  H       -0.9546009840    -2.4188924859    -0.9078564376
| 22>  H       -0.9068469004    -2.4562897064     0.8475250464
| 23>  H       -4.5139942289    -1.4100515145    -1.0245972570
| 24>  H       -3.9515280695    -2.8374560388    -1.9770393395
| 25>  H       -3.1951286753    -4.6549963935    -0.9226584449
| 26>  H       -3.1443464457    -4.6967229933     0.8821645202
| 27>  H       -3.8378388856    -2.9307420250     2.0601288889
| 28>  H       -4.4512014811    -1.4616448671     1.2077703399
| 29> *
| 30>
| 31>                          ****END OF INPUT****

CARTESIAN COORDINATES (ANGSTROEM)
---------------------------------
  C      0.067132    1.570294    0.029022
  C      0.016648    0.040576   -0.002586
  C     -1.410250   -0.517239    0.023872
  C     -1.465495   -2.050200   -0.007367
  C     -2.870842   -2.605597    0.019170
  C     -4.039220   -2.394570   -0.980188
  N     -4.681759   -3.334771    0.053297
  C     -3.337905   -4.081285   -0.001767
  C     -3.980925   -2.442427    1.091298
  H      1.098143    1.937008    0.009137
  H     -0.456116    2.002078   -0.831548
  H     -0.408503    1.963998    0.934329
  H      0.530582   -0.325306   -0.901455
  H      0.577812   -0.363052    0.850726
  H     -1.925484   -0.152799    0.923199
  H     -1.972678   -0.115365   -0.830078
  H     -0.954601   -2.418892   -0.907856
  H     -0.906847   -2.456290    0.847525
  H     -4.513994   -1.410052   -1.024597
  H     -3.951528   -2.837456   -1.977039
  H     -3.195129   -4.654996   -0.922658
  H     -3.144346   -4.696723    0.882165
  H     -3.837839   -2.930742    2.060129
  H     -4.451201   -1.461645    1.207770

 Total Charge           Charge          ....    0
 Multiplicity           Mult            ....    1
 Number of Electrons    NEL             ....   70
 Basis Dimension        Dim             ....  369

ORBITAL ENERGIES
----------------

  NO   OCC          E(Eh)            E(eV)
   0   2.0000     -15.562347      -423.4730
   1   2.0000     -11.253244      -306.2163
   2   2.0000     -11.253201      -306.2152
   3   2.0000     -11.253054      -306.2112
   4   2.0000     -11.248984      -306.1004
   5   2.0000     -11.223912      -305.4182
   6   2.0000     -11.222852      -305.3893
   7   2.0000     -11.222016      -305.3666
   8   2.0000     -11.214775      -305.1695
   9   2.0000      -1.288479       -35.0613
  10   2.0000      -1.081360       -29.4253
  11   2.0000      -1.010127       -27.4869
  12   2.0000      -0.920688       -25.0532
  13   2.0000      -0.916809       -24.9476
  14   2.0000      -0.912936       -24.8423
  15   2.0000      -0.841167       -22.8893
  16   2.0000      -0.795298       -21.6412
  17   2.0000      -0.742738       -20.2109
  18   2.0000      -0.647348       -17.6152
  19   2.0000      -0.630286       -17.1509
  20   2.0000      -0.630023       -17.1438
  21   2.0000      -0.611718       -16.6457
  22   2.0000      -0.589396       -16.0383
  23   2.0000      -0.582670       -15.8552
  24   2.0000      -0.535508       -14.5719
  25   2.0000      -0.513527       -13.9738
  26   2.0000      -0.504018       -13.7150
  27   2.0000      -0.501314       -13.6414
  28   2.0000      -0.475920       -12.9504
  29   2.0000      -0.475606       -12.9419
  30   2.0000      -0.470033       -12.7902
  31   2.0000      -0.468703       -12.7541
  32   2.0000      -0.441731       -12.0201
  33   2.0000      -0.438073       -11.9206
  34   2.0000      -0.364944        -9.9306
  35   0.0000       0.129649         3.5279
  36   0.0000       0.147771         4.0210
  37   0.0000       0.157666         4.2903
  38   0.0000       0.169118         4.6019
  39   0.0000       0.171950         4.6790

MULLIKEN ATOMIC CHARGES
-----------------------
   0 C :   -0.385155
   1 C :   -0.179256
   2 C :   -0.264336
   3 C :   -0.178809
   4 C :   -0.020641
   5 C :   -0.173765
   6 N :   -0.198628
   7 C :   -0.135546
   8 C :   -0.173786
   9 H :    0.134484
  10 H :    0.122065
  11 H :    0.122063
  12 H :    0.105799
  13 H :    0.105800
  14 H :    0.111998
  15 H :    0.112021
  16 H :    0.109985
  17 H :    0.109965
  18 H :    0.115012
  19 H :    0.112437
  20 H :    0.110431
  21 H :    0.110443
  22 H :    0.112423
  23 H :    0.114995
Sum of atomic charges:    0.0000000

LOEWDIN ATOMIC CHARGES
----------------------
   0 C :   -0.321875
   1 C :   -0.297536
   2 C :   -0.265463
   3 C :   -0.241822
   4 C :   -0.251197
   5 C :   -0.212871
   6 N :    0.080903
   7 C :   -0.211066
   8 C :   -0.212867
   9 H :    0.120538
  10 H :    0.120131
  11 H :    0.120131
  12 H :    0.134479
  13 H :    0.134479
  14 H :    0.137933
  15 H :    0.137931
  16 H :    0.144170
  17 H :    0.144186
  18 H :    0.123385
  19 H :    0.123182
  20 H :    0.123345
  21 H :    0.123345
  22 H :    0.123183
  23 H :    0.123374

  Mayer bond orders larger than 0.1
B(  0-C ,  1-C ) :   0.9225 B(  0-C ,  9-H ) :   0.9432 B(  0-C , 10-H ) :   0.9396
B(  0-C , 11-H ) :   0.9396 B(  1-C ,  2-C ) :   0.9360 B(  1-C , 12-H ) :   0.9332
B(  1-C , 13-H ) :   0.9332 B(  2-C ,  3-C ) :   0.9444 B(  2-C , 14-H ) :   0.9294
B(  2-C , 15-H ) :   0.9294 B(  3-C ,  4-C ) :   0.8366 B(  3-C , 16-H ) :   0.9156
B(  3-C , 17-H ) :   0.9156 B(  4-C ,  5-C ) :   0.9440 B(  4-C ,  7-C ) :   0.9369
B(  4-C ,  8-C ) :   0.9442 B(  5-C ,  6-N ) :   0.9345 B(  5-C , 18-H ) :   0.9271
B(  5-C , 19-H ) :   0.9272 B(  6-N ,  7-C ) :   0.9301 B(  6-N ,  8-C ) :   0.9345
B(  7-C , 20-H ) :   0.9272 B(  7-C , 21-H ) :   0.9272 B(  8-C , 22-H ) :   0.9273
B(  8-C , 23-H ) :   0.9270

MP2 TOTAL ENERGY:     -367.682714578 Eh
FINAL SINGLE POINT ENERGY      -367.682714577650

DIPOLE MOMENT
-------------
                                X             Y             Z
Electronic contribution:     -6.81330      -6.95601       0.03625
Nuclear contribution   :      7.63958       7.30576      -0.05143
                        -----------------------------------------
Total Dipole Moment    :      0.82628       0.34974      -0.01518
                        -----------------------------------------
Magnitude (a.u.)       :      0.89738
Magnitude (Debye)      :      2.28095

                             ****ORCA TERMINATED NORMALLY****
TOTAL RUN TIME: 0 days 0 hours 20 minutes 55 seconds 717 msec
