                         Program Version 3.0.3 - RELEASE   -
|  1> ! RI-MP2 RIJK def2-TZVP def2-TZVP/C def2-TZVP/JK TIGHTSCF
|  2> % maxcore 2000
|  3> % mp2 density relaxed end
|  4> *xyz 0 1
|  5>  C       -0.1675984116     1.5039023193    -0.0988522613
|  6>  C       -0.0461174905    -0.0212568796    -0.0609370675
|  7>  C        0.8390577381    -0.5725374354    -1.1869720249
|  8>  C        0.9245165333    -2.0677349104    -1.2135087278
|  9>  C        1.3850684849    -3.0898775009    -0.1465592824
| 10>  C        0.7153695059    -3.8698844948    -1.2911693398
| 11>  O       -0.3629249266    -2.8447689089    -1.3336650383
| 12>  C        1.4947793997    -3.0112310108    -2.3235284868
| 13>  O        0.9787710889    -2.8859994391    -3.6048545445
| 14>  H        0.8122973525     1.9841271744     0.0019556145
| 15>  H       -0.6047289024     1.8425667514    -1.0447048027
| 16>  H       -0.8035540971     1.8715875361     0.7121987970
| 17>  H        0.3629941975    -0.3352406786     0.9074063242
| 18>  H       -1.0379563323    -0.4802426983    -0.1369942256
| 19>  H        0.4612191148    -0.2378142537    -2.1621939378
| 20>  H        1.8594181884    -0.1755577166    -1.0990010937
| 21>  H        2.4596878370    -3.2183325782     0.0096759999
| 22>  H        0.8166860229    -3.0735355052     0.7829176581
| 23>  H        0.4052203592    -4.9137717889    -1.3361389588
| 24>  H        2.5785924964    -3.1333975343    -2.3861842604
| 25>  H        0.0220414608    -2.7992006778    -3.4755950315
| 26> *
| 27>
| 28>                          ****END OF INPUT****

CARTESIAN COORDINATES (ANGSTROEM)
---------------------------------
  C     -0.167598    1.503902   -0.098852
  C     -0.046117   -0.021257   -0.060937
  C      0.839058   -0.572537   -1.186972
  C      0.924517   -2.067735   -1.213509
  C      1.385068   -3.089878   -0.146559
  C      0.715370   -3.869884   -1.291169
  O     -0.362925   -2.844769   -1.333665
  C      1.494779   -3.011231   -2.323528
  O      0.978771   -2.885999   -3.604855
  H      0.812297    1.984127    0.001956
  H     -0.604729    1.842567   -1.044705
  H     -0.803554    1.871588    0.712199
  H      0.362994   -0.335241    0.907406
  H     -1.037956   -0.480243   -0.136994
  H      0.461219   -0.237814   -2.162194
  H      1.859418   -0.175558   -1.099001
  H      2.459688   -3.218333    0.009676
  H      0.816686   -3.073536    0.782918
  H      0.405220   -4.913772   -1.336139
  H      2.578592   -3.133398   -2.386184
  H      0.022041   -2.799201   -3.475595

 Total Charge           Charge          ....    0
 Multiplicity           Mult            ....    1
 Number of Electrons    NEL             ....   70
 Basis Dimension        Dim             ....  351

ORBITAL ENERGIES
----------------

  NO   OCC          E(Eh)            E(eV)
   0   2.0000     -20.558535      -559.4262
   1   2.0000     -20.552926      -559.2735
   2   2.0000     -11.303160      -307.5746
   3   2.0000     -11.299116      -307.4646
   4   2.0000     -11.293412      -307.3094
   5   2.0000     -11.241160      -305.8875
   6   2.0000     -11.230760      -305.6045
   7   2.0000     -11.223698      -305.4123
   8   2.0000     -11.215805      -305.1976
   9   2.0000      -1.411089       -38.3977
  10   2.0000      -1.352951       -36.8157
  11   2.0000      -1.085379       -29.5347
  12   2.0000      -1.064551       -28.9679
  13   2.0000      -0.968819       -26.3629
  14   2.0000      -0.908163       -24.7124
  15   2.0000      -0.853013       -23.2117
  16   2.0000      -0.807272       -21.9670
  17   2.0000      -0.772448       -21.0194
  18   2.0000      -0.683769       -18.6063
  19   2.0000      -0.664289       -18.0762
  20   2.0000      -0.643831       -17.5195
  21   2.0000      -0.636419       -17.3179
  22   2.0000      -0.593146       -16.1403
  23   2.0000      -0.573087       -15.5945
  24   2.0000      -0.571979       -15.5643
  25   2.0000      -0.563723       -15.3397
  26   2.0000      -0.531043       -14.4504
  27   2.0000      -0.520548       -14.1648
  28   2.0000      -0.510345       -13.8872
  29   2.0000      -0.490742       -13.3538
  30   2.0000      -0.477662       -12.9978
  31   2.0000      -0.467891       -12.7320
  32   2.0000      -0.453023       -12.3274
  33   2.0000      -0.419652       -11.4193
  34   2.0000      -0.405517       -11.0347
  35   0.0000       0.135016         3.6740
  36   0.0000       0.154285         4.1983
  37   0.0000       0.164472         4.4755
  38   0.0000       0.169589         4.6148
  39   0.0000       0.178253         4.8505

MULLIKEN ATOMIC CHARGES
-----------------------
   0 C :   -0.391236
   1 C :   -0.197240
   2 C :   -0.284330
   3 C :    0.042874
   4 C :   -0.162745
   5 C :   -0.062582
   6 O :   -0.338239
   7 C :    0.164746
   8 O :   -0.467016
   9 H :    0.121169
  10 H :    0.126140
  11 H :    0.136353
  12 H :    0.106681
  13 H :    0.133943
  14 H :    0.121434
  15 H :    0.119802
  16 H :    0.120289
  17 H :    0.126714
  18 H :    0.138848
  19 H :    0.114157
  20 H :    0.330238
Sum of atomic charges:   -0.0000000

LOEWDIN ATOMIC CHARGES
----------------------
   0 C :   -0.319903
   1 C :   -0.285451
   2 C :   -0.234243
   3 C :   -0.253888
   4 C :   -0.181844
   5 C :   -0.220779
   6 O :    0.118745
   7 C :   -0.287907
   8 O :    0.002287
   9 H :    0.119979
  10 H :    0.121372
  11 H :    0.121633
  12 H :    0.135620
  13 H :    0.141855
  14 H :    0.151358
  15 H :    0.151167
  16 H :    0.132720
  17 H :    0.137184
  18 H :    0.123970
  19 H :    0.139180
  20 H :    0.186944

  Mayer bond orders larger than 0.1
B(  0-C ,  1-C ) :   0.9155 B(  0-C ,  9-H ) :   0.9376 B(  0-C , 10-H ) :   0.9403
B(  0-C , 11-H ) :   0.9446 B(  1-C ,  2-C ) :   0.9442 B(  1-C , 12-H ) :   0.9306
B(  1-C , 13-H ) :   0.9327 B(  2-C ,  3-C ) :   0.9088 B(  2-C , 14-H ) :   0.9225
B(  2-C , 15-H ) :   0.9195 B(  3-C ,  4-C ) :   0.8924 B(  3-C ,  6-O ) :   0.8441
B(  3-C ,  7-C ) :   0.8434 B(  4-C ,  5-C ) :   0.9254 B(  4-C , 16-H ) :   0.9192
B(  4-C , 17-H ) :   0.9197 B(  5-C ,  6-O ) :   0.8787 B(  5-C ,  7-C ) :   0.9236
B(  5-C , 18-H ) :   0.8942 B(  7-C ,  8-O ) :   0.9867 B(  7-C , 19-H ) :   0.9445
B(  8-O , 20-H ) :   0.8102

MP2 TOTAL ENERGY:     -423.468287658 Eh
FINAL SINGLE POINT ENERGY      -423.468287658042

DIPOLE MOMENT
-------------
                                X             Y             Z
Electronic contribution:      0.45011      -8.89898      -5.08588
Nuclear contribution   :     -0.07320       9.00052       5.73491
                        -----------------------------------------
Total Dipole Moment    :      0.37691       0.10154       0.64903
                        -----------------------------------------
Magnitude (a.u.)       :      0.75737
Magnitude (Debye)      :      1.92508

                             ****ORCA TERMINATED NORMALLY****
TOTAL RUN TIME: 0 days 0 hours 18 minutes 29 seconds 680 msec
