                         Program Version 3.0.3 - RELEASE   -
|  1> ! RI-MP2 RIJK def2-TZVP def2-TZVP/C def2-TZVP/JK TIGHTSCF
|  2> % maxcore 2000
|  3> % mp2 density relaxed end
|  4> *xyz 0 1
|  5>  O       -0.0311708916     1.3659778359     0.0255916567
|  6>  C        0.0156626802    -0.0335090605     0.0305323880
|  7>  C       -0.2751867070    -0.6951842681     1.3444253924
|  8>  C        1.1258686304    -0.7317850939     0.7781747453
|  9>  O        1.5860975531    -1.9604096429     0.2952326593
| 10>  C        1.7554233820    -2.0385460808    -1.1093837769
| 11>  C        0.4975546017    -1.6657107615    -1.8715812924
| 12>  O       -0.7369202872    -2.0578346260    -1.2675682090
| 13>  C       -0.4004317271    -0.6691280212    -1.2718897701
| 14>  H        0.6819719492     1.6915163584    -0.5355904107
| 15>  H       -0.4596709988    -0.0362015915     2.1846715202
| 16>  H       -0.8292401664    -1.6256132889     1.3203749326
| 17>  H        1.8891932294    -0.1127280353     1.2474643482
| 18>  H        2.5808355953    -1.3946412512    -1.4595591711
| 19>  H        2.0342239614    -3.0773301910    -1.3121582864
| 20>  H        0.5477787052    -1.7828840802    -2.9542808157
| 21>  H       -1.0314337998    -0.0382195214    -1.8970478704
| 22> *
| 23>
| 24>                          ****END OF INPUT****

CARTESIAN COORDINATES (ANGSTROEM)
---------------------------------
  O     -0.031171    1.365978    0.025592
  C      0.015663   -0.033509    0.030532
  C     -0.275187   -0.695184    1.344425
  C      1.125869   -0.731785    0.778175
  O      1.586098   -1.960410    0.295233
  C      1.755423   -2.038546   -1.109384
  C      0.497555   -1.665711   -1.871581
  O     -0.736920   -2.057835   -1.267568
  C     -0.400432   -0.669128   -1.271890
  H      0.681972    1.691516   -0.535590
  H     -0.459671   -0.036202    2.184672
  H     -0.829240   -1.625613    1.320375
  H      1.889193   -0.112728    1.247464
  H      2.580836   -1.394641   -1.459559
  H      2.034224   -3.077330   -1.312158
  H      0.547779   -1.782884   -2.954281
  H     -1.031434   -0.038220   -1.897048

 Total Charge           Charge          ....    0
 Multiplicity           Mult            ....    1
 Number of Electrons    NEL             ....   68
 Basis Dimension        Dim             ....  327

ORBITAL ENERGIES
----------------

  NO   OCC          E(Eh)            E(eV)
   0   2.0000     -20.578693      -559.9747
   1   2.0000     -20.576629      -559.9185
   2   2.0000     -20.568605      -559.7002
   3   2.0000     -11.298848      -307.4573
   4   2.0000     -11.296275      -307.3873
   5   2.0000     -11.295240      -307.3591
   6   2.0000     -11.293129      -307.3017
   7   2.0000     -11.286102      -307.1104
   8   2.0000     -11.227442      -305.5142
   9   2.0000      -1.430628       -38.9294
  10   2.0000      -1.390881       -37.8478
  11   2.0000      -1.381393       -37.5896
  12   2.0000      -1.132067       -30.8051
  13   2.0000      -1.010806       -27.5054
  14   2.0000      -0.935719       -25.4622
  15   2.0000      -0.869662       -23.6647
  16   2.0000      -0.813720       -22.1424
  17   2.0000      -0.763017       -20.7627
  18   2.0000      -0.747780       -20.3481
  19   2.0000      -0.703834       -19.1523
  20   2.0000      -0.682103       -18.5610
  21   2.0000      -0.643998       -17.5241
  22   2.0000      -0.639059       -17.3897
  23   2.0000      -0.611308       -16.6345
  24   2.0000      -0.581300       -15.8180
  25   2.0000      -0.569306       -15.4916
  26   2.0000      -0.550872       -14.9900
  27   2.0000      -0.527615       -14.3571
  28   2.0000      -0.522212       -14.2101
  29   2.0000      -0.492968       -13.4143
  30   2.0000      -0.458789       -12.4843
  31   2.0000      -0.444086       -12.0842
  32   2.0000      -0.403671       -10.9844
  33   2.0000      -0.383838       -10.4448
  34   0.0000       0.125100         3.4041
  35   0.0000       0.156222         4.2510
  36   0.0000       0.171125         4.6566
  37   0.0000       0.173032         4.7084
  38   0.0000       0.191234         5.2037

MULLIKEN ATOMIC CHARGES
-----------------------
   0 O :   -0.453490
   1 C :    0.203799
   2 C :   -0.268867
   3 C :   -0.032263
   4 O :   -0.297379
   5 C :   -0.020316
   6 C :    0.000009
   7 O :   -0.319773
   8 C :   -0.039825
   9 H :    0.322822
  10 H :    0.139230
  11 H :    0.160524
  12 H :    0.120103
  13 H :    0.095506
  14 H :    0.132559
  15 H :    0.122164
  16 H :    0.135199
Sum of atomic charges:   -0.0000000

LOEWDIN ATOMIC CHARGES
----------------------
   0 O :    0.033298
   1 C :   -0.343522
   2 C :   -0.169423
   3 C :   -0.271457
   4 O :    0.199666
   5 C :   -0.292336
   6 C :   -0.269643
   7 O :    0.184106
   8 C :   -0.232388
   9 H :    0.182748
  10 H :    0.143244
  11 H :    0.148974
  12 H :    0.137363
  13 H :    0.127682
  14 H :    0.137791
  15 H :    0.139286
  16 H :    0.144610

  Mayer bond orders larger than 0.1
B(  0-O ,  1-C ) :   0.9738 B(  0-O ,  9-H ) :   0.8379 B(  1-C ,  2-C ) :   0.8952
B(  1-C ,  3-C ) :   0.8313 B(  1-C ,  8-C ) :   0.9177 B(  2-C ,  3-C ) :   0.8835
B(  2-C , 10-H ) :   0.9178 B(  2-C , 11-H ) :   0.9090 B(  3-C ,  4-O ) :   0.9892
B(  3-C , 12-H ) :   0.9463 B(  4-O ,  5-C ) :   0.9332 B(  5-C ,  6-C ) :   0.9319
B(  5-C , 13-H ) :   0.9204 B(  5-C , 14-H ) :   0.9219 B(  6-C ,  7-O ) :   0.9093
B(  6-C ,  8-C ) :   0.9494 B(  6-C , 15-H ) :   0.9157 B(  7-O ,  8-C ) :   0.9047
B(  8-C , 16-H ) :   0.9360

MP2 TOTAL ENERGY:     -458.182444880 Eh
FINAL SINGLE POINT ENERGY      -458.182444879921

DIPOLE MOMENT
-------------
                                X             Y             Z
Electronic contribution:     -1.30784      -0.45315      -0.13699
Nuclear contribution   :      2.07410       0.98679      -0.62866
                        -----------------------------------------
Total Dipole Moment    :      0.76626       0.53365      -0.76565
                        -----------------------------------------
Magnitude (a.u.)       :      1.20754
Magnitude (Debye)      :      3.06932

                             ****ORCA TERMINATED NORMALLY****
TOTAL RUN TIME: 0 days 0 hours 16 minutes 54 seconds 934 msec
