                         Program Version 3.0.3 - RELEASE   -
|  1> ! RI-MP2 RIJK def2-TZVP def2-TZVP/C def2-TZVP/JK TIGHTSCF
|  2> % maxcore 2000
|  3> % mp2 density relaxed end
|  4> *xyz 0 1
|  5>  C       -0.1284872699     1.3935868133    -0.0186381452
|  6>  C        0.6423476068     0.0981776250     0.1137587431
|  7>  C        1.9708094550     0.0677490575     0.8456772518
|  8>  C        0.7497107105    -0.5974297495     1.4382431440
|  9>  O        0.0747664084    -0.0165312494     2.5140372107
| 10>  C        0.5426087935    -0.4024815397     3.7962869404
| 11>  C        1.7864419082     0.3241884944     4.2521628593
| 12>  C        2.6506813180    -0.2936749741     5.2890246826
| 13>  N        3.1334263918    -0.1548177309     3.9059546878
| 14>  H       -0.0546120581     1.9865311415     0.8955896563
| 15>  H        0.2567386071     1.9924399329    -0.8507328940
| 16>  H       -1.1911329024     1.2032721336    -0.2040764938
| 17>  H        0.5615229137    -0.5641928463    -0.7443878128
| 18>  H        2.7750008491    -0.5535987493     0.4653967882
| 19>  H        2.2972114284     0.9880018125     1.3164036954
| 20>  H        0.7174801123    -1.6888925545     1.4478156745
| 21>  H       -0.2815112361    -0.1752490202     4.4825571472
| 22>  H        0.7164515374    -1.4916838938     3.8325146967
| 23>  H        1.6959167468     1.4086043960     4.2337326177
| 24>  H        3.1567928415     0.3302253994     6.0198530474
| 25>  H        2.3818992616    -1.2834097954     5.6521944988
| 26>  H        3.0647866167    -1.0475971529     3.4229501640
| 27> *
| 28>
| 29>                          ****END OF INPUT****

CARTESIAN COORDINATES (ANGSTROEM)
---------------------------------
  C     -0.128487    1.393587   -0.018638
  C      0.642348    0.098178    0.113759
  C      1.970809    0.067749    0.845677
  C      0.749711   -0.597430    1.438243
  O      0.074766   -0.016531    2.514037
  C      0.542609   -0.402482    3.796287
  C      1.786442    0.324188    4.252163
  C      2.650681   -0.293675    5.289025
  N      3.133426   -0.154818    3.905955
  H     -0.054612    1.986531    0.895590
  H      0.256739    1.992440   -0.850733
  H     -1.191133    1.203272   -0.204076
  H      0.561523   -0.564193   -0.744388
  H      2.775001   -0.553599    0.465397
  H      2.297211    0.988002    1.316404
  H      0.717480   -1.688893    1.447816
  H     -0.281511   -0.175249    4.482557
  H      0.716452   -1.491684    3.832515
  H      1.695917    1.408604    4.233733
  H      3.156793    0.330225    6.019853
  H      2.381899   -1.283410    5.652194
  H      3.064787   -1.047597    3.422950

 Total Charge           Charge          ....    0
 Multiplicity           Mult            ....    1
 Number of Electrons    NEL             ....   70
 Basis Dimension        Dim             ....  357

ORBITAL ENERGIES
----------------

  NO   OCC          E(Eh)            E(eV)
   0   2.0000     -20.560276      -559.4736
   1   2.0000     -15.558465      -423.3674
   2   2.0000     -11.285321      -307.0892
   3   2.0000     -11.277850      -306.8859
   4   2.0000     -11.259543      -306.3878
   5   2.0000     -11.257414      -306.3298
   6   2.0000     -11.227202      -305.5077
   7   2.0000     -11.216918      -305.2279
   8   2.0000     -11.209445      -305.0245
   9   2.0000      -1.383754       -37.6539
  10   2.0000      -1.261637       -34.3309
  11   2.0000      -1.134098       -30.8604
  12   2.0000      -0.979272       -26.6473
  13   2.0000      -0.953970       -25.9588
  14   2.0000      -0.885609       -24.0986
  15   2.0000      -0.820868       -22.3369
  16   2.0000      -0.805284       -21.9129
  17   2.0000      -0.772832       -21.0298
  18   2.0000      -0.701748       -19.0955
  19   2.0000      -0.667632       -18.1672
  20   2.0000      -0.661572       -18.0023
  21   2.0000      -0.629856       -17.1392
  22   2.0000      -0.628387       -17.0993
  23   2.0000      -0.569116       -15.4864
  24   2.0000      -0.555179       -15.1072
  25   2.0000      -0.554595       -15.0913
  26   2.0000      -0.534631       -14.5480
  27   2.0000      -0.509223       -13.8567
  28   2.0000      -0.496523       -13.5111
  29   2.0000      -0.483364       -13.1530
  30   2.0000      -0.470907       -12.8140
  31   2.0000      -0.460251       -12.5241
  32   2.0000      -0.401290       -10.9197
  33   2.0000      -0.392185       -10.6719
  34   2.0000      -0.381516       -10.3816
  35   0.0000       0.135802         3.6954
  36   0.0000       0.152670         4.1543
  37   0.0000       0.158224         4.3055
  38   0.0000       0.171122         4.6565
  39   0.0000       0.183736         4.9997

MULLIKEN ATOMIC CHARGES
-----------------------
   0 C :   -0.405957
   1 C :   -0.038656
   2 C :   -0.290115
   3 C :   -0.004857
   4 O :   -0.293065
   5 C :   -0.099874
   6 C :   -0.037108
   7 C :   -0.189112
   8 N :   -0.357878
   9 H :    0.138428
  10 H :    0.130583
  11 H :    0.128175
  12 H :    0.116349
  13 H :    0.128897
  14 H :    0.147932
  15 H :    0.100777
  16 H :    0.124852
  17 H :    0.102392
  18 H :    0.125698
  19 H :    0.125987
  20 H :    0.127503
  21 H :    0.219049
Sum of atomic charges:    0.0000000

LOEWDIN ATOMIC CHARGES
----------------------
   0 C :   -0.293580
   1 C :   -0.234490
   2 C :   -0.218083
   3 C :   -0.306905
   4 O :    0.194584
   5 C :   -0.310026
   6 C :   -0.290912
   7 C :   -0.267359
   8 N :   -0.017834
   9 H :    0.128698
  10 H :    0.124205
  11 H :    0.125536
  12 H :    0.146620
  13 H :    0.129332
  14 H :    0.142119
  15 H :    0.130365
  16 H :    0.138012
  17 H :    0.125234
  18 H :    0.143475
  19 H :    0.125289
  20 H :    0.121373
  21 H :    0.164345

  Mayer bond orders larger than 0.1
B(  0-C ,  1-C ) :   0.9111 B(  0-C ,  9-H ) :   0.9331 B(  0-C , 10-H ) :   0.9390
B(  0-C , 11-H ) :   0.9383 B(  1-C ,  2-C ) :   0.8774 B(  1-C ,  3-C ) :   0.8988
B(  1-C , 12-H ) :   0.9221 B(  2-C ,  3-C ) :   0.8900 B(  2-C , 13-H ) :   0.9242
B(  2-C , 14-H ) :   0.9227 B(  3-C ,  4-O ) :   0.9592 B(  3-C , 15-H ) :   0.9272
B(  4-O ,  5-C ) :   0.9298 B(  5-C ,  6-C ) :   0.9337 B(  5-C , 16-H ) :   0.9291
B(  5-C , 17-H ) :   0.9400 B(  6-C ,  7-C ) :   0.9127 B(  6-C ,  8-N ) :   0.9103
B(  6-C , 18-H ) :   0.9144 B(  7-C ,  8-N ) :   0.9237 B(  7-C , 19-H ) :   0.9229
B(  7-C , 20-H ) :   0.9178 B(  8-N , 21-H ) :   0.8720

MP2 TOTAL ENERGY:     -403.596248870 Eh
FINAL SINGLE POINT ENERGY      -403.596248870205

DIPOLE MOMENT
-------------
                                X             Y             Z
Electronic contribution:      0.09382      -1.06338       2.23371
Nuclear contribution   :     -0.24582       0.48103      -1.97641
                        -----------------------------------------
Total Dipole Moment    :     -0.15200      -0.58236       0.25730
                        -----------------------------------------
Magnitude (a.u.)       :      0.65456
Magnitude (Debye)      :      1.66375

                             ****ORCA TERMINATED NORMALLY****
TOTAL RUN TIME: 0 days 0 hours 17 minutes 33 seconds 118 msec
