                         Program Version 3.0.3 - RELEASE   -
|  1> ! RI-MP2 RIJK def2-TZVP def2-TZVP/C def2-TZVP/JK TIGHTSCF
|  2> % maxcore 2000
|  3> % mp2 density relaxed end
|  4> *xyz 0 1
|  5>  C        0.1408403779    -1.1646466724    -0.0045162878
|  6>  C        0.0263726458     0.0344904833     0.0030938909
|  7>  C       -0.0956007698     1.4373814518     0.0118064897
|  8>  C       -1.2250851578     2.2520984997     0.0320207337
|  9>  C       -0.7910643076     3.5886284058     0.0324467872
| 10>  C        0.5983484668     3.5748680940     0.0124782203
| 11>  N        1.0023745736     2.2608124800     0.0001664628
| 12>  C        1.5244448728     4.6391387757     0.0044996675
| 13>  N        2.2935957227     5.5067732838    -0.0022081976
| 14>  H        0.2330781280    -2.2227266604    -0.0111115844
| 15>  H       -2.2426571252     1.8964847760     0.0448274823
| 16>  H       -1.4019791810     4.4769342707     0.0456115988
| 17>  H        1.9582934937     1.9459066220    -0.0151111633
| 18> *
| 19>
| 20>                          ****END OF INPUT****

CARTESIAN COORDINATES (ANGSTROEM)
---------------------------------
  C      0.140840   -1.164647   -0.004516
  C      0.026373    0.034490    0.003094
  C     -0.095601    1.437381    0.011806
  C     -1.225085    2.252098    0.032021
  C     -0.791064    3.588628    0.032447
  C      0.598348    3.574868    0.012478
  N      1.002375    2.260812    0.000166
  C      1.524445    4.639139    0.004500
  N      2.293596    5.506773   -0.002208
  H      0.233078   -2.222727   -0.011112
  H     -2.242657    1.896485    0.044827
  H     -1.401979    4.476934    0.045612
  H      1.958293    1.945907   -0.015111

 Total Charge           Charge          ....    0
 Multiplicity           Mult            ....    1
 Number of Electrons    NEL             ....   60
 Basis Dimension        Dim             ....  303

ORBITAL ENERGIES
----------------

  NO   OCC          E(Eh)            E(eV)
   0   2.0000     -15.649386      -425.8415
   1   2.0000     -15.583138      -424.0387
   2   2.0000     -11.315878      -307.9207
   3   2.0000     -11.314730      -307.8894
   4   2.0000     -11.287411      -307.1461
   5   2.0000     -11.264209      -306.5147
   6   2.0000     -11.261065      -306.4292
   7   2.0000     -11.257575      -306.3342
   8   2.0000     -11.252316      -306.1911
   9   2.0000      -1.341684       -36.5091
  10   2.0000      -1.225744       -33.3542
  11   2.0000      -1.092068       -29.7167
  12   2.0000      -1.089355       -29.6429
  13   2.0000      -1.022121       -27.8133
  14   2.0000      -0.888313       -24.1722
  15   2.0000      -0.830047       -22.5867
  16   2.0000      -0.823533       -22.4095
  17   2.0000      -0.743103       -20.2208
  18   2.0000      -0.691556       -18.8182
  19   2.0000      -0.641114       -17.4456
  20   2.0000      -0.628342       -17.0981
  21   2.0000      -0.603087       -16.4108
  22   2.0000      -0.597373       -16.2554
  23   2.0000      -0.566506       -15.4154
  24   2.0000      -0.508106       -13.8263
  25   2.0000      -0.477517       -12.9939
  26   2.0000      -0.446830       -12.1589
  27   2.0000      -0.425794       -11.5864
  28   2.0000      -0.390247       -10.6192
  29   2.0000      -0.315904        -8.5962
  30   0.0000       0.071297         1.9401
  31   0.0000       0.120583         3.2812
  32   0.0000       0.143832         3.9139
  33   0.0000       0.146021         3.9734
  34   0.0000       0.152846         4.1591

MULLIKEN ATOMIC CHARGES
-----------------------
   0 C :   -0.110670
   1 C :    0.018305
   2 C :    0.016941
   3 C :   -0.183292
   4 C :   -0.214863
   5 C :    0.296618
   6 N :   -0.314164
   7 C :   -0.240457
   8 N :   -0.040135
   9 H :    0.201945
  10 H :    0.150504
  11 H :    0.154359
  12 H :    0.264909
Sum of atomic charges:   -0.0000000

LOEWDIN ATOMIC CHARGES
----------------------
   0 C :   -0.062048
   1 C :   -0.082485
   2 C :   -0.208746
   3 C :   -0.119948
   4 C :   -0.123180
   5 C :   -0.221158
   6 N :    0.265478
   7 C :   -0.166825
   8 N :    0.077567
   9 H :    0.131147
  10 H :    0.150274
  11 H :    0.150992
  12 H :    0.208931

  Mayer bond orders larger than 0.1
B(  0-C ,  1-C ) :   2.6108 B(  0-C ,  2-C ) :  -0.1411 B(  0-C ,  9-H ) :   0.8692
B(  1-C ,  2-C ) :   1.1683 B(  2-C ,  3-C ) :   1.3582 B(  2-C ,  6-N ) :   1.1630
B(  3-C ,  4-C ) :   1.3469 B(  3-C , 10-H ) :   0.9348 B(  4-C ,  5-C ) :   1.3595
B(  4-C , 11-H ) :   0.9290 B(  5-C ,  6-N ) :   1.1263 B(  5-C ,  7-C ) :   0.8932
B(  6-N , 12-H ) :   0.8631 B(  7-C ,  8-N ) :   2.8531

MP2 TOTAL ENERGY:     -377.804090638 Eh
FINAL SINGLE POINT ENERGY      -377.804090637567

DIPOLE MOMENT
-------------
                                X             Y             Z
Electronic contribution:      2.36658       2.15515      -0.02317
Nuclear contribution   :     -2.86351      -3.55414       0.02332
                        -----------------------------------------
Total Dipole Moment    :     -0.49693      -1.39899       0.00015
                        -----------------------------------------
Magnitude (a.u.)       :      1.48463
Magnitude (Debye)      :      3.77362

                             ****ORCA TERMINATED NORMALLY****
TOTAL RUN TIME: 0 days 0 hours 13 minutes 16 seconds 893 msec
