                         Program Version 3.0.3 - RELEASE   -
|  1> ! RI-MP2 RIJK def2-TZVP def2-TZVP/C def2-TZVP/JK TIGHTSCF
|  2> % maxcore 2000
|  3> % mp2 density relaxed end
|  4> *xyz 0 1
|  5>  N        0.3090013516     1.2288368689     0.0041377131
|  6>  C        0.0202867084    -0.0034280094     0.0010487788
|  7>  N       -1.2804841771    -0.5063586006     0.0109359485
|  8>  C       -2.4857172577     0.1911544251     0.0273163664
|  9>  O       -2.6059440809     1.3913475301     0.0361107937
| 10>  C       -3.6296579383    -0.7110332722     0.0329723747
| 11>  C       -4.6272785115    -1.3990897339     0.0385482158
| 12>  C       -5.7396118988    -2.1785442960     0.0446722034
| 13>  C       -6.7264867935    -2.8741504118     0.0500768513
| 14>  H        1.3214189614     1.3435155730    -0.0048721568
| 15>  H        0.7414124268    -0.8304830751    -0.0097960407
| 16>  H       -1.3649881762    -1.5112335698     0.0058613378
| 17>  H       -7.5973576843    -3.4825782883     0.0548789841
| 18> *
| 19>
| 20>                          ****END OF INPUT****

CARTESIAN COORDINATES (ANGSTROEM)
---------------------------------
  N      0.309001    1.228837    0.004138
  C      0.020287   -0.003428    0.001049
  N     -1.280484   -0.506359    0.010936
  C     -2.485717    0.191154    0.027316
  O     -2.605944    1.391348    0.036111
  C     -3.629658   -0.711033    0.032972
  C     -4.627279   -1.399090    0.038548
  C     -5.739612   -2.178544    0.044672
  C     -6.726487   -2.874150    0.050077
  H      1.321419    1.343516   -0.004872
  H      0.741412   -0.830483   -0.009796
  H     -1.364988   -1.511234    0.005861
  H     -7.597358   -3.482578    0.054879

 Total Charge           Charge          ....    0
 Multiplicity           Mult            ....    1
 Number of Electrons    NEL             ....   62
 Basis Dimension        Dim             ....  303

ORBITAL ENERGIES
----------------

  NO   OCC          E(Eh)            E(eV)
   0   2.0000     -20.551263      -559.2283
   1   2.0000     -15.623434      -425.1353
   2   2.0000     -15.551632      -423.1814
   3   2.0000     -11.398236      -310.1618
   4   2.0000     -11.336111      -308.4713
   5   2.0000     -11.292628      -307.2880
   6   2.0000     -11.280396      -306.9552
   7   2.0000     -11.277193      -306.8680
   8   2.0000     -11.276022      -306.8362
   9   2.0000      -1.414926       -38.5021
  10   2.0000      -1.291257       -35.1369
  11   2.0000      -1.191922       -32.4338
  12   2.0000      -1.114727       -30.3333
  13   2.0000      -1.048220       -28.5235
  14   2.0000      -0.952083       -25.9075
  15   2.0000      -0.866549       -23.5800
  16   2.0000      -0.798298       -21.7228
  17   2.0000      -0.790955       -21.5230
  18   2.0000      -0.733057       -19.9475
  19   2.0000      -0.684552       -18.6276
  20   2.0000      -0.667321       -18.1587
  21   2.0000      -0.630561       -17.1584
  22   2.0000      -0.622914       -16.9504
  23   2.0000      -0.520845       -14.1729
  24   2.0000      -0.515013       -14.0142
  25   2.0000      -0.495187       -13.4747
  26   2.0000      -0.484899       -13.1948
  27   2.0000      -0.429031       -11.6745
  28   2.0000      -0.398474       -10.8430
  29   2.0000      -0.384706       -10.4684
  30   2.0000      -0.381946       -10.3933
  31   0.0000       0.054050         1.4708
  32   0.0000       0.091127         2.4797
  33   0.0000       0.114863         3.1256
  34   0.0000       0.143014         3.8916
  35   0.0000       0.148887         4.0514

MULLIKEN ATOMIC CHARGES
-----------------------
   0 N :   -0.327845
   1 C :    0.029291
   2 N :   -0.282823
   3 C :    0.220598
   4 O :   -0.252048
   5 C :   -0.065210
   6 C :    0.037924
   7 C :   -0.024048
   8 C :   -0.122309
   9 H :    0.223179
  10 H :    0.105862
  11 H :    0.254531
  12 H :    0.202897
Sum of atomic charges:    0.0000000

LOEWDIN ATOMIC CHARGES
----------------------
   0 N :   -0.057506
   1 C :   -0.335807
   2 N :    0.133686
   3 C :   -0.422276
   4 O :    0.180244
   5 C :    0.018091
   6 C :   -0.030487
   7 C :   -0.088925
   8 C :   -0.020476
   9 H :    0.168911
  10 H :    0.118315
  11 H :    0.202205
  12 H :    0.134027

  Mayer bond orders larger than 0.1
B(  0-N ,  1-C ) :   1.9663 B(  0-N ,  9-H ) :   0.8512 B(  1-C ,  2-N ) :   0.9870
B(  1-C , 10-H ) :   0.9185 B(  2-N ,  3-C ) :   1.0901 B(  2-N , 11-H ) :   0.8681
B(  3-C ,  4-O ) :   2.0179 B(  3-C ,  5-C ) :   0.9318 B(  5-C ,  6-C ) :   2.6125
B(  5-C ,  8-C ) :   0.1238 B(  6-C ,  7-C ) :   1.3065 B(  7-C ,  8-C ) :   2.5434
B(  8-C , 12-H ) :   0.8818

MP2 TOTAL ENERGY:     -414.836259242 Eh
FINAL SINGLE POINT ENERGY      -414.836259242492

DIPOLE MOMENT
-------------
                                X             Y             Z
Electronic contribution:     -3.78983       0.35840       0.04025
Nuclear contribution   :      4.20330      -2.42022      -0.05598
                        -----------------------------------------
Total Dipole Moment    :      0.41347      -2.06182      -0.01573
                        -----------------------------------------
Magnitude (a.u.)       :      2.10293
Magnitude (Debye)      :      5.34522

                             ****ORCA TERMINATED NORMALLY****
TOTAL RUN TIME: 0 days 0 hours 11 minutes 39 seconds 370 msec
