                         Program Version 3.0.3 - RELEASE   -
|  1> ! RI-MP2 RIJK def2-TZVP def2-TZVP/C def2-TZVP/JK TIGHTSCF
|  2> % maxcore 2000
|  3> % mp2 density relaxed end
|  4> *xyz 0 1
|  5>  O       -0.0224258930     1.3877969999    -0.0992391871
|  6>  C        0.0051048177    -0.0255598561     0.0872842654
|  7>  C       -1.4495438285    -0.4976463386     0.0561010993
|  8>  O       -2.0319613825    -0.0634447260    -1.1753622281
|  9>  C       -1.5949664442    -2.0295815870     0.1541893221
| 10>  C       -2.7901980586    -2.3051180849     1.1048694583
| 11>  O       -2.5785641727    -3.3831132394     2.0097083778
| 12>  C       -3.0029056877    -0.9697550094     1.7802749908
| 13>  C       -2.2652313912    -0.0030480637     1.2414043176
| 14>  H        0.8639968665     1.6923229382    -0.3105414868
| 15>  H        0.5591737903    -0.5208668004    -0.7230136929
| 16>  H        0.4720276979    -0.2917095718     1.0471531258
| 17>  H       -1.7556285205     0.8563661899    -1.2808834021
| 18>  H       -1.7215989895    -2.4624235487    -0.8395115920
| 19>  H       -0.6973842973    -2.4726946490     0.6008166730
| 20>  H       -3.6829953764    -2.6030593611     0.5428769399
| 21>  H       -1.8707700032    -3.1195734243     2.6086576211
| 22>  H       -3.7051620078    -0.8585488809     2.5999034200
| 23>  H       -2.2578226093     1.0403070834     1.5361027578
| 24> *
| 25>
| 26>                          ****END OF INPUT****

CARTESIAN COORDINATES (ANGSTROEM)
---------------------------------
  O     -0.022426    1.387797   -0.099239
  C      0.005105   -0.025560    0.087284
  C     -1.449544   -0.497646    0.056101
  O     -2.031961   -0.063445   -1.175362
  C     -1.594966   -2.029582    0.154189
  C     -2.790198   -2.305118    1.104869
  O     -2.578564   -3.383113    2.009708
  C     -3.002906   -0.969755    1.780275
  C     -2.265231   -0.003048    1.241404
  H      0.863997    1.692323   -0.310541
  H      0.559174   -0.520867   -0.723014
  H      0.472028   -0.291710    1.047153
  H     -1.755629    0.856366   -1.280883
  H     -1.721599   -2.462424   -0.839512
  H     -0.697384   -2.472695    0.600817
  H     -3.682995   -2.603059    0.542877
  H     -1.870770   -3.119573    2.608658
  H     -3.705162   -0.858549    2.599903
  H     -2.257823    1.040307    1.536103

 Total Charge           Charge          ....    0
 Multiplicity           Mult            ....    1
 Number of Electrons    NEL             ....   70
 Basis Dimension        Dim             ....  339

ORBITAL ENERGIES
----------------

  NO   OCC          E(Eh)            E(eV)
   0   2.0000     -20.577103      -559.9314
   1   2.0000     -20.554199      -559.3082
   2   2.0000     -20.548176      -559.1443
   3   2.0000     -11.291834      -307.2664
   4   2.0000     -11.288537      -307.1767
   5   2.0000     -11.282341      -307.0081
   6   2.0000     -11.230061      -305.5855
   7   2.0000     -11.228194      -305.5347
   8   2.0000     -11.223257      -305.4004
   9   2.0000      -1.388404       -37.7804
  10   2.0000      -1.360160       -37.0118
  11   2.0000      -1.350048       -36.7367
  12   2.0000      -1.124626       -30.6026
  13   2.0000      -1.000047       -27.2127
  14   2.0000      -0.965908       -26.2837
  15   2.0000      -0.885130       -24.0856
  16   2.0000      -0.791694       -21.5431
  17   2.0000      -0.755244       -20.5512
  18   2.0000      -0.719308       -19.5734
  19   2.0000      -0.702473       -19.1153
  20   2.0000      -0.674266       -18.3477
  21   2.0000      -0.650791       -17.7089
  22   2.0000      -0.625086       -17.0095
  23   2.0000      -0.618378       -16.8269
  24   2.0000      -0.581775       -15.8309
  25   2.0000      -0.569969       -15.5096
  26   2.0000      -0.543740       -14.7959
  27   2.0000      -0.539133       -14.6706
  28   2.0000      -0.521124       -14.1805
  29   2.0000      -0.501881       -13.6569
  30   2.0000      -0.477774       -13.0009
  31   2.0000      -0.467343       -12.7171
  32   2.0000      -0.439279       -11.9534
  33   2.0000      -0.432179       -11.7602
  34   2.0000      -0.366767        -9.9802
  35   0.0000       0.121699         3.3116
  36   0.0000       0.132498         3.6055
  37   0.0000       0.153022         4.1639
  38   0.0000       0.174496         4.7483
  39   0.0000       0.178672         4.8619

MULLIKEN ATOMIC CHARGES
-----------------------
   0 O :   -0.496652
   1 C :   -0.135355
   2 C :    0.381219
   3 O :   -0.485396
   4 C :   -0.339033
   5 C :    0.164667
   6 O :   -0.468040
   7 C :   -0.227981
   8 C :   -0.226202
   9 H :    0.326108
  10 H :    0.123390
  11 H :    0.101252
  12 H :    0.326077
  13 H :    0.136473
  14 H :    0.123669
  15 H :    0.113716
  16 H :    0.305574
  17 H :    0.133139
  18 H :    0.143374
Sum of atomic charges:   -0.0000000

LOEWDIN ATOMIC CHARGES
----------------------
   0 O :   -0.052153
   1 C :   -0.311799
   2 C :   -0.366630
   3 O :    0.005631
   4 C :   -0.179095
   5 C :   -0.313635
   6 O :   -0.026567
   7 C :   -0.141821
   8 C :   -0.110861
   9 H :    0.176155
  10 H :    0.125075
  11 H :    0.122931
  12 H :    0.177921
  13 H :    0.145890
  14 H :    0.144338
  15 H :    0.149571
  16 H :    0.171523
  17 H :    0.140168
  18 H :    0.143357

  Mayer bond orders larger than 0.1
B(  0-O ,  1-C ) :   0.9800 B(  0-O ,  9-H ) :   0.8436 B(  1-C ,  2-C ) :   0.8915
B(  1-C , 10-H ) :   0.9353 B(  1-C , 11-H ) :   0.9210 B(  2-C ,  3-O ) :   0.9324
B(  2-C ,  4-C ) :   0.8477 B(  2-C ,  8-C ) :   0.9088 B(  3-O , 12-H ) :   0.8228
B(  4-C ,  5-C ) :   0.9655 B(  4-C , 13-H ) :   0.9125 B(  4-C , 14-H ) :   0.9384
B(  5-C ,  6-O ) :   0.9192 B(  5-C ,  7-C ) :   0.9535 B(  5-C , 15-H ) :   0.9106
B(  6-O , 16-H ) :   0.8438 B(  7-C ,  8-C ) :   1.7295 B(  7-C , 17-H ) :   0.9359
B(  8-C , 18-H ) :   0.9091

MP2 TOTAL ENERGY:     -459.438385325 Eh
FINAL SINGLE POINT ENERGY      -459.438385324938

DIPOLE MOMENT
-------------
                                X             Y             Z
Electronic contribution:     -1.77152       0.79388      -0.07114
Nuclear contribution   :      3.01854      -0.13384       0.31231
                        -----------------------------------------
Total Dipole Moment    :      1.24702       0.66004       0.24117
                        -----------------------------------------
Magnitude (a.u.)       :      1.43139
Magnitude (Debye)      :      3.63830

                             ****ORCA TERMINATED NORMALLY****
TOTAL RUN TIME: 0 days 0 hours 15 minutes 53 seconds 402 msec
