                         Program Version 3.0.3 - RELEASE   -
|  1> ! RI-MP2 RIJK def2-TZVP def2-TZVP/C def2-TZVP/JK TIGHTSCF
|  2> % maxcore 2000
|  3> % mp2 density relaxed end
|  4> *xyz 0 1
|  5>  C       -0.0915631414     1.5195967654     0.1391932415
|  6>  C       -0.0085170133     0.0014446344    -0.0592703475
|  7>  C        0.7481916088    -0.4913065559    -1.3294751037
|  8>  C        0.0457070862     0.0185562932    -2.5998028352
|  9>  C        2.2116158977     0.0095139252    -1.3346933156
| 10>  C        0.7556630441    -2.0204636087    -1.2878113949
| 11>  C        1.4536725646    -2.7607559075    -0.1731439605
| 12>  N        0.1447756445    -2.6346154150    -2.2277459970
| 13>  O        0.2176845445    -4.0318832040    -2.0722310541
| 14>  H        0.8980463879     1.9771712522     0.2331401019
| 15>  H       -0.6137195430     2.0156578032    -0.6840219119
| 16>  H       -0.6424945788     1.7457045119     1.0577122000
| 17>  H        0.4628209913    -0.4359469247     0.8286259032
| 18>  H       -1.0248965355    -0.4099234931    -0.0968343603
| 19>  H        0.0866791180     1.1104882893    -2.6438884460
| 20>  H        0.5276984607    -0.3760495067    -3.4972844355
| 21>  H       -1.0014549835    -0.2920852947    -2.6295499242
| 22>  H        2.7487385527    -0.2621206464    -0.4210884696
| 23>  H        2.7580426665    -0.4104636642    -2.1851751704
| 24>  H        2.2455556877     1.0986028539    -1.4264603941
| 25>  H        0.7421172897    -3.4036045828     0.3547568213
| 26>  H        2.2174169590    -3.4265574023    -0.5875800711
| 27>  H        1.9236483399    -2.0903067872     0.5456907771
| 28>  H       -0.2743924682    -4.3422673156    -2.8393080932
| 29> *
| 30>
| 31>                          ****END OF INPUT****

CARTESIAN COORDINATES (ANGSTROEM)
---------------------------------
  C     -0.091563    1.519597    0.139193
  C     -0.008517    0.001445   -0.059270
  C      0.748192   -0.491307   -1.329475
  C      0.045707    0.018556   -2.599803
  C      2.211616    0.009514   -1.334693
  C      0.755663   -2.020464   -1.287811
  C      1.453673   -2.760756   -0.173144
  N      0.144776   -2.634615   -2.227746
  O      0.217685   -4.031883   -2.072231
  H      0.898046    1.977171    0.233140
  H     -0.613720    2.015658   -0.684022
  H     -0.642495    1.745705    1.057712
  H      0.462821   -0.435947    0.828626
  H     -1.024897   -0.409923   -0.096834
  H      0.086679    1.110488   -2.643888
  H      0.527698   -0.376050   -3.497284
  H     -1.001455   -0.292085   -2.629550
  H      2.748739   -0.262121   -0.421088
  H      2.758043   -0.410464   -2.185175
  H      2.245556    1.098603   -1.426460
  H      0.742117   -3.403605    0.354757
  H      2.217417   -3.426557   -0.587580
  H      1.923648   -2.090307    0.545691
  H     -0.274392   -4.342267   -2.839308

 Total Charge           Charge          ....    0
 Multiplicity           Mult            ....    1
 Number of Electrons    NEL             ....   72
 Basis Dimension        Dim             ....  369

ORBITAL ENERGIES
----------------

  NO   OCC          E(Eh)            E(eV)
   0   2.0000     -20.582199      -560.0701
   1   2.0000     -15.601153      -424.5289
   2   2.0000     -11.270440      -306.6843
   3   2.0000     -11.245886      -306.0161
   4   2.0000     -11.224709      -305.4399
   5   2.0000     -11.224118      -305.4238
   6   2.0000     -11.217702      -305.2492
   7   2.0000     -11.215643      -305.1932
   8   2.0000     -11.204462      -304.8889
   9   2.0000      -1.408569       -38.3291
  10   2.0000      -1.170609       -31.8539
  11   2.0000      -1.082169       -29.4473
  12   2.0000      -0.993620       -27.0378
  13   2.0000      -0.978612       -26.6294
  14   2.0000      -0.925878       -25.1944
  15   2.0000      -0.875144       -23.8139
  16   2.0000      -0.794517       -21.6199
  17   2.0000      -0.699117       -19.0239
  18   2.0000      -0.689876       -18.7725
  19   2.0000      -0.645462       -17.5639
  20   2.0000      -0.621748       -16.9186
  21   2.0000      -0.617602       -16.8058
  22   2.0000      -0.603125       -16.4119
  23   2.0000      -0.590866       -16.0783
  24   2.0000      -0.556481       -15.1426
  25   2.0000      -0.547307       -14.8930
  26   2.0000      -0.540094       -14.6967
  27   2.0000      -0.539089       -14.6694
  28   2.0000      -0.525352       -14.2956
  29   2.0000      -0.518631       -14.1127
  30   2.0000      -0.494781       -13.4637
  31   2.0000      -0.471236       -12.8230
  32   2.0000      -0.460828       -12.5398
  33   2.0000      -0.453460       -12.3393
  34   2.0000      -0.419682       -11.4201
  35   2.0000      -0.373180       -10.1547
  36   0.0000       0.128492         3.4964
  37   0.0000       0.149890         4.0787
  38   0.0000       0.165822         4.5122
  39   0.0000       0.169223         4.6048
  40   0.0000       0.178183         4.8486

MULLIKEN ATOMIC CHARGES
-----------------------
   0 C :   -0.428729
   1 C :   -0.208670
   2 C :    0.150297
   3 C :   -0.431505
   4 C :   -0.439662
   5 C :    0.039277
   6 C :   -0.431609
   7 N :   -0.099649
   8 O :   -0.375812
   9 H :    0.131003
  10 H :    0.134985
  11 H :    0.138920
  12 H :    0.108739
  13 H :    0.124203
  14 H :    0.129265
  15 H :    0.137431
  16 H :    0.135435
  17 H :    0.128002
  18 H :    0.142708
  19 H :    0.139639
  20 H :    0.156570
  21 H :    0.155964
  22 H :    0.130754
  23 H :    0.332446
Sum of atomic charges:   -0.0000000

LOEWDIN ATOMIC CHARGES
----------------------
   0 C :   -0.316505
   1 C :   -0.243946
   2 C :   -0.292956
   3 C :   -0.269974
   4 C :   -0.261976
   5 C :   -0.262221
   6 C :   -0.285713
   7 N :    0.028842
   8 O :   -0.074212
   9 H :    0.120389
  10 H :    0.121160
  11 H :    0.123491
  12 H :    0.139503
  13 H :    0.143973
  14 H :    0.121984
  15 H :    0.128489
  16 H :    0.128177
  17 H :    0.123562
  18 H :    0.130084
  19 H :    0.126297
  20 H :    0.139312
  21 H :    0.139439
  22 H :    0.125165
  23 H :    0.167636

  Mayer bond orders larger than 0.1
B(  0-C ,  1-C ) :   0.9047 B(  0-C ,  9-H ) :   0.9396 B(  0-C , 10-H ) :   0.9413
B(  0-C , 11-H ) :   0.9406 B(  1-C ,  2-C ) :   0.8959 B(  1-C , 12-H ) :   0.9246
B(  1-C , 13-H ) :   0.9354 B(  2-C ,  3-C ) :   0.9137 B(  2-C ,  4-C ) :   0.8952
B(  2-C ,  5-C ) :   0.9145 B(  3-C , 14-H ) :   0.9351 B(  3-C , 15-H ) :   0.9319
B(  3-C , 16-H ) :   0.9318 B(  4-C , 17-H ) :   0.9289 B(  4-C , 18-H ) :   0.9380
B(  4-C , 19-H ) :   0.9350 B(  5-C ,  6-C ) :   0.9346 B(  5-C ,  7-N ) :   1.8536
B(  6-C , 20-H ) :   0.9206 B(  6-C , 21-H ) :   0.9199 B(  6-C , 22-H ) :   0.9369
B(  7-N ,  8-O ) :   0.7996 B(  8-O , 23-H ) :   0.8474

MP2 TOTAL ENERGY:     -404.832021616 Eh
FINAL SINGLE POINT ENERGY      -404.832021616212

DIPOLE MOMENT
-------------
                                X             Y             Z
Electronic contribution:     -1.77748      -9.52056      -3.91606
Nuclear contribution   :      1.85709       9.65214       4.09470
                        -----------------------------------------
Total Dipole Moment    :      0.07961       0.13157       0.17864
                        -----------------------------------------
Magnitude (a.u.)       :      0.23571
Magnitude (Debye)      :      0.59914

                             ****ORCA TERMINATED NORMALLY****
TOTAL RUN TIME: 0 days 0 hours 21 minutes 42 seconds 13 msec
