                         Program Version 3.0.3 - RELEASE   -
|  1> ! RI-MP2 RIJK def2-TZVP def2-TZVP/C def2-TZVP/JK TIGHTSCF
|  2> % maxcore 2000
|  3> % mp2 density relaxed end
|  4> *xyz 0 1
|  5>  C       -0.1227622432     1.5519763263    -0.0556438161
|  6>  C        0.1044678328     0.0554133204     0.0014101136
|  7>  C        0.1251681873    -0.6083247484    -1.3687750054
|  8>  C        0.3553954294    -2.1204441250    -1.3061849231
|  9>  C        1.6108885552    -2.4267278916    -0.4863025132
| 10>  C        1.4648591352    -1.9624122176     0.9698131508
| 11>  C        0.7723192469    -0.6102342003     1.1499248570
| 12>  C        1.2507194317     0.1553906756     2.3669600169
| 13>  O       -0.6622679225    -0.6566420980     0.9885250092
| 14>  H        0.6957120925     2.0463357754    -0.5905492940
| 15>  H       -1.0498661972     1.7653948403    -0.5995067764
| 16>  H       -0.2077494162     1.9974128589     0.9355927369
| 17>  H       -0.8220106649    -0.3830027210    -1.8757598639
| 18>  H        0.9159880158    -0.1360540159    -1.9680631278
| 19>  H       -0.5155274377    -2.6017006820    -0.8480039060
| 20>  H        0.4509996433    -2.5208213075    -2.3210961260
| 21>  H        1.8417019095    -3.4973139450    -0.5087124436
| 22>  H        2.4668815533    -1.9160494169    -0.9484022089
| 23>  H        0.8761488842    -2.6926734350     1.5400054374
| 24>  H        2.4510023368    -1.9246581286     1.4461607203
| 25>  H        2.2832464723     0.4960960940     2.2313509301
| 26>  H        0.6215943989     1.0189246294     2.5838777058
| 27>  H        1.2321559365    -0.4998499375     3.2455193564
| 28> *
| 29>
| 30>                          ****END OF INPUT****

CARTESIAN COORDINATES (ANGSTROEM)
---------------------------------
  C     -0.122762    1.551976   -0.055644
  C      0.104468    0.055413    0.001410
  C      0.125168   -0.608325   -1.368775
  C      0.355395   -2.120444   -1.306185
  C      1.610889   -2.426728   -0.486303
  C      1.464859   -1.962412    0.969813
  C      0.772319   -0.610234    1.149925
  C      1.250719    0.155391    2.366960
  O     -0.662268   -0.656642    0.988525
  H      0.695712    2.046336   -0.590549
  H     -1.049866    1.765395   -0.599507
  H     -0.207749    1.997413    0.935593
  H     -0.822011   -0.383003   -1.875760
  H      0.915988   -0.136054   -1.968063
  H     -0.515527   -2.601701   -0.848004
  H      0.451000   -2.520821   -2.321096
  H      1.841702   -3.497314   -0.508712
  H      2.466882   -1.916049   -0.948402
  H      0.876149   -2.692673    1.540005
  H      2.451002   -1.924658    1.446161
  H      2.283246    0.496096    2.231351
  H      0.621594    1.018925    2.583878
  H      1.232156   -0.499850    3.245519

 Total Charge           Charge          ....    0
 Multiplicity           Mult            ....    1
 Number of Electrons    NEL             ....   70
 Basis Dimension        Dim             ....  363

ORBITAL ENERGIES
----------------

  NO   OCC          E(Eh)            E(eV)
   0   2.0000     -20.546429      -559.0968
   1   2.0000     -11.282292      -307.0068
   2   2.0000     -11.281518      -306.9857
   3   2.0000     -11.221269      -305.3463
   4   2.0000     -11.221038      -305.3400
   5   2.0000     -11.219168      -305.2891
   6   2.0000     -11.218333      -305.2664
   7   2.0000     -11.218019      -305.2578
   8   2.0000     -11.214938      -305.1740
   9   2.0000      -1.394744       -37.9529
  10   2.0000      -1.089748       -29.6535
  11   2.0000      -1.038386       -28.2559
  12   2.0000      -1.011062       -27.5124
  13   2.0000      -0.950610       -25.8674
  14   2.0000      -0.900689       -24.5090
  15   2.0000      -0.817013       -22.2321
  16   2.0000      -0.804587       -21.8939
  17   2.0000      -0.712061       -19.3762
  18   2.0000      -0.660878       -17.9834
  19   2.0000      -0.628648       -17.1064
  20   2.0000      -0.625117       -17.0103
  21   2.0000      -0.602204       -16.3868
  22   2.0000      -0.582836       -15.8598
  23   2.0000      -0.577069       -15.7029
  24   2.0000      -0.557201       -15.1622
  25   2.0000      -0.540118       -14.6974
  26   2.0000      -0.533989       -14.5306
  27   2.0000      -0.524227       -14.2649
  28   2.0000      -0.510332       -13.8868
  29   2.0000      -0.493814       -13.4374
  30   2.0000      -0.470247       -12.7961
  31   2.0000      -0.458804       -12.4847
  32   2.0000      -0.439568       -11.9613
  33   2.0000      -0.421719       -11.4756
  34   2.0000      -0.394205       -10.7269
  35   0.0000       0.130554         3.5526
  36   0.0000       0.155031         4.2186
  37   0.0000       0.156849         4.2681
  38   0.0000       0.176830         4.8118
  39   0.0000       0.188264         5.1229

MULLIKEN ATOMIC CHARGES
-----------------------
   0 C :   -0.409756
   1 C :    0.152301
   2 C :   -0.222494
   3 C :   -0.202454
   4 C :   -0.229554
   5 C :   -0.227314
   6 C :    0.173809
   7 C :   -0.427908
   8 O :   -0.356482
   9 H :    0.130426
  10 H :    0.136755
  11 H :    0.132115
  12 H :    0.119277
  13 H :    0.109073
  14 H :    0.119120
  15 H :    0.124543
  16 H :    0.125492
  17 H :    0.105654
  18 H :    0.118159
  19 H :    0.122721
  20 H :    0.132592
  21 H :    0.134018
  22 H :    0.139908
Sum of atomic charges:    0.0000000

LOEWDIN ATOMIC CHARGES
----------------------
   0 C :   -0.266248
   1 C :   -0.303555
   2 C :   -0.225256
   3 C :   -0.261092
   4 C :   -0.260728
   5 C :   -0.222235
   6 C :   -0.290907
   7 C :   -0.270361
   8 O :    0.188870
   9 H :    0.130628
  10 H :    0.131154
  11 H :    0.126524
  12 H :    0.144639
  13 H :    0.145303
  14 H :    0.143300
  15 H :    0.135837
  16 H :    0.136046
  17 H :    0.137370
  18 H :    0.148497
  19 H :    0.143927
  20 H :    0.129922
  21 H :    0.126291
  22 H :    0.132074

  Mayer bond orders larger than 0.1
B(  0-C ,  1-C ) :   0.8836 B(  0-C ,  9-H ) :   0.9329 B(  0-C , 10-H ) :   0.9383
B(  0-C , 11-H ) :   0.9432 B(  1-C ,  2-C ) :   0.9299 B(  1-C ,  6-C ) :   0.9601
B(  1-C ,  8-O ) :   0.8650 B(  2-C ,  3-C ) :   0.9429 B(  2-C , 12-H ) :   0.9198
B(  2-C , 13-H ) :   0.9221 B(  3-C ,  4-C ) :   0.9161 B(  3-C , 14-H ) :   0.9275
B(  3-C , 15-H ) :   0.9331 B(  4-C ,  5-C ) :   0.9525 B(  4-C , 16-H ) :   0.9364
B(  4-C , 17-H ) :   0.9351 B(  5-C ,  6-C ) :   0.8927 B(  5-C , 18-H ) :   0.9171
B(  5-C , 19-H ) :   0.9310 B(  6-C ,  7-C ) :   0.8678 B(  6-C ,  8-O ) :   0.8767
B(  7-C , 20-H ) :   0.9318 B(  7-C , 21-H ) :   0.9464 B(  7-C , 22-H ) :   0.9378

MP2 TOTAL ENERGY:     -387.636292636 Eh
FINAL SINGLE POINT ENERGY      -387.636292635879

DIPOLE MOMENT
-------------
                                X             Y             Z
Electronic contribution:     -2.85230      -1.00008       1.02970
Nuclear contribution   :      3.49947       1.17880      -1.28923
                        -----------------------------------------
Total Dipole Moment    :      0.64717       0.17872      -0.25953
                        -----------------------------------------
Magnitude (a.u.)       :      0.71981
Magnitude (Debye)      :      1.82960

                             ****ORCA TERMINATED NORMALLY****
TOTAL RUN TIME: 0 days 0 hours 21 minutes 46 seconds 3 msec
