                         Program Version 3.0.3 - RELEASE   -
|  1> ! RI-MP2 RIJK def2-TZVP def2-TZVP/C def2-TZVP/JK TIGHTSCF
|  2> % maxcore 2000
|  3> % mp2 density relaxed end
|  4> *xyz 0 1
|  5>  C        0.1487765695     1.5473903320    -0.1647570648
|  6>  C       -0.0068199099     0.0459276545    -0.0177956665
|  7>  C       -1.1824016003    -0.5351981348    -0.7823598474
|  8>  C        1.2385917113    -0.8045782811     0.0781387934
|  9>  O        2.4753388409    -0.1533798283     0.0668684494
| 10>  C        0.3498862334    -0.6470554263     1.2934162493
| 11>  C        0.8810842897     0.0979041650     2.5146642813
| 12>  C        2.0189993453    -0.5932388394     3.1222768777
| 13>  C        2.9653235869    -1.1823117943     3.5758163095
| 14>  H        1.1177910694     1.8931556381     0.1972862062
| 15>  H        0.0836036019     1.8256101411    -1.2226388129
| 16>  H       -0.6448580682     2.0859851028     0.3661010737
| 17>  H       -1.1027024869    -0.3095051519    -1.8521645750
| 18>  H       -1.2374054181    -1.6230984389    -0.6740517409
| 19>  H       -2.1305842100    -0.1178465109    -0.4230369643
| 20>  H        1.2316981339    -1.7664355141    -0.4361010411
| 21>  H        2.9947470592    -0.5035197380     0.8017092985
| 22>  H       -0.2548230250    -1.5128842341     1.5497218855
| 23>  H        1.1874049555     1.1137197499     2.2491486365
| 24>  H        0.0811824969     0.2066652637     3.2570412296
| 25>  H        3.7904281248    -1.6952034750     4.0046391423
| 26> *
| 27>
| 28>                          ****END OF INPUT****

CARTESIAN COORDINATES (ANGSTROEM)
---------------------------------
  C      0.148777    1.547390   -0.164757
  C     -0.006820    0.045928   -0.017796
  C     -1.182402   -0.535198   -0.782360
  C      1.238592   -0.804578    0.078139
  O      2.475339   -0.153380    0.066868
  C      0.349886   -0.647055    1.293416
  C      0.881084    0.097904    2.514664
  C      2.018999   -0.593239    3.122277
  C      2.965324   -1.182312    3.575816
  H      1.117791    1.893156    0.197286
  H      0.083604    1.825610   -1.222639
  H     -0.644858    2.085985    0.366101
  H     -1.102702   -0.309505   -1.852165
  H     -1.237405   -1.623098   -0.674052
  H     -2.130584   -0.117847   -0.423037
  H      1.231698   -1.766436   -0.436101
  H      2.994747   -0.503520    0.801709
  H     -0.254823   -1.512884    1.549722
  H      1.187405    1.113720    2.249149
  H      0.081182    0.206665    3.257041
  H      3.790428   -1.695203    4.004639

 Total Charge           Charge          ....    0
 Multiplicity           Mult            ....    1
 Number of Electrons    NEL             ....   68
 Basis Dimension        Dim             ....  351

ORBITAL ENERGIES
----------------

  NO   OCC          E(Eh)            E(eV)
   0   2.0000     -20.556331      -559.3662
   1   2.0000     -11.275921      -306.8334
   2   2.0000     -11.258109      -306.3487
   3   2.0000     -11.241303      -305.8914
   4   2.0000     -11.239729      -305.8486
   5   2.0000     -11.235026      -305.7206
   6   2.0000     -11.226512      -305.4889
   7   2.0000     -11.219124      -305.2879
   8   2.0000     -11.213415      -305.1325
   9   2.0000      -1.367686       -37.2166
  10   2.0000      -1.154378       -31.4122
  11   2.0000      -1.067437       -29.0464
  12   2.0000      -0.992074       -26.9957
  13   2.0000      -0.953648       -25.9501
  14   2.0000      -0.934494       -25.4289
  15   2.0000      -0.805531       -21.9196
  16   2.0000      -0.742577       -20.2065
  17   2.0000      -0.726207       -19.7611
  18   2.0000      -0.683338       -18.5946
  19   2.0000      -0.669107       -18.2073
  20   2.0000      -0.635163       -17.2837
  21   2.0000      -0.622272       -16.9329
  22   2.0000      -0.593235       -16.1428
  23   2.0000      -0.573438       -15.6040
  24   2.0000      -0.548539       -14.9265
  25   2.0000      -0.543860       -14.7992
  26   2.0000      -0.537932       -14.6379
  27   2.0000      -0.523646       -14.2491
  28   2.0000      -0.494256       -13.4494
  29   2.0000      -0.479559       -13.0495
  30   2.0000      -0.405276       -11.0281
  31   2.0000      -0.399455       -10.8697
  32   2.0000      -0.384209       -10.4549
  33   2.0000      -0.379094       -10.3157
  34   0.0000       0.129528         3.5246
  35   0.0000       0.154231         4.1968
  36   0.0000       0.165219         4.4958
  37   0.0000       0.166445         4.5292
  38   0.0000       0.170747         4.6462

MULLIKEN ATOMIC CHARGES
-----------------------
   0 C :   -0.428208
   1 C :    0.137982
   2 C :   -0.408675
   3 C :    0.002936
   4 O :   -0.479915
   5 C :   -0.145065
   6 C :   -0.338314
   7 C :   -0.068514
   8 C :   -0.152238
   9 H :    0.156642
  10 H :    0.132619
  11 H :    0.132961
  12 H :    0.133666
  13 H :    0.126798
  14 H :    0.132186
  15 H :    0.110770
  16 H :    0.334679
  17 H :    0.117707
  18 H :    0.159088
  19 H :    0.151534
  20 H :    0.191361
Sum of atomic charges:    0.0000000

LOEWDIN ATOMIC CHARGES
----------------------
   0 C :   -0.266346
   1 C :   -0.261651
   2 C :   -0.264973
   3 C :   -0.280514
   4 O :    0.006771
   5 C :   -0.170937
   6 C :   -0.226919
   7 C :   -0.112691
   8 C :   -0.114937
   9 H :    0.130655
  10 H :    0.130949
  11 H :    0.126314
  12 H :    0.127306
  13 H :    0.126818
  14 H :    0.127207
  15 H :    0.132619
  16 H :    0.184975
  17 H :    0.152433
  18 H :    0.164928
  19 H :    0.160882
  20 H :    0.127112

  Mayer bond orders larger than 0.1
B(  0-C ,  1-C ) :   0.9081 B(  0-C ,  9-H ) :   0.9300 B(  0-C , 10-H ) :   0.9329
B(  0-C , 11-H ) :   0.9390 B(  1-C ,  2-C ) :   0.8927 B(  1-C ,  3-C ) :   0.8380
B(  1-C ,  5-C ) :   0.8554 B(  2-C , 12-H ) :   0.9414 B(  2-C , 13-H ) :   0.9290
B(  2-C , 14-H ) :   0.9430 B(  3-C ,  4-O ) :   0.9878 B(  3-C ,  5-C ) :   0.8996
B(  3-C , 15-H ) :   0.9671 B(  4-O , 16-H ) :   0.8288 B(  5-C ,  6-C ) :   0.8864
B(  5-C , 17-H ) :   0.9171 B(  6-C ,  7-C ) :   1.0876 B(  6-C , 18-H ) :   0.9263
B(  6-C , 19-H ) :   0.9255 B(  7-C ,  8-C ) :   2.5897 B(  8-C , 20-H ) :   0.9093

MP2 TOTAL ENERGY:     -386.362822236 Eh
FINAL SINGLE POINT ENERGY      -386.362822236084

DIPOLE MOMENT
-------------
                                X             Y             Z
Electronic contribution:      5.88492      -2.36702       4.26291
Nuclear contribution   :     -6.21911       2.13720      -3.96532
                        -----------------------------------------
Total Dipole Moment    :     -0.33419      -0.22982       0.29759
                        -----------------------------------------
Magnitude (a.u.)       :      0.50305
Magnitude (Debye)      :      1.27865

                             ****ORCA TERMINATED NORMALLY****
TOTAL RUN TIME: 0 days 0 hours 17 minutes 33 seconds 954 msec
