                         Program Version 3.0.3 - RELEASE   -
|  1> ! RI-MP2 RIJK def2-TZVP def2-TZVP/C def2-TZVP/JK TIGHTSCF
|  2> % maxcore 2000
|  3> % mp2 density relaxed end
|  4> *xyz 0 1
|  5>  C       -0.1290924706     1.5062182898    -0.0970748315
|  6>  C       -0.0568944347     0.0522946901    -0.0537743445
|  7>  C        0.0064136449    -1.1497390403    -0.0084636017
|  8>  C        0.0697259538    -2.6115304186     0.0178205410
|  9>  C       -1.3248017388    -3.2148225969     0.2819935999
| 10>  C        0.7104568274    -3.1386216290    -1.2898932370
| 11>  C        0.9820413375    -4.6530981886    -1.2869416655
| 12>  C        1.8119015959    -5.0650283049    -2.4820215157
| 13>  O        1.4955378887    -5.8978421983    -3.2912292588
| 14>  H        0.4826437619     1.9595122812     0.6908638886
| 15>  H        0.2284001580     1.8945866729    -1.0572176037
| 16>  H       -1.1575685037     1.8585600850     0.0391290684
| 17>  H        0.7278799878    -2.9103495045     0.8474287039
| 18>  H       -1.7519907014    -2.8023206359     1.1993711776
| 19>  H       -2.0063636757    -2.9817429432    -0.5421276278
| 20>  H       -1.2715781979    -4.3017550677     0.3900242458
| 21>  H        0.0598438455    -2.8805474811    -2.1336966690
| 22>  H        1.6531333327    -2.6023297589    -1.4498935641
| 23>  H        1.5569709559    -4.9125202111    -0.3848413724
| 24>  H        0.0629440460    -5.2437611482    -1.2878255043
| 25>  H        2.7801857468    -4.5170874920    -2.5738666693
| 26> *
| 27>
| 28>                          ****END OF INPUT****

CARTESIAN COORDINATES (ANGSTROEM)
---------------------------------
  C     -0.129092    1.506218   -0.097075
  C     -0.056894    0.052295   -0.053774
  C      0.006414   -1.149739   -0.008464
  C      0.069726   -2.611530    0.017821
  C     -1.324802   -3.214823    0.281994
  C      0.710457   -3.138622   -1.289893
  C      0.982041   -4.653098   -1.286942
  C      1.811902   -5.065028   -2.482022
  O      1.495538   -5.897842   -3.291229
  H      0.482644    1.959512    0.690864
  H      0.228400    1.894587   -1.057218
  H     -1.157569    1.858560    0.039129
  H      0.727880   -2.910350    0.847429
  H     -1.751991   -2.802321    1.199371
  H     -2.006364   -2.981743   -0.542128
  H     -1.271578   -4.301755    0.390024
  H      0.059844   -2.880547   -2.133697
  H      1.653133   -2.602330   -1.449894
  H      1.556971   -4.912520   -0.384841
  H      0.062944   -5.243761   -1.287826
  H      2.780186   -4.517087   -2.573867

 Total Charge           Charge          ....    0
 Multiplicity           Mult            ....    1
 Number of Electrons    NEL             ....   68
 Basis Dimension        Dim             ....  351

ORBITAL ENERGIES
----------------

  NO   OCC          E(Eh)            E(eV)
   0   2.0000     -20.557240      -559.3910
   1   2.0000     -11.332157      -308.3637
   2   2.0000     -11.263326      -306.4907
   3   2.0000     -11.248195      -306.0789
   4   2.0000     -11.244952      -305.9907
   5   2.0000     -11.243842      -305.9605
   6   2.0000     -11.226638      -305.4923
   7   2.0000     -11.224831      -305.4432
   8   2.0000     -11.218007      -305.2575
   9   2.0000      -1.396071       -37.9890
  10   2.0000      -1.118926       -30.4475
  11   2.0000      -1.056856       -28.7585
  12   2.0000      -1.024784       -27.8858
  13   2.0000      -0.949784       -25.8449
  14   2.0000      -0.915073       -24.9004
  15   2.0000      -0.828947       -22.5568
  16   2.0000      -0.792607       -21.5679
  17   2.0000      -0.690665       -18.7939
  18   2.0000      -0.665085       -18.0979
  19   2.0000      -0.640938       -17.4408
  20   2.0000      -0.628889       -17.1129
  21   2.0000      -0.613520       -16.6947
  22   2.0000      -0.593814       -16.1585
  23   2.0000      -0.588178       -16.0051
  24   2.0000      -0.584992       -15.9184
  25   2.0000      -0.563176       -15.3248
  26   2.0000      -0.550287       -14.9741
  27   2.0000      -0.518580       -14.1113
  28   2.0000      -0.503085       -13.6896
  29   2.0000      -0.493767       -13.4361
  30   2.0000      -0.490260       -13.3406
  31   2.0000      -0.421568       -11.4714
  32   2.0000      -0.369698       -10.0600
  33   2.0000      -0.369032       -10.0419
  34   0.0000       0.122895         3.3441
  35   0.0000       0.134387         3.6569
  36   0.0000       0.142154         3.8682
  37   0.0000       0.155338         4.2270
  38   0.0000       0.164941         4.4883

MULLIKEN ATOMIC CHARGES
-----------------------
   0 C :   -0.485834
   1 C :    0.088182
   2 C :   -0.038628
   3 C :   -0.170997
   4 C :   -0.398505
   5 C :   -0.260239
   6 C :   -0.152527
   7 C :    0.092041
   8 O :   -0.262559
   9 H :    0.162218
  10 H :    0.162035
  11 H :    0.162312
  12 H :    0.108439
  13 H :    0.143588
  14 H :    0.130674
  15 H :    0.136693
  16 H :    0.133105
  17 H :    0.130039
  18 H :    0.123591
  19 H :    0.124962
  20 H :    0.071410
Sum of atomic charges:    0.0000000

LOEWDIN ATOMIC CHARGES
----------------------
   0 C :   -0.296021
   1 C :   -0.102980
   2 C :   -0.068330
   3 C :   -0.270069
   4 C :   -0.273116
   5 C :   -0.226873
   6 C :   -0.261760
   7 C :   -0.297081
   8 O :    0.131646
   9 H :    0.140563
  10 H :    0.140455
  11 H :    0.140552
  12 H :    0.166624
  13 H :    0.128619
  14 H :    0.128134
  15 H :    0.121926
  16 H :    0.146300
  17 H :    0.145860
  18 H :    0.151850
  19 H :    0.144391
  20 H :    0.109309

  Mayer bond orders larger than 0.1
B(  0-C ,  1-C ) :   0.8310 B(  0-C ,  9-H ) :   0.9505 B(  0-C , 10-H ) :   0.9486
B(  0-C , 11-H ) :   0.9487 B(  1-C ,  2-C ) :   2.6625 B(  1-C ,  3-C ) :  -0.1240
B(  2-C ,  3-C ) :   1.1141 B(  3-C ,  4-C ) :   0.9160 B(  3-C ,  5-C ) :   0.9464
B(  3-C , 12-H ) :   0.9170 B(  4-C , 13-H ) :   0.9373 B(  4-C , 14-H ) :   0.9287
B(  4-C , 15-H ) :   0.9387 B(  5-C ,  6-C ) :   0.8917 B(  5-C , 16-H ) :   0.9138
B(  5-C , 17-H ) :   0.9350 B(  6-C ,  7-C ) :   0.8735 B(  6-C , 18-H ) :   0.9132
B(  6-C , 19-H ) :   0.9052 B(  7-C ,  8-O ) :   2.0132 B(  7-C , 20-H ) :   0.9436

MP2 TOTAL ENERGY:     -386.391453045 Eh
FINAL SINGLE POINT ENERGY      -386.391453044986

DIPOLE MOMENT
-------------
                                X             Y             Z
Electronic contribution:      3.28961      -4.31954      -3.99189
Nuclear contribution   :     -3.25130       5.17071       4.79144
                        -----------------------------------------
Total Dipole Moment    :      0.03831       0.85117       0.79955
                        -----------------------------------------
Magnitude (a.u.)       :      1.16843
Magnitude (Debye)      :      2.96991

                             ****ORCA TERMINATED NORMALLY****
TOTAL RUN TIME: 0 days 0 hours 15 minutes 59 seconds 433 msec
