                         Program Version 3.0.3 - RELEASE   -
|  1> ! RI-MP2 RIJK def2-TZVP def2-TZVP/C def2-TZVP/JK TIGHTSCF
|  2> % maxcore 2000
|  3> % mp2 density relaxed end
|  4> *xyz 0 1
|  5>  C       -0.0487619939     1.5345038358     0.1453015417
|  6>  C       -0.0081751253     0.0104611379     0.0125649842
|  7>  C        0.7140689884    -0.4610259537    -1.2560020762
|  8>  O        2.0506575671     0.0244662721    -1.3321601079
|  9>  C        0.6912501122    -1.9894237082    -1.3877008823
| 10>  C        1.5054062331    -2.6432855356    -2.5199690857
| 11>  O        2.3438078324    -3.3319049026    -1.5295157232
| 12>  C        1.6907340664    -2.7323718557    -0.4908531143
| 13>  O        1.9471343724    -2.7986615825     0.6710239851
| 14>  H        0.9599663339     1.9552070614     0.1271822977
| 15>  H       -0.6097301680     1.9876647584    -0.6795992093
| 16>  H       -0.5290352267     1.8333363170     1.0812838640
| 17>  H        0.4892650896    -0.4402598557     0.8815334428
| 18>  H       -1.0282279789    -0.3937309260     0.0039599334
| 19>  H        0.2159167322    -0.0329218812    -2.1357270595
| 20>  H        2.4907823528    -0.1888340800    -0.4998690455
| 21>  H       -0.3262547393    -2.3768755811    -1.2890380414
| 22>  H        0.9858584745    -3.3642401608    -3.1527108359
| 23>  H        2.1113003071    -1.9534959395    -3.1083600177
| 24> *
| 25>
| 26>                          ****END OF INPUT****

CARTESIAN COORDINATES (ANGSTROEM)
---------------------------------
  C     -0.048762    1.534504    0.145302
  C     -0.008175    0.010461    0.012565
  C      0.714069   -0.461026   -1.256002
  O      2.050658    0.024466   -1.332160
  C      0.691250   -1.989424   -1.387701
  C      1.505406   -2.643286   -2.519969
  O      2.343808   -3.331905   -1.529516
  C      1.690734   -2.732372   -0.490853
  O      1.947134   -2.798662    0.671024
  H      0.959966    1.955207    0.127182
  H     -0.609730    1.987665   -0.679599
  H     -0.529035    1.833336    1.081284
  H      0.489265   -0.440260    0.881533
  H     -1.028228   -0.393731    0.003960
  H      0.215917   -0.032922   -2.135727
  H      2.490782   -0.188834   -0.499869
  H     -0.326255   -2.376876   -1.289038
  H      0.985858   -3.364240   -3.152711
  H      2.111300   -1.953496   -3.108360

 Total Charge           Charge          ....    0
 Multiplicity           Mult            ....    1
 Number of Electrons    NEL             ....   70
 Basis Dimension        Dim             ....  339

ORBITAL ENERGIES
----------------

  NO   OCC          E(Eh)            E(eV)
   0   2.0000     -20.605229      -560.6968
   1   2.0000     -20.572289      -559.8004
   2   2.0000     -20.558329      -559.4206
   3   2.0000     -11.388166      -309.8878
   4   2.0000     -11.308903      -307.7309
   5   2.0000     -11.306191      -307.6571
   6   2.0000     -11.268841      -306.6407
   7   2.0000     -11.236717      -305.7666
   8   2.0000     -11.222288      -305.3740
   9   2.0000      -1.468986       -39.9731
  10   2.0000      -1.384005       -37.6607
  11   2.0000      -1.380122       -37.5550
  12   2.0000      -1.093729       -29.7619
  13   2.0000      -1.040075       -28.3019
  14   2.0000      -0.938289       -25.5321
  15   2.0000      -0.902564       -24.5600
  16   2.0000      -0.831625       -22.6297
  17   2.0000      -0.751983       -20.4625
  18   2.0000      -0.717413       -19.5218
  19   2.0000      -0.702757       -19.1230
  20   2.0000      -0.688049       -18.7228
  21   2.0000      -0.663094       -18.0437
  22   2.0000      -0.647762       -17.6265
  23   2.0000      -0.612253       -16.6603
  24   2.0000      -0.581235       -15.8162
  25   2.0000      -0.573561       -15.6074
  26   2.0000      -0.561852       -15.2888
  27   2.0000      -0.548740       -14.9320
  28   2.0000      -0.543899       -14.8003
  29   2.0000      -0.510665       -13.8959
  30   2.0000      -0.496876       -13.5207
  31   2.0000      -0.492557       -13.4031
  32   2.0000      -0.466209       -12.6862
  33   2.0000      -0.452845       -12.3225
  34   2.0000      -0.439818       -11.9681
  35   0.0000       0.121425         3.3042
  36   0.0000       0.146005         3.9730
  37   0.0000       0.154787         4.2120
  38   0.0000       0.161906         4.4057
  39   0.0000       0.175563         4.7773

MULLIKEN ATOMIC CHARGES
-----------------------
   0 C :   -0.367699
   1 C :   -0.255743
   2 C :    0.035422
   3 O :   -0.474377
   4 C :   -0.091816
   5 C :   -0.021016
   6 O :   -0.224934
   7 C :    0.197789
   8 O :   -0.273852
   9 H :    0.133656
  10 H :    0.120302
  11 H :    0.138099
  12 H :    0.147665
  13 H :    0.108479
  14 H :    0.104877
  15 H :    0.325158
  16 H :    0.138722
  17 H :    0.122779
  18 H :    0.136489
Sum of atomic charges:    0.0000000

LOEWDIN ATOMIC CHARGES
----------------------
   0 C :   -0.315573
   1 C :   -0.279219
   2 C :   -0.328268
   3 O :   -0.004955
   4 C :   -0.199169
   5 C :   -0.207369
   6 O :    0.240420
   7 C :   -0.458868
   8 O :    0.145418
   9 H :    0.123823
  10 H :    0.121906
  11 H :    0.122817
  12 H :    0.145779
  13 H :    0.141903
  14 H :    0.150308
  15 H :    0.182115
  16 H :    0.164763
  17 H :    0.122583
  18 H :    0.131586

  Mayer bond orders larger than 0.1
B(  0-C ,  1-C ) :   0.9239 B(  0-C ,  9-H ) :   0.9347 B(  0-C , 10-H ) :   0.9359
B(  0-C , 11-H ) :   0.9413 B(  1-C ,  2-C ) :   0.9496 B(  1-C , 12-H ) :   0.9189
B(  1-C , 13-H ) :   0.9255 B(  2-C ,  3-O ) :   0.9012 B(  2-C ,  4-C ) :   0.8968
B(  2-C , 14-H ) :   0.9219 B(  3-O , 15-H ) :   0.8358 B(  4-C ,  5-C ) :   0.9407
B(  4-C ,  7-C ) :   0.8862 B(  4-C , 16-H ) :   0.8922 B(  5-C ,  6-O ) :   0.8789
B(  5-C , 17-H ) :   0.9202 B(  5-C , 18-H ) :   0.9093 B(  6-O ,  7-C ) :   1.1200
B(  7-C ,  8-O ) :   2.0010

MP2 TOTAL ENERGY:     -459.458577753 Eh
FINAL SINGLE POINT ENERGY      -459.458577752649

DIPOLE MOMENT
-------------
                                X             Y             Z
Electronic contribution:      6.00461      -9.45686      -0.40050
Nuclear contribution   :     -7.09023       9.87651      -0.30078
                        -----------------------------------------
Total Dipole Moment    :     -1.08562       0.41965      -0.70129
                        -----------------------------------------
Magnitude (a.u.)       :      1.35885
Magnitude (Debye)      :      3.45392

                             ****ORCA TERMINATED NORMALLY****
TOTAL RUN TIME: 0 days 0 hours 17 minutes 25 seconds 906 msec
