                         Program Version 3.0.3 - RELEASE   -
|  1> ! RI-MP2 RIJK def2-TZVP def2-TZVP/C def2-TZVP/JK TIGHTSCF
|  2> % maxcore 2000
|  3> % mp2 density relaxed end
|  4> *xyz 0 1
|  5>  C        0.0317369588     1.5160926517     0.0574588547
|  6>  C       -0.0562636847    -0.0131173557    -0.0267117520
|  7>  C       -1.4737354392    -0.5281079071    -0.0365831030
|  8>  C       -2.6006771069    -0.2416745460    -1.0662248255
|  9>  C       -2.4330903377    -0.6947072692    -2.5097965341
| 10>  C       -3.2485487332    -1.1916155270    -0.0385989282
| 11>  C       -1.9359040504    -2.0245801139     0.1646618013
| 12>  C       -1.9974465022    -1.8784890521     1.6976982713
| 13>  C       -2.4988522956    -0.5244684730     1.1625300774
| 14>  H        1.0730064513     1.8525895166     0.0547369752
| 15>  H       -0.4739393569     1.9899980002    -0.7903994214
| 16>  H       -0.4388842038     1.8887162268     0.9733187951
| 17>  H        0.4562237937    -0.3606925453    -0.9339397392
| 18>  H        0.4851876733    -0.4607858625     0.8171524802
| 19>  H       -2.9892413012     0.7850842333    -1.0255451244
| 20>  H       -2.0445170417    -1.7167798214    -2.5715393657
| 21>  H       -3.3900147092    -0.6712963173    -3.0433816597
| 22>  H       -1.7404762319    -0.0422496316    -3.0536549090
| 23>  H       -4.2657419998    -1.5882039429    -0.0118023101
| 24>  H       -1.6141742956    -2.8857667667    -0.4231743872
| 25>  H       -2.7311642814    -2.5017095574     2.2196333350
| 26>  H       -1.0453133319    -1.8809732183     2.2383215169
| 27>  H       -2.8370478039     0.3561360389     1.7127482924
| 28> *
| 29>
| 30>                          ****END OF INPUT****

CARTESIAN COORDINATES (ANGSTROEM)
---------------------------------
  C      0.031737    1.516093    0.057459
  C     -0.056264   -0.013117   -0.026712
  C     -1.473735   -0.528108   -0.036583
  C     -2.600677   -0.241675   -1.066225
  C     -2.433090   -0.694707   -2.509797
  C     -3.248549   -1.191616   -0.038599
  C     -1.935904   -2.024580    0.164662
  C     -1.997447   -1.878489    1.697698
  C     -2.498852   -0.524468    1.162530
  H      1.073006    1.852590    0.054737
  H     -0.473939    1.989998   -0.790399
  H     -0.438884    1.888716    0.973319
  H      0.456224   -0.360693   -0.933940
  H      0.485188   -0.460786    0.817152
  H     -2.989241    0.785084   -1.025545
  H     -2.044517   -1.716780   -2.571539
  H     -3.390015   -0.671296   -3.043382
  H     -1.740476   -0.042250   -3.053655
  H     -4.265742   -1.588204   -0.011802
  H     -1.614174   -2.885767   -0.423174
  H     -2.731164   -2.501710    2.219633
  H     -1.045313   -1.880973    2.238322
  H     -2.837048    0.356136    1.712748

 Total Charge           Charge          ....    0
 Multiplicity           Mult            ....    1
 Number of Electrons    NEL             ....   68
 Basis Dimension        Dim             ....  363

ORBITAL ENERGIES
----------------

  NO   OCC          E(Eh)            E(eV)
   0   2.0000     -11.236584      -305.7630
   1   2.0000     -11.232211      -305.6440
   2   2.0000     -11.232043      -305.6394
   3   2.0000     -11.230985      -305.6106
   4   2.0000     -11.221658      -305.3568
   5   2.0000     -11.218302      -305.2655
   6   2.0000     -11.217365      -305.2400
   7   2.0000     -11.211834      -305.0895
   8   2.0000     -11.208482      -304.9983
   9   2.0000      -1.235414       -33.6173
  10   2.0000      -1.038079       -28.2476
  11   2.0000      -1.022490       -27.8234
  12   2.0000      -0.927251       -25.2318
  13   2.0000      -0.885497       -24.0956
  14   2.0000      -0.854050       -23.2399
  15   2.0000      -0.793820       -21.6009
  16   2.0000      -0.787932       -21.4407
  17   2.0000      -0.674966       -18.3668
  18   2.0000      -0.648857       -17.6563
  19   2.0000      -0.628527       -17.1031
  20   2.0000      -0.620621       -16.8880
  21   2.0000      -0.581857       -15.8331
  22   2.0000      -0.570083       -15.5127
  23   2.0000      -0.556939       -15.1551
  24   2.0000      -0.535984       -14.5849
  25   2.0000      -0.518294       -14.1035
  26   2.0000      -0.511694       -13.9239
  27   2.0000      -0.491413       -13.3720
  28   2.0000      -0.446375       -12.1465
  29   2.0000      -0.426221       -11.5981
  30   2.0000      -0.418992       -11.4014
  31   2.0000      -0.409372       -11.1396
  32   2.0000      -0.405116       -11.0238
  33   2.0000      -0.399059       -10.8590
  34   0.0000       0.135450         3.6858
  35   0.0000       0.153006         4.1635
  36   0.0000       0.159582         4.3425
  37   0.0000       0.168462         4.5841
  38   0.0000       0.189192         5.1482

MULLIKEN ATOMIC CHARGES
-----------------------
   0 C :   -0.407183
   1 C :   -0.210711
   2 C :   -0.001289
   3 C :   -0.027155
   4 C :   -0.429019
   5 C :   -0.150223
   6 C :   -0.125747
   7 C :   -0.218444
   8 C :   -0.113541
   9 H :    0.134549
  10 H :    0.128050
  11 H :    0.127549
  12 H :    0.115198
  13 H :    0.114328
  14 H :    0.092634
  15 H :    0.128758
  16 H :    0.132864
  17 H :    0.128249
  18 H :    0.119978
  19 H :    0.122392
  20 H :    0.109238
  21 H :    0.108625
  22 H :    0.120900
Sum of atomic charges:    0.0000000

LOEWDIN ATOMIC CHARGES
----------------------
   0 C :   -0.311117
   1 C :   -0.257575
   2 C :   -0.152541
   3 C :   -0.197879
   4 C :   -0.295951
   5 C :   -0.122231
   6 C :   -0.125217
   7 C :   -0.206913
   8 C :   -0.124242
   9 H :    0.120447
  10 H :    0.121519
  11 H :    0.121671
  12 H :    0.142509
  13 H :    0.143281
  14 H :    0.142924
  15 H :    0.125616
  16 H :    0.124591
  17 H :    0.123273
  18 H :    0.126141
  19 H :    0.124794
  20 H :    0.126562
  21 H :    0.124278
  22 H :    0.126058

  Mayer bond orders larger than 0.1
B(  0-C ,  1-C ) :   0.9217 B(  0-C ,  9-H ) :   0.9404 B(  0-C , 10-H ) :   0.9387
B(  0-C , 11-H ) :   0.9389 B(  1-C ,  2-C ) :   0.8778 B(  1-C , 12-H ) :   0.9329
B(  1-C , 13-H ) :   0.9301 B(  2-C ,  3-C ) :   0.8703 B(  2-C ,  6-C ) :   0.8318
B(  2-C ,  8-C ) :   0.8552 B(  3-C ,  4-C ) :   0.8962 B(  3-C ,  5-C ) :   0.9053
B(  3-C , 14-H ) :   0.9251 B(  4-C , 15-H ) :   0.9387 B(  4-C , 16-H ) :   0.9385
B(  4-C , 17-H ) :   0.9378 B(  5-C ,  6-C ) :   0.8697 B(  5-C ,  8-C ) :   0.8709
B(  5-C , 18-H ) :   0.8998 B(  6-C ,  7-C ) :   0.9298 B(  6-C , 19-H ) :   0.9009
B(  7-C ,  8-C ) :   0.9302 B(  7-C , 20-H ) :   0.9230 B(  7-C , 21-H ) :   0.9242
B(  8-C , 22-H ) :   0.8962

MP2 TOTAL ENERGY:     -350.444314107 Eh
FINAL SINGLE POINT ENERGY      -350.444314107486

DIPOLE MOMENT
-------------
                                X             Y             Z
Electronic contribution:     -2.95658      -2.80776       2.37286
Nuclear contribution   :      3.04037       2.85890      -2.41575
                        -----------------------------------------
Total Dipole Moment    :      0.08379       0.05114      -0.04289
                        -----------------------------------------
Magnitude (a.u.)       :      0.10712
Magnitude (Debye)      :      0.27228

                             ****ORCA TERMINATED NORMALLY****
TOTAL RUN TIME: 0 days 0 hours 20 minutes 49 seconds 989 msec
