                         Program Version 3.0.3 - RELEASE   -
|  1> ! RI-MP2 RIJK def2-TZVP def2-TZVP/C def2-TZVP/JK TIGHTSCF
|  2> % maxcore 2000
|  3> % mp2 density relaxed end
|  4> *xyz 0 1
|  5>  C        0.8591286122     0.5781993049    -0.6024476267
|  6>  O        0.3018797167    -0.6687636626    -0.2541374452
|  7>  C       -1.0920771000    -0.6616420396     0.0625360985
|  8>  C       -1.9609473689    -0.4143092234    -1.1722563257
|  9>  C       -1.3816355184    -2.0408373243     0.6819920449
| 10>  O       -0.8580244267    -3.0721769729    -0.1400123727
| 11>  C       -0.9298756346    -2.2184866585     2.1530629296
| 12>  C        0.5768900417    -2.1862490251     2.3919297411
| 13>  O       -1.6241628785    -1.2879556739     2.9849577144
| 14>  H        1.9391778307     0.4344924842    -0.6876042903
| 15>  H        0.4812398653     0.9564831615    -1.5616974933
| 16>  H        0.6629258155     1.3371804635     0.1704450781
| 17>  H       -1.2908952968     0.1185785544     0.8140034709
| 18>  H       -1.8270071146    -1.2285487091    -1.8896294660
| 19>  H       -3.0157431481    -0.3756593225    -0.8840796103
| 20>  H       -1.7177722244     0.5327975504    -1.6612447137
| 21>  H       -2.4703161418    -2.1681841303     0.6909509179
| 22>  H        0.0015257692    -2.7543466662    -0.4443601668
| 23>  H       -1.3014931250    -3.2060890885     2.4515888995
| 24>  H        1.0014150909    -1.2053067720     2.1558898541
| 25>  H        0.7912136735    -2.4219449147     3.4385787832
| 26>  H        1.0813543582    -2.9248284517     1.7632849052
| 27>  H       -1.0830916560    -0.4955261536     3.0561568434
| 28> *
| 29>
| 30>                          ****END OF INPUT****

CARTESIAN COORDINATES (ANGSTROEM)
---------------------------------
  C      0.859129    0.578199   -0.602448
  O      0.301880   -0.668764   -0.254137
  C     -1.092077   -0.661642    0.062536
  C     -1.960947   -0.414309   -1.172256
  C     -1.381636   -2.040837    0.681992
  O     -0.858024   -3.072177   -0.140012
  C     -0.929876   -2.218487    2.153063
  C      0.576890   -2.186249    2.391930
  O     -1.624163   -1.287956    2.984958
  H      1.939178    0.434492   -0.687604
  H      0.481240    0.956483   -1.561697
  H      0.662926    1.337180    0.170445
  H     -1.290895    0.118579    0.814003
  H     -1.827007   -1.228549   -1.889629
  H     -3.015743   -0.375659   -0.884080
  H     -1.717772    0.532798   -1.661245
  H     -2.470316   -2.168184    0.690951
  H      0.001526   -2.754347   -0.444360
  H     -1.301493   -3.206089    2.451589
  H      1.001415   -1.205307    2.155890
  H      0.791214   -2.421945    3.438579
  H      1.081354   -2.924828    1.763285
  H     -1.083092   -0.495526    3.056157

 Total Charge           Charge          ....    0
 Multiplicity           Mult            ....    1
 Number of Electrons    NEL             ....   74
 Basis Dimension        Dim             ....  363

ORBITAL ENERGIES
----------------

  NO   OCC          E(Eh)            E(eV)
   0   2.0000     -20.567478      -559.6695
   1   2.0000     -20.554484      -559.3160
   2   2.0000     -20.547616      -559.1291
   3   2.0000     -11.288057      -307.1636
   4   2.0000     -11.282956      -307.0248
   5   2.0000     -11.275322      -306.8171
   6   2.0000     -11.273874      -306.7777
   7   2.0000     -11.219484      -305.2977
   8   2.0000     -11.214539      -305.1631
   9   2.0000      -1.393547       -37.9203
  10   2.0000      -1.361548       -37.0496
  11   2.0000      -1.348353       -36.6906
  12   2.0000      -1.056125       -28.7386
  13   2.0000      -1.013929       -27.5904
  14   2.0000      -0.943293       -25.6683
  15   2.0000      -0.925027       -25.1713
  16   2.0000      -0.837434       -22.7877
  17   2.0000      -0.782025       -21.2800
  18   2.0000      -0.700099       -19.0506
  19   2.0000      -0.688264       -18.7286
  20   2.0000      -0.678058       -18.4509
  21   2.0000      -0.643380       -17.5073
  22   2.0000      -0.632663       -17.2156
  23   2.0000      -0.623142       -16.9565
  24   2.0000      -0.594446       -16.1757
  25   2.0000      -0.579181       -15.7603
  26   2.0000      -0.565935       -15.3999
  27   2.0000      -0.549416       -14.9504
  28   2.0000      -0.535352       -14.5677
  29   2.0000      -0.528489       -14.3809
  30   2.0000      -0.525022       -14.2866
  31   2.0000      -0.492738       -13.4081
  32   2.0000      -0.491181       -13.3657
  33   2.0000      -0.488895       -13.3035
  34   2.0000      -0.453420       -12.3382
  35   2.0000      -0.436568       -11.8796
  36   2.0000      -0.405195       -11.0259
  37   0.0000       0.121857         3.3159
  38   0.0000       0.153725         4.1831
  39   0.0000       0.159958         4.3527
  40   0.0000       0.164597         4.4789
  41   0.0000       0.186543         5.0761

MULLIKEN ATOMIC CHARGES
-----------------------
   0 C :   -0.230516
   1 O :   -0.343469
   2 C :   -0.024062
   3 C :   -0.407910
   4 C :    0.198039
   5 O :   -0.489500
   6 C :    0.111687
   7 C :   -0.448888
   8 O :   -0.480401
   9 H :    0.144209
  10 H :    0.124951
  11 H :    0.113224
  12 H :    0.073218
  13 H :    0.145975
  14 H :    0.137205
  15 H :    0.129729
  16 H :    0.096074
  17 H :    0.332398
  18 H :    0.101910
  19 H :    0.122027
  20 H :    0.145137
  21 H :    0.134121
  22 H :    0.314841
Sum of atomic charges:   -0.0000000

LOEWDIN ATOMIC CHARGES
----------------------
   0 C :   -0.359510
   1 O :    0.141841
   2 C :   -0.336937
   3 C :   -0.294707
   4 C :   -0.318332
   5 O :   -0.010009
   6 C :   -0.352759
   7 C :   -0.310601
   8 O :   -0.023249
   9 H :    0.115190
  10 H :    0.104387
  11 H :    0.103256
  12 H :    0.136161
  13 H :    0.131654
  14 H :    0.129999
  15 H :    0.120281
  16 H :    0.153717
  17 H :    0.176860
  18 H :    0.148315
  19 H :    0.120682
  20 H :    0.125092
  21 H :    0.129508
  22 H :    0.169160

  Mayer bond orders larger than 0.1
B(  0-C ,  1-O ) :   0.9119 B(  0-C ,  9-H ) :   0.9399 B(  0-C , 10-H ) :   0.9345
B(  0-C , 11-H ) :   0.9369 B(  1-O ,  2-C ) :   0.8881 B(  2-C ,  3-C ) :   0.9195
B(  2-C ,  4-C ) :   0.8957 B(  2-C , 12-H ) :   0.9340 B(  3-C , 13-H ) :   0.9320
B(  3-C , 14-H ) :   0.9328 B(  3-C , 15-H ) :   0.9397 B(  4-C ,  5-O ) :   0.9383
B(  4-C ,  6-C ) :   0.8779 B(  4-C , 16-H ) :   0.9270 B(  5-O , 17-H ) :   0.8205
B(  6-C ,  7-C ) :   0.9412 B(  6-C ,  8-O ) :   0.9226 B(  6-C , 18-H ) :   0.9302
B(  7-C , 19-H ) :   0.9175 B(  7-C , 20-H ) :   0.9372 B(  7-C , 21-H ) :   0.9369
B(  8-O , 22-H ) :   0.8442

MP2 TOTAL ENERGY:     -461.826202729 Eh
FINAL SINGLE POINT ENERGY      -461.826202729458

DIPOLE MOMENT
-------------
                                X             Y             Z
Electronic contribution:     -1.71589      -3.66561       1.68905
Nuclear contribution   :      2.36633       4.77391      -1.95938
                        -----------------------------------------
Total Dipole Moment    :      0.65043       1.10830      -0.27033
                        -----------------------------------------
Magnitude (a.u.)       :      1.31319
Magnitude (Debye)      :      3.33786

                             ****ORCA TERMINATED NORMALLY****
TOTAL RUN TIME: 0 days 0 hours 19 minutes 18 seconds 695 msec
