                         Program Version 3.0.3 - RELEASE   -
|  1> ! RI-MP2 RIJK def2-TZVP def2-TZVP/C def2-TZVP/JK TIGHTSCF
|  2> % maxcore 2000
|  3> % mp2 density relaxed end
|  4> *xyz 0 1
|  5>  C       -0.1282382344     1.5348788825     0.0445660610
|  6>  C       -0.0420768882     0.0319866420     0.0451893630
|  7>  C        0.5130123041    -0.8283493021    -1.1501713735
|  8>  C       -0.3334183541    -1.9164377602    -0.4077320515
|  9>  C        0.4278188752    -1.9971362427     0.9255202392
| 10>  C        0.6189890118    -0.7118253976     1.2276359429
| 11>  N       -1.3000300384    -0.8145584550    -0.0814257446
| 12>  C       -2.4487249461    -0.5456908509    -0.7556850776
| 13>  O       -3.1138417301    -1.3636127938    -1.3611190658
| 14>  H        0.8778850888     1.9606760212     0.1130696265
| 15>  H       -0.5925320516     1.9131758972    -0.8704185524
| 16>  H       -0.7063711021     1.8972145888     0.9005210971
| 17>  H        0.0841175786    -0.5403814132    -2.1148226595
| 18>  H        1.5937416674    -0.9755603834    -1.2084141278
| 19>  H       -0.7328285842    -2.8040911215    -0.8886003772
| 20>  H        0.7064015612    -2.8956784133     1.4554279186
| 21>  H        1.0976925483    -0.2470964082     2.0776229213
| 22>  H       -2.7598582264     0.5118208602    -0.6316219997
| 23> *
| 24>
| 25>                          ****END OF INPUT****

CARTESIAN COORDINATES (ANGSTROEM)
---------------------------------
  C     -0.128238    1.534879    0.044566
  C     -0.042077    0.031987    0.045189
  C      0.513012   -0.828349   -1.150171
  C     -0.333418   -1.916438   -0.407732
  C      0.427819   -1.997136    0.925520
  C      0.618989   -0.711825    1.227636
  N     -1.300030   -0.814558   -0.081426
  C     -2.448725   -0.545691   -0.755685
  O     -3.113842   -1.363613   -1.361119
  H      0.877885    1.960676    0.113070
  H     -0.592532    1.913176   -0.870419
  H     -0.706371    1.897215    0.900521
  H      0.084118   -0.540381   -2.114823
  H      1.593742   -0.975560   -1.208414
  H     -0.732829   -2.804091   -0.888600
  H      0.706402   -2.895678    1.455428
  H      1.097693   -0.247096    2.077623
  H     -2.759858    0.511821   -0.631622

 Total Charge           Charge          ....    0
 Multiplicity           Mult            ....    1
 Number of Electrons    NEL             ....   66
 Basis Dimension        Dim             ....  333

ORBITAL ENERGIES
----------------

  NO   OCC          E(Eh)            E(eV)
   0   2.0000     -20.516028      -558.2695
   1   2.0000     -15.578741      -423.9191
   2   2.0000     -11.340277      -308.5846
   3   2.0000     -11.304426      -307.6091
   4   2.0000     -11.287574      -307.1505
   5   2.0000     -11.248151      -306.0777
   6   2.0000     -11.244196      -305.9701
   7   2.0000     -11.242094      -305.9129
   8   2.0000     -11.241708      -305.9024
   9   2.0000      -1.375247       -37.4224
  10   2.0000      -1.292372       -35.1672
  11   2.0000      -1.099285       -29.9131
  12   2.0000      -1.032246       -28.0889
  13   2.0000      -0.982564       -26.7369
  14   2.0000      -0.895865       -24.3777
  15   2.0000      -0.855618       -23.2825
  16   2.0000      -0.754842       -20.5403
  17   2.0000      -0.736344       -20.0369
  18   2.0000      -0.690784       -18.7972
  19   2.0000      -0.672881       -18.3100
  20   2.0000      -0.642744       -17.4899
  21   2.0000      -0.616230       -16.7685
  22   2.0000      -0.595111       -16.1938
  23   2.0000      -0.588015       -16.0007
  24   2.0000      -0.574952       -15.6452
  25   2.0000      -0.530200       -14.4275
  26   2.0000      -0.516731       -14.0610
  27   2.0000      -0.509228       -13.8568
  28   2.0000      -0.505321       -13.7505
  29   2.0000      -0.457571       -12.4511
  30   2.0000      -0.426656       -11.6099
  31   2.0000      -0.373743       -10.1701
  32   2.0000      -0.360923        -9.8212
  33   0.0000       0.121924         3.3177
  34   0.0000       0.129447         3.5224
  35   0.0000       0.158773         4.3204
  36   0.0000       0.165103         4.4927
  37   0.0000       0.175384         4.7724

MULLIKEN ATOMIC CHARGES
-----------------------
   0 C :   -0.429782
   1 C :    0.133284
   2 C :   -0.187816
   3 C :    0.003332
   4 C :   -0.208673
   5 C :   -0.200396
   6 N :   -0.095934
   7 C :    0.104119
   8 O :   -0.357329
   9 H :    0.147595
  10 H :    0.151430
  11 H :    0.154999
  12 H :    0.129922
  13 H :    0.120995
  14 H :    0.168860
  15 H :    0.144403
  16 H :    0.141231
  17 H :    0.079761
Sum of atomic charges:    0.0000000

LOEWDIN ATOMIC CHARGES
----------------------
   0 C :   -0.270304
   1 C :   -0.237001
   2 C :   -0.155119
   3 C :   -0.168028
   4 C :   -0.117715
   5 C :   -0.106082
   6 N :    0.230659
   7 C :   -0.434963
   8 O :    0.054922
   9 H :    0.137907
  10 H :    0.131885
  11 H :    0.136055
  12 H :    0.137521
  13 H :    0.130207
  14 H :    0.143401
  15 H :    0.137151
  16 H :    0.138004
  17 H :    0.111500

  Mayer bond orders larger than 0.1
B(  0-C ,  1-C ) :   0.8552 B(  0-C ,  9-H ) :   0.9258 B(  0-C , 10-H ) :   0.9489
B(  0-C , 11-H ) :   0.9395 B(  1-C ,  2-C ) :   0.9152 B(  1-C ,  5-C ) :   0.9241
B(  1-C ,  6-N ) :   0.8493 B(  2-C ,  3-C ) :   0.9224 B(  2-C , 12-H ) :   0.9126
B(  2-C , 13-H ) :   0.9047 B(  3-C ,  4-C ) :   0.9365 B(  3-C ,  6-N ) :   0.8212
B(  3-C , 14-H ) :   0.8916 B(  4-C ,  5-C ) :   1.7696 B(  4-C , 15-H ) :   0.9321
B(  5-C , 16-H ) :   0.9330 B(  6-N ,  7-C ) :   1.1418 B(  7-C ,  8-O ) :   1.9027
B(  7-C , 17-H ) :   0.9307

MP2 TOTAL ENERGY:     -401.229617758 Eh
FINAL SINGLE POINT ENERGY      -401.229617757612

DIPOLE MOMENT
-------------
                                X             Y             Z
Electronic contribution:     -3.88358      -4.17218      -0.12278
Nuclear contribution   :      5.39646       4.89250       0.59854
                        -----------------------------------------
Total Dipole Moment    :      1.51288       0.72033       0.47576
                        -----------------------------------------
Magnitude (a.u.)       :      1.74185
Magnitude (Debye)      :      4.42742

                             ****ORCA TERMINATED NORMALLY****
TOTAL RUN TIME: 0 days 0 hours 19 minutes 38 seconds 581 msec
