                         Program Version 3.0.3 - RELEASE   -
|  1> ! RI-MP2 RIJK def2-TZVP def2-TZVP/C def2-TZVP/JK TIGHTSCF
|  2> % maxcore 2000
|  3> % mp2 density relaxed end
|  4> *xyz 0 1
|  5>  C        0.0826689485     1.4959738778    -0.0275764405
|  6>  O        1.2135523254     0.6278631732    -0.1056101579
|  7>  C       -0.0888143241     0.0366180557     0.0004265839
|  8>  C       -0.4030335431    -0.7117659699     1.2549362581
|  9>  C       -1.8836472072    -0.9787479208     1.7175832981
| 10>  C       -1.1661752403    -2.0420340208     2.6153369576
| 11>  C       -0.2194591395    -2.2709649334     1.3873307816
| 12>  C       -0.2795213463    -1.1265566017     3.4732342015
| 13>  C        0.2195262531    -0.2605473525     2.5888968803
| 14>  H       -0.0091006103     2.0635188818     0.8973729304
| 15>  H       -0.1467549828     2.0494845927    -0.9371031922
| 16>  H       -0.4271232525    -0.4421669571    -0.9203930632
| 17>  H       -2.4036020798    -0.1589985321     2.2189466915
| 18>  H       -2.5087982192    -1.4202561100     0.9341065504
| 19>  H       -1.7056427652    -2.8565715804     3.0966337787
| 20>  H       -0.6884788260    -2.8312459430     0.5708415956
| 21>  H        0.7889801994    -2.6389773347     1.5872032459
| 22>  H       -0.1099421323    -1.2088053670     4.5373453735
| 23>  H        0.9238186622     0.5484453222     2.7128896165
| 24> *
| 25>
| 26>                          ****END OF INPUT****

CARTESIAN COORDINATES (ANGSTROEM)
---------------------------------
  C      0.082669    1.495974   -0.027576
  O      1.213552    0.627863   -0.105610
  C     -0.088814    0.036618    0.000427
  C     -0.403034   -0.711766    1.254936
  C     -1.883647   -0.978748    1.717583
  C     -1.166175   -2.042034    2.615337
  C     -0.219459   -2.270965    1.387331
  C     -0.279521   -1.126557    3.473234
  C      0.219526   -0.260547    2.588897
  H     -0.009101    2.063519    0.897373
  H     -0.146755    2.049485   -0.937103
  H     -0.427123   -0.442167   -0.920393
  H     -2.403602   -0.158999    2.218947
  H     -2.508798   -1.420256    0.934107
  H     -1.705643   -2.856572    3.096634
  H     -0.688479   -2.831246    0.570842
  H      0.788980   -2.638977    1.587203
  H     -0.109942   -1.208805    4.537345
  H      0.923819    0.548445    2.712890

 Total Charge           Charge          ....    0
 Multiplicity           Mult            ....    1
 Number of Electrons    NEL             ....   66
 Basis Dimension        Dim             ....  339

ORBITAL ENERGIES
----------------

  NO   OCC          E(Eh)            E(eV)
   0   2.0000     -20.566695      -559.6482
   1   2.0000     -11.286239      -307.1142
   2   2.0000     -11.281736      -306.9916
   3   2.0000     -11.249624      -306.1178
   4   2.0000     -11.241344      -305.8925
   5   2.0000     -11.232308      -305.6466
   6   2.0000     -11.229910      -305.5814
   7   2.0000     -11.224864      -305.4441
   8   2.0000     -11.223098      -305.3960
   9   2.0000      -1.408897       -38.3380
  10   2.0000      -1.198332       -32.6083
  11   2.0000      -0.995446       -27.0875
  12   2.0000      -0.970266       -26.4023
  13   2.0000      -0.907811       -24.7028
  14   2.0000      -0.897138       -24.4124
  15   2.0000      -0.839799       -22.8521
  16   2.0000      -0.753303       -20.4984
  17   2.0000      -0.718198       -19.5432
  18   2.0000      -0.709447       -19.3050
  19   2.0000      -0.673163       -18.3177
  20   2.0000      -0.636496       -17.3199
  21   2.0000      -0.601423       -16.3656
  22   2.0000      -0.570329       -15.5194
  23   2.0000      -0.559898       -15.2356
  24   2.0000      -0.550331       -14.9753
  25   2.0000      -0.502445       -13.6722
  26   2.0000      -0.493171       -13.4199
  27   2.0000      -0.482132       -13.1195
  28   2.0000      -0.467715       -12.7272
  29   2.0000      -0.452444       -12.3116
  30   2.0000      -0.430048       -11.7022
  31   2.0000      -0.418817       -11.3966
  32   2.0000      -0.332027        -9.0349
  33   0.0000       0.142312         3.8725
  34   0.0000       0.147385         4.0106
  35   0.0000       0.162181         4.4132
  36   0.0000       0.167239         4.5508
  37   0.0000       0.179096         4.8735

MULLIKEN ATOMIC CHARGES
-----------------------
   0 C :   -0.062651
   1 O :   -0.325746
   2 C :   -0.036236
   3 C :    0.129715
   4 C :   -0.219828
   5 C :   -0.050768
   6 C :   -0.210234
   7 C :   -0.223078
   8 C :   -0.232001
   9 H :    0.119426
  10 H :    0.119511
  11 H :    0.118857
  12 H :    0.111920
  13 H :    0.116115
  14 H :    0.132739
  15 H :    0.113862
  16 H :    0.119614
  17 H :    0.132848
  18 H :    0.145935
Sum of atomic charges:    0.0000000

LOEWDIN ATOMIC CHARGES
----------------------
   0 C :   -0.262548
   1 O :    0.148436
   2 C :   -0.255041
   3 C :   -0.208698
   4 C :   -0.156039
   5 C :   -0.187192
   6 C :   -0.154703
   7 C :   -0.130457
   8 C :   -0.106809
   9 H :    0.121313
  10 H :    0.119035
  11 H :    0.142109
  12 H :    0.128688
  13 H :    0.133613
  14 H :    0.131045
  15 H :    0.132689
  16 H :    0.130901
  17 H :    0.133724
  18 H :    0.139932

  Mayer bond orders larger than 0.1
B(  0-C ,  1-O ) :   0.8864 B(  0-C ,  2-C ) :   0.9859 B(  0-C ,  9-H ) :   0.9157
B(  0-C , 10-H ) :   0.9184 B(  1-O ,  2-C ) :   0.9673 B(  2-C ,  3-C ) :   0.8795
B(  2-C , 11-H ) :   0.9209 B(  3-C ,  4-C ) :   0.8910 B(  3-C ,  6-C ) :   0.8960
B(  3-C ,  8-C ) :   0.8880 B(  4-C ,  5-C ) :   0.9273 B(  4-C , 12-H ) :   0.9182
B(  4-C , 13-H ) :   0.9234 B(  5-C ,  6-C ) :   0.9245 B(  5-C ,  7-C ) :   0.9199
B(  5-C , 14-H ) :   0.9150 B(  6-C , 15-H ) :   0.9217 B(  6-C , 16-H ) :   0.9176
B(  7-C ,  8-C ) :   1.7512 B(  7-C , 17-H ) :   0.9359 B(  8-C , 18-H ) :   0.9310

MP2 TOTAL ENERGY:     -385.151504757 Eh
FINAL SINGLE POINT ENERGY      -385.151504757099

DIPOLE MOMENT
-------------
                                X             Y             Z
Electronic contribution:      2.68448       1.25367      -0.71155
Nuclear contribution   :     -3.43228      -1.28615       0.75880
                        -----------------------------------------
Total Dipole Moment    :     -0.74780      -0.03248       0.04725
                        -----------------------------------------
Magnitude (a.u.)       :      0.74999
Magnitude (Debye)      :      1.90633

                             ****ORCA TERMINATED NORMALLY****
TOTAL RUN TIME: 0 days 0 hours 16 minutes 48 seconds 124 msec
