                         Program Version 3.0.3 - RELEASE   -
|  1> ! RI-MP2 RIJK def2-TZVP def2-TZVP/C def2-TZVP/JK TIGHTSCF
|  2> % maxcore 2000
|  3> % mp2 density relaxed end
|  4> *xyz 0 1
|  5>  C        0.1207157765     1.4689307829    -0.0660902804
|  6>  O       -0.2998754025     0.1575129107    -0.3916930022
|  7>  C        0.5948313415    -0.5225617700    -1.2155906985
|  8>  C        1.7863840409    -1.2397829142    -0.5390387963
|  9>  O        1.2770507055    -2.5365191568    -0.9260048249
| 10>  C        0.1096976425    -1.9670762005    -1.5646806129
| 11>  C       -1.1892151991    -2.4367649401    -0.9251182837
| 12>  C        0.1223289633    -2.2469835921    -3.0105684615
| 13>  N        0.1311708874    -2.4469582546    -4.1487782497
| 14>  H        1.0595090356     1.4679678097     0.5063781286
| 15>  H        0.2626870487     2.0796663358    -0.9697931972
| 16>  H       -0.6656955060     1.9134676835     0.5466900166
| 17>  H        0.8661436766     0.0804113314    -2.0913866815
| 18>  H        2.7760291916    -1.0467831287    -0.9662547515
| 19>  H        1.8188074799    -1.1230887965     0.5500848387
| 20>  H       -1.1959527884    -2.1634926629     0.1302846383
| 21>  H       -2.0499285955    -1.9748933237    -1.4155023435
| 22>  H       -1.2663196385    -3.5226908439    -1.0225423186
| 23> *
| 24>
| 25>                          ****END OF INPUT****

CARTESIAN COORDINATES (ANGSTROEM)
---------------------------------
  C      0.120716    1.468931   -0.066090
  O     -0.299875    0.157513   -0.391693
  C      0.594831   -0.522562   -1.215591
  C      1.786384   -1.239783   -0.539039
  O      1.277051   -2.536519   -0.926005
  C      0.109698   -1.967076   -1.564681
  C     -1.189215   -2.436765   -0.925118
  C      0.122329   -2.246984   -3.010568
  N      0.131171   -2.446958   -4.148778
  H      1.059509    1.467968    0.506378
  H      0.262687    2.079666   -0.969793
  H     -0.665696    1.913468    0.546690
  H      0.866144    0.080411   -2.091387
  H      2.776029   -1.046783   -0.966255
  H      1.818807   -1.123089    0.550085
  H     -1.195953   -2.163493    0.130285
  H     -2.049929   -1.974893   -1.415502
  H     -1.266320   -3.522691   -1.022542

 Total Charge           Charge          ....    0
 Multiplicity           Mult            ....    1
 Number of Electrons    NEL             ....   68
 Basis Dimension        Dim             ....  333

ORBITAL ENERGIES
----------------

  NO   OCC          E(Eh)            E(eV)
   0   2.0000     -20.587910      -560.2255
   1   2.0000     -20.578906      -559.9805
   2   2.0000     -15.576187      -423.8496
   3   2.0000     -11.345019      -308.7137
   4   2.0000     -11.317956      -307.9773
   5   2.0000     -11.300349      -307.4981
   6   2.0000     -11.296268      -307.3871
   7   2.0000     -11.272996      -306.7538
   8   2.0000     -11.238210      -305.8072
   9   2.0000      -1.427059       -38.8323
  10   2.0000      -1.396089       -37.9895
  11   2.0000      -1.220943       -33.2235
  12   2.0000      -1.070472       -29.1290
  13   2.0000      -1.021442       -27.7949
  14   2.0000      -0.942648       -25.6508
  15   2.0000      -0.918578       -24.9958
  16   2.0000      -0.814516       -22.1641
  17   2.0000      -0.751619       -20.4526
  18   2.0000      -0.706830       -19.2338
  19   2.0000      -0.683632       -18.6026
  20   2.0000      -0.656186       -17.8557
  21   2.0000      -0.629512       -17.1299
  22   2.0000      -0.616622       -16.7791
  23   2.0000      -0.599421       -16.3111
  24   2.0000      -0.580357       -15.7923
  25   2.0000      -0.565864       -15.3979
  26   2.0000      -0.557232       -15.1631
  27   2.0000      -0.532259       -14.4835
  28   2.0000      -0.514894       -14.0110
  29   2.0000      -0.499561       -13.5937
  30   2.0000      -0.471249       -12.8233
  31   2.0000      -0.464065       -12.6278
  32   2.0000      -0.446827       -12.1588
  33   2.0000      -0.435606       -11.8534
  34   0.0000       0.124337         3.3834
  35   0.0000       0.141309         3.8452
  36   0.0000       0.150171         4.0864
  37   0.0000       0.160275         4.3613
  38   0.0000       0.172127         4.6838

MULLIKEN ATOMIC CHARGES
-----------------------
   0 C :   -0.230363
   1 O :   -0.293154
   2 C :   -0.016707
   3 C :   -0.040541
   4 O :   -0.319183
   5 C :    0.384308
   6 C :   -0.382412
   7 C :   -0.231033
   8 N :   -0.049435
   9 H :    0.120197
  10 H :    0.124355
  11 H :    0.149738
  12 H :    0.119658
  13 H :    0.114063
  14 H :    0.105213
  15 H :    0.149402
  16 H :    0.142855
  17 H :    0.153038
Sum of atomic charges:   -0.0000000

LOEWDIN ATOMIC CHARGES
----------------------
   0 C :   -0.341187
   1 O :    0.172414
   2 C :   -0.270800
   3 C :   -0.243739
   4 O :    0.176116
   5 C :   -0.314078
   6 C :   -0.243178
   7 C :   -0.141554
   8 N :    0.075253
   9 H :    0.104830
  10 H :    0.106828
  11 H :    0.117783
  12 H :    0.140718
  13 H :    0.122571
  14 H :    0.125077
  15 H :    0.135933
  16 H :    0.138653
  17 H :    0.138360

  Mayer bond orders larger than 0.1
B(  0-C ,  1-O ) :   0.8953 B(  0-C ,  9-H ) :   0.9338 B(  0-C , 10-H ) :   0.9350
B(  0-C , 11-H ) :   0.9390 B(  1-O ,  2-C ) :   1.0040 B(  2-C ,  3-C ) :   0.9819
B(  2-C ,  5-C ) :   0.8719 B(  2-C , 12-H ) :   0.9331 B(  3-C ,  4-O ) :   0.9514
B(  3-C , 13-H ) :   0.9112 B(  3-C , 14-H ) :   0.8977 B(  4-O ,  5-C ) :   0.9376
B(  5-C ,  6-C ) :   0.9135 B(  5-C ,  7-C ) :   0.9172 B(  6-C , 15-H ) :   0.9260
B(  6-C , 16-H ) :   0.9214 B(  6-C , 17-H ) :   0.9252 B(  7-C ,  8-N ) :   2.8599

MP2 TOTAL ENERGY:     -438.342560422 Eh
FINAL SINGLE POINT ENERGY      -438.342560421846

DIPOLE MOMENT
-------------
                                X             Y             Z
Electronic contribution:      1.08457      -5.26773      -5.63877
Nuclear contribution   :     -0.98907       6.60136       6.98134
                        -----------------------------------------
Total Dipole Moment    :      0.09551       1.33363       1.34257
                        -----------------------------------------
Magnitude (a.u.)       :      1.89478
Magnitude (Debye)      :      4.81615

                             ****ORCA TERMINATED NORMALLY****
TOTAL RUN TIME: 0 days 0 hours 26 minutes 24 seconds 893 msec
