                         Program Version 3.0.3 - RELEASE   -
|  1> ! RI-MP2 RIJK def2-TZVP def2-TZVP/C def2-TZVP/JK TIGHTSCF
|  2> % maxcore 2000
|  3> % mp2 density relaxed end
|  4> *xyz 0 1
|  5>  O       -0.0801961434     1.3760105405     0.0853591877
|  6>  C        0.0176373240    -0.0231567461    -0.0097372379
|  7>  C       -0.4536930587    -0.6829629054    -1.2818125506
|  8>  C       -1.2955752587    -0.7476172419    -0.0172438990
|  9>  C       -1.3794855750    -2.0141894184     0.8350241056
| 10>  C       -0.7258764920    -1.7945671909     2.1978103337
| 11>  N        0.5232967178    -2.5359876337     2.4659460474
| 12>  C        0.5793188334    -1.0839968636     2.2013679917
| 13>  C        1.1192005905    -0.6638232633     0.8375698699
| 14>  H        0.6499800844     1.7560021146    -0.4159555215
| 15>  H       -0.8057835972    -0.0318384205    -2.0747192799
| 16>  H        0.0439582902    -1.5882830878    -1.6180258306
| 17>  H       -2.1688421372    -0.1035365238    -0.0097678221
| 18>  H       -2.4225683631    -2.3213240948     0.9535169604
| 19>  H       -0.8630893603    -2.8430314472     0.3405670733
| 20>  H       -1.3964316692    -1.6236510238     3.0361992823
| 21>  H        0.6147568293    -2.7102856027     3.4638789999
| 22>  H        0.7983747455    -0.4265764334     3.0382929711
| 23>  H        1.5158193963    -1.5536284313     0.3397856773
| 24>  H        1.9472138433     0.0438059135     0.9449922714
| 25> *
| 26>
| 27>                          ****END OF INPUT****

CARTESIAN COORDINATES (ANGSTROEM)
---------------------------------
  O     -0.080196    1.376011    0.085359
  C      0.017637   -0.023157   -0.009737
  C     -0.453693   -0.682963   -1.281813
  C     -1.295575   -0.747617   -0.017244
  C     -1.379486   -2.014189    0.835024
  C     -0.725876   -1.794567    2.197810
  N      0.523297   -2.535988    2.465946
  C      0.579319   -1.083997    2.201368
  C      1.119201   -0.663823    0.837570
  H      0.649980    1.756002   -0.415956
  H     -0.805784   -0.031838   -2.074719
  H      0.043958   -1.588283   -1.618026
  H     -2.168842   -0.103537   -0.009768
  H     -2.422568   -2.321324    0.953517
  H     -0.863089   -2.843031    0.340567
  H     -1.396432   -1.623651    3.036199
  H      0.614757   -2.710286    3.463879
  H      0.798375   -0.426576    3.038293
  H      1.515819   -1.553628    0.339786
  H      1.947214    0.043806    0.944992

 Total Charge           Charge          ....    0
 Multiplicity           Mult            ....    1
 Number of Electrons    NEL             ....   68
 Basis Dimension        Dim             ....  345

ORBITAL ENERGIES
----------------

  NO   OCC          E(Eh)            E(eV)
   0   2.0000     -20.558087      -559.4140
   1   2.0000     -15.552786      -423.2128
   2   2.0000     -11.280038      -306.9454
   3   2.0000     -11.252811      -306.2045
   4   2.0000     -11.252006      -306.1827
   5   2.0000     -11.224108      -305.4235
   6   2.0000     -11.223411      -305.4045
   7   2.0000     -11.222582      -305.3820
   8   2.0000     -11.222041      -305.3673
   9   2.0000      -1.367951       -37.2238
  10   2.0000      -1.258734       -34.2519
  11   2.0000      -1.138456       -30.9790
  12   2.0000      -1.001113       -27.2417
  13   2.0000      -0.984038       -26.7770
  14   2.0000      -0.844332       -22.9754
  15   2.0000      -0.815012       -22.1776
  16   2.0000      -0.806562       -21.9477
  17   2.0000      -0.717573       -19.5261
  18   2.0000      -0.715011       -19.4564
  19   2.0000      -0.681728       -18.5508
  20   2.0000      -0.634028       -17.2528
  21   2.0000      -0.623800       -16.9745
  22   2.0000      -0.594359       -16.1733
  23   2.0000      -0.576457       -15.6862
  24   2.0000      -0.543004       -14.7759
  25   2.0000      -0.531628       -14.4663
  26   2.0000      -0.517934       -14.0937
  27   2.0000      -0.505687       -13.7604
  28   2.0000      -0.496452       -13.5092
  29   2.0000      -0.448885       -12.2148
  30   2.0000      -0.445320       -12.1178
  31   2.0000      -0.399013       -10.8577
  32   2.0000      -0.388518       -10.5721
  33   2.0000      -0.372841       -10.1455
  34   0.0000       0.135203         3.6791
  35   0.0000       0.145728         3.9655
  36   0.0000       0.164613         4.4793
  37   0.0000       0.171021         4.6537
  38   0.0000       0.187132         5.0921

MULLIKEN ATOMIC CHARGES
-----------------------
   0 O :   -0.466922
   1 C :    0.223689
   2 C :   -0.356224
   3 C :   -0.089522
   4 C :   -0.254296
   5 C :   -0.038311
   6 N :   -0.402219
   7 C :   -0.019752
   8 C :   -0.258677
   9 H :    0.318522
  10 H :    0.136541
  11 H :    0.122068
  12 H :    0.122891
  13 H :    0.124646
  14 H :    0.133404
  15 H :    0.121038
  16 H :    0.216059
  17 H :    0.124276
  18 H :    0.136762
  19 H :    0.106028
Sum of atomic charges:   -0.0000000

LOEWDIN ATOMIC CHARGES
----------------------
   0 O :    0.015849
   1 C :   -0.344205
   2 C :   -0.198232
   3 C :   -0.178934
   4 C :   -0.218213
   5 C :   -0.246821
   6 N :   -0.005883
   7 C :   -0.244996
   8 C :   -0.201508
   9 H :    0.178395
  10 H :    0.135418
  11 H :    0.133027
  12 H :    0.152554
  13 H :    0.143044
  14 H :    0.149903
  15 H :    0.134604
  16 H :    0.164537
  17 H :    0.135524
  18 H :    0.152692
  19 H :    0.143246

  Mayer bond orders larger than 0.1
B(  0-O ,  1-C ) :   1.0060 B(  0-O ,  9-H ) :   0.8422 B(  1-C ,  2-C ) :   0.9069
B(  1-C ,  3-C ) :   0.8413 B(  1-C ,  8-C ) :   0.9635 B(  2-C ,  3-C ) :   0.9043
B(  2-C , 10-H ) :   0.9250 B(  2-C , 11-H ) :   0.9006 B(  3-C ,  4-C ) :   0.9328
B(  3-C , 12-H ) :   0.9216 B(  4-C ,  5-C ) :   0.9179 B(  4-C , 13-H ) :   0.9302
B(  4-C , 14-H ) :   0.9222 B(  5-C ,  6-N ) :   0.9699 B(  5-C ,  7-C ) :   0.9052
B(  5-C , 15-H ) :   0.9210 B(  6-N ,  7-C ) :   0.9452 B(  6-N , 16-H ) :   0.8715
B(  7-C ,  8-C ) :   0.9179 B(  7-C , 17-H ) :   0.9165 B(  8-C , 18-H ) :   0.9174
B(  8-C , 19-H ) :   0.9175

MP2 TOTAL ENERGY:     -402.429850456 Eh
FINAL SINGLE POINT ENERGY      -402.429850456473

DIPOLE MOMENT
-------------
                                X             Y             Z
Electronic contribution:      0.32584       1.84930       0.95834
Nuclear contribution   :     -0.15985      -1.67004      -0.83903
                        -----------------------------------------
Total Dipole Moment    :      0.16599       0.17926       0.11931
                        -----------------------------------------
Magnitude (a.u.)       :      0.27188
Magnitude (Debye)      :      0.69107

                             ****ORCA TERMINATED NORMALLY****
TOTAL RUN TIME: 0 days 0 hours 18 minutes 18 seconds 130 msec
