                         Program Version 3.0.3 - RELEASE   -
|  1> ! RI-MP2 RIJK def2-TZVP def2-TZVP/C def2-TZVP/JK TIGHTSCF
|  2> % maxcore 2000
|  3> % mp2 density relaxed end
|  4> *xyz 0 1
|  5>  C       -0.0177873176     1.5033892305     0.1318592507
|  6>  C       -0.0303020884    -0.0036970501    -0.1138892709
|  7>  C        0.7219141187    -0.4130007364    -1.3754771040
|  8>  O        1.1267781935     0.3845571228    -2.1831603396
|  9>  C        0.9260340286    -1.9181924558    -1.5411704711
| 10>  O        1.4953836907    -2.2019505122    -2.7815655271
| 11>  C        1.7286812301    -3.5771891393    -2.9747806810
| 12>  H        1.0029984556     1.8677524026     0.2755111283
| 13>  H       -0.4348547540     2.0373374675    -0.7249255179
| 14>  H       -0.6025137446     1.7556492912     1.0206630769
| 15>  H        0.3875980141    -0.5533709690     0.7403211120
| 16>  H       -1.0609483151    -0.3733772748    -0.2146630440
| 17>  H        1.5648917260    -2.2666596376    -0.7069502553
| 18>  H       -0.0475885293    -2.4259571471    -1.4075368642
| 19>  H        2.4232536685    -3.9844179951    -2.2226785995
| 20>  H        0.7958486892    -4.1619393819    -2.9313098192
| 21>  H        2.1727797740    -3.6932927753    -3.9658800942
| 22> *
| 23>
| 24>                          ****END OF INPUT****

CARTESIAN COORDINATES (ANGSTROEM)
---------------------------------
  C     -0.017787    1.503389    0.131859
  C     -0.030302   -0.003697   -0.113889
  C      0.721914   -0.413001   -1.375477
  O      1.126778    0.384557   -2.183160
  C      0.926034   -1.918192   -1.541170
  O      1.495384   -2.201951   -2.781566
  C      1.728681   -3.577189   -2.974781
  H      1.002998    1.867752    0.275511
  H     -0.434855    2.037337   -0.724926
  H     -0.602514    1.755649    1.020663
  H      0.387598   -0.553371    0.740321
  H     -1.060948   -0.373377   -0.214663
  H      1.564892   -2.266660   -0.706950
  H     -0.047589   -2.425957   -1.407537
  H      2.423254   -3.984418   -2.222679
  H      0.795849   -4.161939   -2.931310
  H      2.172780   -3.693293   -3.965880

 Total Charge           Charge          ....    0
 Multiplicity           Mult            ....    1
 Number of Electrons    NEL             ....   56
 Basis Dimension        Dim             ....  277

ORBITAL ENERGIES
----------------

  NO   OCC          E(Eh)            E(eV)
   0   2.0000     -20.564664      -559.5930
   1   2.0000     -20.542774      -558.9973
   2   2.0000     -11.327193      -308.2286
   3   2.0000     -11.294356      -307.3351
   4   2.0000     -11.277915      -306.8877
   5   2.0000     -11.242654      -305.9282
   6   2.0000     -11.218974      -305.2838
   7   2.0000      -1.401280       -38.1308
   8   2.0000      -1.375644       -37.4332
   9   2.0000      -1.062594       -28.9147
  10   2.0000      -1.001902       -27.2631
  11   2.0000      -0.916997       -24.9527
  12   2.0000      -0.860513       -23.4158
  13   2.0000      -0.741696       -20.1826
  14   2.0000      -0.682678       -18.5766
  15   2.0000      -0.681256       -18.5379
  16   2.0000      -0.665421       -18.1070
  17   2.0000      -0.628452       -17.1011
  18   2.0000      -0.617692       -16.8083
  19   2.0000      -0.577640       -15.7184
  20   2.0000      -0.570573       -15.5261
  21   2.0000      -0.531965       -14.4755
  22   2.0000      -0.516779       -14.0623
  23   2.0000      -0.511036       -13.9060
  24   2.0000      -0.494860       -13.4658
  25   2.0000      -0.486580       -13.2405
  26   2.0000      -0.434408       -11.8208
  27   2.0000      -0.408485       -11.1154
  28   0.0000       0.121269         3.2999
  29   0.0000       0.142640         3.8814
  30   0.0000       0.150000         4.0817
  31   0.0000       0.168915         4.5964
  32   0.0000       0.196583         5.3493

MULLIKEN ATOMIC CHARGES
-----------------------
   0 C :   -0.369013
   1 C :   -0.257341
   2 C :    0.214163
   3 O :   -0.267030
   4 C :   -0.082458
   5 O :   -0.271381
   6 C :   -0.216566
   7 H :    0.130499
   8 H :    0.140407
   9 H :    0.132079
  10 H :    0.127872
  11 H :    0.132773
  12 H :    0.110004
  13 H :    0.108945
  14 H :    0.111105
  15 H :    0.110292
  16 H :    0.145651
Sum of atomic charges:    0.0000000

LOEWDIN ATOMIC CHARGES
----------------------
   0 C :   -0.310943
   1 C :   -0.271847
   2 C :   -0.329090
   3 O :    0.172349
   4 C :   -0.319526
   5 O :    0.158354
   6 C :   -0.355857
   7 H :    0.126376
   8 H :    0.128623
   9 H :    0.121074
  10 H :    0.146998
  11 H :    0.151200
  12 H :    0.132272
  13 H :    0.131180
  14 H :    0.101533
  15 H :    0.101325
  16 H :    0.115980

  Mayer bond orders larger than 0.1
B(  0-C ,  1-C ) :   0.9336 B(  0-C ,  7-H ) :   0.9376 B(  0-C ,  8-H ) :   0.9345
B(  0-C ,  9-H ) :   0.9392 B(  1-C ,  2-C ) :   0.8987 B(  1-C , 10-H ) :   0.9182
B(  1-C , 11-H ) :   0.9018 B(  2-C ,  3-O ) :   2.0052 B(  2-C ,  4-C ) :   0.9279
B(  4-C ,  5-O ) :   0.9893 B(  4-C , 12-H ) :   0.9110 B(  4-C , 13-H ) :   0.9085
B(  5-O ,  6-C ) :   0.9124 B(  6-C , 14-H ) :   0.9364 B(  6-C , 15-H ) :   0.9357
B(  6-C , 16-H ) :   0.9392

MP2 TOTAL ENERGY:     -346.288117878 Eh
FINAL SINGLE POINT ENERGY      -346.288117877882

DIPOLE MOMENT
-------------
                                X             Y             Z
Electronic contribution:      1.83813       1.44968      -4.21883
Nuclear contribution   :     -2.26895      -2.44103       5.17752
                        -----------------------------------------
Total Dipole Moment    :     -0.43082      -0.99136       0.95869
                        -----------------------------------------
Magnitude (a.u.)       :      1.44481
Magnitude (Debye)      :      3.67241

                             ****ORCA TERMINATED NORMALLY****
TOTAL RUN TIME: 0 days 0 hours 7 minutes 44 seconds 373 msec
