                         Program Version 3.0.3 - RELEASE   -
|  1> ! RI-MP2 RIJK def2-TZVP def2-TZVP/C def2-TZVP/JK TIGHTSCF
|  2> % maxcore 2000
|  3> % mp2 density relaxed end
|  4> *xyz 0 1
|  5>  C       -0.0562045737     1.5510777367    -0.0746069645
|  6>  C        0.0164941220     0.0358975030     0.0056292915
|  7>  O       -1.2650476037    -0.5650807441    -0.0971787705
|  8>  C        1.0604442760    -0.6709725869    -0.9024741507
|  9>  N        2.3979232705    -0.1721167704    -0.4989772979
| 10>  C        1.7435157032    -1.2636061752     0.2756131305
| 11>  C        0.7633920404    -0.5970945095     1.2146804593
| 12>  C        0.9962840809    -0.0322092576     2.5821015550
| 13>  C        0.0872057004    -1.2259493555     2.3911703044
| 14>  H        0.9455924594     1.9805427046    -0.0140416975
| 15>  H       -0.5084984958     1.8681123844    -1.0235256171
| 16>  H       -0.6682571894     1.9502547428     0.7407933361
| 17>  H       -1.7201232575    -0.1542050053    -0.8405987877
| 18>  H        0.8767437489    -1.0874431303    -1.8860125127
| 19>  H        3.0768212759    -0.6111384525    -1.1217041001
| 20>  H        2.2203952525    -2.2295754630     0.3917401303
| 21>  H        1.9687246361    -0.1865034047     3.0381384567
| 22>  H        0.5383819515     0.9221737999     2.8224177028
| 23>  H       -0.9836793219    -1.0829018882     2.4795189241
| 24>  H        0.4393003443    -2.1984467080     2.7209976882
| 25> *
| 26>
| 27>                          ****END OF INPUT****

CARTESIAN COORDINATES (ANGSTROEM)
---------------------------------
  C     -0.056205    1.551078   -0.074607
  C      0.016494    0.035898    0.005629
  O     -1.265048   -0.565081   -0.097179
  C      1.060444   -0.670973   -0.902474
  N      2.397923   -0.172117   -0.498977
  C      1.743516   -1.263606    0.275613
  C      0.763392   -0.597095    1.214680
  C      0.996284   -0.032209    2.582102
  C      0.087206   -1.225949    2.391170
  H      0.945592    1.980543   -0.014042
  H     -0.508498    1.868112   -1.023526
  H     -0.668257    1.950255    0.740793
  H     -1.720123   -0.154205   -0.840599
  H      0.876744   -1.087443   -1.886013
  H      3.076821   -0.611138   -1.121704
  H      2.220395   -2.229575    0.391740
  H      1.968725   -0.186503    3.038138
  H      0.538382    0.922174    2.822418
  H     -0.983679   -1.082902    2.479519
  H      0.439300   -2.198447    2.720998

 Total Charge           Charge          ....    0
 Multiplicity           Mult            ....    1
 Number of Electrons    NEL             ....   68
 Basis Dimension        Dim             ....  345

ORBITAL ENERGIES
----------------

  NO   OCC          E(Eh)            E(eV)
   0   2.0000     -20.556076      -559.3593
   1   2.0000     -15.560276      -423.4166
   2   2.0000     -11.290158      -307.2208
   3   2.0000     -11.259553      -306.3880
   4   2.0000     -11.256270      -306.2987
   5   2.0000     -11.232148      -305.6423
   6   2.0000     -11.218880      -305.2812
   7   2.0000     -11.218129      -305.2608
   8   2.0000     -11.211448      -305.0790
   9   2.0000      -1.367123       -37.2013
  10   2.0000      -1.274520       -34.6815
  11   2.0000      -1.133843       -30.8534
  12   2.0000      -1.019433       -27.7402
  13   2.0000      -0.949891       -25.8478
  14   2.0000      -0.846767       -23.0417
  15   2.0000      -0.818328       -22.2678
  16   2.0000      -0.809315       -22.0226
  17   2.0000      -0.725799       -19.7500
  18   2.0000      -0.699338       -19.0300
  19   2.0000      -0.668437       -18.1891
  20   2.0000      -0.640178       -17.4201
  21   2.0000      -0.624317       -16.9885
  22   2.0000      -0.590685       -16.0734
  23   2.0000      -0.575868       -15.6702
  24   2.0000      -0.542493       -14.7620
  25   2.0000      -0.532807       -14.4984
  26   2.0000      -0.507316       -13.8048
  27   2.0000      -0.503092       -13.6898
  28   2.0000      -0.489665       -13.3245
  29   2.0000      -0.459293       -12.4980
  30   2.0000      -0.437516       -11.9054
  31   2.0000      -0.406285       -11.0556
  32   2.0000      -0.396111       -10.7787
  33   2.0000      -0.356947        -9.7130
  34   0.0000       0.136142         3.7046
  35   0.0000       0.144777         3.9396
  36   0.0000       0.161404         4.3920
  37   0.0000       0.169343         4.6081
  38   0.0000       0.192886         5.2487

MULLIKEN ATOMIC CHARGES
-----------------------
   0 C :   -0.473225
   1 C :    0.348262
   2 O :   -0.458670
   3 C :   -0.139333
   4 N :   -0.394460
   5 C :   -0.078110
   6 C :    0.022038
   7 C :   -0.287551
   8 C :   -0.278859
   9 H :    0.164118
  10 H :    0.116465
  11 H :    0.137493
  12 H :    0.311592
  13 H :    0.140574
  14 H :    0.214409
  15 H :    0.137926
  16 H :    0.125983
  17 H :    0.128684
  18 H :    0.139253
  19 H :    0.123410
Sum of atomic charges:   -0.0000000

LOEWDIN ATOMIC CHARGES
----------------------
   0 C :   -0.278382
   1 C :   -0.323238
   2 O :    0.020712
   3 C :   -0.196585
   4 N :    0.001537
   5 C :   -0.188881
   6 C :   -0.179163
   7 C :   -0.200157
   8 C :   -0.193258
   9 H :    0.138981
  10 H :    0.122058
  11 H :    0.127186
  12 H :    0.175199
  13 H :    0.128656
  14 H :    0.170602
  15 H :    0.132101
  16 H :    0.134801
  17 H :    0.134748
  18 H :    0.139382
  19 H :    0.133702

  Mayer bond orders larger than 0.1
B(  0-C ,  1-C ) :   0.8732 B(  0-C ,  9-H ) :   0.9275 B(  0-C , 10-H ) :   0.9272
B(  0-C , 11-H ) :   0.9403 B(  1-C ,  2-O ) :   1.0668 B(  1-C ,  3-C ) :   0.8830
B(  1-C ,  6-C ) :   0.9232 B(  2-O ,  6-C ) :  -0.1055 B(  2-O , 12-H ) :   0.8406
B(  3-C ,  4-N ) :   0.9103 B(  3-C ,  5-C ) :   0.9155 B(  3-C , 13-H ) :   0.9021
B(  4-N ,  5-C ) :   0.9724 B(  4-N , 14-H ) :   0.8674 B(  5-C ,  6-C ) :   0.9137
B(  5-C , 15-H ) :   0.9082 B(  6-C ,  7-C ) :   0.8417 B(  6-C ,  8-C ) :   0.8542
B(  7-C ,  8-C ) :   0.9495 B(  7-C , 16-H ) :   0.9189 B(  7-C , 17-H ) :   0.9217
B(  8-C , 18-H ) :   0.9147 B(  8-C , 19-H ) :   0.9228

MP2 TOTAL ENERGY:     -402.396280543 Eh
FINAL SINGLE POINT ENERGY      -402.396280542857

DIPOLE MOMENT
-------------
                                X             Y             Z
Electronic contribution:      0.45130      -2.58445      -2.07222
Nuclear contribution   :     -0.39548       2.41358       1.49968
                        -----------------------------------------
Total Dipole Moment    :      0.05582      -0.17087      -0.57254
                        -----------------------------------------
Magnitude (a.u.)       :      0.60010
Magnitude (Debye)      :      1.52532

                             ****ORCA TERMINATED NORMALLY****
TOTAL RUN TIME: 0 days 0 hours 20 minutes 42 seconds 255 msec
