                         Program Version 3.0.3 - RELEASE   -
|  1> ! RI-MP2 RIJK def2-TZVP def2-TZVP/C def2-TZVP/JK TIGHTSCF
|  2> % maxcore 2000
|  3> % mp2 density relaxed end
|  4> *xyz 0 1
|  5>  C        0.1417920023     1.3468444049     0.0719203530
|  6>  O       -0.0606284190    -0.0485512490     0.0104393420
|  7>  C       -1.4085561123    -0.5306355689     0.0138616980
|  8>  C       -2.1887993154    -0.0575617912     1.2487089828
|  9>  C       -2.1333802460    -0.1260237821    -1.2783487918
| 10>  C       -1.1886166801    -2.0810077028     0.0313116171
| 11>  C       -0.3926499320    -2.5912067961     1.2491047220
| 12>  C       -2.4602906242    -2.7996025774    -0.0803772484
| 13>  N       -3.4643578073    -3.3686842177    -0.1508292738
| 14>  H        1.2235139802     1.4993272436     0.0425030067
| 15>  H       -0.3040448872     1.8778938796    -0.7799583480
| 16>  H       -0.2448666868     1.7882279909     0.9999949695
| 17>  H       -2.4320685046     1.0058372095     1.1778392889
| 18>  H       -3.1322896341    -0.6044050148     1.3315338430
| 19>  H       -1.6135251090    -0.2159262064     2.1643398547
| 20>  H       -1.5470028636    -0.4236022720    -2.1528986487
| 21>  H       -3.1149823681    -0.6028615083    -1.3384016026
| 22>  H       -2.2900265619     0.9551012906    -1.3202741881
| 23>  H       -0.6083093682    -2.3042877502    -0.8720247419
| 24>  H       -0.9636111535    -2.4852378555     2.1745551999
| 25>  H       -0.1511456701    -3.6496138894     1.1245151400
| 26>  H        0.5326576608    -2.0208702174     1.3336759957
| 27> *
| 28>
| 29>                          ****END OF INPUT****

CARTESIAN COORDINATES (ANGSTROEM)
---------------------------------
  C      0.141792    1.346844    0.071920
  O     -0.060628   -0.048551    0.010439
  C     -1.408556   -0.530636    0.013862
  C     -2.188799   -0.057562    1.248709
  C     -2.133380   -0.126024   -1.278349
  C     -1.188617   -2.081008    0.031312
  C     -0.392650   -2.591207    1.249105
  C     -2.460291   -2.799603   -0.080377
  N     -3.464358   -3.368684   -0.150829
  H      1.223514    1.499327    0.042503
  H     -0.304045    1.877894   -0.779958
  H     -0.244867    1.788228    0.999995
  H     -2.432069    1.005837    1.177839
  H     -3.132290   -0.604405    1.331534
  H     -1.613525   -0.215926    2.164340
  H     -1.547003   -0.423602   -2.152899
  H     -3.114982   -0.602862   -1.338402
  H     -2.290027    0.955101   -1.320274
  H     -0.608309   -2.304288   -0.872025
  H     -0.963611   -2.485238    2.174555
  H     -0.151146   -3.649614    1.124515
  H      0.532658   -2.020870    1.333676

 Total Charge           Charge          ....    0
 Multiplicity           Mult            ....    1
 Number of Electrons    NEL             ....   70
 Basis Dimension        Dim             ....  357

ORBITAL ENERGIES
----------------

  NO   OCC          E(Eh)            E(eV)
   0   2.0000     -20.565796      -559.6238
   1   2.0000     -15.564569      -423.5335
   2   2.0000     -11.312675      -307.8335
   3   2.0000     -11.280571      -306.9599
   4   2.0000     -11.279208      -306.9229
   5   2.0000     -11.267878      -306.6145
   6   2.0000     -11.233383      -305.6759
   7   2.0000     -11.228032      -305.5303
   8   2.0000     -11.225930      -305.4731
   9   2.0000      -1.387206       -37.7478
  10   2.0000      -1.216442       -33.1011
  11   2.0000      -1.113287       -30.2941
  12   2.0000      -1.027634       -27.9633
  13   2.0000      -0.956899       -26.0385
  14   2.0000      -0.943765       -25.6812
  15   2.0000      -0.898476       -24.4488
  16   2.0000      -0.783665       -21.3246
  17   2.0000      -0.700150       -19.0521
  18   2.0000      -0.683744       -18.6056
  19   2.0000      -0.658475       -17.9180
  20   2.0000      -0.636792       -17.3280
  21   2.0000      -0.605546       -16.4778
  22   2.0000      -0.591187       -16.0870
  23   2.0000      -0.573671       -15.6104
  24   2.0000      -0.565515       -15.3884
  25   2.0000      -0.560835       -15.2611
  26   2.0000      -0.551068       -14.9953
  27   2.0000      -0.538129       -14.6432
  28   2.0000      -0.531223       -14.4553
  29   2.0000      -0.507061       -13.7978
  30   2.0000      -0.502831       -13.6827
  31   2.0000      -0.481629       -13.1058
  32   2.0000      -0.451364       -12.2823
  33   2.0000      -0.441423       -12.0117
  34   2.0000      -0.430068       -11.7028
  35   0.0000       0.123698         3.3660
  36   0.0000       0.147341         4.0093
  37   0.0000       0.157352         4.2818
  38   0.0000       0.173514         4.7215
  39   0.0000       0.183236         4.9861

MULLIKEN ATOMIC CHARGES
-----------------------
   0 C :   -0.238841
   1 O :   -0.303653
   2 C :    0.200196
   3 C :   -0.498078
   4 C :   -0.433905
   5 C :    0.132608
   6 C :   -0.434167
   7 C :   -0.247317
   8 N :   -0.053458
   9 H :    0.147028
  10 H :    0.117528
  11 H :    0.122785
  12 H :    0.144446
  13 H :    0.166577
  14 H :    0.151949
  15 H :    0.142078
  16 H :    0.164377
  17 H :    0.134444
  18 H :    0.130833
  19 H :    0.141218
  20 H :    0.149525
  21 H :    0.163827
Sum of atomic charges:   -0.0000000

LOEWDIN ATOMIC CHARGES
----------------------
   0 C :   -0.353485
   1 O :    0.175252
   2 C :   -0.369502
   3 C :   -0.268015
   4 C :   -0.266499
   5 C :   -0.226626
   6 C :   -0.265509
   7 C :   -0.175647
   8 N :    0.057066
   9 H :    0.116300
  10 H :    0.103930
  11 H :    0.104379
  12 H :    0.128144
  13 H :    0.139979
  14 H :    0.130856
  15 H :    0.131352
  16 H :    0.138712
  17 H :    0.125775
  18 H :    0.181883
  19 H :    0.128059
  20 H :    0.130464
  21 H :    0.133133

  Mayer bond orders larger than 0.1
B(  0-C ,  1-O ) :   0.9088 B(  0-C ,  9-H ) :   0.9418 B(  0-C , 10-H ) :   0.9311
B(  0-C , 11-H ) :   0.9336 B(  1-O ,  2-C ) :   0.9705 B(  2-C ,  3-C ) :   0.9111
B(  2-C ,  4-C ) :   0.9212 B(  2-C ,  5-C ) :   0.8317 B(  3-C , 12-H ) :   0.9312
B(  3-C , 13-H ) :   0.9210 B(  3-C , 14-H ) :   0.9398 B(  4-C , 15-H ) :   0.9364
B(  4-C , 16-H ) :   0.9231 B(  4-C , 17-H ) :   0.9275 B(  5-C ,  6-C ) :   0.8884
B(  5-C ,  7-C ) :   0.8886 B(  5-C , 18-H ) :   0.9117 B(  6-C , 19-H ) :   0.9305
B(  6-C , 20-H ) :   0.9333 B(  6-C , 21-H ) :   0.9329 B(  7-C ,  8-N ) :   2.8755

MP2 TOTAL ENERGY:     -403.677287731 Eh
FINAL SINGLE POINT ENERGY      -403.677287730823

DIPOLE MOMENT
-------------
                                X             Y             Z
Electronic contribution:     -2.58291      -6.90502      -1.83409
Nuclear contribution   :      3.52245       8.11927       2.00598
                        -----------------------------------------
Total Dipole Moment    :      0.93955       1.21424       0.17188
                        -----------------------------------------
Magnitude (a.u.)       :      1.54489
Magnitude (Debye)      :      3.92679

                             ****ORCA TERMINATED NORMALLY****
TOTAL RUN TIME: 0 days 0 hours 22 minutes 58 seconds 704 msec
