                         Program Version 3.0.3 - RELEASE   -
|  1> ! RI-MP2 RIJK def2-TZVP def2-TZVP/C def2-TZVP/JK TIGHTSCF
|  2> % maxcore 2000
|  3> % mp2 density relaxed end
|  4> *xyz 0 1
|  5>  O       -0.8580289906     1.1460068824    -0.2102571831
|  6>  C        0.2613315729     0.9151071507     0.1854137175
|  7>  C        1.3989291774     1.8515877382     0.0509719463
|  8>  C        1.1142299291     3.3452449592    -0.0421857834
|  9>  C        1.6632709430     2.6895829307    -1.2557603584
| 10>  N        3.0956455169     2.6506862864    -1.3446785172
| 11>  C        3.5622501113     1.8864354919    -0.2882351708
| 12>  N        2.6833593828     1.4229344312     0.5249484015
| 13>  H        0.5299515890    -0.0440931316     0.6766899918
| 14>  H        0.0576390577     3.5866290579    -0.0676372857
| 15>  H        1.7541713349     4.0078595897     0.5306650922
| 16>  H        1.0843933882     2.5854661949    -2.1652168038
| 17>  H        3.5504713101     2.6103985518    -2.2436017573
| 18>  H        4.6298724073     1.7307483366    -0.1749199097
| 19> *
| 20>
| 21>                          ****END OF INPUT****

CARTESIAN COORDINATES (ANGSTROEM)
---------------------------------
  O     -0.858029    1.146007   -0.210257
  C      0.261332    0.915107    0.185414
  C      1.398929    1.851588    0.050972
  C      1.114230    3.345245   -0.042186
  C      1.663271    2.689583   -1.255760
  N      3.095646    2.650686   -1.344679
  C      3.562250    1.886435   -0.288235
  N      2.683359    1.422934    0.524948
  H      0.529952   -0.044093    0.676690
  H      0.057639    3.586629   -0.067637
  H      1.754171    4.007860    0.530665
  H      1.084393    2.585466   -2.165217
  H      3.550471    2.610399   -2.243602
  H      4.629872    1.730748   -0.174920

 Total Charge           Charge          ....    0
 Multiplicity           Mult            ....    1
 Number of Electrons    NEL             ....   58
 Basis Dimension        Dim             ....  284

ORBITAL ENERGIES
----------------

  NO   OCC          E(Eh)            E(eV)
   0   2.0000     -20.548321      -559.1482
   1   2.0000     -15.600300      -424.5057
   2   2.0000     -15.555708      -423.2923
   3   2.0000     -11.328554      -308.2656
   4   2.0000     -11.322074      -308.0893
   5   2.0000     -11.293818      -307.3204
   6   2.0000     -11.276734      -306.8555
   7   2.0000     -11.244532      -305.9793
   8   2.0000      -1.388865       -37.7929
   9   2.0000      -1.335421       -36.3387
  10   2.0000      -1.176146       -32.0046
  11   2.0000      -1.123499       -30.5720
  12   2.0000      -0.927751       -25.2454
  13   2.0000      -0.871046       -23.7024
  14   2.0000      -0.803367       -21.8607
  15   2.0000      -0.776088       -21.1184
  16   2.0000      -0.744707       -20.2645
  17   2.0000      -0.665099       -18.0983
  18   2.0000      -0.654325       -17.8051
  19   2.0000      -0.637056       -17.3352
  20   2.0000      -0.609588       -16.5877
  21   2.0000      -0.577983       -15.7277
  22   2.0000      -0.554173       -15.0798
  23   2.0000      -0.540855       -14.7174
  24   2.0000      -0.502911       -13.6849
  25   2.0000      -0.456373       -12.4185
  26   2.0000      -0.432384       -11.7658
  27   2.0000      -0.380870       -10.3640
  28   2.0000      -0.356683        -9.7058
  29   0.0000       0.122370         3.3299
  30   0.0000       0.125804         3.4233
  31   0.0000       0.149835         4.0772
  32   0.0000       0.174409         4.7459
  33   0.0000       0.178459         4.8561

MULLIKEN ATOMIC CHARGES
-----------------------
   0 O :   -0.298247
   1 C :    0.065105
   2 C :    0.150597
   3 C :   -0.235295
   4 C :   -0.072867
   5 N :   -0.328919
   6 C :    0.053206
   7 N :   -0.284518
   8 H :    0.095195
   9 H :    0.158059
  10 H :    0.147114
  11 H :    0.156625
  12 H :    0.247013
  13 H :    0.146933
Sum of atomic charges:   -0.0000000

LOEWDIN ATOMIC CHARGES
----------------------
   0 O :    0.120543
   1 C :   -0.262374
   2 C :   -0.273495
   3 C :   -0.170605
   4 C :   -0.199412
   5 N :    0.097039
   6 C :   -0.303492
   7 N :    0.107836
   8 H :    0.121560
   9 H :    0.151724
  10 H :    0.144504
  11 H :    0.145846
  12 H :    0.186151
  13 H :    0.134176

  Mayer bond orders larger than 0.1
B(  0-O ,  1-C ) :   1.9480 B(  1-C ,  2-C ) :   0.9069 B(  1-C ,  8-H ) :   0.9467
B(  2-C ,  3-C ) :   0.8013 B(  2-C ,  4-C ) :   0.7946 B(  2-C ,  7-N ) :   1.0088
B(  3-C ,  4-C ) :   0.9341 B(  3-C ,  9-H ) :   0.9154 B(  3-C , 10-H ) :   0.9107
B(  4-C ,  5-N ) :   1.0020 B(  4-C , 11-H ) :   0.9002 B(  5-N ,  6-C ) :   1.1152
B(  5-N , 12-H ) :   0.8666 B(  6-C ,  7-N ) :   1.7266 B(  6-C , 13-H ) :   0.9209

MP2 TOTAL ENERGY:     -378.085360364 Eh
FINAL SINGLE POINT ENERGY      -378.085360363903

DIPOLE MOMENT
-------------
                                X             Y             Z
Electronic contribution:     -0.78938      -1.89001       0.50744
Nuclear contribution   :      1.92086       2.40778      -1.46549
                        -----------------------------------------
Total Dipole Moment    :      1.13147       0.51777      -0.95805
                        -----------------------------------------
Magnitude (a.u.)       :      1.57041
Magnitude (Debye)      :      3.99165

                             ****ORCA TERMINATED NORMALLY****
TOTAL RUN TIME: 0 days 0 hours 11 minutes 20 seconds 307 msec
