                         Program Version 3.0.3 - RELEASE   -
|  1> ! RI-MP2 RIJK def2-TZVP def2-TZVP/C def2-TZVP/JK TIGHTSCF
|  2> % maxcore 2000
|  3> % mp2 density relaxed end
|  4> *xyz 0 1
|  5>  C        0.1391377988     1.3623919320    -0.3732548180
|  6>  C        0.0160158657    -0.0077953418     0.2917404744
|  7>  O        0.4474524480     0.0147919092     1.6501219100
|  8>  C       -1.3977235735    -0.5839950082     0.1802644515
|  9>  C       -2.4599031720     0.0786215573     1.0332332027
| 10>  N       -1.7393285134    -1.0190626659    -1.1783868696
| 11>  C       -1.5694414506    -2.0469380228    -0.1168084077
| 12>  C       -0.4786940677    -2.9727559382    -0.2475821687
| 13>  C        0.4171144113    -3.7701513277    -0.3338555798
| 14>  H        1.1744217995     1.7107624736    -0.3234580298
| 15>  H       -0.1637138551     1.3038931691    -1.4219083794
| 16>  H       -0.4936698756     2.1096782455     0.1224290360
| 17>  H        0.6908132179    -0.7045467806    -0.2135195798
| 18>  H        0.1306208879     0.8313059699     2.0495143356
| 19>  H       -2.6065577321     1.1259928605     0.7456538790
| 20>  H       -3.4223585965    -0.4321033895     0.9297285619
| 21>  H       -2.1778899088     0.0499944731     2.0898954263
| 22>  H       -2.7318619336    -0.8853650965    -1.3601348154
| 23>  H       -2.4798968218    -2.4924423371     0.2805018465
| 24>  H        1.2148595615    -4.4666510518    -0.4107208758
| 25> *
| 26>
| 27>                          ****END OF INPUT****

CARTESIAN COORDINATES (ANGSTROEM)
---------------------------------
  C      0.139138    1.362392   -0.373255
  C      0.016016   -0.007795    0.291740
  O      0.447452    0.014792    1.650122
  C     -1.397724   -0.583995    0.180264
  C     -2.459903    0.078622    1.033233
  N     -1.739329   -1.019063   -1.178387
  C     -1.569441   -2.046938   -0.116808
  C     -0.478694   -2.972756   -0.247582
  C      0.417114   -3.770151   -0.333856
  H      1.174422    1.710762   -0.323458
  H     -0.163714    1.303893   -1.421908
  H     -0.493670    2.109678    0.122429
  H      0.690813   -0.704547   -0.213520
  H      0.130621    0.831306    2.049514
  H     -2.606558    1.125993    0.745654
  H     -3.422359   -0.432103    0.929729
  H     -2.177890    0.049994    2.089895
  H     -2.731862   -0.885365   -1.360135
  H     -2.479897   -2.492442    0.280502
  H      1.214860   -4.466651   -0.410721

 Total Charge           Charge          ....    0
 Multiplicity           Mult            ....    1
 Number of Electrons    NEL             ....   68
 Basis Dimension        Dim             ....  345

ORBITAL ENERGIES
----------------

  NO   OCC          E(Eh)            E(eV)
   0   2.0000     -20.554598      -559.3191
   1   2.0000     -15.569831      -423.6766
   2   2.0000     -11.285018      -307.0810
   3   2.0000     -11.280847      -306.9675
   4   2.0000     -11.277529      -306.8772
   5   2.0000     -11.235147      -305.7239
   6   2.0000     -11.231915      -305.6359
   7   2.0000     -11.221855      -305.3622
   8   2.0000     -11.219344      -305.2939
   9   2.0000      -1.362048       -37.0632
  10   2.0000      -1.278401       -34.7871
  11   2.0000      -1.039223       -28.2787
  12   2.0000      -1.029579       -28.0163
  13   2.0000      -0.988788       -26.9063
  14   2.0000      -0.915504       -24.9121
  15   2.0000      -0.878878       -23.9155
  16   2.0000      -0.781073       -21.2541
  17   2.0000      -0.725782       -19.7495
  18   2.0000      -0.691336       -18.8122
  19   2.0000      -0.684297       -18.6207
  20   2.0000      -0.640831       -17.4379
  21   2.0000      -0.622780       -16.9467
  22   2.0000      -0.600361       -16.3367
  23   2.0000      -0.583904       -15.8888
  24   2.0000      -0.558899       -15.2084
  25   2.0000      -0.534280       -14.5385
  26   2.0000      -0.529081       -14.3970
  27   2.0000      -0.507129       -13.7997
  28   2.0000      -0.501154       -13.6371
  29   2.0000      -0.470379       -12.7997
  30   2.0000      -0.445088       -12.1115
  31   2.0000      -0.417871       -11.3709
  32   2.0000      -0.387418       -10.5422
  33   2.0000      -0.362216        -9.8564
  34   0.0000       0.121872         3.3163
  35   0.0000       0.143713         3.9106
  36   0.0000       0.163469         4.4482
  37   0.0000       0.170309         4.6343
  38   0.0000       0.179095         4.8734

MULLIKEN ATOMIC CHARGES
-----------------------
   0 C :   -0.448231
   1 C :    0.100698
   2 O :   -0.477697
   3 C :    0.234072
   4 C :   -0.455451
   5 N :   -0.366479
   6 C :   -0.345800
   7 C :    0.033463
   8 C :   -0.099933
   9 H :    0.151881
  10 H :    0.153737
  11 H :    0.114425
  12 H :    0.117692
  13 H :    0.314340
  14 H :    0.144087
  15 H :    0.131722
  16 H :    0.150674
  17 H :    0.219248
  18 H :    0.136367
  19 H :    0.191184
Sum of atomic charges:   -0.0000000

LOEWDIN ATOMIC CHARGES
----------------------
   0 C :   -0.298492
   1 C :   -0.326919
   2 O :   -0.012641
   3 C :   -0.288394
   4 C :   -0.276792
   5 N :    0.047073
   6 C :   -0.222052
   7 C :   -0.091524
   8 C :   -0.084475
   9 H :    0.127506
  10 H :    0.134670
  11 H :    0.118619
  12 H :    0.159578
  13 H :    0.171189
  14 H :    0.128083
  15 H :    0.129373
  16 H :    0.133606
  17 H :    0.168424
  18 H :    0.155798
  19 H :    0.127372

  Mayer bond orders larger than 0.1
B(  0-C ,  1-C ) :   0.9452 B(  0-C ,  9-H ) :   0.9439 B(  0-C , 10-H ) :   0.9342
B(  0-C , 11-H ) :   0.9193 B(  1-C ,  2-O ) :   0.9400 B(  1-C ,  3-C ) :   0.8847
B(  1-C , 12-H ) :   0.9225 B(  2-O , 13-H ) :   0.8432 B(  3-C ,  4-C ) :   0.8757
B(  3-C ,  5-N ) :   0.8668 B(  3-C ,  6-C ) :   0.8638 B(  4-C , 14-H ) :   0.9339
B(  4-C , 15-H ) :   0.9266 B(  4-C , 16-H ) :   0.9390 B(  5-N ,  6-C ) :   1.0015
B(  5-N , 17-H ) :   0.8642 B(  6-C ,  7-C ) :   1.1677 B(  6-C ,  8-C ) :  -0.1556
B(  6-C , 18-H ) :   0.9370 B(  7-C ,  8-C ) :   2.5847 B(  8-C , 19-H ) :   0.8910

MP2 TOTAL ENERGY:     -402.397609146 Eh
FINAL SINGLE POINT ENERGY      -402.397609146167

DIPOLE MOMENT
-------------
                                X             Y             Z
Electronic contribution:      1.78801      -6.84863      -0.67535
Nuclear contribution   :     -2.57854       7.45189       0.89716
                        -----------------------------------------
Total Dipole Moment    :     -0.79053       0.60326       0.22182
                        -----------------------------------------
Magnitude (a.u.)       :      1.01885
Magnitude (Debye)      :      2.58972

                             ****ORCA TERMINATED NORMALLY****
TOTAL RUN TIME: 0 days 0 hours 20 minutes 54 seconds 539 msec
