                         Program Version 3.0.3 - RELEASE   -
|  1> ! RI-MP2 RIJK def2-TZVP def2-TZVP/C def2-TZVP/JK TIGHTSCF
|  2> % maxcore 2000
|  3> % mp2 density relaxed end
|  4> *xyz 0 1
|  5>  O       -0.0030466813    -0.0015873730     0.4379277091
|  6>  C       -0.0005484275     1.1725226917     0.1540471597
|  7>  N       -1.1182542152     1.9305054714    -0.0020190543
|  8>  C       -1.2680765235     3.3848781319     0.0208493510
|  9>  C       -0.0689863780     4.2052042082     0.5464289888
| 10>  C        0.4873975880     3.7952282655     1.8930802611
| 11>  C        1.4093402536     2.8562609006     2.1168891198
| 12>  C        2.0016760582     1.9527714998     1.0658931681
| 13>  O        1.1495137561     1.8905186632    -0.0816971180
| 14>  H       -1.9622039083     1.3948482575     0.1287895874
| 15>  H       -1.5087004034     3.7557162065    -0.9845961733
| 16>  H       -2.1409347979     3.5941609284     0.6505361166
| 17>  H        0.7202097308     4.1972226328    -0.2051063135
| 18>  H       -0.4314992649     5.2375945291     0.6145858649
| 19>  H        0.1049470172     4.3420418089     2.7522910291
| 20>  H        1.7608017060     2.6858478124     3.1319874521
| 21>  H        2.9670829388     2.3224458770     0.7025990894
| 22>  H        2.1574188312     0.9433252682     1.4647260319
| 23> *
| 24>
| 25>                          ****END OF INPUT****

CARTESIAN COORDINATES (ANGSTROEM)
---------------------------------
  O     -0.003047   -0.001587    0.437928
  C     -0.000548    1.172523    0.154047
  N     -1.118254    1.930505   -0.002019
  C     -1.268077    3.384878    0.020849
  C     -0.068986    4.205204    0.546429
  C      0.487398    3.795228    1.893080
  C      1.409340    2.856261    2.116889
  C      2.001676    1.952771    1.065893
  O      1.149514    1.890519   -0.081697
  H     -1.962204    1.394848    0.128790
  H     -1.508700    3.755716   -0.984596
  H     -2.140935    3.594161    0.650536
  H      0.720210    4.197223   -0.205106
  H     -0.431499    5.237595    0.614586
  H      0.104947    4.342042    2.752291
  H      1.760802    2.685848    3.131987
  H      2.967083    2.322446    0.702599
  H      2.157419    0.943325    1.464726

 Total Charge           Charge          ....    0
 Multiplicity           Mult            ....    1
 Number of Electrons    NEL             ....   68
 Basis Dimension        Dim             ....  333

ORBITAL ENERGIES
----------------

  NO   OCC          E(Eh)            E(eV)
   0   2.0000     -20.583426      -560.1035
   1   2.0000     -20.519120      -558.3536
   2   2.0000     -15.585270      -424.0968
   3   2.0000     -11.395187      -310.0788
   4   2.0000     -11.296461      -307.3923
   5   2.0000     -11.282667      -307.0170
   6   2.0000     -11.242625      -305.9274
   7   2.0000     -11.241570      -305.8987
   8   2.0000     -11.239959      -305.8548
   9   2.0000      -1.450762       -39.4772
  10   2.0000      -1.350622       -36.7523
  11   2.0000      -1.234603       -33.5952
  12   2.0000      -1.097712       -29.8702
  13   2.0000      -1.018310       -27.7096
  14   2.0000      -0.963003       -26.2046
  15   2.0000      -0.865691       -23.5566
  16   2.0000      -0.816910       -22.2293
  17   2.0000      -0.733964       -19.9722
  18   2.0000      -0.712043       -19.3757
  19   2.0000      -0.695361       -18.9217
  20   2.0000      -0.680843       -18.5267
  21   2.0000      -0.648465       -17.6456
  22   2.0000      -0.629140       -17.1198
  23   2.0000      -0.615091       -16.7375
  24   2.0000      -0.588159       -16.0046
  25   2.0000      -0.564695       -15.3661
  26   2.0000      -0.551258       -15.0005
  27   2.0000      -0.530172       -14.4267
  28   2.0000      -0.503111       -13.6903
  29   2.0000      -0.501784       -13.6542
  30   2.0000      -0.458350       -12.4724
  31   2.0000      -0.448154       -12.1949
  32   2.0000      -0.395413       -10.7597
  33   2.0000      -0.366570        -9.9749
  34   0.0000       0.121915         3.3175
  35   0.0000       0.141489         3.8501
  36   0.0000       0.153085         4.1657
  37   0.0000       0.167499         4.5579
  38   0.0000       0.168999         4.5987

MULLIKEN ATOMIC CHARGES
-----------------------
   0 O :   -0.351212
   1 C :    0.358249
   2 N :   -0.325829
   3 C :   -0.123182
   4 C :   -0.155387
   5 C :   -0.184110
   6 C :   -0.211973
   7 C :   -0.008330
   8 O :   -0.298327
   9 H :    0.249151
  10 H :    0.127324
  11 H :    0.123018
  12 H :    0.135926
  13 H :    0.129017
  14 H :    0.126339
  15 H :    0.128221
  16 H :    0.136012
  17 H :    0.145093
Sum of atomic charges:   -0.0000000

LOEWDIN ATOMIC CHARGES
----------------------
   0 O :    0.083299
   1 C :   -0.588033
   2 N :    0.107926
   3 C :   -0.269142
   4 C :   -0.258004
   5 C :   -0.169749
   6 C :   -0.177960
   7 C :   -0.279810
   8 O :    0.220173
   9 H :    0.195862
  10 H :    0.133795
  11 H :    0.135105
  12 H :    0.149418
  13 H :    0.146708
  14 H :    0.144946
  15 H :    0.147053
  16 H :    0.139170
  17 H :    0.139243

  Mayer bond orders larger than 0.1
B(  0-O ,  1-C ) :   1.9836 B(  1-C ,  2-N ) :   1.2046 B(  1-C ,  8-O ) :   1.0180
B(  2-N ,  3-C ) :   0.8864 B(  2-N ,  9-H ) :   0.8684 B(  3-C ,  4-C ) :   0.9226
B(  3-C , 10-H ) :   0.9277 B(  3-C , 11-H ) :   0.9311 B(  4-C ,  5-C ) :   0.9147
B(  4-C , 12-H ) :   0.9266 B(  4-C , 13-H ) :   0.9245 B(  5-C ,  6-C ) :   1.8209
B(  5-C , 14-H ) :   0.9245 B(  6-C ,  7-C ) :   0.9399 B(  6-C , 15-H ) :   0.9174
B(  7-C ,  8-O ) :   0.8647 B(  7-C , 16-H ) :   0.9199 B(  7-C , 17-H ) :   0.9357

MP2 TOTAL ENERGY:     -438.394592528 Eh
FINAL SINGLE POINT ENERGY      -438.394592527555

DIPOLE MOMENT
-------------
                                X             Y             Z
Electronic contribution:      0.38074      -5.76045      -1.82286
Nuclear contribution   :     -0.76698       7.10866       2.17418
                        -----------------------------------------
Total Dipole Moment    :     -0.38623       1.34821       0.35131
                        -----------------------------------------
Magnitude (a.u.)       :      1.44577
Magnitude (Debye)      :      3.67487

                             ****ORCA TERMINATED NORMALLY****
TOTAL RUN TIME: 0 days 0 hours 17 minutes 3 seconds 12 msec
