                         Program Version 3.0.3 - RELEASE   -
|  1> ! RI-MP2 RIJK def2-TZVP def2-TZVP/C def2-TZVP/JK TIGHTSCF
|  2> % maxcore 2000
|  3> % mp2 density relaxed end
|  4> *xyz 0 1
|  5>  C        0.3806559485     1.0384956400    -0.0317827775
|  6>  C       -0.5175574492    -0.1278360451     0.2634817925
|  7>  N       -1.1925744604    -0.4015202583     1.2863778490
|  8>  O       -0.6956621827    -0.9965887533    -0.8300042137
|  9>  C        0.3584147803    -1.7420117424    -1.2392773767
| 10>  O        1.4440949541    -1.7493966524    -0.7202695168
| 11>  C       -0.0050372968    -2.5379298710    -2.3881815623
| 12>  C       -0.2516388139    -3.2226354448    -3.3437938994
| 13>  H        1.3982102640     0.6853227556    -0.2156176839
| 14>  H        0.0354346316     1.5567132160    -0.9322951288
| 15>  H        0.3870822794     1.7394591402     0.8046640649
| 16>  H       -1.0602572338     0.3131912765     2.0017013880
| 17>  H       -0.4716462912    -3.8288428209    -4.1889017354
| 18> *
| 19>
| 20>                          ****END OF INPUT****

CARTESIAN COORDINATES (ANGSTROEM)
---------------------------------
  C      0.380656    1.038496   -0.031783
  C     -0.517557   -0.127836    0.263482
  N     -1.192574   -0.401520    1.286378
  O     -0.695662   -0.996589   -0.830004
  C      0.358415   -1.742012   -1.239277
  O      1.444095   -1.749397   -0.720270
  C     -0.005037   -2.537930   -2.388182
  C     -0.251639   -3.222635   -3.343794
  H      1.398210    0.685323   -0.215618
  H      0.035435    1.556713   -0.932295
  H      0.387082    1.739459    0.804664
  H     -1.060257    0.313191    2.001701
  H     -0.471646   -3.828843   -4.188902

 Total Charge           Charge          ....    0
 Multiplicity           Mult            ....    1
 Number of Electrons    NEL             ....   58
 Basis Dimension        Dim             ....  278

ORBITAL ENERGIES
----------------

  NO   OCC          E(Eh)            E(eV)
   0   2.0000     -20.630118      -561.3740
   1   2.0000     -20.572640      -559.8100
   2   2.0000     -15.563363      -423.5006
   3   2.0000     -11.428588      -310.9877
   4   2.0000     -11.361322      -309.1573
   5   2.0000     -11.275268      -306.8156
   6   2.0000     -11.265910      -306.5610
   7   2.0000     -11.252392      -306.1932
   8   2.0000      -1.494777       -40.6749
   9   2.0000      -1.396896       -38.0115
  10   2.0000      -1.229483       -33.4559
  11   2.0000      -1.077215       -29.3125
  12   2.0000      -1.018752       -27.7216
  13   2.0000      -0.942964       -25.6593
  14   2.0000      -0.817974       -22.2582
  15   2.0000      -0.747067       -20.3287
  16   2.0000      -0.733384       -19.9564
  17   2.0000      -0.708739       -19.2858
  18   2.0000      -0.684360       -18.6224
  19   2.0000      -0.633531       -17.2392
  20   2.0000      -0.630348       -17.1527
  21   2.0000      -0.596361       -16.2278
  22   2.0000      -0.566985       -15.4285
  23   2.0000      -0.505281       -13.7494
  24   2.0000      -0.498637       -13.5686
  25   2.0000      -0.455501       -12.3948
  26   2.0000      -0.444353       -12.0915
  27   2.0000      -0.432446       -11.7675
  28   2.0000      -0.431565       -11.7435
  29   0.0000       0.082679         2.2498
  30   0.0000       0.130388         3.5480
  31   0.0000       0.151185         4.1140
  32   0.0000       0.153842         4.1863
  33   0.0000       0.159964         4.3528

MULLIKEN ATOMIC CHARGES
-----------------------
   0 C :   -0.391111
   1 C :    0.116788
   2 N :   -0.281014
   3 O :   -0.199272
   4 C :    0.187483
   5 O :   -0.297631
   6 C :    0.020156
   7 C :   -0.060974
   8 H :    0.183143
   9 H :    0.154929
  10 H :    0.132198
  11 H :    0.227231
  12 H :    0.208076
Sum of atomic charges:    0.0000000

LOEWDIN ATOMIC CHARGES
----------------------
   0 C :   -0.278388
   1 C :   -0.382119
   2 N :   -0.006185
   3 O :    0.317894
   4 C :   -0.462329
   5 O :    0.162523
   6 C :   -0.050741
   7 C :   -0.028715
   8 H :    0.145312
   9 H :    0.141055
  10 H :    0.132464
  11 H :    0.175023
  12 H :    0.134206

  Mayer bond orders larger than 0.1
B(  0-C ,  1-C ) :   0.9499 B(  0-C ,  8-H ) :   0.9084 B(  0-C ,  9-H ) :   0.9131
B(  0-C , 10-H ) :   0.9269 B(  1-C ,  2-N ) :   2.0657 B(  1-C ,  3-O ) :   0.8948
B(  2-N , 11-H ) :   0.8477 B(  3-O ,  4-C ) :   1.1518 B(  4-C ,  5-O ) :   1.9287
B(  4-C ,  6-C ) :   1.1167 B(  4-C ,  7-C ) :  -0.1010 B(  6-C ,  7-C ) :   2.6279
B(  7-C , 12-H ) :   0.8823

MP2 TOTAL ENERGY:     -397.927233667 Eh
FINAL SINGLE POINT ENERGY      -397.927233667443

DIPOLE MOMENT
-------------
                                X             Y             Z
Electronic contribution:     -0.47392      -5.05360      -1.95406
Nuclear contribution   :      0.48226       5.85027       1.45065
                        -----------------------------------------
Total Dipole Moment    :      0.00835       0.79667      -0.50342
                        -----------------------------------------
Magnitude (a.u.)       :      0.94244
Magnitude (Debye)      :      2.39549

                             ****ORCA TERMINATED NORMALLY****
TOTAL RUN TIME: 0 days 0 hours 9 minutes 23 seconds 835 msec
