                         Program Version 3.0.3 - RELEASE   -
|  1> ! RI-MP2 RIJK def2-TZVP def2-TZVP/C def2-TZVP/JK TIGHTSCF
|  2> % maxcore 2000
|  3> % mp2 density relaxed end
|  4> *xyz 0 1
|  5>  O       -0.0099862059     1.3620161856    -0.0042579815
|  6>  C        0.0254517511    -0.0112635298     0.0273761259
|  7>  C        0.6981235970    -0.9628354419     1.1245366112
|  8>  C       -0.0302134368    -1.8894824677     0.1354783554
|  9>  N       -0.4662436808    -3.2153119173    -0.3610523323
| 10>  C       -1.1238766130    -2.8008367200    -1.3778632716
| 11>  N       -1.1344629494    -1.3104617793    -1.5616820520
| 12>  C       -1.2095858681    -0.9155197083    -0.0707842869
| 13>  C        0.3120064283    -1.0331618015    -1.1016009215
| 14>  H        0.8848575779     1.6960189288    -0.1298712418
| 15>  H        1.7908803296    -1.0011050278     1.1367664166
| 16>  H        0.2925631581    -0.8883379804     2.1362793408
| 17>  H       -1.6489742734    -3.4374125649    -2.0806686603
| 18>  H       -2.1485769487    -0.8734520207     0.4821099063
| 19>  H        1.1700782841    -1.1349816348    -1.7682665684
| 20> *
| 21>
| 22>                          ****END OF INPUT****

CARTESIAN COORDINATES (ANGSTROEM)
---------------------------------
  O     -0.009986    1.362016   -0.004258
  C      0.025452   -0.011264    0.027376
  C      0.698124   -0.962835    1.124537
  C     -0.030213   -1.889482    0.135478
  N     -0.466244   -3.215312   -0.361052
  C     -1.123877   -2.800837   -1.377863
  N     -1.134463   -1.310462   -1.561682
  C     -1.209586   -0.915520   -0.070784
  C      0.312006   -1.033162   -1.101601
  H      0.884858    1.696019   -0.129871
  H      1.790880   -1.001105    1.136766
  H      0.292563   -0.888338    2.136279
  H     -1.648974   -3.437413   -2.080669
  H     -2.148577   -0.873452    0.482110
  H      1.170078   -1.134982   -1.768267

 Total Charge           Charge          ....    0
 Multiplicity           Mult            ....    1
 Number of Electrons    NEL             ....   64
 Basis Dimension        Dim             ....  315

ORBITAL ENERGIES
----------------

  NO   OCC          E(Eh)            E(eV)
   0   2.0000     -20.584957      -560.1452
   1   2.0000     -15.580734      -423.9733
   2   2.0000     -15.573499      -423.7765
   3   2.0000     -11.324588      -308.1577
   4   2.0000     -11.308584      -307.7222
   5   2.0000     -11.287882      -307.1589
   6   2.0000     -11.283616      -307.0428
   7   2.0000     -11.281963      -306.9978
   8   2.0000     -11.260868      -306.4238
   9   2.0000      -1.403397       -38.1884
  10   2.0000      -1.356233       -36.9050
  11   2.0000      -1.201398       -32.6917
  12   2.0000      -1.112714       -30.2785
  13   2.0000      -0.919151       -25.0114
  14   2.0000      -0.906169       -24.6581
  15   2.0000      -0.871961       -23.7273
  16   2.0000      -0.781718       -21.2716
  17   2.0000      -0.734658       -19.9910
  18   2.0000      -0.710536       -19.3347
  19   2.0000      -0.660159       -17.9638
  20   2.0000      -0.651237       -17.7211
  21   2.0000      -0.627082       -17.0638
  22   2.0000      -0.599397       -16.3104
  23   2.0000      -0.571126       -15.5411
  24   2.0000      -0.550994       -14.9933
  25   2.0000      -0.533788       -14.5251
  26   2.0000      -0.493758       -13.4358
  27   2.0000      -0.454509       -12.3678
  28   2.0000      -0.440737       -11.9931
  29   2.0000      -0.427237       -11.6257
  30   2.0000      -0.386336       -10.5127
  31   2.0000      -0.376968       -10.2578
  32   0.0000       0.118904         3.2355
  33   0.0000       0.122593         3.3359
  34   0.0000       0.155206         4.2234
  35   0.0000       0.172206         4.6860
  36   0.0000       0.179596         4.8870

MULLIKEN ATOMIC CHARGES
-----------------------
   0 O :   -0.428272
   1 C :    0.036539
   2 C :   -0.182158
   3 C :    0.001268
   4 N :   -0.180213
   5 C :    0.007487
   6 N :   -0.264844
   7 C :    0.003610
   8 C :    0.003564
   9 H :    0.331121
  10 H :    0.124436
  11 H :    0.128411
  12 H :    0.146612
  13 H :    0.135202
  14 H :    0.137236
Sum of atomic charges:    0.0000000

LOEWDIN ATOMIC CHARGES
----------------------
   0 O :    0.041155
   1 C :   -0.297832
   2 C :   -0.152091
   3 C :   -0.224036
   4 N :    0.130202
   5 C :   -0.237427
   6 N :    0.103541
   7 C :   -0.102447
   8 C :   -0.115197
   9 H :    0.189158
  10 H :    0.130694
  11 H :    0.134180
  12 H :    0.130063
  13 H :    0.137044
  14 H :    0.132991

  Mayer bond orders larger than 0.1
B(  0-O ,  1-C ) :   1.1248 B(  0-O ,  9-H ) :   0.8312 B(  1-C ,  2-C ) :   0.9442
B(  1-C ,  7-C ) :   0.8574 B(  1-C ,  8-C ) :   0.8351 B(  2-C ,  3-C ) :   0.9162
B(  2-C , 10-H ) :   0.9164 B(  2-C , 11-H ) :   0.9109 B(  3-C ,  4-N ) :   1.0083
B(  3-C ,  7-C ) :   0.8944 B(  3-C ,  8-C ) :   0.9036 B(  4-N ,  5-C ) :   1.8191
B(  5-C ,  6-N ) :   0.9438 B(  5-C , 12-H ) :   0.9273 B(  6-N ,  7-C ) :   0.8505
B(  6-N ,  8-C ) :   0.8527 B(  7-C , 13-H ) :   0.8892 B(  8-C , 14-H ) :   0.8763

MP2 TOTAL ENERGY:     -415.958700926 Eh
FINAL SINGLE POINT ENERGY      -415.958700926396

DIPOLE MOMENT
-------------
                                X             Y             Z
Electronic contribution:     -1.30514      -0.72508      -1.51249
Nuclear contribution   :      2.07907       1.12808       1.74248
                        -----------------------------------------
Total Dipole Moment    :      0.77393       0.40300       0.22999
                        -----------------------------------------
Magnitude (a.u.)       :      0.90237
Magnitude (Debye)      :      2.29365

                             ****ORCA TERMINATED NORMALLY****
TOTAL RUN TIME: 0 days 0 hours 17 minutes 3 seconds 710 msec
