                         Program Version 3.0.3 - RELEASE   -
|  1> ! RI-MP2 RIJK def2-TZVP def2-TZVP/C def2-TZVP/JK TIGHTSCF
|  2> % maxcore 2000
|  3> % mp2 density relaxed end
|  4> *xyz 0 1
|  5>  C       -0.0647041997     1.5934765795    -0.0753061873
|  6>  C        0.0413219921     0.0754805931    -0.0213454312
|  7>  C        0.7266380270    -0.6360001902    -1.1962873130
|  8>  O        2.1047743809    -0.2309195238    -1.1943403746
|  9>  C        1.7043673622    -1.2992058220    -0.3192751817
| 10>  C        2.4304151324    -2.6016935246    -0.4001645738
| 11>  C        1.1104726241    -0.6179423083     0.9400747452
| 12>  C        2.0482230322     0.2675724984     1.7166922793
| 13>  O        2.0345327760     0.3757143943     2.9188774418
| 14>  H        0.8856712534     2.0418551679    -0.3761465758
| 15>  H       -0.8266017301     1.8975489374    -0.8010313367
| 16>  H       -0.3482461586     2.0061404185     0.8981086500
| 17>  H       -0.9359269604    -0.3727429925     0.1821054348
| 18>  H        0.3089883201    -0.9385119903    -2.1504624142
| 19>  H        2.5891448077    -2.8833078115    -1.4444112835
| 20>  H        3.4088266247    -2.5344000349     0.0884422187
| 21>  H        1.8609376710    -3.3934342633     0.0967206038
| 22>  H        0.6275761512    -1.3139509928     1.6293447773
| 23>  H        2.7745723738     0.8326833150     1.0956179108
| 24> *
| 25>
| 26>                          ****END OF INPUT****

CARTESIAN COORDINATES (ANGSTROEM)
---------------------------------
  C     -0.064704    1.593477   -0.075306
  C      0.041322    0.075481   -0.021345
  C      0.726638   -0.636000   -1.196287
  O      2.104774   -0.230920   -1.194340
  C      1.704367   -1.299206   -0.319275
  C      2.430415   -2.601694   -0.400165
  C      1.110473   -0.617942    0.940075
  C      2.048223    0.267572    1.716692
  O      2.034533    0.375714    2.918877
  H      0.885671    2.041855   -0.376147
  H     -0.826602    1.897549   -0.801031
  H     -0.348246    2.006140    0.898109
  H     -0.935927   -0.372743    0.182105
  H      0.308988   -0.938512   -2.150462
  H      2.589145   -2.883308   -1.444411
  H      3.408827   -2.534400    0.088442
  H      1.860938   -3.393434    0.096721
  H      0.627576   -1.313951    1.629345
  H      2.774572    0.832683    1.095618

 Total Charge           Charge          ....    0
 Multiplicity           Mult            ....    1
 Number of Electrons    NEL             ....   68
 Basis Dimension        Dim             ....  339

ORBITAL ENERGIES
----------------

  NO   OCC          E(Eh)            E(eV)
   0   2.0000     -20.577645      -559.9462
   1   2.0000     -20.554010      -559.3030
   2   2.0000     -11.326234      -308.2025
   3   2.0000     -11.306882      -307.6759
   4   2.0000     -11.294934      -307.3508
   5   2.0000     -11.259955      -306.3990
   6   2.0000     -11.252001      -306.1825
   7   2.0000     -11.239649      -305.8464
   8   2.0000     -11.225682      -305.4663
   9   2.0000      -1.430439       -38.9242
  10   2.0000      -1.390668       -37.8420
  11   2.0000      -1.115071       -30.3426
  12   2.0000      -1.029105       -28.0034
  13   2.0000      -0.975911       -26.5559
  14   2.0000      -0.936933       -25.4953
  15   2.0000      -0.816299       -22.2126
  16   2.0000      -0.811942       -22.0941
  17   2.0000      -0.755662       -20.5626
  18   2.0000      -0.703873       -19.1534
  19   2.0000      -0.662066       -18.0157
  20   2.0000      -0.640528       -17.4297
  21   2.0000      -0.633551       -17.2398
  22   2.0000      -0.595796       -16.2124
  23   2.0000      -0.586155       -15.9501
  24   2.0000      -0.579785       -15.7768
  25   2.0000      -0.567922       -15.4540
  26   2.0000      -0.536781       -14.6066
  27   2.0000      -0.528623       -14.3846
  28   2.0000      -0.516987       -14.0679
  29   2.0000      -0.501220       -13.6389
  30   2.0000      -0.473668       -12.8892
  31   2.0000      -0.443694       -12.0735
  32   2.0000      -0.429601       -11.6900
  33   2.0000      -0.394403       -10.7322
  34   0.0000       0.119632         3.2553
  35   0.0000       0.131446         3.5768
  36   0.0000       0.153758         4.1840
  37   0.0000       0.164693         4.4815
  38   0.0000       0.171053         4.6546

MULLIKEN ATOMIC CHARGES
-----------------------
   0 C :   -0.434730
   1 C :   -0.025669
   2 C :   -0.040324
   3 O :   -0.336213
   4 C :    0.127279
   5 C :   -0.414704
   6 C :    0.031111
   7 C :    0.001390
   8 O :   -0.264788
   9 H :    0.148646
  10 H :    0.136145
  11 H :    0.146135
  12 H :    0.112512
  13 H :    0.139714
  14 H :    0.147939
  15 H :    0.146882
  16 H :    0.140100
  17 H :    0.124179
  18 H :    0.114397
Sum of atomic charges:    0.0000000

LOEWDIN ATOMIC CHARGES
----------------------
   0 C :   -0.293687
   1 C :   -0.200440
   2 C :   -0.204991
   3 O :    0.189128
   4 C :   -0.281551
   5 C :   -0.267123
   6 C :   -0.157912
   7 C :   -0.274115
   8 O :    0.129642
   9 H :    0.130311
  10 H :    0.127409
  11 H :    0.129408
  12 H :    0.155029
  13 H :    0.132281
  14 H :    0.137668
  15 H :    0.135539
  16 H :    0.135006
  17 H :    0.158929
  18 H :    0.119468

  Mayer bond orders larger than 0.1
B(  0-C ,  1-C ) :   0.8980 B(  0-C ,  9-H ) :   0.9368 B(  0-C , 10-H ) :   0.9323
B(  0-C , 11-H ) :   0.9371 B(  1-C ,  2-C ) :   0.8725 B(  1-C ,  6-C ) :   0.9024
B(  1-C , 12-H ) :   0.9047 B(  2-C ,  3-O ) :   0.9040 B(  2-C ,  4-C ) :   0.8598
B(  2-C , 13-H ) :   0.9193 B(  3-O ,  4-C ) :   0.8812 B(  4-C ,  5-C ) :   0.8784
B(  4-C ,  6-C ) :   0.8407 B(  5-C , 14-H ) :   0.9377 B(  5-C , 15-H ) :   0.9337
B(  5-C , 16-H ) :   0.9381 B(  6-C ,  7-C ) :   0.8169 B(  6-C , 17-H ) :   0.9040
B(  6-C , 18-H ) :  -0.1086 B(  7-C ,  8-O ) :   1.9724 B(  7-C , 18-H ) :   0.9576

MP2 TOTAL ENERGY:     -422.293122829 Eh
FINAL SINGLE POINT ENERGY      -422.293122828681

DIPOLE MOMENT
-------------
                                X             Y             Z
Electronic contribution:      2.43654       0.62761       2.43190
Nuclear contribution   :     -3.11716      -1.30681      -3.28481
                        -----------------------------------------
Total Dipole Moment    :     -0.68062      -0.67919      -0.85291
                        -----------------------------------------
Magnitude (a.u.)       :      1.28530
Magnitude (Debye)      :      3.26698

                             ****ORCA TERMINATED NORMALLY****
TOTAL RUN TIME: 0 days 0 hours 19 minutes 28 seconds 680 msec
