                         Program Version 3.0.3 - RELEASE   -
|  1> ! RI-MP2 RIJK def2-TZVP def2-TZVP/C def2-TZVP/JK TIGHTSCF
|  2> % maxcore 2000
|  3> % mp2 density relaxed end
|  4> *xyz 0 1
|  5>  N       -0.0695071118     1.1536557861    -0.6558782418
|  6>  C       -0.0060073880     0.0074655149    -0.0873724989
|  7>  C       -1.2443164162    -0.7308815798     0.1001401050
|  8>  C       -1.4547144848    -1.9378364127     0.6605436203
|  9>  C       -0.4909081340    -2.8383847421     1.2347126514
| 10>  C        0.8348249336    -2.6825520958     1.3432875886
| 11>  O        1.6409912578    -1.6612652089     0.9571834590
| 12>  C        1.3884222999    -0.4658309015     0.3381835029
| 13>  O        2.3434419325     0.2285153924     0.1322086780
| 14>  H        0.8741551103     1.5476291807    -0.7162328228
| 15>  H       -2.0978041443    -0.1833897086    -0.2862831237
| 16>  H       -2.4828011632    -2.2875220947     0.6880527682
| 17>  H       -0.8684335562    -3.7720139534     1.6378063075
| 18>  H        1.4511904142    -3.4467497167     1.8019975264
| 19> *
| 20>
| 21>                          ****END OF INPUT****

CARTESIAN COORDINATES (ANGSTROEM)
---------------------------------
  N     -0.069507    1.153656   -0.655878
  C     -0.006007    0.007466   -0.087372
  C     -1.244316   -0.730882    0.100140
  C     -1.454714   -1.937836    0.660544
  C     -0.490908   -2.838385    1.234713
  C      0.834825   -2.682552    1.343288
  O      1.640991   -1.661265    0.957183
  C      1.388422   -0.465831    0.338184
  O      2.343442    0.228515    0.132209
  H      0.874155    1.547629   -0.716233
  H     -2.097804   -0.183390   -0.286283
  H     -2.482801   -2.287522    0.688053
  H     -0.868434   -3.772014    1.637806
  H      1.451190   -3.446750    1.801998

 Total Charge           Charge          ....    0
 Multiplicity           Mult            ....    1
 Number of Electrons    NEL             ....   64
 Basis Dimension        Dim             ....  309

ORBITAL ENERGIES
----------------

  NO   OCC          E(Eh)            E(eV)
   0   2.0000     -20.644602      -561.7682
   1   2.0000     -20.572435      -559.8044
   2   2.0000     -15.579161      -423.9305
   3   2.0000     -11.419261      -310.7339
   4   2.0000     -11.337547      -308.5103
   5   2.0000     -11.320231      -308.0391
   6   2.0000     -11.273805      -306.7758
   7   2.0000     -11.259842      -306.3959
   8   2.0000     -11.257863      -306.3420
   9   2.0000      -1.498583       -40.7785
  10   2.0000      -1.403741       -38.1977
  11   2.0000      -1.241370       -33.7794
  12   2.0000      -1.124812       -30.6077
  13   2.0000      -1.052237       -28.6328
  14   2.0000      -0.938894       -25.5486
  15   2.0000      -0.920757       -25.0551
  16   2.0000      -0.821719       -22.3601
  17   2.0000      -0.762509       -20.7489
  18   2.0000      -0.736548       -20.0425
  19   2.0000      -0.677726       -18.4419
  20   2.0000      -0.674269       -18.3478
  21   2.0000      -0.664337       -18.0775
  22   2.0000      -0.655203       -17.8290
  23   2.0000      -0.604009       -16.4359
  24   2.0000      -0.556336       -15.1387
  25   2.0000      -0.548361       -14.9217
  26   2.0000      -0.540470       -14.7069
  27   2.0000      -0.506564       -13.7843
  28   2.0000      -0.492786       -13.4094
  29   2.0000      -0.456477       -12.4214
  30   2.0000      -0.433416       -11.7939
  31   2.0000      -0.331029        -9.0078
  32   0.0000       0.049203         1.3389
  33   0.0000       0.084118         2.2890
  34   0.0000       0.138100         3.7579
  35   0.0000       0.167143         4.5482
  36   0.0000       0.172978         4.7070

MULLIKEN ATOMIC CHARGES
-----------------------
   0 N :   -0.297980
   1 C :    0.024972
   2 C :   -0.197813
   3 C :   -0.045807
   4 C :   -0.177349
   5 C :    0.027556
   6 O :   -0.176346
   7 C :    0.296952
   8 O :   -0.273936
   9 H :    0.241210
  10 H :    0.141612
  11 H :    0.140756
  12 H :    0.146512
  13 H :    0.149662
Sum of atomic charges:   -0.0000000

LOEWDIN ATOMIC CHARGES
----------------------
   0 N :    0.025092
   1 C :   -0.258504
   2 C :   -0.123361
   3 C :   -0.139534
   4 C :   -0.190469
   5 C :   -0.223176
   6 O :    0.332971
   7 C :   -0.399739
   8 O :    0.167207
   9 H :    0.172901
  10 H :    0.164953
  11 H :    0.159005
  12 H :    0.163779
  13 H :    0.148876

  Mayer bond orders larger than 0.1
B(  0-N ,  1-C ) :   1.8941 B(  0-N ,  9-H ) :   0.8518 B(  1-C ,  2-C ) :   1.0438
B(  1-C ,  7-C ) :   0.8837 B(  2-C ,  3-C ) :   1.6419 B(  2-C , 10-H ) :   0.9229
B(  3-C ,  4-C ) :   1.0427 B(  3-C , 11-H ) :   0.9219 B(  4-C ,  5-C ) :   1.6184
B(  4-C , 12-H ) :   0.9098 B(  5-C ,  6-O ) :   1.0207 B(  5-C , 13-H ) :   0.9457
B(  6-O ,  7-C ) :   1.0591 B(  7-C ,  8-O ) :   1.9517

MP2 TOTAL ENERGY:     -435.972223054 Eh
FINAL SINGLE POINT ENERGY      -435.972223054498

DIPOLE MOMENT
-------------
                                X             Y             Z
Electronic contribution:      4.03473       1.82673      -0.32913
Nuclear contribution   :     -4.71241      -3.09143       0.85225
                        -----------------------------------------
Total Dipole Moment    :     -0.67768      -1.26470       0.52312
                        -----------------------------------------
Magnitude (a.u.)       :      1.52720
Magnitude (Debye)      :      3.88184

                             ****ORCA TERMINATED NORMALLY****
TOTAL RUN TIME: 0 days 0 hours 13 minutes 44 seconds 382 msec
