                         Program Version 3.0.3 - RELEASE   -
|  1> ! RI-MP2 RIJK def2-TZVP def2-TZVP/C def2-TZVP/JK TIGHTSCF
|  2> % maxcore 2000
|  3> % mp2 density relaxed end
|  4> *xyz 0 1
|  5>  C        0.0246240443     1.5990157043    -0.0939364413
|  6>  C        0.0952016387     0.0708586407    -0.0166187016
|  7>  C        0.7202069823    -0.5254242377    -1.2980982164
|  8>  O       -0.0056738549    -0.1902754878    -2.4695019770
|  9>  C        0.8390359279    -0.4233086442     1.1882538759
| 10>  C        1.6717882560     0.2327617538     2.0667428805
| 11>  N        2.0677269931    -0.7332361238     2.9297969422
| 12>  N        1.5239786572    -1.9235873105     2.6224746387
| 13>  N        0.7827546563    -1.7371995725     1.5702222105
| 14>  H        1.0294695372     2.0368510420    -0.1231267823
| 15>  H       -0.4896843056     1.8983569631    -1.0094955285
| 16>  H       -0.5070830364     2.0216243330     0.7638358506
| 17>  H       -0.9270316801    -0.3282577227     0.0504611672
| 18>  H        1.7255346265    -0.1114571207    -1.4386935297
| 19>  H        0.8217400631    -1.6121666520    -1.1792023560
| 20>  H       -0.8345939541    -0.6793396587    -2.4511379760
| 21>  H        1.9944423389     1.2558442391     2.1526081694
| 22>  H        2.6766905496    -0.6605272153     3.7290160638
| 23> *
| 24>
| 25>                          ****END OF INPUT****

CARTESIAN COORDINATES (ANGSTROEM)
---------------------------------
  C      0.024624    1.599016   -0.093936
  C      0.095202    0.070859   -0.016619
  C      0.720207   -0.525424   -1.298098
  O     -0.005674   -0.190275   -2.469502
  C      0.839036   -0.423309    1.188254
  C      1.671788    0.232762    2.066743
  N      2.067727   -0.733236    2.929797
  N      1.523979   -1.923587    2.622475
  N      0.782755   -1.737200    1.570222
  H      1.029470    2.036851   -0.123127
  H     -0.489684    1.898357   -1.009496
  H     -0.507083    2.021624    0.763836
  H     -0.927032   -0.328258    0.050461
  H      1.725535   -0.111457   -1.438694
  H      0.821740   -1.612167   -1.179202
  H     -0.834594   -0.679340   -2.451138
  H      1.994442    1.255844    2.152608
  H      2.676691   -0.660527    3.729016

 Total Charge           Charge          ....    0
 Multiplicity           Mult            ....    1
 Number of Electrons    NEL             ....   68
 Basis Dimension        Dim             ....  333

ORBITAL ENERGIES
----------------

  NO   OCC          E(Eh)            E(eV)
   0   2.0000     -20.555704      -559.3491
   1   2.0000     -15.660035      -426.1312
   2   2.0000     -15.643968      -425.6940
   3   2.0000     -15.595525      -424.3758
   4   2.0000     -11.285028      -307.0812
   5   2.0000     -11.273998      -306.7811
   6   2.0000     -11.261122      -306.4307
   7   2.0000     -11.242380      -305.9207
   8   2.0000     -11.220086      -305.3141
   9   2.0000      -1.439128       -39.1607
  10   2.0000      -1.360387       -37.0180
  11   2.0000      -1.203980       -32.7620
  12   2.0000      -1.115702       -30.3598
  13   2.0000      -1.035964       -28.1900
  14   2.0000      -0.928535       -25.2667
  15   2.0000      -0.874548       -23.7976
  16   2.0000      -0.851196       -23.1622
  17   2.0000      -0.792628       -21.5685
  18   2.0000      -0.750878       -20.4324
  19   2.0000      -0.685379       -18.6501
  20   2.0000      -0.653200       -17.7745
  21   2.0000      -0.640722       -17.4349
  22   2.0000      -0.626724       -17.0540
  23   2.0000      -0.622875       -16.9493
  24   2.0000      -0.570316       -15.5191
  25   2.0000      -0.549320       -14.9478
  26   2.0000      -0.531017       -14.4497
  27   2.0000      -0.518844       -14.1185
  28   2.0000      -0.495687       -13.4883
  29   2.0000      -0.481615       -13.1054
  30   2.0000      -0.450029       -12.2459
  31   2.0000      -0.435318       -11.8456
  32   2.0000      -0.416905       -11.3446
  33   2.0000      -0.351925        -9.5764
  34   0.0000       0.123308         3.3554
  35   0.0000       0.133687         3.6378
  36   0.0000       0.136090         3.7032
  37   0.0000       0.148932         4.0526
  38   0.0000       0.180358         4.9078

MULLIKEN ATOMIC CHARGES
-----------------------
   0 C :   -0.404092
   1 C :   -0.060762
   2 C :   -0.053951
   3 O :   -0.472787
   4 C :   -0.005165
   5 C :   -0.151916
   6 N :   -0.059214
   7 N :   -0.149265
   8 N :   -0.146327
   9 H :    0.114214
  10 H :    0.154648
  11 H :    0.140515
  12 H :    0.100960
  13 H :    0.103705
  14 H :    0.139637
  15 H :    0.317244
  16 H :    0.169028
  17 H :    0.263530
Sum of atomic charges:    0.0000000

LOEWDIN ATOMIC CHARGES
----------------------
   0 C :   -0.285972
   1 C :   -0.264587
   2 C :   -0.318094
   3 O :   -0.045238
   4 C :   -0.261598
   5 C :   -0.227777
   6 N :    0.121558
   7 N :   -0.052732
   8 N :    0.028067
   9 H :    0.123253
  10 H :    0.130840
  11 H :    0.124478
  12 H :    0.161906
  13 H :    0.130735
  14 H :    0.125671
  15 H :    0.175003
  16 H :    0.143424
  17 H :    0.191063

  Mayer bond orders larger than 0.1
B(  0-C ,  1-C ) :   0.9156 B(  0-C ,  9-H ) :   0.9250 B(  0-C , 10-H ) :   0.9319
B(  0-C , 11-H ) :   0.9401 B(  1-C ,  2-C ) :   0.9045 B(  1-C ,  4-C ) :   0.9003
B(  1-C , 12-H ) :   0.9221 B(  2-C ,  3-O ) :   0.9306 B(  2-C , 13-H ) :   0.9174
B(  2-C , 14-H ) :   0.9394 B(  3-O , 15-H ) :   0.8464 B(  4-C ,  5-C ) :   1.4326
B(  4-C ,  8-N ) :   1.3651 B(  5-C ,  6-N ) :   1.2033 B(  5-C ,  7-N ) :   0.1333
B(  5-C , 16-H ) :   0.8998 B(  6-N ,  7-N ) :   1.0606 B(  6-N , 17-H ) :   0.8633
B(  7-N ,  8-N ) :   1.2889

MP2 TOTAL ENERGY:     -434.552599433 Eh
FINAL SINGLE POINT ENERGY      -434.552599432589

DIPOLE MOMENT
-------------
                                X             Y             Z
Electronic contribution:      2.36714      -5.72746       5.84022
Nuclear contribution   :     -1.95543       6.84258      -5.06123
                        -----------------------------------------
Total Dipole Moment    :      0.41172       1.11512       0.77899
                        -----------------------------------------
Magnitude (a.u.)       :      1.42121
Magnitude (Debye)      :      3.61243

                             ****ORCA TERMINATED NORMALLY****
TOTAL RUN TIME: 0 days 0 hours 16 minutes 6 seconds 923 msec
