                         Program Version 3.0.3 - RELEASE   -
|  1> ! RI-MP2 RIJK def2-TZVP def2-TZVP/C def2-TZVP/JK TIGHTSCF
|  2> % maxcore 2000
|  3> % mp2 density relaxed end
|  4> *xyz 0 1
|  5>  C        0.1869288679     1.5854069835    -0.0254595674
|  6>  C        0.1015430178     0.0815856501    -0.0638161355
|  7>  C        0.3667914227    -0.8474628898    -1.2676931775
|  8>  C        0.9742454577    -1.8705100893    -0.2135280638
|  9>  C        0.6514343607    -0.8995376685     0.9868328737
| 10>  O       -0.7051743035    -1.0812978407     1.5927991148
| 11>  C       -1.1561497126    -0.6738182608     0.3483675449
| 12>  N       -1.8656236081    -1.3034024981    -0.4885958660
| 13>  C       -1.0823188211    -1.1416044068    -1.7613370252
| 14>  H        1.2095253771     1.9262260733    -0.2177564114
| 15>  H       -0.4636468842     2.0342003744    -0.7834349881
| 16>  H       -0.1212513304     1.9704457180     0.9520187681
| 17>  H        1.0634498713    -0.5295300747    -2.0461690949
| 18>  H        0.5297068059    -2.8655106008    -0.1586852901
| 19>  H        2.0556845947    -1.9669614379    -0.3357065306
| 20>  H        1.3883390599    -0.7079579206     1.7652562211
| 21>  H       -1.4647828067    -0.3472427995    -2.4173374407
| 22>  H       -1.1618428391    -2.0869628718    -2.3069000615
| 23> *
| 24>
| 25>                          ****END OF INPUT****

CARTESIAN COORDINATES (ANGSTROEM)
---------------------------------
  C      0.186929    1.585407   -0.025460
  C      0.101543    0.081586   -0.063816
  C      0.366791   -0.847463   -1.267693
  C      0.974245   -1.870510   -0.213528
  C      0.651434   -0.899538    0.986833
  O     -0.705174   -1.081298    1.592799
  C     -1.156150   -0.673818    0.348368
  N     -1.865624   -1.303402   -0.488596
  C     -1.082319   -1.141604   -1.761337
  H      1.209525    1.926226   -0.217756
  H     -0.463647    2.034200   -0.783435
  H     -0.121251    1.970446    0.952019
  H      1.063450   -0.529530   -2.046169
  H      0.529707   -2.865511   -0.158685
  H      2.055685   -1.966961   -0.335707
  H      1.388339   -0.707958    1.765256
  H     -1.464783   -0.347243   -2.417337
  H     -1.161843   -2.086963   -2.306900

 Total Charge           Charge          ....    0
 Multiplicity           Mult            ....    1
 Number of Electrons    NEL             ....   66
 Basis Dimension        Dim             ....  333

ORBITAL ENERGIES
----------------

  NO   OCC          E(Eh)            E(eV)
   0   2.0000     -20.586009      -560.1738
   1   2.0000     -15.539492      -422.8511
   2   2.0000     -11.334133      -308.4174
   3   2.0000     -11.308930      -307.7316
   4   2.0000     -11.262895      -306.4789
   5   2.0000     -11.254418      -306.2483
   6   2.0000     -11.249447      -306.1130
   7   2.0000     -11.248002      -306.0737
   8   2.0000     -11.238795      -305.8232
   9   2.0000      -1.427267       -38.8379
  10   2.0000      -1.237769       -33.6814
  11   2.0000      -1.133753       -30.8510
  12   2.0000      -1.012362       -27.5478
  13   2.0000      -0.956511       -26.0280
  14   2.0000      -0.901439       -24.5294
  15   2.0000      -0.875727       -23.8297
  16   2.0000      -0.776454       -21.1284
  17   2.0000      -0.688084       -18.7237
  18   2.0000      -0.684225       -18.6187
  19   2.0000      -0.670772       -18.2526
  20   2.0000      -0.637595       -17.3498
  21   2.0000      -0.603312       -16.4170
  22   2.0000      -0.598138       -16.2762
  23   2.0000      -0.579203       -15.7609
  24   2.0000      -0.571934       -15.5631
  25   2.0000      -0.543452       -14.7881
  26   2.0000      -0.541764       -14.7422
  27   2.0000      -0.483579       -13.1588
  28   2.0000      -0.461729       -12.5643
  29   2.0000      -0.454496       -12.3675
  30   2.0000      -0.450926       -12.2703
  31   2.0000      -0.413289       -11.2462
  32   2.0000      -0.359414        -9.7801
  33   0.0000       0.118722         3.2306
  34   0.0000       0.132321         3.6006
  35   0.0000       0.158186         4.3044
  36   0.0000       0.160985         4.3806
  37   0.0000       0.178913         4.8685

MULLIKEN ATOMIC CHARGES
-----------------------
   0 C :   -0.430587
   1 C :    0.137488
   2 C :   -0.142812
   3 C :   -0.235883
   4 C :   -0.028379
   5 O :   -0.259100
   6 C :    0.082902
   7 N :   -0.203056
   8 C :   -0.119842
   9 H :    0.139790
  10 H :    0.144372
  11 H :    0.151076
  12 H :    0.116335
  13 H :    0.136701
  14 H :    0.135367
  15 H :    0.129832
  16 H :    0.116996
  17 H :    0.128800
Sum of atomic charges:   -0.0000000

LOEWDIN ATOMIC CHARGES
----------------------
   0 C :   -0.263631
   1 C :   -0.203061
   2 C :   -0.172852
   3 C :   -0.174811
   4 C :   -0.158930
   5 O :    0.213334
   6 C :   -0.329402
   7 N :    0.106726
   8 C :   -0.231845
   9 H :    0.129881
  10 H :    0.134146
  11 H :    0.136590
  12 H :    0.139404
  13 H :    0.139368
  14 H :    0.140156
  15 H :    0.132366
  16 H :    0.128407
  17 H :    0.134154

  Mayer bond orders larger than 0.1
B(  0-C ,  1-C ) :   0.8393 B(  0-C ,  9-H ) :   0.9407 B(  0-C , 10-H ) :   0.9366
B(  0-C , 11-H ) :   0.9391 B(  1-C ,  2-C ) :   0.8885 B(  1-C ,  4-C ) :   0.8726
B(  1-C ,  6-C ) :   0.9279 B(  2-C ,  3-C ) :   0.9457 B(  2-C ,  8-C ) :   0.9395
B(  2-C , 12-H ) :   0.9062 B(  3-C ,  4-C ) :   0.9091 B(  3-C , 13-H ) :   0.8961
B(  3-C , 14-H ) :   0.9151 B(  4-C ,  5-O ) :   0.8915 B(  4-C , 15-H ) :   0.9222
B(  5-O ,  6-C ) :   1.0695 B(  6-C ,  7-N ) :   1.8967 B(  7-N ,  8-C ) :   0.8894
B(  8-C , 16-H ) :   0.9157 B(  8-C , 17-H ) :   0.9216

MP2 TOTAL ENERGY:     -401.194286503 Eh
FINAL SINGLE POINT ENERGY      -401.194286502601

DIPOLE MOMENT
-------------
                                X             Y             Z
Electronic contribution:     -3.81144      -2.65829       3.81590
Nuclear contribution   :      5.15280       3.29316      -4.43328
                        -----------------------------------------
Total Dipole Moment    :      1.34136       0.63488      -0.61738
                        -----------------------------------------
Magnitude (a.u.)       :      1.60732
Magnitude (Debye)      :      4.08548

                             ****ORCA TERMINATED NORMALLY****
TOTAL RUN TIME: 0 days 0 hours 21 minutes 13 seconds 664 msec
