                         Program Version 3.0.3 - RELEASE   -
|  1> ! RI-MP2 RIJK def2-TZVP def2-TZVP/C def2-TZVP/JK TIGHTSCF
|  2> % maxcore 2000
|  3> % mp2 density relaxed end
|  4> *xyz 0 1
|  5>  C        0.0035832853     1.5711520236    -0.0290955104
|  6>  C        0.0002722740     0.0727358480     0.0373427301
|  7>  C        1.1708861046    -0.8087056347    -0.3725816020
|  8>  C        0.6016296700    -0.9246332586     1.0121241542
|  9>  C        1.3410931496    -0.8280747945     2.3058180720
| 10>  O       -0.5633463986    -1.7660533752     0.9757085859
| 11>  C       -1.2375764423    -0.8164187899     0.1087543175
| 12>  H        0.9903080592     1.9751653014     0.2198203264
| 13>  H       -0.2490754612     1.9281041109    -1.0351359301
| 14>  H       -0.7205328733     2.0057298036     0.6695112951
| 15>  H        1.0379390789    -1.6245920831    -1.0791497450
| 16>  H        2.1197126574    -0.2849259561    -0.4493962622
| 17>  H        2.1487127157    -0.0937563879     2.2334599762
| 18>  H        0.6718982054    -0.5349147933     3.1208686737
| 19>  H        1.7882584906    -1.7946023367     2.5652840203
| 20>  H       -2.0806813984    -0.3482824173     0.6324250254
| 21>  H       -1.5935052168    -1.2781254002    -0.8209002071
| 22> *
| 23>
| 24>                          ****END OF INPUT****

CARTESIAN COORDINATES (ANGSTROEM)
---------------------------------
  C      0.003583    1.571152   -0.029096
  C      0.000272    0.072736    0.037343
  C      1.170886   -0.808706   -0.372582
  C      0.601630   -0.924633    1.012124
  C      1.341093   -0.828075    2.305818
  O     -0.563346   -1.766053    0.975709
  C     -1.237576   -0.816419    0.108754
  H      0.990308    1.975165    0.219820
  H     -0.249075    1.928104   -1.035136
  H     -0.720533    2.005730    0.669511
  H      1.037939   -1.624592   -1.079150
  H      2.119713   -0.284926   -0.449396
  H      2.148713   -0.093756    2.233460
  H      0.671898   -0.534915    3.120869
  H      1.788258   -1.794602    2.565284
  H     -2.080681   -0.348282    0.632425
  H     -1.593505   -1.278125   -0.820900

 Total Charge           Charge          ....    0
 Multiplicity           Mult            ....    1
 Number of Electrons    NEL             ....   54
 Basis Dimension        Dim             ....  277

ORBITAL ENERGIES
----------------

  NO   OCC          E(Eh)            E(eV)
   0   2.0000     -20.545623      -559.0748
   1   2.0000     -11.286344      -307.1170
   2   2.0000     -11.277048      -306.8641
   3   2.0000     -11.238665      -305.8196
   4   2.0000     -11.226932      -305.5003
   5   2.0000     -11.224608      -305.4371
   6   2.0000     -11.222707      -305.3854
   7   2.0000      -1.384923       -37.6857
   8   2.0000      -1.122345       -30.5406
   9   2.0000      -1.008828       -27.4516
  10   2.0000      -0.960532       -26.1374
  11   2.0000      -0.909524       -24.7494
  12   2.0000      -0.804222       -21.8840
  13   2.0000      -0.691431       -18.8148
  14   2.0000      -0.669964       -18.2307
  15   2.0000      -0.650137       -17.6911
  16   2.0000      -0.628255       -17.0957
  17   2.0000      -0.578998       -15.7553
  18   2.0000      -0.568349       -15.4656
  19   2.0000      -0.560421       -15.2498
  20   2.0000      -0.547145       -14.8886
  21   2.0000      -0.540008       -14.6944
  22   2.0000      -0.525262       -14.2931
  23   2.0000      -0.484000       -13.1703
  24   2.0000      -0.455274       -12.3886
  25   2.0000      -0.391279       -10.6472
  26   2.0000      -0.361497        -9.8368
  27   0.0000       0.130834         3.5602
  28   0.0000       0.164017         4.4631
  29   0.0000       0.178915         4.8685
  30   0.0000       0.182134         4.9561
  31   0.0000       0.195255         5.3132

MULLIKEN ATOMIC CHARGES
-----------------------
   0 C :   -0.393429
   1 C :   -0.048661
   2 C :   -0.271455
   3 C :    0.183287
   4 C :   -0.395026
   5 O :   -0.335241
   6 C :    0.002795
   7 H :    0.128444
   8 H :    0.138577
   9 H :    0.130991
  10 H :    0.130698
  11 H :    0.126340
  12 H :    0.126583
  13 H :    0.135044
  14 H :    0.144231
  15 H :    0.096217
  16 H :    0.100607
Sum of atomic charges:    0.0000000

LOEWDIN ATOMIC CHARGES
----------------------
   0 C :   -0.277518
   1 C :   -0.230066
   2 C :   -0.173407
   3 C :   -0.294146
   4 C :   -0.269762
   5 O :    0.159485
   6 C :   -0.221037
   7 H :    0.130556
   8 H :    0.129522
   9 H :    0.128283
  10 H :    0.134931
  11 H :    0.141438
  12 H :    0.133250
  13 H :    0.131175
  14 H :    0.135052
  15 H :    0.123909
  16 H :    0.118336

  Mayer bond orders larger than 0.1
B(  0-C ,  1-C ) :   0.8997 B(  0-C ,  7-H ) :   0.9331 B(  0-C ,  8-H ) :   0.9357
B(  0-C ,  9-H ) :   0.9358 B(  1-C ,  2-C ) :   0.8729 B(  1-C ,  3-C ) :   0.8841
B(  1-C ,  6-C ) :   0.9735 B(  2-C ,  3-C ) :   0.8675 B(  2-C , 10-H ) :   0.9054
B(  2-C , 11-H ) :   0.9283 B(  3-C ,  4-C ) :   0.9003 B(  3-C ,  5-O ) :   0.9598
B(  4-C , 12-H ) :   0.9299 B(  4-C , 13-H ) :   0.9341 B(  4-C , 14-H ) :   0.9364
B(  5-O ,  6-C ) :   0.9378 B(  6-C , 15-H ) :   0.9105 B(  6-C , 16-H ) :   0.9103

MP2 TOTAL ENERGY:     -309.146664879 Eh
FINAL SINGLE POINT ENERGY      -309.146664879182

DIPOLE MOMENT
-------------
                                X             Y             Z
Electronic contribution:     -1.92494      -3.91293      -0.26212
Nuclear contribution   :      2.15462       4.63077       0.09611
                        -----------------------------------------
Total Dipole Moment    :      0.22967       0.71784      -0.16601
                        -----------------------------------------
Magnitude (a.u.)       :      0.77175
Magnitude (Debye)      :      1.96163

                             ****ORCA TERMINATED NORMALLY****
TOTAL RUN TIME: 0 days 0 hours 8 minutes 52 seconds 856 msec
