                         Program Version 3.0.3 - RELEASE   -
|  1> ! RI-MP2 RIJK def2-TZVP def2-TZVP/C def2-TZVP/JK TIGHTSCF
|  2> % maxcore 2000
|  3> % mp2 density relaxed end
|  4> *xyz 0 1
|  5>  C        0.0104344125     1.5692018239     0.2552718456
|  6>  C        0.1049534909     0.0987961297    -0.0103511398
|  7>  N       -0.8616468082    -0.8635922362     0.5534369444
|  8>  C        0.6018743172    -1.0427470377     0.8443270773
|  9>  C        1.0665260347    -1.7725084970    -0.3912272988
| 10>  C        0.9644061874    -2.8674590983    -1.1303212825
| 11>  C        0.6495684832    -2.4050500506    -2.5526750264
| 12>  O        0.2697976781    -1.0158097886    -2.4442638893
| 13>  C        0.8279733389    -0.5592227845    -1.2337212681
| 14>  H        0.9341155679     2.0810706113    -0.0341825265
| 15>  H       -0.8127990440     2.0170050556    -0.3131707828
| 16>  H       -0.1678874419     1.7702314319     1.3177224027
| 17>  H       -1.2676782189    -0.4098820016     1.3751358870
| 18>  H        0.9752925266    -1.0448049713     1.8597572646
| 19>  H        0.9501837941    -3.9079886393    -0.8332649044
| 20>  H        1.5004043994    -2.5090171588    -3.2461989848
| 21>  H       -0.1946653814    -2.9634378479    -2.9756020513
| 22>  H        1.7385227234     0.0399470395    -1.4128020271
| 23> *
| 24>
| 25>                          ****END OF INPUT****

CARTESIAN COORDINATES (ANGSTROEM)
---------------------------------
  C      0.010434    1.569202    0.255272
  C      0.104953    0.098796   -0.010351
  N     -0.861647   -0.863592    0.553437
  C      0.601874   -1.042747    0.844327
  C      1.066526   -1.772508   -0.391227
  C      0.964406   -2.867459   -1.130321
  C      0.649568   -2.405050   -2.552675
  O      0.269798   -1.015810   -2.444264
  C      0.827973   -0.559223   -1.233721
  H      0.934116    2.081071   -0.034183
  H     -0.812799    2.017005   -0.313171
  H     -0.167887    1.770231    1.317722
  H     -1.267678   -0.409882    1.375136
  H      0.975293   -1.044805    1.859757
  H      0.950184   -3.907989   -0.833265
  H      1.500404   -2.509017   -3.246199
  H     -0.194665   -2.963438   -2.975602
  H      1.738523    0.039947   -1.412802

 Total Charge           Charge          ....    0
 Multiplicity           Mult            ....    1
 Number of Electrons    NEL             ....   66
 Basis Dimension        Dim             ....  333

ORBITAL ENERGIES
----------------

  NO   OCC          E(Eh)            E(eV)
   0   2.0000     -20.549693      -559.1856
   1   2.0000     -15.567905      -423.6242
   2   2.0000     -11.279558      -306.9324
   3   2.0000     -11.279123      -306.9205
   4   2.0000     -11.278802      -306.9118
   5   2.0000     -11.277374      -306.8729
   6   2.0000     -11.233492      -305.6789
   7   2.0000     -11.232790      -305.6598
   8   2.0000     -11.230885      -305.6079
   9   2.0000      -1.375814       -37.4378
  10   2.0000      -1.283618       -34.9290
  11   2.0000      -1.078706       -29.3531
  12   2.0000      -1.019227       -27.7346
  13   2.0000      -0.988884       -26.9089
  14   2.0000      -0.880945       -23.9717
  15   2.0000      -0.846858       -23.0442
  16   2.0000      -0.757572       -20.6146
  17   2.0000      -0.740813       -20.1585
  18   2.0000      -0.677192       -18.4273
  19   2.0000      -0.661313       -17.9952
  20   2.0000      -0.640544       -17.4301
  21   2.0000      -0.605793       -16.4845
  22   2.0000      -0.589536       -16.0421
  23   2.0000      -0.573662       -15.6101
  24   2.0000      -0.566666       -15.4198
  25   2.0000      -0.527282       -14.3481
  26   2.0000      -0.513618       -13.9763
  27   2.0000      -0.498409       -13.5624
  28   2.0000      -0.480130       -13.0650
  29   2.0000      -0.434796       -11.8314
  30   2.0000      -0.427170       -11.6239
  31   2.0000      -0.370382       -10.0786
  32   2.0000      -0.336087        -9.1454
  33   0.0000       0.126780         3.4499
  34   0.0000       0.138970         3.7816
  35   0.0000       0.163445         4.4476
  36   0.0000       0.168782         4.5928
  37   0.0000       0.183182         4.9846

MULLIKEN ATOMIC CHARGES
-----------------------
   0 C :   -0.392641
   1 C :    0.078654
   2 N :   -0.351341
   3 C :   -0.133962
   4 C :   -0.032009
   5 C :   -0.219749
   6 C :    0.007110
   7 O :   -0.332909
   8 C :    0.159373
   9 H :    0.136324
  10 H :    0.152967
  11 H :    0.125720
  12 H :    0.211249
  13 H :    0.149950
  14 H :    0.138962
  15 H :    0.099926
  16 H :    0.120186
  17 H :    0.082189
Sum of atomic charges:    0.0000000

LOEWDIN ATOMIC CHARGES
----------------------
   0 C :   -0.280477
   1 C :   -0.255146
   2 N :    0.034468
   3 C :   -0.167446
   4 C :   -0.130591
   5 C :   -0.124172
   6 C :   -0.258215
   7 O :    0.165994
   8 C :   -0.223011
   9 H :    0.132535
  10 H :    0.134527
  11 H :    0.128883
  12 H :    0.172243
  13 H :    0.132713
  14 H :    0.138351
  15 H :    0.121778
  16 H :    0.129511
  17 H :    0.148055

  Mayer bond orders larger than 0.1
B(  0-C ,  1-C ) :   0.9081 B(  0-C ,  9-H ) :   0.9289 B(  0-C , 10-H ) :   0.9448
B(  0-C , 11-H ) :   0.9229 B(  1-C ,  2-N ) :   0.9272 B(  1-C ,  3-C ) :   0.8610
B(  1-C ,  8-C ) :   0.8750 B(  2-N ,  3-C ) :   0.9742 B(  2-N , 12-H ) :   0.8654
B(  3-C ,  4-C ) :   0.9272 B(  3-C , 13-H ) :   0.8984 B(  4-C ,  5-C ) :   1.7719
B(  4-C ,  8-C ) :   0.9797 B(  5-C ,  6-C ) :   0.9645 B(  5-C , 14-H ) :   0.9134
B(  6-C ,  7-O ) :   0.9300 B(  6-C , 15-H ) :   0.9103 B(  6-C , 16-H ) :   0.9179
B(  7-O ,  8-C ) :   0.9945 B(  8-C , 17-H ) :   0.9383

MP2 TOTAL ENERGY:     -401.171203768 Eh
FINAL SINGLE POINT ENERGY      -401.171203768385

DIPOLE MOMENT
-------------
                                X             Y             Z
Electronic contribution:      0.20000      -3.20747      -1.13040
Nuclear contribution   :      0.22012       3.40839       1.90029
                        -----------------------------------------
Total Dipole Moment    :      0.42012       0.20092       0.76989
                        -----------------------------------------
Magnitude (a.u.)       :      0.89978
Magnitude (Debye)      :      2.28706

                             ****ORCA TERMINATED NORMALLY****
TOTAL RUN TIME: 0 days 0 hours 17 minutes 31 seconds 946 msec
