                         Program Version 3.0.3 - RELEASE   -
|  1> ! RI-MP2 RIJK def2-TZVP def2-TZVP/C def2-TZVP/JK TIGHTSCF
|  2> % maxcore 2000
|  3> % mp2 density relaxed end
|  4> *xyz 0 1
|  5>  C        0.1014000612     1.5808804212    -0.0019852923
|  6>  C        0.1963947681     0.0552937880    -0.0776794868
|  7>  C        0.5406128523    -0.5916863698     1.2734586763
|  8>  C        0.6203463911    -2.0899829191     1.2131471979
|  9>  C       -0.4977875093    -3.1130244004     1.0640441135
| 10>  N        0.4520676681    -4.1943766946     1.5416119730
| 11>  C        1.4405385226    -4.2460800311     0.3905812297
| 12>  C        1.8947275586    -2.8449308435     0.7574321709
| 13>  C        1.3179525296    -3.0544802115     2.1290672868
| 14>  H        1.0492923298     2.0204916507     0.3285497993
| 15>  H       -0.1448096715     2.0151742579    -0.9758904293
| 16>  H       -0.6719276325     1.8954217678     0.7077699730
| 17>  H       -0.7543312146    -0.3551633388    -0.4413936564
| 18>  H        0.9539864796    -0.2348242926    -0.8162048807
| 19>  H        1.4961749466    -0.1889393044     1.6362870156
| 20>  H       -0.2127710404    -0.2972075065     2.0177873219
| 21>  H       -1.2891287663    -2.9735008709     1.8069552597
| 22>  H       -0.9462939600    -3.3027572704     0.0812933368
| 23>  H        2.1983179365    -5.0060361496     0.6001032339
| 24>  H        0.9883624712    -4.4376898185    -0.5898113328
| 25>  H        2.7938368329    -2.3058816068     0.4835385886
| 26>  H        1.7072218163    -3.0062612071     3.1364807514
| 27> *
| 28>
| 29>                          ****END OF INPUT****

CARTESIAN COORDINATES (ANGSTROEM)
---------------------------------
  C      0.101400    1.580880   -0.001985
  C      0.196395    0.055294   -0.077679
  C      0.540613   -0.591686    1.273459
  C      0.620346   -2.089983    1.213147
  C     -0.497788   -3.113024    1.064044
  N      0.452068   -4.194377    1.541612
  C      1.440539   -4.246080    0.390581
  C      1.894728   -2.844931    0.757432
  C      1.317953   -3.054480    2.129067
  H      1.049292    2.020492    0.328550
  H     -0.144810    2.015174   -0.975890
  H     -0.671928    1.895422    0.707770
  H     -0.754331   -0.355163   -0.441394
  H      0.953986   -0.234824   -0.816205
  H      1.496175   -0.188939    1.636287
  H     -0.212771   -0.297208    2.017787
  H     -1.289129   -2.973501    1.806955
  H     -0.946294   -3.302757    0.081293
  H      2.198318   -5.006036    0.600103
  H      0.988362   -4.437690   -0.589811
  H      2.793837   -2.305882    0.483539
  H      1.707222   -3.006261    3.136481

 Total Charge           Charge          ....    0
 Multiplicity           Mult            ....    1
 Number of Electrons    NEL             ....   68
 Basis Dimension        Dim             ....  357

ORBITAL ENERGIES
----------------

  NO   OCC          E(Eh)            E(eV)
   0   2.0000     -15.552767      -423.2123
   1   2.0000     -11.254802      -306.2587
   2   2.0000     -11.250236      -306.1345
   3   2.0000     -11.248623      -306.0906
   4   2.0000     -11.239984      -305.8555
   5   2.0000     -11.234670      -305.7109
   6   2.0000     -11.228262      -305.5365
   7   2.0000     -11.223288      -305.4012
   8   2.0000     -11.215796      -305.1973
   9   2.0000      -1.296216       -35.2718
  10   2.0000      -1.079099       -29.3638
  11   2.0000      -1.024189       -27.8696
  12   2.0000      -0.987802       -26.8795
  13   2.0000      -0.927913       -25.2498
  14   2.0000      -0.875822       -23.8323
  15   2.0000      -0.813625       -22.1399
  16   2.0000      -0.743670       -20.2363
  17   2.0000      -0.733431       -19.9577
  18   2.0000      -0.662502       -18.0276
  19   2.0000      -0.640954       -17.4413
  20   2.0000      -0.620756       -16.8916
  21   2.0000      -0.613473       -16.6934
  22   2.0000      -0.586281       -15.9535
  23   2.0000      -0.571864       -15.5612
  24   2.0000      -0.539241       -14.6735
  25   2.0000      -0.526790       -14.3347
  26   2.0000      -0.503438       -13.6993
  27   2.0000      -0.487968       -13.2783
  28   2.0000      -0.476323       -12.9614
  29   2.0000      -0.467278       -12.7153
  30   2.0000      -0.460430       -12.5289
  31   2.0000      -0.421169       -11.4606
  32   2.0000      -0.371364       -10.1053
  33   2.0000      -0.355418        -9.6714
  34   0.0000       0.131410         3.5759
  35   0.0000       0.157741         4.2924
  36   0.0000       0.163299         4.4436
  37   0.0000       0.164068         4.4645
  38   0.0000       0.177040         4.8175

MULLIKEN ATOMIC CHARGES
-----------------------
   0 C :   -0.389544
   1 C :   -0.195053
   2 C :   -0.302097
   3 C :    0.017741
   4 C :   -0.091459
   5 N :   -0.207545
   6 C :   -0.109134
   7 C :   -0.188549
   8 C :   -0.092907
   9 H :    0.122240
  10 H :    0.135257
  11 H :    0.123386
  12 H :    0.111007
  13 H :    0.113876
  14 H :    0.115734
  15 H :    0.116803
  16 H :    0.111557
  17 H :    0.106863
  18 H :    0.117964
  19 H :    0.105393
  20 H :    0.131857
  21 H :    0.146608
Sum of atomic charges:   -0.0000000

LOEWDIN ATOMIC CHARGES
----------------------
   0 C :   -0.321361
   1 C :   -0.287084
   2 C :   -0.233980
   3 C :   -0.204837
   4 C :   -0.210351
   5 N :    0.099362
   6 C :   -0.233307
   7 C :   -0.167871
   8 C :   -0.139471
   9 H :    0.120268
  10 H :    0.121000
  11 H :    0.120528
  12 H :    0.135857
  13 H :    0.135977
  14 H :    0.146152
  15 H :    0.144334
  16 H :    0.134318
  17 H :    0.119756
  18 H :    0.132454
  19 H :    0.118606
  20 H :    0.138098
  21 H :    0.131555

  Mayer bond orders larger than 0.1
B(  0-C ,  1-C ) :   0.9165 B(  0-C ,  9-H ) :   0.9394 B(  0-C , 10-H ) :   0.9439
B(  0-C , 11-H ) :   0.9394 B(  1-C ,  2-C ) :   0.9436 B(  1-C , 12-H ) :   0.9333
B(  1-C , 13-H ) :   0.9334 B(  2-C ,  3-C ) :   0.9073 B(  2-C , 14-H ) :   0.9188
B(  2-C , 15-H ) :   0.9246 B(  3-C ,  4-C ) :   0.9741 B(  3-C ,  7-C ) :   0.7961
B(  3-C ,  8-C ) :   0.8846 B(  4-C ,  5-N ) :   0.9269 B(  4-C , 16-H ) :   0.9148
B(  4-C , 17-H ) :   0.9262 B(  5-N ,  6-C ) :   0.9258 B(  5-N ,  8-C ) :   0.9437
B(  6-C ,  7-C ) :   0.9819 B(  6-C , 18-H ) :   0.9217 B(  6-C , 19-H ) :   0.9258
B(  7-C ,  8-C ) :   0.9029 B(  7-C , 20-H ) :   0.9246 B(  8-C , 21-H ) :   0.8962

MP2 TOTAL ENERGY:     -366.476351796 Eh
FINAL SINGLE POINT ENERGY      -366.476351796286

DIPOLE MOMENT
-------------
                                X             Y             Z
Electronic contribution:      1.53879      -8.54483       3.18818
Nuclear contribution   :     -1.29403       9.24948      -3.47138
                        -----------------------------------------
Total Dipole Moment    :      0.24477       0.70466      -0.28320
                        -----------------------------------------
Magnitude (a.u.)       :      0.79791
Magnitude (Debye)      :      2.02811

                             ****ORCA TERMINATED NORMALLY****
TOTAL RUN TIME: 0 days 0 hours 18 minutes 43 seconds 33 msec
