                         Program Version 3.0.3 - RELEASE   -
|  1> ! RI-MP2 RIJK def2-TZVP def2-TZVP/C def2-TZVP/JK TIGHTSCF
|  2> % maxcore 2000
|  3> % mp2 density relaxed end
|  4> *xyz 0 1
|  5>  C       -0.0441462118     1.4900086756     0.0795487690
|  6>  C       -0.0601594651    -0.0420608973    -0.0643488875
|  7>  C        0.7360379004    -0.5331829833    -1.2375942865
|  8>  N        0.1316815272    -0.7907520214    -2.3929402108
|  9>  N        1.1372826067    -1.1672758475    -3.2224363536
| 10>  C        2.3528809464    -1.1497278796    -2.6206982097
| 11>  N        3.5015518643    -1.5679520760    -3.3067658567
| 12>  C        2.1434738100    -0.7358899074    -1.3161144895
| 13>  C        3.1768303975    -0.5534342800    -0.2470681144
| 14>  H        0.9744204620     1.8694187444     0.2116104635
| 15>  H       -0.4607564549     1.9619788435    -0.8151890990
| 16>  H       -0.6364195480     1.8092022642     0.9432902892
| 17>  H        0.3217496348    -0.4992949877     0.8565266281
| 18>  H       -1.0927062011    -0.3838905283    -0.1856872394
| 19>  H        0.9216495795    -1.5009288573    -4.1458701429
| 20>  H        3.7104087348    -0.9936335375    -4.1167139770
| 21>  H        4.3102401502    -1.5726320344    -2.6985639678
| 22>  H        4.1792689333    -0.4367790921    -0.6762163071
| 23>  H        2.9845856486     0.3419320679     0.3528900611
| 24>  H        3.2221994851    -1.4012153159     0.4486507911
| 25> *
| 26>
| 27>                          ****END OF INPUT****

CARTESIAN COORDINATES (ANGSTROEM)
---------------------------------
  C     -0.044146    1.490009    0.079549
  C     -0.060159   -0.042061   -0.064349
  C      0.736038   -0.533183   -1.237594
  N      0.131682   -0.790752   -2.392940
  N      1.137283   -1.167276   -3.222436
  C      2.352881   -1.149728   -2.620698
  N      3.501552   -1.567952   -3.306766
  C      2.143474   -0.735890   -1.316114
  C      3.176830   -0.553434   -0.247068
  H      0.974420    1.869419    0.211610
  H     -0.460756    1.961979   -0.815189
  H     -0.636420    1.809202    0.943290
  H      0.321750   -0.499295    0.856527
  H     -1.092706   -0.383891   -0.185687
  H      0.921650   -1.500929   -4.145870
  H      3.710409   -0.993634   -4.116714
  H      4.310240   -1.572632   -2.698564
  H      4.179269   -0.436779   -0.676216
  H      2.984586    0.341932    0.352890
  H      3.222199   -1.401215    0.448651

 Total Charge           Charge          ....    0
 Multiplicity           Mult            ....    1
 Number of Electrons    NEL             ....   68
 Basis Dimension        Dim             ....  345

ORBITAL ENERGIES
----------------

  NO   OCC          E(Eh)            E(eV)
   0   2.0000     -15.612691      -424.8429
   1   2.0000     -15.578739      -423.9191
   2   2.0000     -15.561301      -423.4445
   3   2.0000     -11.301474      -307.5287
   4   2.0000     -11.243754      -305.9581
   5   2.0000     -11.226524      -305.4893
   6   2.0000     -11.219632      -305.3017
   7   2.0000     -11.210231      -305.0459
   8   2.0000     -11.207401      -304.9689
   9   2.0000      -1.357408       -36.9369
  10   2.0000      -1.218371       -33.1536
  11   2.0000      -1.098867       -29.9017
  12   2.0000      -1.044351       -28.4182
  13   2.0000      -1.009940       -27.4819
  14   2.0000      -0.937781       -25.5183
  15   2.0000      -0.864830       -23.5332
  16   2.0000      -0.779368       -21.2077
  17   2.0000      -0.750600       -20.4249
  18   2.0000      -0.719571       -19.5805
  19   2.0000      -0.668492       -18.1906
  20   2.0000      -0.640291       -17.4232
  21   2.0000      -0.615184       -16.7400
  22   2.0000      -0.583095       -15.8668
  23   2.0000      -0.573685       -15.6108
  24   2.0000      -0.557922       -15.1818
  25   2.0000      -0.551927       -15.0187
  26   2.0000      -0.536845       -14.6083
  27   2.0000      -0.519281       -14.1304
  28   2.0000      -0.490951       -13.3595
  29   2.0000      -0.481815       -13.1108
  30   2.0000      -0.471177       -12.8214
  31   2.0000      -0.431304       -11.7364
  32   2.0000      -0.337690        -9.1890
  33   2.0000      -0.305773        -8.3205
  34   0.0000       0.118508         3.2248
  35   0.0000       0.144106         3.9213
  36   0.0000       0.158661         4.3174
  37   0.0000       0.165071         4.4918
  38   0.0000       0.185452         5.0464

MULLIKEN ATOMIC CHARGES
-----------------------
   0 C :   -0.387242
   1 C :   -0.266898
   2 C :    0.072910
   3 N :   -0.225785
   4 N :   -0.135571
   5 C :    0.127855
   6 N :   -0.533907
   7 C :   -0.029878
   8 C :   -0.408198
   9 H :    0.114830
  10 H :    0.134914
  11 H :    0.125445
  12 H :    0.118092
  13 H :    0.132220
  14 H :    0.248443
  15 H :    0.255234
  16 H :    0.250164
  17 H :    0.111042
  18 H :    0.144106
  19 H :    0.152224
Sum of atomic charges:   -0.0000000

LOEWDIN ATOMIC CHARGES
----------------------
   0 C :   -0.310833
   1 C :   -0.256883
   2 C :   -0.266690
   3 N :    0.039264
   4 N :    0.132507
   5 C :   -0.325000
   6 N :   -0.097711
   7 C :   -0.192720
   8 C :   -0.277603
   9 H :    0.116705
  10 H :    0.123880
  11 H :    0.118294
  12 H :    0.141307
  13 H :    0.147430
  14 H :    0.184761
  15 H :    0.168542
  16 H :    0.170319
  17 H :    0.123568
  18 H :    0.130798
  19 H :    0.130063

  Mayer bond orders larger than 0.1
B(  0-C ,  1-C ) :   0.9158 B(  0-C ,  9-H ) :   0.9377 B(  0-C , 10-H ) :   0.9397
B(  0-C , 11-H ) :   0.9370 B(  1-C ,  2-C ) :   0.8869 B(  1-C , 12-H ) :   0.9439
B(  1-C , 13-H ) :   0.9448 B(  2-C ,  3-N ) :   1.6099 B(  2-C ,  7-C ) :   1.2536
B(  3-N ,  4-N ) :   1.0143 B(  3-N ,  5-C ) :   0.1128 B(  4-N ,  5-C ) :   1.2185
B(  4-N , 14-H ) :   0.8706 B(  5-C ,  6-N ) :   1.0373 B(  5-C ,  7-C ) :   1.3939
B(  6-N , 15-H ) :   0.8705 B(  6-N , 16-H ) :   0.8830 B(  7-C ,  8-C ) :   0.8599
B(  8-C , 17-H ) :   0.9378 B(  8-C , 18-H ) :   0.9427 B(  8-C , 19-H ) :   0.9378

MP2 TOTAL ENERGY:     -398.669484157 Eh
FINAL SINGLE POINT ENERGY      -398.669484157275

DIPOLE MOMENT
-------------
                                X             Y             Z
Electronic contribution:     -0.90352      -4.73495      -7.54202
Nuclear contribution   :      2.03200       4.88176       7.23265
                        -----------------------------------------
Total Dipole Moment    :      1.12848       0.14680      -0.30937
                        -----------------------------------------
Magnitude (a.u.)       :      1.17929
Magnitude (Debye)      :      2.99751

                             ****ORCA TERMINATED NORMALLY****
TOTAL RUN TIME: 0 days 0 hours 19 minutes 55 seconds 94 msec
