                         Program Version 3.0.3 - RELEASE   -
|  1> ! RI-MP2 RIJK def2-TZVP def2-TZVP/C def2-TZVP/JK TIGHTSCF
|  2> % maxcore 2000
|  3> % mp2 density relaxed end
|  4> *xyz 0 1
|  5>  C       -0.5337491710    -0.3058390340    -1.5048441757
|  6>  C       -0.8593506586    -0.9233509514    -0.1357697789
|  7>  C       -1.1068892451    -2.4453379173    -0.2550747586
|  8>  C       -2.3418271718    -2.7706796368    -1.0613079784
|  9>  O       -2.3819623832    -3.5059752448    -2.0140338440
| 10>  C        0.2487182931    -0.6380919574     0.8628360566
| 11>  C        0.3476960165     0.6964271455     1.5632745789
| 12>  C        0.0339819305    -0.5486480799     2.3594816937
| 13>  C       -1.3140889776    -0.7255375918     3.0259469588
| 14>  H        0.3877187828    -0.7350383301    -1.9148500259
| 15>  H       -1.3321110317    -0.4875170452    -2.2318344917
| 16>  H       -0.3904923316     0.7751062339    -1.4190470275
| 17>  H       -1.7867774741    -0.4624636956     0.2295918725
| 18>  H       -0.2480829861    -2.9549547089    -0.7040667666
| 19>  H       -1.2593152517    -2.8589811899     0.7516123522
| 20>  H       -3.2665381149    -2.2600559310    -0.6970003081
| 21>  H        1.2004224485    -1.0768236475     0.5669004874
| 22>  H        1.3191111148     1.1665822894     1.6706113833
| 23>  H       -0.4671400684     1.3986231811     1.4084205573
| 24>  H        0.8590653312    -0.9360487844     2.9524221270
| 25>  H       -2.1284494166    -0.3088203631     2.4263127659
| 26>  H       -1.5407778276    -1.7822093867     3.2084827639
| 27>  H       -1.3326169775    -0.2146441843     3.9949303978
| 28> *
| 29>
| 30>                          ****END OF INPUT****

CARTESIAN COORDINATES (ANGSTROEM)
---------------------------------
  C     -0.533749   -0.305839   -1.504844
  C     -0.859351   -0.923351   -0.135770
  C     -1.106889   -2.445338   -0.255075
  C     -2.341827   -2.770680   -1.061308
  O     -2.381962   -3.505975   -2.014034
  C      0.248718   -0.638092    0.862836
  C      0.347696    0.696427    1.563275
  C      0.033982   -0.548648    2.359482
  C     -1.314089   -0.725538    3.025947
  H      0.387719   -0.735038   -1.914850
  H     -1.332111   -0.487517   -2.231834
  H     -0.390492    0.775106   -1.419047
  H     -1.786777   -0.462464    0.229592
  H     -0.248083   -2.954955   -0.704067
  H     -1.259315   -2.858981    0.751612
  H     -3.266538   -2.260056   -0.697000
  H      1.200422   -1.076824    0.566900
  H      1.319111    1.166582    1.670611
  H     -0.467140    1.398623    1.408421
  H      0.859065   -0.936049    2.952422
  H     -2.128449   -0.308820    2.426313
  H     -1.540778   -1.782209    3.208483
  H     -1.332617   -0.214644    3.994930

 Total Charge           Charge          ....    0
 Multiplicity           Mult            ....    1
 Number of Electrons    NEL             ....   70
 Basis Dimension        Dim             ....  363

ORBITAL ENERGIES
----------------

  NO   OCC          E(Eh)            E(eV)
   0   2.0000     -20.553877      -559.2994
   1   2.0000     -11.328989      -308.2775
   2   2.0000     -11.246962      -306.0454
   3   2.0000     -11.237342      -305.7836
   4   2.0000     -11.237026      -305.7750
   5   2.0000     -11.235254      -305.7268
   6   2.0000     -11.226722      -305.4946
   7   2.0000     -11.225546      -305.4626
   8   2.0000     -11.220154      -305.3159
   9   2.0000      -1.392613       -37.8949
  10   2.0000      -1.161481       -31.6055
  11   2.0000      -1.080043       -29.3895
  12   2.0000      -0.979858       -26.6633
  13   2.0000      -0.961838       -26.1729
  14   2.0000      -0.872569       -23.7438
  15   2.0000      -0.803239       -21.8572
  16   2.0000      -0.789392       -21.4804
  17   2.0000      -0.754117       -20.5206
  18   2.0000      -0.678174       -18.4541
  19   2.0000      -0.663272       -18.0485
  20   2.0000      -0.640468       -17.4280
  21   2.0000      -0.620342       -16.8804
  22   2.0000      -0.605531       -16.4773
  23   2.0000      -0.576333       -15.6828
  24   2.0000      -0.561700       -15.2846
  25   2.0000      -0.554107       -15.0780
  26   2.0000      -0.548748       -14.9322
  27   2.0000      -0.528017       -14.3681
  28   2.0000      -0.507195       -13.8015
  29   2.0000      -0.498811       -13.5733
  30   2.0000      -0.485463       -13.2101
  31   2.0000      -0.475717       -12.9449
  32   2.0000      -0.426608       -11.6086
  33   2.0000      -0.402250       -10.9458
  34   2.0000      -0.400726       -10.9043
  35   0.0000       0.128204         3.4886
  36   0.0000       0.138813         3.7773
  37   0.0000       0.143295         3.8993
  38   0.0000       0.151675         4.1273
  39   0.0000       0.167135         4.5480

MULLIKEN ATOMIC CHARGES
-----------------------
   0 C :   -0.399265
   1 C :   -0.127167
   2 C :   -0.132395
   3 C :    0.075995
   4 O :   -0.261652
   5 C :   -0.106177
   6 C :   -0.288398
   7 C :   -0.053484
   8 C :   -0.411664
   9 H :    0.126926
  10 H :    0.142302
  11 H :    0.138055
  12 H :    0.086164
  13 H :    0.118626
  14 H :    0.135082
  15 H :    0.068845
  16 H :    0.117520
  17 H :    0.133842
  18 H :    0.123759
  19 H :    0.116876
  20 H :    0.124853
  21 H :    0.129454
  22 H :    0.141904
Sum of atomic charges:    0.0000000

LOEWDIN ATOMIC CHARGES
----------------------
   0 C :   -0.281069
   1 C :   -0.265108
   2 C :   -0.235798
   3 C :   -0.299272
   4 O :    0.130053
   5 C :   -0.194621
   6 C :   -0.208571
   7 C :   -0.232681
   8 C :   -0.298175
   9 H :    0.127121
  10 H :    0.125521
  11 H :    0.126317
  12 H :    0.153828
  13 H :    0.147669
  14 H :    0.155892
  15 H :    0.108649
  16 H :    0.152526
  17 H :    0.130401
  18 H :    0.135775
  19 H :    0.147695
  20 H :    0.123005
  21 H :    0.123026
  22 H :    0.127817

  Mayer bond orders larger than 0.1
B(  0-C ,  1-C ) :   0.9331 B(  0-C ,  9-H ) :   0.9319 B(  0-C , 10-H ) :   0.9341
B(  0-C , 11-H ) :   0.9397 B(  1-C ,  2-C ) :   0.8858 B(  1-C ,  5-C ) :   0.9141
B(  1-C , 12-H ) :   0.9312 B(  2-C ,  3-C ) :   0.8686 B(  2-C , 13-H ) :   0.8963
B(  2-C , 14-H ) :   0.9186 B(  3-C ,  4-O ) :   2.0109 B(  3-C , 15-H ) :   0.9417
B(  5-C ,  6-C ) :   0.8850 B(  5-C ,  7-C ) :   0.8856 B(  5-C , 16-H ) :   0.9204
B(  6-C ,  7-C ) :   0.8975 B(  6-C , 17-H ) :   0.9287 B(  6-C , 18-H ) :   0.9238
B(  7-C ,  8-C ) :   0.9031 B(  7-C , 19-H ) :   0.9299 B(  8-C , 20-H ) :   0.9374
B(  8-C , 21-H ) :   0.9394 B(  8-C , 22-H ) :   0.9368

MP2 TOTAL ENERGY:     -387.612261028 Eh
FINAL SINGLE POINT ENERGY      -387.612261028090

DIPOLE MOMENT
-------------
                                X             Y             Z
Electronic contribution:     -2.24412      -5.74255      -4.87601
Nuclear contribution   :      2.53080       6.43460       5.78577
                        -----------------------------------------
Total Dipole Moment    :      0.28668       0.69205       0.90976
                        -----------------------------------------
Magnitude (a.u.)       :      1.17846
Magnitude (Debye)      :      2.99542

                             ****ORCA TERMINATED NORMALLY****
TOTAL RUN TIME: 0 days 0 hours 22 minutes 21 seconds 534 msec
