                         Program Version 3.0.3 - RELEASE   -
|  1> ! RI-MP2 RIJK def2-TZVP def2-TZVP/C def2-TZVP/JK TIGHTSCF
|  2> % maxcore 2000
|  3> % mp2 density relaxed end
|  4> *xyz 0 1
|  5>  C       -0.2605404550     1.4858681682    -0.0134753277
|  6>  C        0.0597105925    -0.0108265119    -0.0113641864
|  7>  C        1.0646451082    -0.4200347949    -1.0703897125
|  8>  C        2.4567846348    -0.3099736824    -0.5623339039
|  9>  C        2.3465025215    -0.3434449438     0.9661921973
| 10>  C        0.8415994509    -0.4980119310     1.1959795466
| 11>  C        1.6806567259    -1.6888959793     0.8230017517
| 12>  C        1.8117704889    -2.9911950846     1.5402975574
| 13>  N        1.8116284804    -1.6579545716    -0.6969992764
| 14>  H        0.6507557817     2.0770415215     0.1226567417
| 15>  H       -0.7251106764     1.7906453229    -0.9571166810
| 16>  H       -0.9537828360     1.7412075532     0.7944286689
| 17>  H       -0.8664926862    -0.5890578763    -0.1246385601
| 18>  H        0.8447579340    -0.3244492663    -2.1286004380
| 19>  H        3.3264547190    -0.0348331448    -1.1473450900
| 20>  H        3.0536227209     0.0261828840     1.6953491825
| 21>  H        0.4566365940    -0.4147835392     2.2055350779
| 22>  H        1.7962811527    -2.8397195528     2.6243259484
| 23>  H        0.9861858437    -3.6633946553     1.2784654753
| 24>  H        2.7482657944    -3.4934773755     1.2770223282
| 25> *
| 26>
| 27>                          ****END OF INPUT****

CARTESIAN COORDINATES (ANGSTROEM)
---------------------------------
  C     -0.260540    1.485868   -0.013475
  C      0.059711   -0.010827   -0.011364
  C      1.064645   -0.420035   -1.070390
  C      2.456785   -0.309974   -0.562334
  C      2.346503   -0.343445    0.966192
  C      0.841599   -0.498012    1.195980
  C      1.680657   -1.688896    0.823002
  C      1.811770   -2.991195    1.540298
  N      1.811628   -1.657955   -0.696999
  H      0.650756    2.077042    0.122657
  H     -0.725111    1.790645   -0.957117
  H     -0.953783    1.741208    0.794429
  H     -0.866493   -0.589058   -0.124639
  H      0.844758   -0.324449   -2.128600
  H      3.326455   -0.034833   -1.147345
  H      3.053623    0.026183    1.695349
  H      0.456637   -0.414784    2.205535
  H      1.796281   -2.839720    2.624326
  H      0.986186   -3.663395    1.278465
  H      2.748266   -3.493477    1.277022

 Total Charge           Charge          ....    0
 Multiplicity           Mult            ....    1
 Number of Electrons    NEL             ....   66
 Basis Dimension        Dim             ....  345

ORBITAL ENERGIES
----------------

  NO   OCC          E(Eh)            E(eV)
   0   2.0000     -15.551381      -423.1746
   1   2.0000     -11.261506      -306.4412
   2   2.0000     -11.257325      -306.3274
   3   2.0000     -11.253759      -306.2304
   4   2.0000     -11.232915      -305.6632
   5   2.0000     -11.232249      -305.6450
   6   2.0000     -11.231491      -305.6244
   7   2.0000     -11.218502      -305.2710
   8   2.0000     -11.217088      -305.2325
   9   2.0000      -1.315629       -35.8001
  10   2.0000      -1.098422       -29.8896
  11   2.0000      -1.054796       -28.7025
  12   2.0000      -0.978635       -26.6300
  13   2.0000      -0.907761       -24.7014
  14   2.0000      -0.884753       -24.0754
  15   2.0000      -0.773073       -21.0364
  16   2.0000      -0.768476       -20.9113
  17   2.0000      -0.711805       -19.3692
  18   2.0000      -0.695262       -18.9191
  19   2.0000      -0.622245       -16.9321
  20   2.0000      -0.591194       -16.0872
  21   2.0000      -0.580836       -15.8053
  22   2.0000      -0.567251       -15.4357
  23   2.0000      -0.560976       -15.2649
  24   2.0000      -0.548859       -14.9352
  25   2.0000      -0.537200       -14.6180
  26   2.0000      -0.511626       -13.9221
  27   2.0000      -0.480321       -13.0702
  28   2.0000      -0.458047       -12.4641
  29   2.0000      -0.444456       -12.0943
  30   2.0000      -0.421731       -11.4759
  31   2.0000      -0.370654       -10.0860
  32   2.0000      -0.340669        -9.2701
  33   0.0000       0.138380         3.7655
  34   0.0000       0.150364         4.0916
  35   0.0000       0.169272         4.6061
  36   0.0000       0.179886         4.8950
  37   0.0000       0.185175         5.0389

MULLIKEN ATOMIC CHARGES
-----------------------
   0 C :   -0.445789
   1 C :    0.088626
   2 C :   -0.145189
   3 C :   -0.056225
   4 C :   -0.185638
   5 C :   -0.226337
   6 C :    0.178638
   7 C :   -0.434896
   8 N :   -0.220091
   9 H :    0.137882
  10 H :    0.132865
  11 H :    0.130689
  12 H :    0.101340
  13 H :    0.128028
  14 H :    0.139032
  15 H :    0.141699
  16 H :    0.130999
  17 H :    0.127711
  18 H :    0.135102
  19 H :    0.141554
Sum of atomic charges:    0.0000000

LOEWDIN ATOMIC CHARGES
----------------------
   0 C :   -0.281697
   1 C :   -0.233218
   2 C :   -0.200178
   3 C :   -0.173679
   4 C :   -0.134350
   5 C :   -0.142018
   6 C :   -0.225140
   7 C :   -0.271243
   8 N :    0.161959
   9 H :    0.128667
  10 H :    0.124319
  11 H :    0.123809
  12 H :    0.158299
  13 H :    0.145685
  14 H :    0.133337
  15 H :    0.138151
  16 H :    0.152333
  17 H :    0.131396
  18 H :    0.132007
  19 H :    0.131560

  Mayer bond orders larger than 0.1
B(  0-C ,  1-C ) :   0.8545 B(  0-C ,  9-H ) :   0.9426 B(  0-C , 10-H ) :   0.9399
B(  0-C , 11-H ) :   0.9366 B(  1-C ,  2-C ) :   0.9178 B(  1-C ,  5-C ) :   0.9086
B(  1-C , 12-H ) :   0.9094 B(  2-C ,  3-C ) :   0.9513 B(  2-C ,  8-N ) :   0.9156
B(  2-C , 13-H ) :   0.9221 B(  3-C ,  4-C ) :   0.9291 B(  3-C ,  8-N ) :   0.8772
B(  3-C , 14-H ) :   0.8998 B(  4-C ,  5-C ) :   0.8754 B(  4-C ,  6-C ) :   0.8698
B(  4-C , 15-H ) :   0.9149 B(  5-C ,  6-C ) :   0.8667 B(  5-C , 16-H ) :   0.9216
B(  6-C ,  7-C ) :   0.8641 B(  6-C ,  8-N ) :   0.9215 B(  7-C , 17-H ) :   0.9385
B(  7-C , 18-H ) :   0.9377 B(  7-C , 19-H ) :   0.9454

MP2 TOTAL ENERGY:     -365.306549742 Eh
FINAL SINGLE POINT ENERGY      -365.306549741708

DIPOLE MOMENT
-------------
                                X             Y             Z
Electronic contribution:      2.56399      -1.49522      -2.22774
Nuclear contribution   :     -2.74148       1.97884       2.69997
                        -----------------------------------------
Total Dipole Moment    :     -0.17749       0.48363       0.47223
                        -----------------------------------------
Magnitude (a.u.)       :      0.69886
Magnitude (Debye)      :      1.77635

                             ****ORCA TERMINATED NORMALLY****
TOTAL RUN TIME: 0 days 0 hours 24 minutes 18 seconds 5 msec
