                         Program Version 3.0.3 - RELEASE   -
|  1> ! RI-MP2 RIJK def2-TZVP def2-TZVP/C def2-TZVP/JK TIGHTSCF
|  2> % maxcore 2000
|  3> % mp2 density relaxed end
|  4> *xyz 0 1
|  5>  N       -0.3348111866     1.3264020200    -0.1748947438
|  6>  C        0.0803985316    -0.0427330834     0.1341773736
|  7>  C        0.6369647605    -0.7538918263    -1.0362362517
|  8>  N        1.1069334887    -1.2656842856    -1.9612151585
|  9>  C        1.1263588781    -0.0548109116     1.2973748413
| 10>  N        2.3347196589     0.7203554181     1.0382169600
| 11>  C        0.4674145204     0.4202555538     2.5776524745
| 12>  C       -0.0266019580    -0.5731784179     3.5659974433
| 13>  N        1.1620032009     0.2450141397     3.8558376687
| 14>  H        0.4225129726     1.8160254775    -0.6421782921
| 15>  H       -1.1157490731     1.3198653788    -0.8230782563
| 16>  H       -0.8026214989    -0.5953130118     0.4741649364
| 17>  H        1.4353989499    -1.0996291907     1.4299968802
| 18>  H        2.7746605121     0.4457553317     0.1648816558
| 19>  H        2.1319809099     1.7140941745     0.9988505422
| 20>  H       -0.0564949460     1.3679808453     2.4825880612
| 21>  H       -0.8971778942    -0.3501920858     4.1762675827
| 22>  H        0.1054814924    -1.6285968355     3.3381739574
| 23>  H        2.0127947907    -0.2932532007     3.7071930452
| 24> *
| 25>
| 26>                          ****END OF INPUT****

CARTESIAN COORDINATES (ANGSTROEM)
---------------------------------
  N     -0.334811    1.326402   -0.174895
  C      0.080399   -0.042733    0.134177
  C      0.636965   -0.753892   -1.036236
  N      1.106933   -1.265684   -1.961215
  C      1.126359   -0.054811    1.297375
  N      2.334720    0.720355    1.038217
  C      0.467415    0.420256    2.577652
  C     -0.026602   -0.573178    3.565997
  N      1.162003    0.245014    3.855838
  H      0.422513    1.816025   -0.642178
  H     -1.115749    1.319865   -0.823078
  H     -0.802621   -0.595313    0.474165
  H      1.435399   -1.099629    1.429997
  H      2.774661    0.445755    0.164882
  H      2.131981    1.714094    0.998851
  H     -0.056495    1.367981    2.482588
  H     -0.897178   -0.350192    4.176268
  H      0.105481   -1.628597    3.338174
  H      2.012795   -0.293253    3.707193

 Total Charge           Charge          ....    0
 Multiplicity           Mult            ....    1
 Number of Electrons    NEL             ....   68
 Basis Dimension        Dim             ....  339

ORBITAL ENERGIES
----------------

  NO   OCC          E(Eh)            E(eV)
   0   2.0000     -15.582574      -424.0234
   1   2.0000     -15.581385      -423.9910
   2   2.0000     -15.561148      -423.4404
   3   2.0000     -15.560710      -423.4285
   4   2.0000     -11.321485      -308.0733
   5   2.0000     -11.291074      -307.2458
   6   2.0000     -11.280725      -306.9641
   7   2.0000     -11.265513      -306.5502
   8   2.0000     -11.262047      -306.4559
   9   2.0000      -1.274938       -34.6928
  10   2.0000      -1.249018       -33.9875
  11   2.0000      -1.215851       -33.0850
  12   2.0000      -1.187717       -32.3194
  13   2.0000      -1.020437       -27.7675
  14   2.0000      -0.925949       -25.1964
  15   2.0000      -0.883021       -24.0282
  16   2.0000      -0.809728       -22.0338
  17   2.0000      -0.737544       -20.0696
  18   2.0000      -0.719482       -19.5781
  19   2.0000      -0.690803       -18.7977
  20   2.0000      -0.661430       -17.9984
  21   2.0000      -0.641622       -17.4594
  22   2.0000      -0.635286       -17.2870
  23   2.0000      -0.589414       -16.0388
  24   2.0000      -0.571420       -15.5491
  25   2.0000      -0.558413       -15.1952
  26   2.0000      -0.522228       -14.2106
  27   2.0000      -0.494846       -13.4654
  28   2.0000      -0.482204       -13.1214
  29   2.0000      -0.476975       -12.9791
  30   2.0000      -0.470034       -12.7903
  31   2.0000      -0.443363       -12.0645
  32   2.0000      -0.412578       -11.2268
  33   2.0000      -0.393484       -10.7072
  34   0.0000       0.108461         2.9514
  35   0.0000       0.131333         3.5737
  36   0.0000       0.144343         3.9278
  37   0.0000       0.161059         4.3826
  38   0.0000       0.164940         4.4883

MULLIKEN ATOMIC CHARGES
-----------------------
   0 N :   -0.532632
   1 C :    0.070792
   2 C :   -0.218791
   3 N :   -0.049982
   4 C :    0.043529
   5 N :   -0.542980
   6 C :   -0.083004
   7 C :   -0.181020
   8 N :   -0.338225
   9 H :    0.231994
  10 H :    0.245118
  11 H :    0.144740
  12 H :    0.113462
  13 H :    0.239432
  14 H :    0.235126
  15 H :    0.145013
  16 H :    0.124743
  17 H :    0.124752
  18 H :    0.227932
Sum of atomic charges:   -0.0000000

LOEWDIN ATOMIC CHARGES
----------------------
   0 N :   -0.121737
   1 C :   -0.307145
   2 C :   -0.190750
   3 N :    0.059387
   4 C :   -0.302707
   5 N :   -0.129908
   6 C :   -0.266931
   7 C :   -0.266049
   8 N :   -0.006134
   9 H :    0.156836
  10 H :    0.162989
  11 H :    0.172831
  12 H :    0.158270
  13 H :    0.158811
  14 H :    0.158713
  15 H :    0.148169
  16 H :    0.124744
  17 H :    0.120619
  18 H :    0.169994

  Mayer bond orders larger than 0.1
B(  0-N ,  1-C ) :   0.9448 B(  0-N ,  9-H ) :   0.8861 B(  0-N , 10-H ) :   0.8900
B(  1-C ,  2-C ) :   0.9234 B(  1-C ,  4-C ) :   0.8696 B(  1-C , 11-H ) :   0.9116
B(  2-C ,  3-N ) :   2.8656 B(  4-C ,  5-N ) :   0.9098 B(  4-C ,  6-C ) :   0.9360
B(  4-C , 12-H ) :   0.9327 B(  5-N , 13-H ) :   0.8913 B(  5-N , 14-H ) :   0.8901
B(  6-C ,  7-C ) :   0.9610 B(  6-C ,  8-N ) :   0.9250 B(  6-C , 15-H ) :   0.8982
B(  7-C ,  8-N ) :   0.9433 B(  7-C , 16-H ) :   0.9185 B(  7-C , 17-H ) :   0.9121
B(  8-N , 18-H ) :   0.8705

MP2 TOTAL ENERGY:     -414.659603062 Eh
FINAL SINGLE POINT ENERGY      -414.659603061902

DIPOLE MOMENT
-------------
                                X             Y             Z
Electronic contribution:      0.59454      -1.90803      -4.58643
Nuclear contribution   :     -1.29102       2.16094       4.49219
                        -----------------------------------------
Total Dipole Moment    :     -0.69647       0.25291      -0.09425
                        -----------------------------------------
Magnitude (a.u.)       :      0.74694
Magnitude (Debye)      :      1.89857

                             ****ORCA TERMINATED NORMALLY****
TOTAL RUN TIME: 0 days 0 hours 19 minutes 47 seconds 813 msec
