                         Program Version 3.0.3 - RELEASE   -
|  1> ! RI-MP2 RIJK def2-TZVP def2-TZVP/C def2-TZVP/JK TIGHTSCF
|  2> % maxcore 2000
|  3> % mp2 density relaxed end
|  4> *xyz 0 1
|  5>  O       -0.1229952795     1.2164341913    -0.5125082315
|  6>  C       -0.4868643081    -0.1245432596    -0.3987520793
|  7>  C       -0.3923712487    -0.8491207420     0.8930744669
|  8>  O       -0.6737858082     0.0795906389     1.9545958092
|  9>  C       -2.0686620165     0.1675800040     1.5191985284
| 10>  C       -2.6006226977     1.6016353871     1.4351815582
| 11>  C       -4.0177294840     1.6130056107     1.0968507222
| 12>  C       -5.1854967881     1.5817768621     0.8144695394
| 13>  C       -1.7654640902    -0.6299459089     0.2569947625
| 14>  H        0.1516372208     1.4927274404     0.3722934024
| 15>  H       -0.2107948377    -0.6990945986    -1.2790822243
| 16>  H        0.1945941051    -1.7270779858     1.1380550793
| 17>  H       -2.6833989675    -0.4121600942     2.2172628233
| 18>  H       -2.4412893213     2.0863561511     2.4073236677
| 19>  H       -2.0298327179     2.1597110856     0.6876765204
| 20>  H       -6.2174097572     1.5749619853     0.5643612279
| 21>  H       -2.4411985633    -1.3225080076    -0.2257331328
| 22> *
| 23>
| 24>                          ****END OF INPUT****

CARTESIAN COORDINATES (ANGSTROEM)
---------------------------------
  O     -0.122995    1.216434   -0.512508
  C     -0.486864   -0.124543   -0.398752
  C     -0.392371   -0.849121    0.893074
  O     -0.673786    0.079591    1.954596
  C     -2.068662    0.167580    1.519199
  C     -2.600623    1.601635    1.435182
  C     -4.017729    1.613006    1.096851
  C     -5.185497    1.581777    0.814470
  C     -1.765464   -0.629946    0.256995
  H      0.151637    1.492727    0.372293
  H     -0.210795   -0.699095   -1.279082
  H      0.194594   -1.727078    1.138055
  H     -2.683399   -0.412160    2.217263
  H     -2.441289    2.086356    2.407324
  H     -2.029833    2.159711    0.687677
  H     -6.217410    1.574962    0.564361
  H     -2.441199   -1.322508   -0.225733

 Total Charge           Charge          ....    0
 Multiplicity           Mult            ....    1
 Number of Electrons    NEL             ....   66
 Basis Dimension        Dim             ....  327

ORBITAL ENERGIES
----------------

  NO   OCC          E(Eh)            E(eV)
   0   2.0000     -20.573630      -559.8369
   1   2.0000     -20.567172      -559.6612
   2   2.0000     -11.307979      -307.7058
   3   2.0000     -11.300349      -307.4981
   4   2.0000     -11.299415      -307.4727
   5   2.0000     -11.255817      -306.2863
   6   2.0000     -11.247749      -306.0668
   7   2.0000     -11.239009      -305.8290
   8   2.0000     -11.225595      -305.4640
   9   2.0000      -1.417916       -38.5835
  10   2.0000      -1.367769       -37.2189
  11   2.0000      -1.117605       -30.4116
  12   2.0000      -1.086224       -29.5576
  13   2.0000      -0.998682       -27.1755
  14   2.0000      -0.907731       -24.7006
  15   2.0000      -0.830336       -22.5946
  16   2.0000      -0.767687       -20.8898
  17   2.0000      -0.743876       -20.2419
  18   2.0000      -0.721728       -19.6392
  19   2.0000      -0.697095       -18.9689
  20   2.0000      -0.649818       -17.6825
  21   2.0000      -0.645946       -17.5771
  22   2.0000      -0.613085       -16.6829
  23   2.0000      -0.594517       -16.1776
  24   2.0000      -0.578890       -15.7524
  25   2.0000      -0.563117       -15.3232
  26   2.0000      -0.528454       -14.3800
  27   2.0000      -0.494594       -13.4586
  28   2.0000      -0.492496       -13.4015
  29   2.0000      -0.412246       -11.2178
  30   2.0000      -0.394803       -10.7431
  31   2.0000      -0.389700       -10.6043
  32   2.0000      -0.383621       -10.4389
  33   0.0000       0.143501         3.9049
  34   0.0000       0.153133         4.1670
  35   0.0000       0.163200         4.4409
  36   0.0000       0.167814         4.5664
  37   0.0000       0.177221         4.8224

MULLIKEN ATOMIC CHARGES
-----------------------
   0 O :   -0.468431
   1 C :    0.058224
   2 C :    0.029004
   3 O :   -0.348145
   4 C :    0.075018
   5 C :   -0.239836
   6 C :   -0.076795
   7 C :   -0.171593
   8 C :   -0.206776
   9 H :    0.338000
  10 H :    0.126926
  11 H :    0.134483
  12 H :    0.116455
  13 H :    0.148929
  14 H :    0.145443
  15 H :    0.190864
  16 H :    0.148231
Sum of atomic charges:    0.0000000

LOEWDIN ATOMIC CHARGES
----------------------
   0 O :    0.002529
   1 C :   -0.306972
   2 C :   -0.230473
   3 O :    0.154222
   4 C :   -0.236400
   5 C :   -0.229501
   6 C :   -0.106467
   7 C :   -0.101482
   8 C :   -0.155319
   9 H :    0.183622
  10 H :    0.151533
  11 H :    0.130571
  12 H :    0.150863
  13 H :    0.162554
  14 H :    0.162628
  15 H :    0.126979
  16 H :    0.141114

  Mayer bond orders larger than 0.1
B(  0-O ,  1-C ) :   0.9722 B(  0-O ,  9-H ) :   0.8187 B(  1-C ,  2-C ) :   0.9147
B(  1-C ,  8-C ) :   0.8541 B(  1-C , 10-H ) :   0.9458 B(  2-C ,  3-O ) :   0.9320
B(  2-C ,  8-C ) :   0.8540 B(  2-C , 11-H ) :   0.9176 B(  3-O ,  4-C ) :   0.8971
B(  4-C ,  5-C ) :   0.9080 B(  4-C ,  8-C ) :   0.9352 B(  4-C , 12-H ) :   0.9125
B(  5-C ,  6-C ) :   1.0811 B(  5-C , 13-H ) :   0.9177 B(  5-C , 14-H ) :   0.8964
B(  6-C ,  7-C ) :   2.6208 B(  7-C , 15-H ) :   0.9039 B(  8-C , 16-H ) :   0.9064

MP2 TOTAL ENERGY:     -421.023955501 Eh
FINAL SINGLE POINT ENERGY      -421.023955500789

DIPOLE MOMENT
-------------
                                X             Y             Z
Electronic contribution:      0.77267       0.28397       0.39960
Nuclear contribution   :     -0.94548      -0.92420      -0.31554
                        -----------------------------------------
Total Dipole Moment    :     -0.17281      -0.64023       0.08406
                        -----------------------------------------
Magnitude (a.u.)       :      0.66845
Magnitude (Debye)      :      1.69906

                             ****ORCA TERMINATED NORMALLY****
TOTAL RUN TIME: 0 days 0 hours 17 minutes 38 seconds 431 msec
