                         Program Version 3.0.3 - RELEASE   -
|  1> ! RI-MP2 RIJK def2-TZVP def2-TZVP/C def2-TZVP/JK TIGHTSCF
|  2> % maxcore 2000
|  3> % mp2 density relaxed end
|  4> *xyz 0 1
|  5>  C       -0.3297994440     1.5820576404    -0.0180141304
|  6>  C       -0.0378545446     0.0645685659     0.0025865188
|  7>  C       -1.3687066345    -0.7142525165    -0.0224747334
|  8>  C        0.7339425655    -0.3259661711    -1.2736675286
|  9>  O        1.9646450091     0.3404014858    -1.4674013680
| 10>  C        3.0609916688    -0.2284502092    -0.7803297708
| 11>  C        3.1558449777     0.1802963180     0.6891719473
| 12>  C        2.0024181395    -0.2249453837     1.5732342540
| 13>  C        0.7003413185    -0.2775610907     1.2865595260
| 14>  H        0.5988913102     2.1509639855    -0.1014665878
| 15>  H       -0.9657157214     1.8407267345    -0.8729368917
| 16>  H       -0.8466791798     1.8940399336     0.8948883693
| 17>  H       -1.9402388454    -0.4881036006    -0.9289005406
| 18>  H       -1.1988464696    -1.7960489413     0.0110049771
| 19>  H       -1.9907475857    -0.4473781392     0.8380830063
| 20>  H        0.8896052439    -1.4167475388    -1.2870711400
| 21>  H        0.1174485237    -0.0650115946    -2.1424238747
| 22>  H        3.0245963514    -1.3270516151    -0.8587841765
| 23>  H        3.9580505741     0.1151952285    -1.3074604322
| 24>  H        4.0833245428    -0.2466648198     1.0917912391
| 25>  H        3.2853717400     1.2714545297     0.7393858512
| 26>  H        2.2830675528    -0.4642288891     2.5976440114
| 27>  H        0.0375532870    -0.5534253324     2.1066278040
| 28> *
| 29>
| 30>                          ****END OF INPUT****

CARTESIAN COORDINATES (ANGSTROEM)
---------------------------------
  C     -0.329799    1.582058   -0.018014
  C     -0.037855    0.064569    0.002587
  C     -1.368707   -0.714253   -0.022475
  C      0.733943   -0.325966   -1.273668
  O      1.964645    0.340401   -1.467401
  C      3.060992   -0.228450   -0.780330
  C      3.155845    0.180296    0.689172
  C      2.002418   -0.224945    1.573234
  C      0.700341   -0.277561    1.286560
  H      0.598891    2.150964   -0.101467
  H     -0.965716    1.840727   -0.872937
  H     -0.846679    1.894040    0.894888
  H     -1.940239   -0.488104   -0.928901
  H     -1.198846   -1.796049    0.011005
  H     -1.990748   -0.447378    0.838083
  H      0.889605   -1.416748   -1.287071
  H      0.117449   -0.065012   -2.142424
  H      3.024596   -1.327052   -0.858784
  H      3.958051    0.115195   -1.307460
  H      4.083325   -0.246665    1.091791
  H      3.285372    1.271455    0.739386
  H      2.283068   -0.464229    2.597644
  H      0.037553   -0.553425    2.106628

 Total Charge           Charge          ....    0
 Multiplicity           Mult            ....    1
 Number of Electrons    NEL             ....   70
 Basis Dimension        Dim             ....  363

ORBITAL ENERGIES
----------------

  NO   OCC          E(Eh)            E(eV)
   0   2.0000     -20.548720      -559.1591
   1   2.0000     -11.272138      -306.7305
   2   2.0000     -11.268686      -306.6365
   3   2.0000     -11.237919      -305.7993
   4   2.0000     -11.226160      -305.4793
   5   2.0000     -11.225492      -305.4612
   6   2.0000     -11.222372      -305.3763
   7   2.0000     -11.216464      -305.2155
   8   2.0000     -11.209016      -305.0128
   9   2.0000      -1.371365       -37.3167
  10   2.0000      -1.110083       -30.2069
  11   2.0000      -1.065379       -28.9904
  12   2.0000      -0.973191       -26.4819
  13   2.0000      -0.930280       -25.3142
  14   2.0000      -0.918099       -24.9828
  15   2.0000      -0.855962       -23.2919
  16   2.0000      -0.778843       -21.1934
  17   2.0000      -0.706154       -19.2154
  18   2.0000      -0.675396       -18.3785
  19   2.0000      -0.659279       -17.9399
  20   2.0000      -0.642371       -17.4798
  21   2.0000      -0.599076       -16.3017
  22   2.0000      -0.595150       -16.1949
  23   2.0000      -0.569209       -15.4890
  24   2.0000      -0.560490       -15.2517
  25   2.0000      -0.544870       -14.8267
  26   2.0000      -0.538036       -14.6407
  27   2.0000      -0.530329       -14.4310
  28   2.0000      -0.499769       -13.5994
  29   2.0000      -0.486402       -13.2357
  30   2.0000      -0.477790       -13.0013
  31   2.0000      -0.455826       -12.4037
  32   2.0000      -0.445930       -12.1344
  33   2.0000      -0.409969       -11.1558
  34   2.0000      -0.345583        -9.4038
  35   0.0000       0.134262         3.6534
  36   0.0000       0.147338         4.0093
  37   0.0000       0.159369         4.3366
  38   0.0000       0.174505         4.7485
  39   0.0000       0.178759         4.8643

MULLIKEN ATOMIC CHARGES
-----------------------
   0 C :   -0.412077
   1 C :    0.211255
   2 C :   -0.441235
   3 C :   -0.086685
   4 O :   -0.317597
   5 C :   -0.060670
   6 C :   -0.164182
   7 C :   -0.181824
   8 C :   -0.250438
   9 H :    0.144320
  10 H :    0.123655
  11 H :    0.127968
  12 H :    0.134636
  13 H :    0.137517
  14 H :    0.134882
  15 H :    0.103498
  16 H :    0.116917
  17 H :    0.090601
  18 H :    0.119700
  19 H :    0.116422
  20 H :    0.120616
  21 H :    0.119552
  22 H :    0.113170
Sum of atomic charges:    0.0000000

LOEWDIN ATOMIC CHARGES
----------------------
   0 C :   -0.260713
   1 C :   -0.319525
   2 C :   -0.268550
   3 C :   -0.281684
   4 O :    0.163617
   5 C :   -0.321146
   6 C :   -0.264471
   7 C :   -0.174428
   8 C :   -0.137107
   9 H :    0.128801
  10 H :    0.124781
  11 H :    0.125401
  12 H :    0.125753
  13 H :    0.126846
  14 H :    0.126915
  15 H :    0.126405
  16 H :    0.134794
  17 H :    0.121548
  18 H :    0.129621
  19 H :    0.146960
  20 H :    0.149621
  21 H :    0.145389
  22 H :    0.151172

  Mayer bond orders larger than 0.1
B(  0-C ,  1-C ) :   0.8830 B(  0-C ,  9-H ) :   0.9335 B(  0-C , 10-H ) :   0.9298
B(  0-C , 11-H ) :   0.9334 B(  1-C ,  2-C ) :   0.8938 B(  1-C ,  3-C ) :   0.8951
B(  1-C ,  8-C ) :   0.8703 B(  2-C , 12-H ) :   0.9364 B(  2-C , 13-H ) :   0.9350
B(  2-C , 14-H ) :   0.9329 B(  3-C ,  4-O ) :   0.9201 B(  3-C , 15-H ) :   0.9375
B(  3-C , 16-H ) :   0.9286 B(  4-O ,  5-C ) :   0.9336 B(  5-C ,  6-C ) :   0.9415
B(  5-C , 17-H ) :   0.9335 B(  5-C , 18-H ) :   0.9312 B(  6-C ,  7-C ) :   0.9406
B(  6-C , 19-H ) :   0.9253 B(  6-C , 20-H ) :   0.9005 B(  7-C ,  8-C ) :   1.8356
B(  7-C , 21-H ) :   0.9232 B(  8-C , 22-H ) :   0.9237

MP2 TOTAL ENERGY:     -387.618622505 Eh
FINAL SINGLE POINT ENERGY      -387.618622505281

DIPOLE MOMENT
-------------
                                X             Y             Z
Electronic contribution:      3.72044      -0.03352      -0.96709
Nuclear contribution   :     -3.70993      -0.24250       1.25115
                        -----------------------------------------
Total Dipole Moment    :      0.01051      -0.27603       0.28406
                        -----------------------------------------
Magnitude (a.u.)       :      0.39622
Magnitude (Debye)      :      1.00712

                             ****ORCA TERMINATED NORMALLY****
TOTAL RUN TIME: 0 days 0 hours 21 minutes 2 seconds 486 msec
