                         Program Version 3.0.3 - RELEASE   -
|  1> ! RI-MP2 RIJK def2-TZVP def2-TZVP/C def2-TZVP/JK TIGHTSCF
|  2> % maxcore 2000
|  3> % mp2 density relaxed end
|  4> *xyz 0 1
|  5>  O       -0.0681992411     1.4216656122     0.1702774815
|  6>  C       -0.0270618675     0.0449189300    -0.0419602104
|  7>  C        0.8343662240    -0.4845020241    -1.1797534111
|  8>  C        0.1990786781    -1.8352200609    -1.5896980874
|  9>  C       -1.2767978390    -1.7751821875    -1.1110953171
| 10>  C       -1.3023646166    -0.7360282256    -0.0030105758
| 11>  C       -0.3039941897    -0.8616872047     1.1601040743
| 12>  C        0.4284584474    -2.0481033610     1.4833254745
| 13>  C        1.0472621639    -3.0331899256     1.7951408055
| 14>  H        0.7835580739     1.6946392505     0.5291370936
| 15>  H        0.7733101840     0.2497166303    -1.9909627061
| 16>  H        1.8902849897    -0.5907762477    -0.9077695087
| 17>  H        0.2714150659    -2.0078762178    -2.6666103596
| 18>  H        0.7179164995    -2.6564940640    -1.0938032770
| 19>  H       -1.9360933607    -1.4358749904    -1.9182285469
| 20>  H       -1.6403613767    -2.7553374791    -0.7868488435
| 21>  H       -2.2346733433    -0.2389775678     0.2403890628
| 22>  H       -0.6161988318    -0.2839802716     2.0265629752
| 23>  H        1.5906450999    -3.9041236753     2.0655471160
| 24> *
| 25>
| 26>                          ****END OF INPUT****

CARTESIAN COORDINATES (ANGSTROEM)
---------------------------------
  O     -0.068199    1.421666    0.170277
  C     -0.027062    0.044919   -0.041960
  C      0.834366   -0.484502   -1.179753
  C      0.199079   -1.835220   -1.589698
  C     -1.276798   -1.775182   -1.111095
  C     -1.302365   -0.736028   -0.003011
  C     -0.303994   -0.861687    1.160104
  C      0.428458   -2.048103    1.483325
  C      1.047262   -3.033190    1.795141
  H      0.783558    1.694639    0.529137
  H      0.773310    0.249717   -1.990963
  H      1.890285   -0.590776   -0.907770
  H      0.271415   -2.007876   -2.666610
  H      0.717916   -2.656494   -1.093803
  H     -1.936093   -1.435875   -1.918229
  H     -1.640361   -2.755337   -0.786849
  H     -2.234673   -0.238978    0.240389
  H     -0.616199   -0.283980    2.026563
  H      1.590645   -3.904124    2.065547

 Total Charge           Charge          ....    0
 Multiplicity           Mult            ....    1
 Number of Electrons    NEL             ....   66
 Basis Dimension        Dim             ....  339

ORBITAL ENERGIES
----------------

  NO   OCC          E(Eh)            E(eV)
   0   2.0000     -20.569116      -559.7141
   1   2.0000     -11.294113      -307.3284
   2   2.0000     -11.252147      -306.1865
   3   2.0000     -11.237647      -305.7919
   4   2.0000     -11.234954      -305.7186
   5   2.0000     -11.225467      -305.4605
   6   2.0000     -11.225267      -305.4550
   7   2.0000     -11.220111      -305.3147
   8   2.0000     -11.219351      -305.2941
   9   2.0000      -1.381307       -37.5873
  10   2.0000      -1.175148       -31.9774
  11   2.0000      -1.049853       -28.5679
  12   2.0000      -1.012827       -27.5604
  13   2.0000      -0.963637       -26.2219
  14   2.0000      -0.877255       -23.8713
  15   2.0000      -0.802186       -21.8286
  16   2.0000      -0.761269       -20.7152
  17   2.0000      -0.717650       -19.5282
  18   2.0000      -0.711287       -19.3551
  19   2.0000      -0.660336       -17.9687
  20   2.0000      -0.636971       -17.3329
  21   2.0000      -0.613894       -16.7049
  22   2.0000      -0.582003       -15.8371
  23   2.0000      -0.579477       -15.7684
  24   2.0000      -0.546578       -14.8731
  25   2.0000      -0.508200       -13.8288
  26   2.0000      -0.481355       -13.0983
  27   2.0000      -0.479266       -13.0415
  28   2.0000      -0.474658       -12.9161
  29   2.0000      -0.447052       -12.1649
  30   2.0000      -0.425181       -11.5698
  31   2.0000      -0.373096       -10.1525
  32   2.0000      -0.351190        -9.5564
  33   0.0000       0.135207         3.6792
  34   0.0000       0.148324         4.0361
  35   0.0000       0.157288         4.2800
  36   0.0000       0.171331         4.6622
  37   0.0000       0.176094         4.7918

MULLIKEN ATOMIC CHARGES
-----------------------
   0 O :   -0.447507
   1 C :    0.208224
   2 C :   -0.250254
   3 C :   -0.238806
   4 C :   -0.245771
   5 C :   -0.055371
   6 C :   -0.411006
   7 C :    0.057605
   8 C :   -0.145583
   9 H :    0.325413
  10 H :    0.125338
  11 H :    0.116846
  12 H :    0.123013
  13 H :    0.139207
  14 H :    0.120479
  15 H :    0.122140
  16 H :    0.134257
  17 H :    0.134874
  18 H :    0.186902
Sum of atomic charges:   -0.0000000

LOEWDIN ATOMIC CHARGES
----------------------
   0 O :    0.030644
   1 C :   -0.318115
   2 C :   -0.214644
   3 C :   -0.239424
   4 C :   -0.226314
   5 C :   -0.144241
   6 C :   -0.161452
   7 C :   -0.095249
   8 C :   -0.105899
   9 H :    0.184824
  10 H :    0.145383
  11 H :    0.139141
  12 H :    0.132657
  13 H :    0.140001
  14 H :    0.141822
  15 H :    0.139742
  16 H :    0.151614
  17 H :    0.173695
  18 H :    0.125817

  Mayer bond orders larger than 0.1
B(  0-O ,  1-C ) :   1.0325 B(  0-O ,  9-H ) :   0.8385 B(  1-C ,  2-C ) :   0.9715
B(  1-C ,  5-C ) :   0.8432 B(  1-C ,  6-C ) :   0.8436 B(  2-C ,  3-C ) :   0.9204
B(  2-C , 10-H ) :   0.9303 B(  2-C , 11-H ) :   0.9126 B(  3-C ,  4-C ) :   0.9390
B(  3-C , 12-H ) :   0.9257 B(  3-C , 13-H ) :   0.9283 B(  4-C ,  5-C ) :   0.9477
B(  4-C , 14-H ) :   0.9297 B(  4-C , 15-H ) :   0.9237 B(  5-C ,  6-C ) :   0.8496
B(  5-C , 16-H ) :   0.9146 B(  6-C ,  7-C ) :   1.0957 B(  6-C ,  8-C ) :  -0.1289
B(  6-C , 17-H ) :   0.9616 B(  7-C ,  8-C ) :   2.5578 B(  8-C , 18-H ) :   0.9035

MP2 TOTAL ENERGY:     -385.177467892 Eh
FINAL SINGLE POINT ENERGY      -385.177467892058

DIPOLE MOMENT
-------------
                                X             Y             Z
Electronic contribution:      0.22885       1.99684       4.41827
Nuclear contribution   :      0.10899      -2.08334      -4.55613
                        -----------------------------------------
Total Dipole Moment    :      0.33785      -0.08650      -0.13786
                        -----------------------------------------
Magnitude (a.u.)       :      0.37501
Magnitude (Debye)      :      0.95319

                             ****ORCA TERMINATED NORMALLY****
TOTAL RUN TIME: 0 days 0 hours 20 minutes 21 seconds 541 msec
