                         Program Version 3.0.3 - RELEASE   -
|  1> ! RI-MP2 RIJK def2-TZVP def2-TZVP/C def2-TZVP/JK TIGHTSCF
|  2> % maxcore 2000
|  3> % mp2 density relaxed end
|  4> *xyz 0 1
|  5>  N       -0.0301972535     1.3253055378     0.0084638229
|  6>  C       -0.0260026394    -0.0186210234     0.0004874119
|  7>  N       -1.2108019165    -0.6567537763     0.0041226031
|  8>  C       -1.1102643610    -1.9743934064    -0.0035250128
|  9>  C        0.1266214458    -2.6254238986    -0.0143594456
| 10>  C        0.2058864112    -4.1045260811    -0.0229376497
| 11>  O        1.2191640323    -4.7558633460    -0.0325300426
| 12>  N        1.2670191111    -1.9086183033    -0.0171305369
| 13>  N        1.2053793641    -0.6058130287    -0.0097118324
| 14>  H        0.8457496047     1.8179298540     0.0063040363
| 15>  H       -0.9031194170     1.8218362818     0.0165703083
| 16>  H       -2.0397462204    -2.5422866072    -0.0012297397
| 17>  H       -0.7970764614    -4.5919114226    -0.0197925027
| 18> *
| 19>
| 20>                          ****END OF INPUT****

CARTESIAN COORDINATES (ANGSTROEM)
---------------------------------
  N     -0.030197    1.325306    0.008464
  C     -0.026003   -0.018621    0.000487
  N     -1.210802   -0.656754    0.004123
  C     -1.110264   -1.974393   -0.003525
  C      0.126621   -2.625424   -0.014359
  C      0.205886   -4.104526   -0.022938
  O      1.219164   -4.755863   -0.032530
  N      1.267019   -1.908618   -0.017131
  N      1.205379   -0.605813   -0.009712
  H      0.845750    1.817930    0.006304
  H     -0.903119    1.821836    0.016570
  H     -2.039746   -2.542287   -0.001230
  H     -0.797076   -4.591911   -0.019793

 Total Charge           Charge          ....    0
 Multiplicity           Mult            ....    1
 Number of Electrons    NEL             ....   64
 Basis Dimension        Dim             ....  303

ORBITAL ENERGIES
----------------

  NO   OCC          E(Eh)            E(eV)
   0   2.0000     -20.557903      -559.4090
   1   2.0000     -15.659407      -426.1141
   2   2.0000     -15.621605      -425.0855
   3   2.0000     -15.606839      -424.6837
   4   2.0000     -15.600914      -424.5224
   5   2.0000     -11.384014      -309.7748
   6   2.0000     -11.342578      -308.6472
   7   2.0000     -11.331319      -308.3409
   8   2.0000     -11.284581      -307.0691
   9   2.0000      -1.407617       -38.3032
  10   2.0000      -1.393298       -37.9136
  11   2.0000      -1.293756       -35.2049
  12   2.0000      -1.241434       -33.7811
  13   2.0000      -1.119169       -30.4541
  14   2.0000      -0.979070       -26.6418
  15   2.0000      -0.933619       -25.4051
  16   2.0000      -0.844440       -22.9784
  17   2.0000      -0.782325       -21.2882
  18   2.0000      -0.765830       -20.8393
  19   2.0000      -0.705940       -19.2096
  20   2.0000      -0.692197       -18.8356
  21   2.0000      -0.645129       -17.5549
  22   2.0000      -0.642936       -17.4952
  23   2.0000      -0.635244       -17.2859
  24   2.0000      -0.554474       -15.0880
  25   2.0000      -0.549136       -14.9427
  26   2.0000      -0.528512       -14.3815
  27   2.0000      -0.502947       -13.6859
  28   2.0000      -0.473263       -12.8782
  29   2.0000      -0.433800       -11.8043
  30   2.0000      -0.412053       -11.2125
  31   2.0000      -0.356591        -9.7033
  32   0.0000       0.049487         1.3466
  33   0.0000       0.078123         2.1258
  34   0.0000       0.127152         3.4600
  35   0.0000       0.144860         3.9418
  36   0.0000       0.176822         4.8116

MULLIKEN ATOMIC CHARGES
-----------------------
   0 N :   -0.460872
   1 C :    0.309632
   2 N :   -0.257446
   3 C :   -0.067265
   4 C :    0.145673
   5 C :    0.020013
   6 O :   -0.230723
   7 N :   -0.123032
   8 N :   -0.126566
   9 H :    0.280147
  10 H :    0.274418
  11 H :    0.151150
  12 H :    0.084872
Sum of atomic charges:    0.0000000

LOEWDIN ATOMIC CHARGES
----------------------
   0 N :    0.013113
   1 C :   -0.411570
   2 N :    0.151960
   3 C :   -0.176138
   4 C :   -0.264044
   5 C :   -0.279761
   6 O :    0.160895
   7 N :    0.107967
   8 N :    0.068715
   9 H :    0.183205
  10 H :    0.180587
  11 H :    0.148637
  12 H :    0.116434

  Mayer bond orders larger than 0.1
B(  0-N ,  1-C ) :   1.2065 B(  0-N ,  9-H ) :   0.8546 B(  0-N , 10-H ) :   0.8586
B(  1-C ,  2-N ) :   1.3342 B(  1-C ,  8-N ) :   1.3527 B(  2-N ,  3-C ) :   1.4493
B(  3-C ,  4-C ) :   1.2468 B(  3-C , 11-H ) :   0.9276 B(  4-C ,  5-C ) :   0.8045
B(  4-C ,  7-N ) :   1.4067 B(  4-C , 12-H ) :  -0.1246 B(  5-C ,  6-O ) :   2.0437
B(  5-C , 12-H ) :   0.9926 B(  7-N ,  8-N ) :   1.2236

MP2 TOTAL ENERGY:     -448.200728621 Eh
FINAL SINGLE POINT ENERGY      -448.200728621427

DIPOLE MOMENT
-------------
                                X             Y             Z
Electronic contribution:      1.90535      -1.60226      -0.02067
Nuclear contribution   :     -3.42887       3.06079       0.03790
                        -----------------------------------------
Total Dipole Moment    :     -1.52351       1.45853       0.01724
                        -----------------------------------------
Magnitude (a.u.)       :      2.10920
Magnitude (Debye)      :      5.36115

                             ****ORCA TERMINATED NORMALLY****
TOTAL RUN TIME: 0 days 0 hours 15 minutes 15 seconds 795 msec
