                         Program Version 3.0.3 - RELEASE   -
|  1> ! RI-MP2 RIJK def2-TZVP def2-TZVP/C def2-TZVP/JK TIGHTSCF
|  2> % maxcore 2000
|  3> % mp2 density relaxed end
|  4> *xyz 0 1
|  5>  C       -0.0478739345     1.6370741263    -0.9241113871
|  6>  C        0.0129215462     0.3702147648    -0.0627116117
|  7>  C       -1.3390425884    -0.2883606729     0.1167353265
|  8>  C       -1.9081455481    -1.2162512210    -0.9555770226
|  9>  C       -1.4717430445    -1.7525102839     0.3715811553
| 10>  C       -0.4254194769    -2.8115691148     0.6970842720
| 11>  C       -1.5205423134    -3.3805402732     1.6313962616
| 12>  C       -1.2247115267    -3.4756558588     3.1135992786
| 13>  O       -2.4087133745    -2.2730617221     1.3165397280
| 14>  H        0.9434152312     2.0857680167    -1.0431114458
| 15>  H       -0.4408591849     1.4141419823    -1.9214918938
| 16>  H       -0.7033166514     2.3892431431    -0.4717756969
| 17>  H        0.7076388350    -0.3475273953    -0.5181372402
| 18>  H        0.4328720103     0.6157774414     0.9218444579
| 19>  H       -2.0829280161     0.3198988303     0.6279710410
| 20>  H       -2.9747058223    -1.1742627340    -1.1491509452
| 21>  H       -1.2945419561    -1.4339777352    -1.8259538699
| 22>  H       -0.1167370864    -3.4548362179    -0.1288800520
| 23>  H        0.4602323847    -2.4399875754     1.2195437080
| 24>  H       -1.9517727444    -4.3221717290     1.2660526095
| 25>  H       -0.7769280415    -2.5467545645     3.4802930245
| 26>  H       -2.1458836412    -3.6577486078     3.6760681734
| 27>  H       -0.5328110762    -4.3014061090     3.3140023589
| 28> *
| 29>
| 30>                          ****END OF INPUT****

CARTESIAN COORDINATES (ANGSTROEM)
---------------------------------
  C     -0.047874    1.637074   -0.924111
  C      0.012922    0.370215   -0.062712
  C     -1.339043   -0.288361    0.116735
  C     -1.908146   -1.216251   -0.955577
  C     -1.471743   -1.752510    0.371581
  C     -0.425419   -2.811569    0.697084
  C     -1.520542   -3.380540    1.631396
  C     -1.224712   -3.475656    3.113599
  O     -2.408713   -2.273062    1.316540
  H      0.943415    2.085768   -1.043111
  H     -0.440859    1.414142   -1.921492
  H     -0.703317    2.389243   -0.471776
  H      0.707639   -0.347527   -0.518137
  H      0.432872    0.615777    0.921844
  H     -2.082928    0.319899    0.627971
  H     -2.974706   -1.174263   -1.149151
  H     -1.294542   -1.433978   -1.825954
  H     -0.116737   -3.454836   -0.128880
  H      0.460232   -2.439988    1.219544
  H     -1.951773   -4.322172    1.266053
  H     -0.776928   -2.546755    3.480293
  H     -2.145884   -3.657749    3.676068
  H     -0.532811   -4.301406    3.314002

 Total Charge           Charge          ....    0
 Multiplicity           Mult            ....    1
 Number of Electrons    NEL             ....   70
 Basis Dimension        Dim             ....  363

ORBITAL ENERGIES
----------------

  NO   OCC          E(Eh)            E(eV)
   0   2.0000     -20.542352      -558.9858
   1   2.0000     -11.281874      -306.9954
   2   2.0000     -11.281481      -306.9847
   3   2.0000     -11.228231      -305.5357
   4   2.0000     -11.224421      -305.4320
   5   2.0000     -11.223245      -305.4000
   6   2.0000     -11.216805      -305.2248
   7   2.0000     -11.215899      -305.2001
   8   2.0000     -11.212418      -305.1054
   9   2.0000      -1.377483       -37.4832
  10   2.0000      -1.136109       -30.9151
  11   2.0000      -1.030973       -28.0542
  12   2.0000      -1.020740       -27.7758
  13   2.0000      -0.959888       -26.1199
  14   2.0000      -0.869535       -23.6612
  15   2.0000      -0.817864       -22.2552
  16   2.0000      -0.776215       -21.1219
  17   2.0000      -0.722357       -19.6563
  18   2.0000      -0.673088       -18.3157
  19   2.0000      -0.666138       -18.1265
  20   2.0000      -0.636553       -17.3215
  21   2.0000      -0.605288       -16.4707
  22   2.0000      -0.581122       -15.8131
  23   2.0000      -0.566282       -15.4093
  24   2.0000      -0.552504       -15.0344
  25   2.0000      -0.542074       -14.7506
  26   2.0000      -0.524146       -14.2627
  27   2.0000      -0.514077       -13.9888
  28   2.0000      -0.502794       -13.6817
  29   2.0000      -0.485397       -13.2083
  30   2.0000      -0.477573       -12.9954
  31   2.0000      -0.474615       -12.9149
  32   2.0000      -0.454329       -12.3629
  33   2.0000      -0.393392       -10.7047
  34   2.0000      -0.362605        -9.8670
  35   0.0000       0.133288         3.6269
  36   0.0000       0.149568         4.0699
  37   0.0000       0.161176         4.3858
  38   0.0000       0.168755         4.5921
  39   0.0000       0.184352         5.0165

MULLIKEN ATOMIC CHARGES
-----------------------
   0 C :   -0.383992
   1 C :   -0.230847
   2 C :   -0.090458
   3 C :   -0.315703
   4 C :    0.195580
   5 C :   -0.288259
   6 C :    0.147974
   7 C :   -0.410920
   8 O :   -0.329826
   9 H :    0.131588
  10 H :    0.126851
  11 H :    0.123072
  12 H :    0.109612
  13 H :    0.114817
  14 H :    0.119991
  15 H :    0.133554
  16 H :    0.121697
  17 H :    0.127302
  18 H :    0.121462
  19 H :    0.085117
  20 H :    0.128166
  21 H :    0.137854
  22 H :    0.125368
Sum of atomic charges:   -0.0000000

LOEWDIN ATOMIC CHARGES
----------------------
   0 C :   -0.314241
   1 C :   -0.274671
   2 C :   -0.195033
   3 C :   -0.191788
   4 C :   -0.291194
   5 C :   -0.184084
   6 C :   -0.289480
   7 C :   -0.298299
   8 O :    0.183530
   9 H :    0.119355
  10 H :    0.121861
  11 H :    0.121289
  12 H :    0.139719
  13 H :    0.138828
  14 H :    0.155655
  15 H :    0.138393
  16 H :    0.134547
  17 H :    0.133509
  18 H :    0.137119
  19 H :    0.133720
  20 H :    0.125782
  21 H :    0.128504
  22 H :    0.126978

  Mayer bond orders larger than 0.1
B(  0-C ,  1-C ) :   0.9224 B(  0-C ,  9-H ) :   0.9410 B(  0-C , 10-H ) :   0.9391
B(  0-C , 11-H ) :   0.9381 B(  1-C ,  2-C ) :   0.8959 B(  1-C , 12-H ) :   0.9325
B(  1-C , 13-H ) :   0.9363 B(  2-C ,  3-C ) :   0.9238 B(  2-C ,  4-C ) :   0.8470
B(  2-C , 14-H ) :   0.9101 B(  3-C ,  4-C ) :   0.8719 B(  3-C , 15-H ) :   0.9142
B(  3-C , 16-H ) :   0.9103 B(  4-C ,  5-C ) :   0.9367 B(  4-C ,  8-O ) :   0.9702
B(  5-C ,  6-C ) :   0.9505 B(  5-C , 17-H ) :   0.9155 B(  5-C , 18-H ) :   0.9195
B(  6-C ,  7-C ) :   0.9066 B(  6-C ,  8-O ) :   0.9179 B(  6-C , 19-H ) :   0.9172
B(  7-C , 20-H ) :   0.9379 B(  7-C , 21-H ) :   0.9368 B(  7-C , 22-H ) :   0.9300

MP2 TOTAL ENERGY:     -387.585289818 Eh
FINAL SINGLE POINT ENERGY      -387.585289818366

DIPOLE MOMENT
-------------
                                X             Y             Z
Electronic contribution:     -4.52425      -3.58573       0.86332
Nuclear contribution   :      5.16883       3.37703      -0.96144
                        -----------------------------------------
Total Dipole Moment    :      0.64458      -0.20871      -0.09811
                        -----------------------------------------
Magnitude (a.u.)       :      0.68460
Magnitude (Debye)      :      1.74011

                             ****ORCA TERMINATED NORMALLY****
TOTAL RUN TIME: 0 days 0 hours 30 minutes 17 seconds 71 msec
