                         Program Version 3.0.3 - RELEASE   -
|  1> ! RI-MP2 RIJK def2-TZVP def2-TZVP/C def2-TZVP/JK TIGHTSCF
|  2> % maxcore 2000
|  3> % mp2 density relaxed end
|  4> *xyz 0 1
|  5>  C        0.0956789434     1.5959244115     0.0520216761
|  6>  C        0.0499561959     0.0630744488     0.0459345560
|  7>  C        0.7383466550    -0.5147678904     1.2889560501
|  8>  C       -1.3997106317    -0.4821681925    -0.0461533506
|  9>  C       -2.0902451373    -0.1894582286    -1.3340626707
| 10>  C       -2.3072419220    -0.9267228391    -2.4602568765
| 11>  N       -2.9910563259    -0.1299824807    -3.3448052549
| 12>  N       -3.2015477769     1.0054031479    -2.8529452851
| 13>  O       -2.6278272453     1.0160464908    -1.5300371079
| 14>  H        1.1314236702     1.9478752707     0.0893128710
| 15>  H       -0.3756218078     2.0246073641    -0.8354688177
| 16>  H       -0.4238490950     1.9969006556     0.9304886654
| 17>  H        0.5881666816    -0.2955063229    -0.8416992950
| 18>  H        0.2205497277    -0.2045831296     2.2043825765
| 19>  H        0.7561486461    -1.6095350596     1.2689880514
| 20>  H        1.7722490266    -0.1631084838     1.3588220491
| 21>  H       -1.3810130646    -1.5694943387     0.0802027775
| 22>  H       -1.9935628962    -0.0715110954     0.7792168323
| 23>  H       -2.0368225237    -1.9420558983    -2.6940189570
| 24> *
| 25>
| 26>                          ****END OF INPUT****

CARTESIAN COORDINATES (ANGSTROEM)
---------------------------------
  C      0.095679    1.595924    0.052022
  C      0.049956    0.063074    0.045935
  C      0.738347   -0.514768    1.288956
  C     -1.399711   -0.482168   -0.046153
  C     -2.090245   -0.189458   -1.334063
  C     -2.307242   -0.926723   -2.460257
  N     -2.991056   -0.129982   -3.344805
  N     -3.201548    1.005403   -2.852945
  O     -2.627827    1.016046   -1.530037
  H      1.131424    1.947875    0.089313
  H     -0.375622    2.024607   -0.835469
  H     -0.423849    1.996901    0.930489
  H      0.588167   -0.295506   -0.841699
  H      0.220550   -0.204583    2.204383
  H      0.756149   -1.609535    1.268988
  H      1.772249   -0.163108    1.358822
  H     -1.381013   -1.569494    0.080203
  H     -1.993563   -0.071511    0.779217
  H     -2.036823   -1.942056   -2.694019

 Total Charge           Charge          ....    0
 Multiplicity           Mult            ....    1
 Number of Electrons    NEL             ....   68
 Basis Dimension        Dim             ....  339

ORBITAL ENERGIES
----------------

  NO   OCC          E(Eh)            E(eV)
   0   2.0000     -20.653504      -562.0104
   1   2.0000     -15.683567      -426.7715
   2   2.0000     -15.635437      -425.4619
   3   2.0000     -11.329607      -308.2943
   4   2.0000     -11.264419      -306.5204
   5   2.0000     -11.259014      -306.3733
   6   2.0000     -11.250795      -306.1497
   7   2.0000     -11.227854      -305.5254
   8   2.0000     -11.220564      -305.3271
   9   2.0000      -1.520699       -41.3803
  10   2.0000      -1.313574       -35.7442
  11   2.0000      -1.127064       -30.6690
  12   2.0000      -1.081500       -29.4291
  13   2.0000      -0.978399       -26.6236
  14   2.0000      -0.941821       -25.6283
  15   2.0000      -0.858976       -23.3739
  16   2.0000      -0.837630       -22.7931
  17   2.0000      -0.791300       -21.5324
  18   2.0000      -0.721785       -19.6408
  19   2.0000      -0.681027       -18.5317
  20   2.0000      -0.654094       -17.7988
  21   2.0000      -0.624389       -16.9905
  22   2.0000      -0.607113       -16.5204
  23   2.0000      -0.599210       -16.3053
  24   2.0000      -0.565953       -15.4004
  25   2.0000      -0.553858       -15.0712
  26   2.0000      -0.546134       -14.8611
  27   2.0000      -0.532410       -14.4876
  28   2.0000      -0.498166       -13.5558
  29   2.0000      -0.490497       -13.3471
  30   2.0000      -0.486834       -13.2474
  31   2.0000      -0.479178       -13.0391
  32   2.0000      -0.462733       -12.5916
  33   2.0000      -0.367861       -10.0100
  34   0.0000       0.104757         2.8506
  35   0.0000       0.125305         3.4097
  36   0.0000       0.157473         4.2851
  37   0.0000       0.162706         4.4275
  38   0.0000       0.173417         4.7189

MULLIKEN ATOMIC CHARGES
-----------------------
   0 C :   -0.414836
   1 C :   -0.031161
   2 C :   -0.389775
   3 C :   -0.255672
   4 C :    0.173625
   5 C :   -0.169026
   6 N :   -0.105978
   7 N :   -0.032173
   8 O :   -0.113403
   9 H :    0.133210
  10 H :    0.151354
  11 H :    0.122836
  12 H :    0.095467
  13 H :    0.126292
  14 H :    0.130345
  15 H :    0.137776
  16 H :    0.141804
  17 H :    0.145181
  18 H :    0.154134
Sum of atomic charges:    0.0000000

LOEWDIN ATOMIC CHARGES
----------------------
   0 C :   -0.292271
   1 C :   -0.298519
   2 C :   -0.293285
   3 C :   -0.208075
   4 C :   -0.299017
   5 C :   -0.247749
   6 N :    0.020354
   7 N :   -0.015196
   8 O :    0.272851
   9 H :    0.125244
  10 H :    0.126599
  11 H :    0.125524
  12 H :    0.152460
  13 H :    0.124941
  14 H :    0.122433
  15 H :    0.126155
  16 H :    0.157451
  17 H :    0.157187
  18 H :    0.142913

  Mayer bond orders larger than 0.1
B(  0-C ,  1-C ) :   0.9347 B(  0-C ,  9-H ) :   0.9365 B(  0-C , 10-H ) :   0.9311
B(  0-C , 11-H ) :   0.9301 B(  1-C ,  2-C ) :   0.9137 B(  1-C ,  3-C ) :   0.8865
B(  1-C , 12-H ) :   0.9261 B(  2-C , 13-H ) :   0.9302 B(  2-C , 14-H ) :   0.9384
B(  2-C , 15-H ) :   0.9396 B(  3-C ,  4-C ) :   0.9096 B(  3-C , 16-H ) :   0.9341
B(  3-C , 17-H ) :   0.9202 B(  4-C ,  5-C ) :   1.4983 B(  4-C ,  8-O ) :   1.1317
B(  5-C ,  6-N ) :   1.2482 B(  5-C , 18-H ) :   0.9307 B(  6-N ,  7-N ) :   1.4471
B(  7-N ,  8-O ) :   0.8411

MP2 TOTAL ENERGY:     -418.488571813 Eh
FINAL SINGLE POINT ENERGY      -418.488571813335

DIPOLE MOMENT
-------------
                                X             Y             Z
Electronic contribution:    -11.48015       0.77020     -11.36857
Nuclear contribution   :     12.42710      -1.60194      12.45928
                        -----------------------------------------
Total Dipole Moment    :      0.94695      -0.83174       1.09072
                        -----------------------------------------
Magnitude (a.u.)       :      1.66678
Magnitude (Debye)      :      4.23663

                             ****ORCA TERMINATED NORMALLY****
TOTAL RUN TIME: 0 days 0 hours 17 minutes 55 seconds 596 msec
