                         Program Version 3.0.3 - RELEASE   -
|  1> ! RI-MP2 RIJK def2-TZVP def2-TZVP/C def2-TZVP/JK TIGHTSCF
|  2> % maxcore 2000
|  3> % mp2 density relaxed end
|  4> *xyz 0 1
|  5>  O       -0.1768295970     1.3112488994    -0.1393156072
|  6>  C        0.0357052863    -0.0414801652    -0.0798397313
|  7>  C        0.9878901006    -0.8993194510    -0.9178666402
|  8>  C        0.1623615160    -2.0908174998    -0.3747110477
|  9>  O        0.4642079054    -2.1094095898     1.0516779521
| 10>  C       -0.2871413600    -0.9073040760     1.1463011497
| 11>  C       -1.0663812128    -1.1172602750    -0.1337591702
| 12>  C       -2.4275556943    -1.1063295285    -0.4907777045
| 13>  C       -3.5887469798    -1.1050302394    -0.8102300608
| 14>  H        0.4021613744     1.7462724760     0.4970564198
| 15>  H        0.8203876186    -0.7395615998    -1.9853615601
| 16>  H        2.0562322114    -0.9023104281    -0.6799696984
| 17>  H        0.1444579644    -3.0735220826    -0.8377241823
| 18>  H       -0.6012955546    -0.5344612805     2.1127306099
| 19>  H       -4.6132735787    -1.1007973996    -1.0880814988
| 20> *
| 21>
| 22>                          ****END OF INPUT****

CARTESIAN COORDINATES (ANGSTROEM)
---------------------------------
  O     -0.176830    1.311249   -0.139316
  C      0.035705   -0.041480   -0.079840
  C      0.987890   -0.899319   -0.917867
  C      0.162362   -2.090817   -0.374711
  O      0.464208   -2.109410    1.051678
  C     -0.287141   -0.907304    1.146301
  C     -1.066381   -1.117260   -0.133759
  C     -2.427556   -1.106330   -0.490778
  C     -3.588747   -1.105030   -0.810230
  H      0.402161    1.746272    0.497056
  H      0.820388   -0.739562   -1.985362
  H      2.056232   -0.902310   -0.679970
  H      0.144458   -3.073522   -0.837724
  H     -0.601296   -0.534461    2.112731
  H     -4.613274   -1.100797   -1.088081

 Total Charge           Charge          ....    0
 Multiplicity           Mult            ....    1
 Number of Electrons    NEL             ....   64
 Basis Dimension        Dim             ....  315

ORBITAL ENERGIES
----------------

  NO   OCC          E(Eh)            E(eV)
   0   2.0000     -20.589448      -560.2674
   1   2.0000     -20.567358      -559.6663
   2   2.0000     -11.316006      -307.9242
   3   2.0000     -11.312237      -307.8216
   4   2.0000     -11.307430      -307.6908
   5   2.0000     -11.267793      -306.6122
   6   2.0000     -11.243032      -305.9385
   7   2.0000     -11.243011      -305.9379
   8   2.0000     -11.229544      -305.5714
   9   2.0000      -1.425490       -38.7896
  10   2.0000      -1.395083       -37.9621
  11   2.0000      -1.163331       -31.6558
  12   2.0000      -1.041185       -28.3321
  13   2.0000      -0.997047       -27.1310
  14   2.0000      -0.907152       -24.6849
  15   2.0000      -0.820093       -22.3159
  16   2.0000      -0.802659       -21.8415
  17   2.0000      -0.748263       -20.3613
  18   2.0000      -0.708988       -19.2925
  19   2.0000      -0.681920       -18.5560
  20   2.0000      -0.646225       -17.5847
  21   2.0000      -0.638628       -17.3780
  22   2.0000      -0.623576       -16.9684
  23   2.0000      -0.581444       -15.8219
  24   2.0000      -0.550795       -14.9879
  25   2.0000      -0.525051       -14.2874
  26   2.0000      -0.499023       -13.5791
  27   2.0000      -0.475272       -12.9328
  28   2.0000      -0.458219       -12.4688
  29   2.0000      -0.405207       -11.0262
  30   2.0000      -0.371327       -10.1043
  31   2.0000      -0.348203        -9.4751
  32   0.0000       0.128323         3.4918
  33   0.0000       0.149103         4.0573
  34   0.0000       0.154902         4.2151
  35   0.0000       0.159425         4.3382
  36   0.0000       0.169228         4.6049

MULLIKEN ATOMIC CHARGES
-----------------------
   0 O :   -0.443793
   1 C :    0.156977
   2 C :   -0.219485
   3 C :    0.064082
   4 O :   -0.313363
   5 C :   -0.030525
   6 C :   -0.147530
   7 C :   -0.018564
   8 C :   -0.131971
   9 H :    0.336268
  10 H :    0.130559
  11 H :    0.119806
  12 H :    0.147387
  13 H :    0.156470
  14 H :    0.193683
Sum of atomic charges:    0.0000000

LOEWDIN ATOMIC CHARGES
----------------------
   0 O :    0.052932
   1 C :   -0.294989
   2 C :   -0.182003
   3 C :   -0.153046
   4 O :    0.173287
   5 C :   -0.191744
   6 C :   -0.120677
   7 C :   -0.081428
   8 C :   -0.077014
   9 H :    0.192614
  10 H :    0.148311
  11 H :    0.130247
  12 H :    0.134290
  13 H :    0.141447
  14 H :    0.127774

  Mayer bond orders larger than 0.1
B(  0-O ,  1-C ) :   1.0719 B(  0-O ,  6-C ) :  -0.1158 B(  0-O ,  9-H ) :   0.8288
B(  1-C ,  2-C ) :   0.9451 B(  1-C ,  5-C ) :   0.8462 B(  1-C ,  6-C ) :   0.7455
B(  2-C ,  3-C ) :   0.9235 B(  2-C , 10-H ) :   0.9154 B(  2-C , 11-H ) :   0.9111
B(  3-C ,  4-O ) :   0.8904 B(  3-C ,  6-C ) :   0.8742 B(  3-C , 12-H ) :   0.9123
B(  4-O ,  5-C ) :   0.9885 B(  5-C ,  6-C ) :   0.8629 B(  5-C , 13-H ) :   0.9112
B(  6-C ,  7-C ) :   1.1941 B(  6-C ,  8-C ) :  -0.1200 B(  7-C ,  8-C ) :   2.6115
B(  8-C , 14-H ) :   0.8642

MP2 TOTAL ENERGY:     -419.800101342 Eh
FINAL SINGLE POINT ENERGY      -419.800101342222

DIPOLE MOMENT
-------------
                                X             Y             Z
Electronic contribution:     -1.33825      -0.19843       1.48169
Nuclear contribution   :      1.63584       0.51987      -1.50483
                        -----------------------------------------
Total Dipole Moment    :      0.29759       0.32145      -0.02314
                        -----------------------------------------
Magnitude (a.u.)       :      0.43866
Magnitude (Debye)      :      1.11499

                             ****ORCA TERMINATED NORMALLY****
TOTAL RUN TIME: 0 days 0 hours 15 minutes 25 seconds 357 msec
