                         Program Version 3.0.3 - RELEASE   -
|  1> ! RI-MP2 RIJK def2-TZVP def2-TZVP/C def2-TZVP/JK TIGHTSCF
|  2> % maxcore 2000
|  3> % mp2 density relaxed end
|  4> *xyz 0 1
|  5>  C       -0.0100373075     1.5608402300    -0.0236351043
|  6>  C       -0.0733531084     0.0219521712     0.0239101004
|  7>  N        0.4774261901    -0.5783459732    -1.1933258132
|  8>  C        1.6876880644    -1.2009223936    -1.3385255094
|  9>  O        2.1536137276    -1.5320987003    -2.4133424723
| 10>  N        2.3469146276    -1.4546547977    -0.1421460924
| 11>  C        1.7911937864    -1.2135957729     1.1153333628
| 12>  C        2.5764495696    -1.7559533792     2.2722016128
| 13>  C        0.6434216887    -0.5373589681     1.2228524235
| 14>  H        1.0291645745     1.8983438062    -0.0757336299
| 15>  H       -0.5471155457     1.9473607323    -0.8973057613
| 16>  H       -0.4704869686     1.9901704522     0.8723712222
| 17>  H       -1.1353573692    -0.2625234045     0.0787076613
| 18>  H        0.0491124589    -0.3432421065    -2.0750859155
| 19>  H        3.1750052827    -2.0188496286    -0.2379165532
| 20>  H        2.6867313984    -2.8447915912     2.1978475896
| 21>  H        3.5860467919    -1.3277712692     2.2948835958
| 22>  H        2.0846300168    -1.5241738591     3.2180755929
| 23>  H        0.2189772817    -0.3414134778     2.1990633502
| 24> *
| 25>
| 26>                          ****END OF INPUT****

CARTESIAN COORDINATES (ANGSTROEM)
---------------------------------
  C     -0.010037    1.560840   -0.023635
  C     -0.073353    0.021952    0.023910
  N      0.477426   -0.578346   -1.193326
  C      1.687688   -1.200922   -1.338526
  O      2.153614   -1.532099   -2.413342
  N      2.346915   -1.454655   -0.142146
  C      1.791194   -1.213596    1.115333
  C      2.576450   -1.755953    2.272202
  C      0.643422   -0.537359    1.222852
  H      1.029165    1.898344   -0.075734
  H     -0.547116    1.947361   -0.897306
  H     -0.470487    1.990170    0.872371
  H     -1.135357   -0.262523    0.078708
  H      0.049112   -0.343242   -2.075086
  H      3.175005   -2.018850   -0.237917
  H      2.686731   -2.844792    2.197848
  H      3.586047   -1.327771    2.294884
  H      2.084630   -1.524174    3.218076
  H      0.218977   -0.341413    2.199063

 Total Charge           Charge          ....    0
 Multiplicity           Mult            ....    1
 Number of Electrons    NEL             ....   68
 Basis Dimension        Dim             ....  339

ORBITAL ENERGIES
----------------

  NO   OCC          E(Eh)            E(eV)
   0   2.0000     -20.503170      -557.9196
   1   2.0000     -15.589649      -424.2159
   2   2.0000     -15.576467      -423.8572
   3   2.0000     -11.373431      -309.4868
   4   2.0000     -11.290804      -307.2384
   5   2.0000     -11.284935      -307.0787
   6   2.0000     -11.243767      -305.9585
   7   2.0000     -11.224558      -305.4358
   8   2.0000     -11.221239      -305.3454
   9   2.0000      -1.389783       -37.8179
  10   2.0000      -1.268111       -34.5071
  11   2.0000      -1.212331       -32.9892
  12   2.0000      -1.078599       -29.3502
  13   2.0000      -1.019256       -27.7354
  14   2.0000      -0.955372       -25.9970
  15   2.0000      -0.864035       -23.5116
  16   2.0000      -0.844992       -22.9934
  17   2.0000      -0.761154       -20.7121
  18   2.0000      -0.711266       -19.3545
  19   2.0000      -0.667564       -18.1653
  20   2.0000      -0.637575       -17.3493
  21   2.0000      -0.636606       -17.3229
  22   2.0000      -0.610016       -16.5994
  23   2.0000      -0.589849       -16.0506
  24   2.0000      -0.579834       -15.7781
  25   2.0000      -0.572165       -15.5694
  26   2.0000      -0.560612       -15.2550
  27   2.0000      -0.550980       -14.9929
  28   2.0000      -0.525952       -14.3119
  29   2.0000      -0.496238       -13.5033
  30   2.0000      -0.469727       -12.7819
  31   2.0000      -0.433350       -11.7920
  32   2.0000      -0.391991       -10.6666
  33   2.0000      -0.321418        -8.7462
  34   0.0000       0.122540         3.3345
  35   0.0000       0.138170         3.7598
  36   0.0000       0.155718         4.2373
  37   0.0000       0.168465         4.5842
  38   0.0000       0.179546         4.8857

MULLIKEN ATOMIC CHARGES
-----------------------
   0 C :   -0.381504
   1 C :    0.094676
   2 N :   -0.331855
   3 C :    0.309334
   4 O :   -0.382885
   5 N :   -0.316354
   6 C :    0.165080
   7 C :   -0.450845
   8 C :   -0.258499
   9 H :    0.133996
  10 H :    0.124303
  11 H :    0.122198
  12 H :    0.106500
  13 H :    0.243370
  14 H :    0.248959
  15 H :    0.148687
  16 H :    0.149954
  17 H :    0.143651
  18 H :    0.131235
Sum of atomic charges:    0.0000000

LOEWDIN ATOMIC CHARGES
----------------------
   0 C :   -0.289756
   1 C :   -0.294929
   2 N :    0.135124
   3 C :   -0.537394
   4 O :    0.047544
   5 N :    0.153165
   6 C :   -0.251336
   7 C :   -0.265160
   8 C :   -0.163619
   9 H :    0.126494
  10 H :    0.119967
  11 H :    0.125041
  12 H :    0.150269
  13 H :    0.193782
  14 H :    0.199802
  15 H :    0.132741
  16 H :    0.133215
  17 H :    0.135766
  18 H :    0.149282

  Mayer bond orders larger than 0.1
B(  0-C ,  1-C ) :   0.9070 B(  0-C ,  9-H ) :   0.9305 B(  0-C , 10-H ) :   0.9335
B(  0-C , 11-H ) :   0.9323 B(  1-C ,  2-N ) :   0.8712 B(  1-C ,  8-C ) :   0.9203
B(  1-C , 12-H ) :   0.9348 B(  2-N ,  3-C ) :   1.1656 B(  2-N , 13-H ) :   0.8671
B(  3-C ,  4-O ) :   1.9823 B(  3-C ,  5-N ) :   1.0460 B(  5-N ,  6-C ) :   1.0319
B(  5-N , 14-H ) :   0.8672 B(  6-C ,  7-C ) :   0.8749 B(  6-C ,  8-C ) :   1.7388
B(  7-C , 15-H ) :   0.9279 B(  7-C , 16-H ) :   0.9325 B(  7-C , 17-H ) :   0.9458
B(  8-C , 18-H ) :   0.9179

MP2 TOTAL ENERGY:     -418.567046426 Eh
FINAL SINGLE POINT ENERGY      -418.567046425526

DIPOLE MOMENT
-------------
                                X             Y             Z
Electronic contribution:      1.75813      -3.91077      -6.48340
Nuclear contribution   :     -2.18286       4.27674       7.83757
                        -----------------------------------------
Total Dipole Moment    :     -0.42472       0.36597       1.35418
                        -----------------------------------------
Magnitude (a.u.)       :      1.46565
Magnitude (Debye)      :      3.72538

                             ****ORCA TERMINATED NORMALLY****
TOTAL RUN TIME: 0 days 0 hours 16 minutes 46 seconds 924 msec
