                         Program Version 3.0.3 - RELEASE   -
|  1> ! RI-MP2 RIJK def2-TZVP def2-TZVP/C def2-TZVP/JK TIGHTSCF
|  2> % maxcore 2000
|  3> % mp2 density relaxed end
|  4> *xyz 0 1
|  5>  C       -0.3246227551     1.4417729539     0.0596686028
|  6>  C        0.0844996234    -0.0177249094     0.0143592997
|  7>  O        1.2917918051    -0.2149571031    -0.7756091688
|  8>  C        1.9957795636    -0.8114854147     0.3307722695
|  9>  C        0.7792479491    -0.6423839225     1.2296411811
| 10>  C        0.6879494012    -0.2789312645     2.6897576118
| 11>  O       -0.2755870401     0.6262760167     3.1354907708
| 12>  C        0.2105203754    -1.6306344200     2.2016781152
| 13>  O       -1.1869508926    -1.7879110734     2.1335523902
| 14>  H        0.4634104674     2.0569546839     0.5012514311
| 15>  H       -0.5146619192     1.7936193351    -0.9594871636
| 16>  H       -1.2361019638     1.5755792670     0.6485183645
| 17>  H       -0.7340490503    -0.6354186665    -0.3782238688
| 18>  H        2.2920946463    -1.8491859609     0.1236530881
| 19>  H        2.8871432112    -0.2348528393     0.6133152679
| 20>  H        1.6064058747    -0.2099749060     3.2671902683
| 21>  H       -1.1315046766     0.2236768254     2.9309882395
| 22>  H        0.7723493726    -2.5369354524     2.4251976995
| 23>  H       -1.4802360823    -2.1890382691     2.9596758411
| 24> *
| 25>
| 26>                          ****END OF INPUT****

CARTESIAN COORDINATES (ANGSTROEM)
---------------------------------
  C     -0.324623    1.441773    0.059669
  C      0.084500   -0.017725    0.014359
  O      1.291792   -0.214957   -0.775609
  C      1.995780   -0.811485    0.330772
  C      0.779248   -0.642384    1.229641
  C      0.687949   -0.278931    2.689758
  O     -0.275587    0.626276    3.135491
  C      0.210520   -1.630634    2.201678
  O     -1.186951   -1.787911    2.133552
  H      0.463410    2.056955    0.501251
  H     -0.514662    1.793619   -0.959487
  H     -1.236102    1.575579    0.648518
  H     -0.734049   -0.635419   -0.378224
  H      2.292095   -1.849186    0.123653
  H      2.887143   -0.234853    0.613315
  H      1.606406   -0.209975    3.267190
  H     -1.131505    0.223677    2.930988
  H      0.772349   -2.536935    2.425198
  H     -1.480236   -2.189038    2.959676

 Total Charge           Charge          ....    0
 Multiplicity           Mult            ....    1
 Number of Electrons    NEL             ....   70
 Basis Dimension        Dim             ....  339

ORBITAL ENERGIES
----------------

  NO   OCC          E(Eh)            E(eV)
   0   2.0000     -20.591071      -560.3115
   1   2.0000     -20.566592      -559.6454
   2   2.0000     -20.545000      -559.0579
   3   2.0000     -11.296976      -307.4063
   4   2.0000     -11.292728      -307.2907
   5   2.0000     -11.284825      -307.0757
   6   2.0000     -11.282250      -307.0056
   7   2.0000     -11.240940      -305.8815
   8   2.0000     -11.209849      -305.0355
   9   2.0000      -1.406493       -38.2726
  10   2.0000      -1.375308       -37.4240
  11   2.0000      -1.368073       -37.2271
  12   2.0000      -1.131261       -30.7832
  13   2.0000      -1.010582       -27.4993
  14   2.0000      -0.934711       -25.4348
  15   2.0000      -0.867031       -23.5931
  16   2.0000      -0.839572       -22.8459
  17   2.0000      -0.754830       -20.5400
  18   2.0000      -0.728839       -19.8327
  19   2.0000      -0.705406       -19.1951
  20   2.0000      -0.665774       -18.1166
  21   2.0000      -0.646680       -17.5971
  22   2.0000      -0.635316       -17.2878
  23   2.0000      -0.605630       -16.4800
  24   2.0000      -0.572243       -15.5715
  25   2.0000      -0.569188       -15.4884
  26   2.0000      -0.559070       -15.2131
  27   2.0000      -0.532724       -14.4962
  28   2.0000      -0.527706       -14.3596
  29   2.0000      -0.521916       -14.2021
  30   2.0000      -0.501076       -13.6350
  31   2.0000      -0.457387       -12.4461
  32   2.0000      -0.439768       -11.9667
  33   2.0000      -0.397157       -10.8072
  34   2.0000      -0.379233       -10.3195
  35   0.0000       0.119114         3.2413
  36   0.0000       0.147348         4.0095
  37   0.0000       0.155945         4.2435
  38   0.0000       0.177670         4.8346
  39   0.0000       0.187476         5.1015

MULLIKEN ATOMIC CHARGES
-----------------------
   0 C :   -0.378003
   1 C :    0.135318
   2 O :   -0.331526
   3 C :    0.004498
   4 C :   -0.089586
   5 C :    0.068788
   6 O :   -0.464428
   7 C :   -0.042231
   8 O :   -0.474899
   9 H :    0.128857
  10 H :    0.137054
  11 H :    0.113585
  12 H :    0.099798
  13 H :    0.091343
  14 H :    0.095486
  15 H :    0.126296
  16 H :    0.328597
  17 H :    0.118523
  18 H :    0.332530
Sum of atomic charges:   -0.0000000

LOEWDIN ATOMIC CHARGES
----------------------
   0 C :   -0.289337
   1 C :   -0.252096
   2 O :    0.136766
   3 C :   -0.231106
   4 C :   -0.193187
   5 C :   -0.286448
   6 O :    0.007359
   7 C :   -0.288400
   8 O :   -0.004251
   9 H :    0.129250
  10 H :    0.128449
  11 H :    0.125038
  12 H :    0.140871
  13 H :    0.119443
  14 H :    0.120298
  15 H :    0.140887
  16 H :    0.178274
  17 H :    0.133116
  18 H :    0.185076

  Mayer bond orders larger than 0.1
B(  0-C ,  1-C ) :   0.9232 B(  0-C ,  9-H ) :   0.9345 B(  0-C , 10-H ) :   0.9293
B(  0-C , 11-H ) :   0.9265 B(  1-C ,  2-O ) :   0.9518 B(  1-C ,  4-C ) :   0.9519
B(  1-C , 12-H ) :   0.9163 B(  2-O ,  3-C ) :   0.9748 B(  3-C ,  4-C ) :   0.9408
B(  3-C , 13-H ) :   0.9010 B(  3-C , 14-H ) :   0.9138 B(  4-C ,  5-C ) :   0.8416
B(  4-C ,  7-C ) :   0.8382 B(  5-C ,  6-O ) :   0.9573 B(  5-C ,  7-C ) :   0.8938
B(  5-C , 15-H ) :   0.9375 B(  6-O , 16-H ) :   0.8166 B(  7-C ,  8-O ) :   1.0429
B(  7-C , 17-H ) :   0.9386 B(  8-O , 18-H ) :   0.8349

MP2 TOTAL ENERGY:     -459.377335635 Eh
FINAL SINGLE POINT ENERGY      -459.377335635300

DIPOLE MOMENT
-------------
                                X             Y             Z
Electronic contribution:      0.10852      -2.36537       1.20845
Nuclear contribution   :     -0.26103       1.52683      -0.32137
                        -----------------------------------------
Total Dipole Moment    :     -0.15251      -0.83855       0.88708
                        -----------------------------------------
Magnitude (a.u.)       :      1.23017
Magnitude (Debye)      :      3.12686

                             ****ORCA TERMINATED NORMALLY****
TOTAL RUN TIME: 0 days 0 hours 15 minutes 50 seconds 18 msec
