                         Program Version 3.0.3 - RELEASE   -
|  1> ! RI-MP2 RIJK def2-TZVP def2-TZVP/C def2-TZVP/JK TIGHTSCF
|  2> % maxcore 2000
|  3> % mp2 density relaxed end
|  4> *xyz 0 1
|  5>  C        0.0471114577     1.5510894435     0.0063323551
|  6>  C        0.0383528913     0.0342439783    -0.0063322310
|  7>  O        0.7465662876    -0.4307846775    -1.1451911488
|  8>  C        1.3812140041    -1.6379334721    -0.7674368011
|  9>  C        1.5381470195    -1.5205469980     0.7436441501
| 10>  O        2.1873563293    -2.1831735865     1.4926534863
| 11>  O        0.7735614625    -0.4614999411     1.1332253286
| 12>  C       -1.3227821518    -0.5285357338     0.0328965104
| 13>  C       -2.4339363677    -0.9832322020     0.0458128063
| 14>  H        1.0817301593     1.8997878653     0.0125636475
| 15>  H       -0.4579286793     1.9222065718    -0.8878979572
| 16>  H       -0.4736285240     1.9216903484     0.8910822203
| 17>  H        0.7788893407    -2.5245653668    -1.0108525502
| 18>  H        2.3505484537    -1.7147205550    -1.2631892981
| 19>  H       -3.4171305329    -1.3868454145     0.0608154017
| 20> *
| 21>
| 22>                          ****END OF INPUT****

CARTESIAN COORDINATES (ANGSTROEM)
---------------------------------
  C      0.047111    1.551089    0.006332
  C      0.038353    0.034244   -0.006332
  O      0.746566   -0.430785   -1.145191
  C      1.381214   -1.637933   -0.767437
  C      1.538147   -1.520547    0.743644
  O      2.187356   -2.183174    1.492653
  O      0.773561   -0.461500    1.133225
  C     -1.322782   -0.528536    0.032897
  C     -2.433936   -0.983232    0.045813
  H      1.081730    1.899788    0.012564
  H     -0.457929    1.922207   -0.887898
  H     -0.473629    1.921690    0.891082
  H      0.778889   -2.524565   -1.010853
  H      2.350548   -1.714721   -1.263189
  H     -3.417131   -1.386845    0.060815

 Total Charge           Charge          ....    0
 Multiplicity           Mult            ....    1
 Number of Electrons    NEL             ....   66
 Basis Dimension        Dim             ....  315

ORBITAL ENERGIES
----------------

  NO   OCC          E(Eh)            E(eV)
   0   2.0000     -20.622797      -561.1748
   1   2.0000     -20.604062      -560.6650
   2   2.0000     -20.559971      -559.4652
   3   2.0000     -11.402257      -310.2712
   4   2.0000     -11.396525      -310.1152
   5   2.0000     -11.319170      -308.0103
   6   2.0000     -11.256685      -306.3100
   7   2.0000     -11.252430      -306.1942
   8   2.0000     -11.244726      -305.9846
   9   2.0000      -1.505784       -40.9745
  10   2.0000      -1.419663       -38.6310
  11   2.0000      -1.370407       -37.2907
  12   2.0000      -1.104897       -30.0658
  13   2.0000      -1.036486       -28.2042
  14   2.0000      -0.980237       -26.6736
  15   2.0000      -0.897435       -24.4204
  16   2.0000      -0.834321       -22.7030
  17   2.0000      -0.785626       -21.3780
  18   2.0000      -0.725874       -19.7520
  19   2.0000      -0.711135       -19.3510
  20   2.0000      -0.680289       -18.5116
  21   2.0000      -0.671147       -18.2628
  22   2.0000      -0.627154       -17.0657
  23   2.0000      -0.604665       -16.4538
  24   2.0000      -0.594252       -16.1704
  25   2.0000      -0.572790       -15.5864
  26   2.0000      -0.561965       -15.2919
  27   2.0000      -0.558496       -15.1974
  28   2.0000      -0.493414       -13.4265
  29   2.0000      -0.481317       -13.0973
  30   2.0000      -0.454351       -12.3635
  31   2.0000      -0.421204       -11.4615
  32   2.0000      -0.420302       -11.4370
  33   0.0000       0.133349         3.6286
  34   0.0000       0.144327         3.9273
  35   0.0000       0.149404         4.0655
  36   0.0000       0.154584         4.2064
  37   0.0000       0.160209         4.3595

MULLIKEN ATOMIC CHARGES
-----------------------
   0 C :   -0.358227
   1 C :    0.305730
   2 O :   -0.300513
   3 C :   -0.083675
   4 C :    0.224933
   5 O :   -0.267948
   6 O :   -0.222400
   7 C :   -0.099948
   8 C :   -0.127484
   9 H :    0.144986
  10 H :    0.147208
  11 H :    0.147407
  12 H :    0.133047
  13 H :    0.154688
  14 H :    0.202198
Sum of atomic charges:    0.0000000

LOEWDIN ATOMIC CHARGES
----------------------
   0 C :   -0.238680
   1 C :   -0.418614
   2 O :    0.215521
   3 C :   -0.268449
   4 C :   -0.462476
   5 O :    0.155724
   6 O :    0.299848
   7 C :   -0.059512
   8 C :   -0.058087
   9 H :    0.135780
  10 H :    0.140432
  11 H :    0.139178
  12 H :    0.142071
  13 H :    0.145082
  14 H :    0.132181

  Mayer bond orders larger than 0.1
B(  0-C ,  1-C ) :   0.9256 B(  0-C ,  9-H ) :   0.9305 B(  0-C , 10-H ) :   0.9269
B(  0-C , 11-H ) :   0.9289 B(  1-C ,  2-O ) :   0.9160 B(  1-C ,  6-O ) :   0.8652
B(  1-C ,  7-C ) :   1.1799 B(  2-O ,  3-C ) :   0.9402 B(  3-C ,  4-C ) :   0.9389
B(  3-C , 12-H ) :   0.9039 B(  3-C , 13-H ) :   0.9135 B(  4-C ,  5-O ) :   2.0529
B(  4-C ,  6-O ) :   1.0888 B(  7-C ,  8-C ) :   2.6040 B(  8-C , 14-H ) :   0.8811

MP2 TOTAL ENERGY:     -457.023141793 Eh
FINAL SINGLE POINT ENERGY      -457.023141793403

DIPOLE MOMENT
-------------
                                X             Y             Z
Electronic contribution:      1.57728      -3.56018       2.20459
Nuclear contribution   :     -2.33015       3.93997      -3.03548
                        -----------------------------------------
Total Dipole Moment    :     -0.75287       0.37979      -0.83089
                        -----------------------------------------
Magnitude (a.u.)       :      1.18382
Magnitude (Debye)      :      3.00903

                             ****ORCA TERMINATED NORMALLY****
TOTAL RUN TIME: 0 days 0 hours 14 minutes 29 seconds 285 msec
