                         Program Version 3.0.3 - RELEASE   -
|  1> ! RI-MP2 RIJK def2-TZVP def2-TZVP/C def2-TZVP/JK TIGHTSCF
|  2> % maxcore 2000
|  3> % mp2 density relaxed end
|  4> *xyz 0 1
|  5>  C        0.0467421821    -1.1460196348    -0.0458095631
|  6>  C        0.0295682349     0.0563180086    -0.0098579794
|  7>  C       -0.0306203633     1.4863607757     0.0144856660
|  8>  C       -0.6832771892     2.4309102271     1.0820434407
|  9>  C        0.0020814009     3.3415861026     0.0259018919
| 10>  N        1.2033578143     2.3987389996    -0.0226458562
| 11>  C       -0.6108911157     2.4427085663    -1.0547286860
| 12>  C       -0.6574342506     2.3963500254    -2.5120472704
| 13>  N       -1.9024185477     2.4963136219    -1.6806717111
| 14>  H        0.0726049615    -2.2074835998    -0.0746444923
| 15>  H       -1.7749311713     2.4454836225     1.1464877061
| 16>  H       -0.2110527267     2.4062608277     2.0681656972
| 17>  H        0.1216388898     4.4232966033     0.0292034060
| 18>  H        1.6305905294     2.3790327469     0.9099596399
| 19>  H       -0.4399894871     3.2793953952    -3.1053230146
| 20>  H       -0.4391136769     1.4495181514    -2.9988112257
| 21>  H       -2.3664087644     1.5910093707    -1.6377378690
| 22> *
| 23>
| 24>                          ****END OF INPUT****

CARTESIAN COORDINATES (ANGSTROEM)
---------------------------------
  C      0.046742   -1.146020   -0.045810
  C      0.029568    0.056318   -0.009858
  C     -0.030620    1.486361    0.014486
  C     -0.683277    2.430910    1.082043
  C      0.002081    3.341586    0.025902
  N      1.203358    2.398739   -0.022646
  C     -0.610891    2.442709   -1.054729
  C     -0.657434    2.396350   -2.512047
  N     -1.902419    2.496314   -1.680672
  H      0.072605   -2.207484   -0.074644
  H     -1.774931    2.445484    1.146488
  H     -0.211053    2.406261    2.068166
  H      0.121639    4.423297    0.029203
  H      1.630591    2.379033    0.909960
  H     -0.439989    3.279395   -3.105323
  H     -0.439114    1.449518   -2.998811
  H     -2.366409    1.591009   -1.637738

 Total Charge           Charge          ....    0
 Multiplicity           Mult            ....    1
 Number of Electrons    NEL             ....   64
 Basis Dimension        Dim             ....  327

ORBITAL ENERGIES
----------------

  NO   OCC          E(Eh)            E(eV)
   0   2.0000     -15.566315      -423.5810
   1   2.0000     -15.561161      -423.4407
   2   2.0000     -11.306987      -307.6788
   3   2.0000     -11.282437      -307.0107
   4   2.0000     -11.281734      -306.9916
   5   2.0000     -11.256574      -306.3070
   6   2.0000     -11.249583      -306.1167
   7   2.0000     -11.245825      -306.0145
   8   2.0000     -11.240621      -305.8728
   9   2.0000      -1.310378       -35.6572
  10   2.0000      -1.245515       -33.8922
  11   2.0000      -1.052153       -28.6305
  12   2.0000      -1.005590       -27.3635
  13   2.0000      -0.911861       -24.8130
  14   2.0000      -0.911451       -24.8018
  15   2.0000      -0.866747       -23.5854
  16   2.0000      -0.767055       -20.8726
  17   2.0000      -0.737947       -20.0806
  18   2.0000      -0.704406       -19.1679
  19   2.0000      -0.659767       -17.9532
  20   2.0000      -0.630464       -17.1558
  21   2.0000      -0.621085       -16.9006
  22   2.0000      -0.546452       -14.8697
  23   2.0000      -0.531947       -14.4750
  24   2.0000      -0.499968       -13.6048
  25   2.0000      -0.494991       -13.4694
  26   2.0000      -0.471106       -12.8195
  27   2.0000      -0.466440       -12.6925
  28   2.0000      -0.413807       -11.2603
  29   2.0000      -0.403654       -10.9840
  30   2.0000      -0.384269       -10.4565
  31   2.0000      -0.383105       -10.4248
  32   0.0000       0.133536         3.6337
  33   0.0000       0.139916         3.8073
  34   0.0000       0.151178         4.1138
  35   0.0000       0.160363         4.3637
  36   0.0000       0.171078         4.6553

MULLIKEN ATOMIC CHARGES
-----------------------
   0 C :   -0.092245
   1 C :    0.016064
   2 C :   -0.244958
   3 C :   -0.120948
   4 C :   -0.022943
   5 N :   -0.284666
   6 C :    0.085860
   7 C :   -0.209634
   8 N :   -0.399321
   9 H :    0.197084
  10 H :    0.119638
  11 H :    0.116578
  12 H :    0.145454
  13 H :    0.197170
  14 H :    0.127561
  15 H :    0.138531
  16 H :    0.230774
Sum of atomic charges:    0.0000000

LOEWDIN ATOMIC CHARGES
----------------------
   0 C :   -0.067248
   1 C :   -0.069922
   2 C :   -0.224631
   3 C :   -0.162299
   4 C :   -0.174085
   5 N :    0.044636
   6 C :   -0.255991
   7 C :   -0.214282
   8 N :    0.011193
   9 H :    0.129686
  10 H :    0.133770
  11 H :    0.129764
  12 H :    0.127691
  13 H :    0.160301
  14 H :    0.129940
  15 H :    0.129468
  16 H :    0.172007

  Mayer bond orders larger than 0.1
B(  0-C ,  1-C ) :   2.6539 B(  0-C ,  2-C ) :  -0.1804 B(  0-C ,  9-H ) :   0.8608
B(  1-C ,  2-C ) :   1.1586 B(  2-C ,  3-C ) :   0.9210 B(  2-C ,  5-N ) :   0.9010
B(  2-C ,  6-C ) :   0.8577 B(  3-C ,  4-C ) :   0.9408 B(  3-C , 10-H ) :   0.9189
B(  3-C , 11-H ) :   0.9013 B(  4-C ,  5-N ) :   0.9099 B(  4-C ,  6-C ) :   0.8171
B(  4-C , 12-H ) :   0.8914 B(  5-N , 13-H ) :   0.8630 B(  6-C ,  7-C ) :   0.9569
B(  6-C ,  8-N ) :   0.9320 B(  7-C ,  8-N ) :   0.9626 B(  7-C , 14-H ) :   0.9111
B(  7-C , 15-H ) :   0.9172 B(  8-N , 16-H ) :   0.8610

MP2 TOTAL ENERGY:     -380.045193859 Eh
FINAL SINGLE POINT ENERGY      -380.045193859124

DIPOLE MOMENT
-------------
                                X             Y             Z
Electronic contribution:      0.83091      -1.68081       0.26570
Nuclear contribution   :     -0.94209       1.26425       0.15622
                        -----------------------------------------
Total Dipole Moment    :     -0.11118      -0.41656       0.42192
                        -----------------------------------------
Magnitude (a.u.)       :      0.60324
Magnitude (Debye)      :      1.53332

                             ****ORCA TERMINATED NORMALLY****
TOTAL RUN TIME: 0 days 0 hours 17 minutes 44 seconds 506 msec
