                         Program Version 3.0.3 - RELEASE   -
|  1> ! RI-MP2 RIJK def2-TZVP def2-TZVP/C def2-TZVP/JK TIGHTSCF
|  2> % maxcore 2000
|  3> % mp2 density relaxed end
|  4> *xyz 0 1
|  5>  C       -0.0602645351     1.5903043976    -0.0404717391
|  6>  C        1.4848334193     1.4254433138    -0.0136315894
|  7>  C        1.2211752760     0.1931592597     0.9251685268
|  8>  C       -0.0350363915     0.0367946592    -0.0058875598
|  9>  C        0.6800386874    -0.3110993584    -1.3313564513
| 10>  O        0.7120369444     0.7323192743    -2.3191677790
| 11>  C        1.7595690900     0.6752247611    -1.3368536784
| 12>  H       -0.4365275104     2.0073401947     0.8949945637
| 13>  H       -0.5109283702     2.0787484712    -0.9021092478
| 14>  H        2.1554335944     2.2383686905     0.2624617645
| 15>  H        1.9595528320    -0.6149952819     0.9245496224
| 16>  H        0.9688615492     0.4750363156     1.9508169836
| 17>  H       -0.9034903345    -0.5564587373     0.2780455788
| 18>  H        0.7527689352    -1.3277632228    -1.7023728182
| 19>  H        2.7634779038     0.5093442727    -1.7126174369
| 20> *
| 21>
| 22>                          ****END OF INPUT****

CARTESIAN COORDINATES (ANGSTROEM)
---------------------------------
  C     -0.060265    1.590304   -0.040472
  C      1.484833    1.425443   -0.013632
  C      1.221175    0.193159    0.925169
  C     -0.035036    0.036795   -0.005888
  C      0.680039   -0.311099   -1.331356
  O      0.712037    0.732319   -2.319168
  C      1.759569    0.675225   -1.336854
  H     -0.436528    2.007340    0.894995
  H     -0.510928    2.078748   -0.902109
  H      2.155434    2.238369    0.262462
  H      1.959553   -0.614995    0.924550
  H      0.968862    0.475036    1.950817
  H     -0.903490   -0.556459    0.278046
  H      0.752769   -1.327763   -1.702373
  H      2.763478    0.509344   -1.712617

 Total Charge           Charge          ....    0
 Multiplicity           Mult            ....    1
 Number of Electrons    NEL             ....   52
 Basis Dimension        Dim             ....  265

ORBITAL ENERGIES
----------------

  NO   OCC          E(Eh)            E(eV)
   0   2.0000     -20.561540      -559.5080
   1   2.0000     -11.279303      -306.9254
   2   2.0000     -11.278463      -306.9026
   3   2.0000     -11.242337      -305.9195
   4   2.0000     -11.242306      -305.9187
   5   2.0000     -11.235384      -305.7304
   6   2.0000     -11.223905      -305.4180
   7   2.0000      -1.407663       -38.3044
   8   2.0000      -1.165926       -31.7265
   9   2.0000      -0.938127       -25.5277
  10   2.0000      -0.931005       -25.3339
  11   2.0000      -0.893242       -24.3063
  12   2.0000      -0.770271       -20.9601
  13   2.0000      -0.754790       -20.5389
  14   2.0000      -0.714887       -19.4531
  15   2.0000      -0.659177       -17.9371
  16   2.0000      -0.629658       -17.1339
  17   2.0000      -0.558596       -15.2002
  18   2.0000      -0.556357       -15.1392
  19   2.0000      -0.519146       -14.1267
  20   2.0000      -0.510648       -13.8954
  21   2.0000      -0.469063       -12.7639
  22   2.0000      -0.462381       -12.5820
  23   2.0000      -0.445064       -12.1108
  24   2.0000      -0.435315       -11.8455
  25   2.0000      -0.394289       -10.7292
  26   0.0000       0.145723         3.9653
  27   0.0000       0.161473         4.3939
  28   0.0000       0.166582         4.5329
  29   0.0000       0.179722         4.8905
  30   0.0000       0.198955         5.4138

MULLIKEN ATOMIC CHARGES
-----------------------
   0 C :   -0.288769
   1 C :   -0.015939
   2 C :   -0.294678
   3 C :   -0.015940
   4 C :   -0.041231
   5 O :   -0.327968
   6 C :   -0.041233
   7 H :    0.124712
   8 H :    0.142869
   9 H :    0.134630
  10 H :    0.119470
  11 H :    0.118411
  12 H :    0.134630
  13 H :    0.125518
  14 H :    0.125518
Sum of atomic charges:    0.0000000

LOEWDIN ATOMIC CHARGES
----------------------
   0 C :   -0.195551
   1 C :   -0.188907
   2 C :   -0.187068
   3 C :   -0.188907
   4 C :   -0.234904
   5 O :    0.164468
   6 C :   -0.234903
   7 H :    0.138562
   8 H :    0.133641
   9 H :    0.132471
  10 H :    0.127031
  11 H :    0.132636
  12 H :    0.132471
  13 H :    0.134480
  14 H :    0.134480

  Mayer bond orders larger than 0.1
B(  0-C ,  1-C ) :   0.9302 B(  0-C ,  3-C ) :   0.9302 B(  0-C ,  7-H ) :   0.9346
B(  0-C ,  8-H ) :   0.9064 B(  1-C ,  2-C ) :   0.9023 B(  1-C ,  6-C ) :   0.8318
B(  1-C ,  9-H ) :   0.9095 B(  2-C ,  3-C ) :   0.9023 B(  2-C , 10-H ) :   0.9251
B(  2-C , 11-H ) :   0.9177 B(  3-C ,  4-C ) :   0.8318 B(  3-C , 12-H ) :   0.9095
B(  4-C ,  5-O ) :   0.9480 B(  4-C ,  6-C ) :   0.9893 B(  4-C , 13-H ) :   0.9373
B(  5-O ,  6-C ) :   0.9480 B(  6-C , 14-H ) :   0.9373

MP2 TOTAL ENERGY:     -307.937492447 Eh
FINAL SINGLE POINT ENERGY      -307.937492447269

DIPOLE MOMENT
-------------
                                X             Y             Z
Electronic contribution:      0.08131      -0.11053      -3.86374
Nuclear contribution   :      0.17362      -0.16462       4.55721
                        -----------------------------------------
Total Dipole Moment    :      0.25493      -0.27516       0.69347
                        -----------------------------------------
Magnitude (a.u.)       :      0.78842
Magnitude (Debye)      :      2.00399

                             ****ORCA TERMINATED NORMALLY****
TOTAL RUN TIME: 0 days 0 hours 9 minutes 22 seconds 182 msec
