                         Program Version 3.0.3 - RELEASE   -
|  1> ! RI-MP2 RIJK def2-TZVP def2-TZVP/C def2-TZVP/JK TIGHTSCF
|  2> % maxcore 2000
|  3> % mp2 density relaxed end
|  4> *xyz 0 1
|  5>  O        0.0769162697     1.3244529154    -0.1045791456
|  6>  C        0.0641445416    -0.0086583614    -0.0689710776
|  7>  C       -0.0072127325    -0.7477069909    -1.2634139311
|  8>  N       -0.0184859794    -2.0615255762    -1.2055425195
|  9>  C        0.0410713209    -2.6018468040     0.0273728880
| 10>  C        0.0273087284    -4.1010476591     0.0772936285
| 11>  O        0.0739785900    -4.7554560325     1.0839055942
| 12>  N        0.1091415383    -1.9261585299     1.1741611963
| 13>  N        0.1205900664    -0.6032740515     1.1190457305
| 14>  H        0.1289642655     1.6322072377     0.8141648366
| 15>  H       -0.0530998482    -0.2550965325    -2.2307860187
| 16>  H       -0.0318278007    -4.5504887451    -0.9356804516
| 17> *
| 18>
| 19>                          ****END OF INPUT****

CARTESIAN COORDINATES (ANGSTROEM)
---------------------------------
  O      0.076916    1.324453   -0.104579
  C      0.064145   -0.008658   -0.068971
  C     -0.007213   -0.747707   -1.263414
  N     -0.018486   -2.061526   -1.205543
  C      0.041071   -2.601847    0.027373
  C      0.027309   -4.101048    0.077294
  O      0.073979   -4.755456    1.083906
  N      0.109142   -1.926159    1.174161
  N      0.120590   -0.603274    1.119046
  H      0.128964    1.632207    0.814165
  H     -0.053100   -0.255097   -2.230786
  H     -0.031828   -4.550489   -0.935680

 Total Charge           Charge          ....    0
 Multiplicity           Mult            ....    1
 Number of Electrons    NEL             ....   64
 Basis Dimension        Dim             ....  297

ORBITAL ENERGIES
----------------

  NO   OCC          E(Eh)            E(eV)
   0   2.0000     -20.637299      -561.5695
   1   2.0000     -20.572460      -559.8051
   2   2.0000     -15.649521      -425.8451
   3   2.0000     -15.647405      -425.7875
   4   2.0000     -15.633161      -425.3999
   5   2.0000     -11.382790      -309.7415
   6   2.0000     -11.347535      -308.7821
   7   2.0000     -11.334422      -308.4253
   8   2.0000     -11.331054      -308.3336
   9   2.0000      -1.477332       -40.2003
  10   2.0000      -1.414307       -38.4853
  11   2.0000      -1.391376       -37.8613
  12   2.0000      -1.282282       -34.8927
  13   2.0000      -1.145146       -31.1610
  14   2.0000      -0.989427       -26.9237
  15   2.0000      -0.964654       -26.2496
  16   2.0000      -0.852041       -23.1852
  17   2.0000      -0.814103       -22.1529
  18   2.0000      -0.764938       -20.8150
  19   2.0000      -0.719288       -19.5728
  20   2.0000      -0.675212       -18.3735
  21   2.0000      -0.672059       -18.2877
  22   2.0000      -0.643237       -17.5034
  23   2.0000      -0.640117       -17.4185
  24   2.0000      -0.601341       -16.3633
  25   2.0000      -0.553830       -15.0705
  26   2.0000      -0.538540       -14.6544
  27   2.0000      -0.537295       -14.6205
  28   2.0000      -0.484251       -13.1772
  29   2.0000      -0.449120       -12.2212
  30   2.0000      -0.427896       -11.6436
  31   2.0000      -0.386243       -10.5102
  32   0.0000       0.040213         1.0942
  33   0.0000       0.053666         1.4603
  34   0.0000       0.133539         3.6338
  35   0.0000       0.153801         4.1851
  36   0.0000       0.174198         4.7402

MULLIKEN ATOMIC CHARGES
-----------------------
   0 O :   -0.395773
   1 C :    0.271811
   2 C :   -0.023311
   3 N :   -0.234944
   4 C :    0.180928
   5 C :    0.059266
   6 O :   -0.225016
   7 N :   -0.103793
   8 N :   -0.152337
   9 H :    0.353281
  10 H :    0.162900
  11 H :    0.106989
Sum of atomic charges:   -0.0000000

LOEWDIN ATOMIC CHARGES
----------------------
   0 O :    0.115367
   1 C :   -0.382891
   2 C :   -0.155480
   3 N :    0.175354
   4 C :   -0.323738
   5 C :   -0.268112
   6 O :    0.169381
   7 N :    0.108848
   8 N :    0.077152
   9 H :    0.209928
  10 H :    0.152773
  11 H :    0.121418

  Mayer bond orders larger than 0.1
B(  0-O ,  1-C ) :   1.1530 B(  0-O ,  9-H ) :   0.7987 B(  1-C ,  2-C ) :   1.2203
B(  1-C ,  8-N ) :   1.4135 B(  2-C ,  3-N ) :   1.4580 B(  2-C , 10-H ) :   0.9192
B(  3-N ,  4-C ) :   1.2895 B(  4-C ,  5-C ) :   0.8159 B(  4-C ,  7-N ) :   1.4883
B(  5-C ,  6-O ) :   2.0376 B(  5-C , 11-H ) :   0.9670 B(  7-N ,  8-N ) :   1.1253

MP2 TOTAL ENERGY:     -468.061474435 Eh
FINAL SINGLE POINT ENERGY      -468.061474435390

DIPOLE MOMENT
-------------
                                X             Y             Z
Electronic contribution:      0.07234      -0.46719       1.45485
Nuclear contribution   :     -0.11360       1.79481      -2.50167
                        -----------------------------------------
Total Dipole Moment    :     -0.04127       1.32762      -1.04683
                        -----------------------------------------
Magnitude (a.u.)       :      1.69119
Magnitude (Debye)      :      4.29866

                             ****ORCA TERMINATED NORMALLY****
TOTAL RUN TIME: 0 days 0 hours 13 minutes 33 seconds 386 msec
