                         Program Version 3.0.3 - RELEASE   -
|  1> ! RI-MP2 RIJK def2-TZVP def2-TZVP/C def2-TZVP/JK TIGHTSCF
|  2> % maxcore 2000
|  3> % mp2 density relaxed end
|  4> *xyz 0 1
|  5>  C       -0.1658711433     1.5173285346     0.1074270537
|  6>  C       -0.0995715835     0.0136086146    -0.1098658104
|  7>  C        0.7677878983    -0.4057901511    -1.2887156981
|  8>  C        0.8725889412    -1.9291803346    -1.3250769003
|  9>  C        1.4930864464    -2.4561739376    -0.0215120553
| 10>  C        3.0347486888    -2.3981067263    -0.0302272193
| 11>  C        0.9978631190    -1.7454629548     1.2417460428
| 12>  O        1.2066038462    -2.1926413533     2.3387052999
| 13>  O        0.3682686993    -0.5507716099     1.1394294214
| 14>  H        0.8360400829     1.9263781972     0.2694397698
| 15>  H       -0.6060552846     2.0066547544    -0.7667383217
| 16>  H       -0.7773929704     1.7501287209     0.9826144326
| 17>  H       -1.1165702087    -0.3751538843    -0.2651348181
| 18>  H        0.3204229216    -0.0189421516    -2.2103608883
| 19>  H        1.7598177519     0.0531073401    -1.1953872771
| 20>  H       -0.1319776143    -2.3505567522    -1.4564377654
| 21>  H        1.4668373496    -2.2658972745    -2.1810867535
| 22>  H        1.2110407350    -3.5038452509     0.1239178850
| 23>  H        3.4017145792    -1.3779600019    -0.1836504354
| 24>  H        3.4305586554    -2.7615760337     0.9201375527
| 25>  H        3.4281965598    -3.0227467553    -0.8379564452
| 26> *
| 27>
| 28>                          ****END OF INPUT****

CARTESIAN COORDINATES (ANGSTROEM)
---------------------------------
  C     -0.165871    1.517329    0.107427
  C     -0.099572    0.013609   -0.109866
  C      0.767788   -0.405790   -1.288716
  C      0.872589   -1.929180   -1.325077
  C      1.493086   -2.456174   -0.021512
  C      3.034749   -2.398107   -0.030227
  C      0.997863   -1.745463    1.241746
  O      1.206604   -2.192641    2.338705
  O      0.368269   -0.550772    1.139429
  H      0.836040    1.926378    0.269440
  H     -0.606055    2.006655   -0.766738
  H     -0.777393    1.750129    0.982614
  H     -1.116570   -0.375154   -0.265135
  H      0.320423   -0.018942   -2.210361
  H      1.759818    0.053107   -1.195387
  H     -0.131978   -2.350557   -1.456438
  H      1.466837   -2.265897   -2.181087
  H      1.211041   -3.503845    0.123918
  H      3.401715   -1.377960   -0.183650
  H      3.430559   -2.761576    0.920138
  H      3.428197   -3.022747   -0.837956

 Total Charge           Charge          ....    0
 Multiplicity           Mult            ....    1
 Number of Electrons    NEL             ....   70
 Basis Dimension        Dim             ....  351

ORBITAL ENERGIES
----------------

  NO   OCC          E(Eh)            E(eV)
   0   2.0000     -20.589351      -560.2647
   1   2.0000     -20.524785      -558.5078
   2   2.0000     -11.369503      -309.3799
   3   2.0000     -11.303466      -307.5829
   4   2.0000     -11.252971      -306.2089
   5   2.0000     -11.242270      -305.9177
   6   2.0000     -11.241188      -305.8883
   7   2.0000     -11.229129      -305.5601
   8   2.0000     -11.227171      -305.5069
   9   2.0000      -1.444070       -39.2951
  10   2.0000      -1.349107       -36.7111
  11   2.0000      -1.115043       -30.3419
  12   2.0000      -1.068656       -29.0796
  13   2.0000      -0.989030       -26.9129
  14   2.0000      -0.906329       -24.6625
  15   2.0000      -0.858384       -23.3578
  16   2.0000      -0.851935       -23.1823
  17   2.0000      -0.741990       -20.1906
  18   2.0000      -0.690000       -18.7758
  19   2.0000      -0.668328       -18.1861
  20   2.0000      -0.646919       -17.6036
  21   2.0000      -0.636578       -17.3222
  22   2.0000      -0.614484       -16.7209
  23   2.0000      -0.586305       -15.9542
  24   2.0000      -0.572424       -15.5765
  25   2.0000      -0.559580       -15.2269
  26   2.0000      -0.554146       -15.0791
  27   2.0000      -0.548803       -14.9337
  28   2.0000      -0.523858       -14.2549
  29   2.0000      -0.502982       -13.6868
  30   2.0000      -0.492271       -13.3954
  31   2.0000      -0.482477       -13.1289
  32   2.0000      -0.472902       -12.8683
  33   2.0000      -0.436383       -11.8746
  34   2.0000      -0.420876       -11.4526
  35   0.0000       0.123399         3.3579
  36   0.0000       0.140645         3.8272
  37   0.0000       0.144648         3.9361
  38   0.0000       0.163514         4.4494
  39   0.0000       0.178169         4.8482

MULLIKEN ATOMIC CHARGES
-----------------------
   0 C :   -0.370939
   1 C :    0.054355
   2 C :   -0.283691
   3 C :   -0.192197
   4 C :   -0.048461
   5 C :   -0.441523
   6 C :    0.220753
   7 O :   -0.297112
   8 O :   -0.199839
   9 H :    0.130016
  10 H :    0.125688
  11 H :    0.151100
  12 H :    0.094214
  13 H :    0.133708
  14 H :    0.124445
  15 H :    0.125835
  16 H :    0.128700
  17 H :    0.121050
  18 H :    0.127951
  19 H :    0.162639
  20 H :    0.133307
Sum of atomic charges:    0.0000000

LOEWDIN ATOMIC CHARGES
----------------------
   0 C :   -0.287141
   1 C :   -0.311932
   2 C :   -0.247201
   3 C :   -0.240410
   4 C :   -0.247376
   5 C :   -0.277531
   6 C :   -0.454070
   7 O :    0.131334
   8 O :    0.279111
   9 H :    0.127566
  10 H :    0.128218
  11 H :    0.130624
  12 H :    0.144245
  13 H :    0.146937
  14 H :    0.143757
  15 H :    0.142797
  16 H :    0.141906
  17 H :    0.167995
  18 H :    0.123246
  19 H :    0.133632
  20 H :    0.124293

  Mayer bond orders larger than 0.1
B(  0-C ,  1-C ) :   0.9311 B(  0-C ,  9-H ) :   0.9312 B(  0-C , 10-H ) :   0.9321
B(  0-C , 11-H ) :   0.9381 B(  1-C ,  2-C ) :   0.9359 B(  1-C ,  8-O ) :   0.8559
B(  1-C , 12-H ) :   0.9282 B(  2-C ,  3-C ) :   0.9070 B(  2-C , 13-H ) :   0.9198
B(  2-C , 14-H ) :   0.9267 B(  3-C ,  4-C ) :   0.8820 B(  3-C , 15-H ) :   0.9320
B(  3-C , 16-H ) :   0.9286 B(  4-C ,  5-C ) :   0.9021 B(  4-C ,  6-C ) :   0.9138
B(  4-C , 17-H ) :   0.9153 B(  5-C , 18-H ) :   0.9318 B(  5-C , 19-H ) :   0.9349
B(  5-C , 20-H ) :   0.9339 B(  6-C ,  7-O ) :   2.0170 B(  6-C ,  8-O ) :   1.1433

MP2 TOTAL ENERGY:     -423.578331686 Eh
FINAL SINGLE POINT ENERGY      -423.578331686000

DIPOLE MOMENT
-------------
                                X             Y             Z
Electronic contribution:     -1.88058      -2.84898       7.38189
Nuclear contribution   :      1.73633       3.21300      -9.11709
                        -----------------------------------------
Total Dipole Moment    :     -0.14425       0.36402      -1.73520
                        -----------------------------------------
Magnitude (a.u.)       :      1.77883
Magnitude (Debye)      :      4.52143

                             ****ORCA TERMINATED NORMALLY****
TOTAL RUN TIME: 0 days 0 hours 19 minutes 13 seconds 558 msec
