                         Program Version 3.0.3 - RELEASE   -
|  1> ! RI-MP2 RIJK def2-TZVP def2-TZVP/C def2-TZVP/JK TIGHTSCF
|  2> % maxcore 2000
|  3> % mp2 density relaxed end
|  4> *xyz 0 1
|  5>  C       -0.0634162434     1.6233289625     0.0127334819
|  6>  C        0.0282110777     0.1067381160     0.0173769748
|  7>  C        1.0691503887    -0.6279924440    -0.8745587266
|  8>  C        2.4680157434    -0.2542594484    -0.3402052525
|  9>  C        2.2267174868    -0.2643154134     1.1307769555
| 10>  C        0.7312745252    -0.6420986577     1.1852259180
| 11>  C        1.1832742381    -1.7619510794     0.1940476726
| 12>  N        2.6791207872    -1.5202838275     0.4410863225
| 13>  H        0.9207679829     2.0744520719     0.1772625356
| 14>  H       -0.4473470041     1.9946169557    -0.9437461967
| 15>  H       -0.7335949070     1.9826661790     0.8013070097
| 16>  H       -0.9577746254    -0.3468994588    -0.1474621513
| 17>  H        0.9323407690    -0.7888461516    -1.9421147595
| 18>  H        3.2868263228     0.2556738035    -0.8325078653
| 19>  H        2.8442296036     0.2372335391     1.8656047999
| 20>  H        0.2609488871    -0.8168776380     2.1508930277
| 21>  H        0.7859774274    -2.7717049689     0.1219618636
| 22> *
| 23>
| 24>                          ****END OF INPUT****

CARTESIAN COORDINATES (ANGSTROEM)
---------------------------------
  C     -0.063416    1.623329    0.012733
  C      0.028211    0.106738    0.017377
  C      1.069150   -0.627992   -0.874559
  C      2.468016   -0.254259   -0.340205
  C      2.226717   -0.264315    1.130777
  C      0.731275   -0.642099    1.185226
  C      1.183274   -1.761951    0.194048
  N      2.679121   -1.520284    0.441086
  H      0.920768    2.074452    0.177263
  H     -0.447347    1.994617   -0.943746
  H     -0.733595    1.982666    0.801307
  H     -0.957775   -0.346899   -0.147462
  H      0.932341   -0.788846   -1.942115
  H      3.286826    0.255674   -0.832508
  H      2.844230    0.237234    1.865605
  H      0.260949   -0.816878    2.150893
  H      0.785977   -2.771705    0.121962

 Total Charge           Charge          ....    0
 Multiplicity           Mult            ....    1
 Number of Electrons    NEL             ....   58
 Basis Dimension        Dim             ....  302

ORBITAL ENERGIES
----------------

  NO   OCC          E(Eh)            E(eV)
   0   2.0000     -15.553721      -423.2383
   1   2.0000     -11.263002      -306.4819
   2   2.0000     -11.258959      -306.3718
   3   2.0000     -11.258225      -306.3519
   4   2.0000     -11.237857      -305.7976
   5   2.0000     -11.237804      -305.7962
   6   2.0000     -11.235295      -305.7279
   7   2.0000     -11.216842      -305.2258
   8   2.0000      -1.323339       -36.0099
   9   2.0000      -1.098056       -29.8796
  10   2.0000      -0.975534       -26.5456
  11   2.0000      -0.948935       -25.8218
  12   2.0000      -0.911292       -24.7975
  13   2.0000      -0.801800       -21.8181
  14   2.0000      -0.749635       -20.3986
  15   2.0000      -0.722603       -19.6630
  16   2.0000      -0.699734       -19.0407
  17   2.0000      -0.611742       -16.6463
  18   2.0000      -0.595041       -16.1919
  19   2.0000      -0.594135       -16.1672
  20   2.0000      -0.566837       -15.4244
  21   2.0000      -0.555740       -15.1225
  22   2.0000      -0.506127       -13.7724
  23   2.0000      -0.481438       -13.1006
  24   2.0000      -0.474410       -12.9093
  25   2.0000      -0.432844       -11.7783
  26   2.0000      -0.416941       -11.3455
  27   2.0000      -0.387576       -10.5465
  28   2.0000      -0.358145        -9.7456
  29   0.0000       0.134682         3.6649
  30   0.0000       0.160256         4.3608
  31   0.0000       0.172552         4.6954
  32   0.0000       0.174702         4.7539
  33   0.0000       0.192719         5.2442

MULLIKEN ATOMIC CHARGES
-----------------------
   0 C :   -0.433499
   1 C :   -0.087144
   2 C :   -0.054186
   3 C :   -0.118164
   4 C :   -0.118170
   5 C :   -0.054181
   6 C :   -0.080877
   7 N :   -0.227964
   8 H :    0.136137
   9 H :    0.131928
  10 H :    0.131928
  11 H :    0.098718
  12 H :    0.135012
  13 H :    0.135318
  14 H :    0.135318
  15 H :    0.135013
  16 H :    0.134816
Sum of atomic charges:   -0.0000000

LOEWDIN ATOMIC CHARGES
----------------------
   0 C :   -0.295460
   1 C :   -0.220472
   2 C :   -0.150676
   3 C :   -0.185066
   4 C :   -0.185066
   5 C :   -0.150676
   6 C :   -0.131104
   7 N :    0.121243
   8 H :    0.127486
   9 H :    0.125524
  10 H :    0.125524
  11 H :    0.153711
  12 H :    0.135787
  13 H :    0.132911
  14 H :    0.132911
  15 H :    0.135787
  16 H :    0.127636

  Mayer bond orders larger than 0.1
B(  0-C ,  1-C ) :   0.8880 B(  0-C ,  8-H ) :   0.9410 B(  0-C ,  9-H ) :   0.9349
B(  0-C , 10-H ) :   0.9349 B(  1-C ,  2-C ) :   0.9136 B(  1-C ,  5-C ) :   0.9136
B(  1-C , 11-H ) :   0.9119 B(  2-C ,  3-C ) :   0.8430 B(  2-C ,  6-C ) :   0.9173
B(  2-C , 12-H ) :   0.9117 B(  3-C ,  4-C ) :   0.9523 B(  3-C ,  7-N ) :   0.9013
B(  3-C , 13-H ) :   0.9190 B(  4-C ,  5-C ) :   0.8430 B(  4-C ,  7-N ) :   0.9013
B(  4-C , 14-H ) :   0.9190 B(  5-C ,  6-C ) :   0.9173 B(  5-C , 15-H ) :   0.9117
B(  6-C ,  7-N ) :   0.9489 B(  6-C , 16-H ) :   0.9092

MP2 TOTAL ENERGY:     -326.051683234 Eh
FINAL SINGLE POINT ENERGY      -326.051683233970

DIPOLE MOMENT
-------------
                                X             Y             Z
Electronic contribution:      3.58110      -4.45429       0.55693
Nuclear contribution   :     -4.26421       4.95793      -0.66554
                        -----------------------------------------
Total Dipole Moment    :     -0.68311       0.50364      -0.10861
                        -----------------------------------------
Magnitude (a.u.)       :      0.85562
Magnitude (Debye)      :      2.17481

                             ****ORCA TERMINATED NORMALLY****
TOTAL RUN TIME: 0 days 0 hours 14 minutes 19 seconds 145 msec
