                         Program Version 3.0.3 - RELEASE   -
|  1> ! RI-MP2 RIJK def2-TZVP def2-TZVP/C def2-TZVP/JK TIGHTSCF
|  2> % maxcore 2000
|  3> % mp2 density relaxed end
|  4> *xyz 0 1
|  5>  C       -0.0508111705     1.5513956230    -0.0285135544
|  6>  C        0.0481028361     0.0448145216     0.0484998500
|  7>  C        1.3544067041    -0.6832515729    -0.1824722932
|  8>  O        2.5189949369     0.1028173116    -0.1476934968
|  9>  C        2.9537104644     0.1901449719     1.2132364042
| 10>  C        1.6844271493     0.0775813782     2.0810103399
| 11>  C        0.7244434606    -0.7179195327     1.1854204176
| 12>  C        0.0624794624    -1.9509821613     1.7550814538
| 13>  H        0.9223240046     2.0240139313     0.1219645619
| 14>  H       -0.4083366149     1.8572069524    -1.0174209410
| 15>  H       -0.7501246785     1.9504174573     0.7147119416
| 16>  H       -0.8215726466    -0.4773320708    -0.3472096464
| 17>  H        1.4154983116    -1.5496995051    -0.8360794545
| 18>  H        3.6483616842    -0.6342760068     1.4369553158
| 19>  H        3.4924633291     1.1348788509     1.3314009624
| 20>  H        1.8824974398    -0.4566679011     3.0148327093
| 21>  H        1.2883541306     1.0630353440     2.3453267955
| 22>  H       -0.6543611681    -1.6915906334     2.5433051668
| 23>  H       -0.4854434432    -2.4999147093     0.9824256491
| 24>  H        0.8005481582    -2.6358134288     2.1897524082
| 25> *
| 26>
| 27>                          ****END OF INPUT****

CARTESIAN COORDINATES (ANGSTROEM)
---------------------------------
  C     -0.050811    1.551396   -0.028514
  C      0.048103    0.044815    0.048500
  C      1.354407   -0.683252   -0.182472
  O      2.518995    0.102817   -0.147693
  C      2.953710    0.190145    1.213236
  C      1.684427    0.077581    2.081010
  C      0.724443   -0.717920    1.185420
  C      0.062479   -1.950982    1.755081
  H      0.922324    2.024014    0.121965
  H     -0.408337    1.857207   -1.017421
  H     -0.750125    1.950417    0.714712
  H     -0.821573   -0.477332   -0.347210
  H      1.415498   -1.549700   -0.836079
  H      3.648362   -0.634276    1.436955
  H      3.492463    1.134879    1.331401
  H      1.882497   -0.456668    3.014833
  H      1.288354    1.063035    2.345327
  H     -0.654361   -1.691591    2.543305
  H     -0.485443   -2.499915    0.982426
  H      0.800548   -2.635813    2.189752

 Total Charge           Charge          ....    0
 Multiplicity           Mult            ....    1
 Number of Electrons    NEL             ....   62
 Basis Dimension        Dim             ....  320

ORBITAL ENERGIES
----------------

  NO   OCC          E(Eh)            E(eV)
   0   2.0000     -20.549408      -559.1778
   1   2.0000     -11.272428      -306.7384
   2   2.0000     -11.268553      -306.6329
   3   2.0000     -11.233613      -305.6821
   4   2.0000     -11.226908      -305.4997
   5   2.0000     -11.225610      -305.4644
   6   2.0000     -11.221073      -305.3409
   7   2.0000     -11.211516      -305.0808
   8   2.0000      -1.378078       -37.4994
   9   2.0000      -1.142027       -31.0761
  10   2.0000      -1.025428       -27.9033
  11   2.0000      -0.977808       -26.6075
  12   2.0000      -0.934866       -25.4390
  13   2.0000      -0.850098       -23.1323
  14   2.0000      -0.770916       -20.9777
  15   2.0000      -0.740828       -20.1590
  16   2.0000      -0.678878       -18.4732
  17   2.0000      -0.649889       -17.6844
  18   2.0000      -0.609618       -16.5886
  19   2.0000      -0.591805       -16.1038
  20   2.0000      -0.577372       -15.7111
  21   2.0000      -0.570478       -15.5235
  22   2.0000      -0.556339       -15.1388
  23   2.0000      -0.538821       -14.6621
  24   2.0000      -0.528297       -14.3757
  25   2.0000      -0.506532       -13.7834
  26   2.0000      -0.495973       -13.4961
  27   2.0000      -0.460573       -12.5328
  28   2.0000      -0.450607       -12.2616
  29   2.0000      -0.382462       -10.4073
  30   2.0000      -0.371183       -10.1004
  31   0.0000       0.133348         3.6286
  32   0.0000       0.157388         4.2827
  33   0.0000       0.164502         4.4763
  34   0.0000       0.176250         4.7960
  35   0.0000       0.197090         5.3631

MULLIKEN ATOMIC CHARGES
-----------------------
   0 C :   -0.423617
   1 C :   -0.147529
   2 C :    0.039433
   3 O :   -0.332259
   4 C :   -0.031613
   5 C :   -0.278811
   6 C :    0.111396
   7 C :   -0.421863
   8 H :    0.146164
   9 H :    0.135166
  10 H :    0.130334
  11 H :    0.110223
  12 H :    0.119308
  13 H :    0.090657
  14 H :    0.110434
  15 H :    0.126043
  16 H :    0.125017
  17 H :    0.135224
  18 H :    0.127960
  19 H :    0.128334
Sum of atomic charges:   -0.0000000

LOEWDIN ATOMIC CHARGES
----------------------
   0 C :   -0.293727
   1 C :   -0.197044
   2 C :   -0.247442
   3 O :    0.173944
   4 C :   -0.287909
   5 C :   -0.213091
   6 C :   -0.233216
   7 C :   -0.271228
   8 H :    0.130015
   9 H :    0.127753
  10 H :    0.123890
  11 H :    0.151527
  12 H :    0.133954
  13 H :    0.118859
  14 H :    0.123240
  15 H :    0.140915
  16 H :    0.138451
  17 H :    0.127078
  18 H :    0.128024
  19 H :    0.126008

  Mayer bond orders larger than 0.1
B(  0-C ,  1-C ) :   0.8903 B(  0-C ,  8-H ) :   0.9363 B(  0-C ,  9-H ) :   0.9358
B(  0-C , 10-H ) :   0.9387 B(  1-C ,  2-C ) :   0.8730 B(  1-C ,  6-C ) :   0.8764
B(  1-C , 11-H ) :   0.9255 B(  2-C ,  3-O ) :   0.9708 B(  2-C ,  6-C ) :   0.8399
B(  2-C , 12-H ) :   0.9384 B(  3-O ,  4-C ) :   0.9283 B(  4-C ,  5-C ) :   0.9799
B(  4-C , 13-H ) :   0.9208 B(  4-C , 14-H ) :   0.9282 B(  5-C ,  6-C ) :   0.8913
B(  5-C , 15-H ) :   0.9285 B(  5-C , 16-H ) :   0.9185 B(  6-C ,  7-C ) :   0.8929
B(  7-C , 17-H ) :   0.9420 B(  7-C , 18-H ) :   0.9354 B(  7-C , 19-H ) :   0.9365

MP2 TOTAL ENERGY:     -348.391016267 Eh
FINAL SINGLE POINT ENERGY      -348.391016267368

DIPOLE MOMENT
-------------
                                X             Y             Z
Electronic contribution:      3.26043      -0.24629      -2.81118
Nuclear contribution   :     -3.54779       0.02934       3.34985
                        -----------------------------------------
Total Dipole Moment    :     -0.28736      -0.21695       0.53867
                        -----------------------------------------
Magnitude (a.u.)       :      0.64792
Magnitude (Debye)      :      1.64689

                             ****ORCA TERMINATED NORMALLY****
TOTAL RUN TIME: 0 days 0 hours 14 minutes 21 seconds 748 msec
