                         Program Version 3.0.3 - RELEASE   -
|  1> ! RI-MP2 RIJK def2-TZVP def2-TZVP/C def2-TZVP/JK TIGHTSCF
|  2> % maxcore 2000
|  3> % mp2 density relaxed end
|  4> *xyz 0 1
|  5>  C       -0.0529390502     1.3307715063    -0.3374200875
|  6>  O        1.3290461372     1.5181727847     0.0279716311
|  7>  C        1.4622359773     0.1390285460     0.4256044580
|  8>  C       -0.0156035558    -0.1584197141     0.0787575383
|  9>  C       -0.9273791234    -0.5863302434     1.2254800027
| 10>  C       -2.4264476649    -0.6011454327     0.8104861889
| 11>  C       -2.7614579033    -2.1090808104     0.6777369336
| 12>  O       -1.5207519168    -2.8020346842     0.7267094680
| 13>  C       -0.6949267722    -2.0605582773     1.6088855633
| 14>  H       -0.7242096171     1.9675205250     0.2548302683
| 15>  H       -0.2251989378     1.5309439533    -1.4024023275
| 16>  H        2.2144566839    -0.3893217314    -0.1732414524
| 17>  H        1.7253110422     0.0415245662     1.4881471205
| 18>  H       -0.1371503714    -0.8519629404    -0.7575254333
| 19>  H       -0.7588707732     0.0748067383     2.0824457168
| 20>  H       -3.0596940901    -0.1205846130     1.5599746989
| 21>  H       -2.5801260652    -0.0690762068    -0.1326211969
| 22>  H       -3.4111986295    -2.4345913999     1.5052548610
| 23>  H       -3.2520418395    -2.3707339494    -0.2631975060
| 24>  H        0.3358302929    -2.3995970639     1.4700736377
| 25>  H       -0.9809783432    -2.2414000629     2.6587664962
| 26> *
| 27>
| 28>                          ****END OF INPUT****

CARTESIAN COORDINATES (ANGSTROEM)
---------------------------------
  C     -0.052939    1.330772   -0.337420
  O      1.329046    1.518173    0.027972
  C      1.462236    0.139029    0.425604
  C     -0.015604   -0.158420    0.078758
  C     -0.927379   -0.586330    1.225480
  C     -2.426448   -0.601145    0.810486
  C     -2.761458   -2.109081    0.677737
  O     -1.520752   -2.802035    0.726709
  C     -0.694927   -2.060558    1.608886
  H     -0.724210    1.967521    0.254830
  H     -0.225199    1.530944   -1.402402
  H      2.214457   -0.389322   -0.173241
  H      1.725311    0.041525    1.488147
  H     -0.137150   -0.851963   -0.757525
  H     -0.758871    0.074807    2.082446
  H     -3.059694   -0.120585    1.559975
  H     -2.580126   -0.069076   -0.132621
  H     -3.411199   -2.434591    1.505255
  H     -3.252042   -2.370734   -0.263198
  H      0.335830   -2.399597    1.470074
  H     -0.980978   -2.241400    2.658766

 Total Charge           Charge          ....    0
 Multiplicity           Mult            ....    1
 Number of Electrons    NEL             ....   70
 Basis Dimension        Dim             ....  351

ORBITAL ENERGIES
----------------

  NO   OCC          E(Eh)            E(eV)
   0   2.0000     -20.555700      -559.3490
   1   2.0000     -20.545951      -559.0837
   2   2.0000     -11.277031      -306.8636
   3   2.0000     -11.276847      -306.8586
   4   2.0000     -11.276823      -306.8579
   5   2.0000     -11.276714      -306.8550
   6   2.0000     -11.238437      -305.8134
   7   2.0000     -11.234675      -305.7110
   8   2.0000     -11.231832      -305.6337
   9   2.0000      -1.382818       -37.6284
  10   2.0000      -1.375492       -37.4290
  11   2.0000      -1.090931       -29.6857
  12   2.0000      -1.010173       -27.4882
  13   2.0000      -0.971485       -26.4354
  14   2.0000      -0.933644       -25.4058
  15   2.0000      -0.826658       -22.4945
  16   2.0000      -0.814740       -22.1702
  17   2.0000      -0.756287       -20.5796
  18   2.0000      -0.697658       -18.9842
  19   2.0000      -0.688799       -18.7432
  20   2.0000      -0.661949       -18.0126
  21   2.0000      -0.643682       -17.5155
  22   2.0000      -0.617321       -16.7982
  23   2.0000      -0.598461       -16.2850
  24   2.0000      -0.568980       -15.4827
  25   2.0000      -0.561563       -15.2809
  26   2.0000      -0.542792       -14.7701
  27   2.0000      -0.521696       -14.1961
  28   2.0000      -0.505793       -13.7633
  29   2.0000      -0.483299       -13.1512
  30   2.0000      -0.476150       -12.9567
  31   2.0000      -0.451875       -12.2961
  32   2.0000      -0.442435       -12.0393
  33   2.0000      -0.419356       -11.4113
  34   2.0000      -0.409995       -11.1565
  35   0.0000       0.131592         3.5808
  36   0.0000       0.149032         4.0554
  37   0.0000       0.156116         4.2481
  38   0.0000       0.159030         4.3274
  39   0.0000       0.179239         4.8773

MULLIKEN ATOMIC CHARGES
-----------------------
   0 C :   -0.010414
   1 O :   -0.329314
   2 C :   -0.018437
   3 C :   -0.193286
   4 C :   -0.071285
   5 C :   -0.274581
   6 C :   -0.041508
   7 O :   -0.324218
   8 C :   -0.036740
   9 H :    0.092489
  10 H :    0.096511
  11 H :    0.099035
  12 H :    0.090951
  13 H :    0.130567
  14 H :    0.115914
  15 H :    0.128429
  16 H :    0.121986
  17 H :    0.089122
  18 H :    0.116750
  19 H :    0.120040
  20 H :    0.097988
Sum of atomic charges:    0.0000000

LOEWDIN ATOMIC CHARGES
----------------------
   0 C :   -0.254262
   1 O :    0.108948
   2 C :   -0.254275
   3 C :   -0.227455
   4 C :   -0.239374
   5 C :   -0.232226
   6 C :   -0.304632
   7 O :    0.147570
   8 C :   -0.288318
   9 H :    0.118043
  10 H :    0.115612
  11 H :    0.116254
  12 H :    0.117040
  13 H :    0.153243
  14 H :    0.153657
  15 H :    0.135763
  16 H :    0.139534
  17 H :    0.117819
  18 H :    0.124891
  19 H :    0.131202
  20 H :    0.120968

  Mayer bond orders larger than 0.1
B(  0-C ,  1-O ) :   0.9598 B(  0-C ,  3-C ) :   0.9545 B(  0-C ,  9-H ) :   0.9035
B(  0-C , 10-H ) :   0.9145 B(  1-O ,  2-C ) :   0.9594 B(  2-C ,  3-C ) :   0.9552
B(  2-C , 11-H ) :   0.9147 B(  2-C , 12-H ) :   0.9040 B(  3-C ,  4-C ) :   0.8951
B(  3-C , 13-H ) :   0.9214 B(  4-C ,  5-C ) :   0.8793 B(  4-C ,  8-C ) :   0.9119
B(  4-C , 14-H ) :   0.9183 B(  5-C ,  6-C ) :   0.9613 B(  5-C , 15-H ) :   0.9249
B(  5-C , 16-H ) :   0.9322 B(  6-C ,  7-O ) :   0.9439 B(  6-C , 17-H ) :   0.9325
B(  6-C , 18-H ) :   0.9225 B(  7-O ,  8-C ) :   0.9212 B(  8-C , 19-H ) :   0.9283
B(  8-C , 20-H ) :   0.9271

MP2 TOTAL ENERGY:     -423.497884102 Eh
FINAL SINGLE POINT ENERGY      -423.497884102469

DIPOLE MOMENT
-------------
                                X             Y             Z
Electronic contribution:      2.58004       0.02477      -0.98048
Nuclear contribution   :     -3.22257      -0.09932       1.24089
                        -----------------------------------------
Total Dipole Moment    :     -0.64254      -0.07455       0.26040
                        -----------------------------------------
Magnitude (a.u.)       :      0.69730
Magnitude (Debye)      :      1.77238

                             ****ORCA TERMINATED NORMALLY****
TOTAL RUN TIME: 0 days 0 hours 17 minutes 47 seconds 961 msec
