                         Program Version 3.0.3 - RELEASE   -
|  1> ! RI-MP2 RIJK def2-TZVP def2-TZVP/C def2-TZVP/JK TIGHTSCF
|  2> % maxcore 2000
|  3> % mp2 density relaxed end
|  4> *xyz 0 1
|  5>  O        0.0800153663     1.4003532257     0.0701072226
|  6>  C       -0.0064608176     0.0081744794     0.2720498868
|  7>  C       -1.3852694721    -0.5167491505    -0.1449538456
|  8>  O       -1.6718232625    -0.0510269276    -1.4698218177
|  9>  C       -1.4912081302    -2.0170108446    -0.0302238671
| 10>  C       -1.8246840091    -2.6673507137     1.2830751679
| 11>  C       -2.8381902387    -2.7082724008     0.1503258995
| 12>  C       -4.0537880196    -1.9536455290     0.2440085801
| 13>  C       -5.0823620988    -1.3356194737     0.3271122649
| 14>  H       -0.3762657425     1.5613002963    -0.7668808602
| 15>  H        0.7714113139    -0.5333213537    -0.2995769981
| 16>  H        0.1733475960    -0.1896870559     1.3341303051
| 17>  H       -2.1478757694    -0.0420218876     0.4807143866
| 18>  H       -1.1454182902    -0.5728771290    -2.0869383221
| 19>  H       -0.7881471650    -2.5595137834    -0.6607421014
| 20>  H       -1.3264273692    -3.5918722512     1.5509677914
| 21>  H       -2.0604666930    -2.0200471347     2.1204465106
| 22>  H       -2.9384555787    -3.6627956824    -0.3582456367
| 23>  H       -5.9872058796    -0.7840854936     0.3921516833
| 24> *
| 25>
| 26>                          ****END OF INPUT****

CARTESIAN COORDINATES (ANGSTROEM)
---------------------------------
  O      0.080015    1.400353    0.070107
  C     -0.006461    0.008174    0.272050
  C     -1.385269   -0.516749   -0.144954
  O     -1.671823   -0.051027   -1.469822
  C     -1.491208   -2.017011   -0.030224
  C     -1.824684   -2.667351    1.283075
  C     -2.838190   -2.708272    0.150326
  C     -4.053788   -1.953646    0.244009
  C     -5.082362   -1.335619    0.327112
  H     -0.376266    1.561300   -0.766881
  H      0.771411   -0.533321   -0.299577
  H      0.173348   -0.189687    1.334130
  H     -2.147876   -0.042022    0.480714
  H     -1.145418   -0.572877   -2.086938
  H     -0.788147   -2.559514   -0.660742
  H     -1.326427   -3.591872    1.550968
  H     -2.060467   -2.020047    2.120447
  H     -2.938456   -3.662796   -0.358246
  H     -5.987206   -0.784085    0.392152

 Total Charge           Charge          ....    0
 Multiplicity           Mult            ....    1
 Number of Electrons    NEL             ....   68
 Basis Dimension        Dim             ....  339

ORBITAL ENERGIES
----------------

  NO   OCC          E(Eh)            E(eV)
   0   2.0000     -20.569186      -559.7160
   1   2.0000     -20.548987      -559.1664
   2   2.0000     -11.290668      -307.2347
   3   2.0000     -11.276898      -306.8600
   4   2.0000     -11.268852      -306.6411
   5   2.0000     -11.257488      -306.3318
   6   2.0000     -11.251539      -306.1699
   7   2.0000     -11.236372      -305.7572
   8   2.0000     -11.222508      -305.3800
   9   2.0000      -1.382793       -37.6277
  10   2.0000      -1.348305       -36.6893
  11   2.0000      -1.177791       -32.0493
  12   2.0000      -1.032362       -28.0920
  13   2.0000      -1.002491       -27.2792
  14   2.0000      -0.878953       -23.9175
  15   2.0000      -0.869700       -23.6657
  16   2.0000      -0.818014       -22.2593
  17   2.0000      -0.730014       -19.8647
  18   2.0000      -0.711713       -19.3667
  19   2.0000      -0.693166       -18.8620
  20   2.0000      -0.671714       -18.2783
  21   2.0000      -0.649690       -17.6790
  22   2.0000      -0.616659       -16.7801
  23   2.0000      -0.605446       -16.4750
  24   2.0000      -0.572125       -15.5683
  25   2.0000      -0.557435       -15.1686
  26   2.0000      -0.531064       -14.4510
  27   2.0000      -0.504230       -13.7208
  28   2.0000      -0.493545       -13.4300
  29   2.0000      -0.468489       -12.7482
  30   2.0000      -0.457120       -12.4389
  31   2.0000      -0.431448       -11.7403
  32   2.0000      -0.385550       -10.4914
  33   2.0000      -0.364211        -9.9107
  34   0.0000       0.123900         3.3715
  35   0.0000       0.142822         3.8864
  36   0.0000       0.152013         4.1365
  37   0.0000       0.165393         4.5006
  38   0.0000       0.173298         4.7157

MULLIKEN ATOMIC CHARGES
-----------------------
   0 O :   -0.474293
   1 C :    0.014574
   2 C :    0.039972
   3 O :   -0.486670
   4 C :   -0.136132
   5 C :   -0.261461
   6 C :   -0.234535
   7 C :   -0.017646
   8 C :   -0.125431
   9 H :    0.329173
  10 H :    0.073753
  11 H :    0.111024
  12 H :    0.107368
  13 H :    0.316488
  14 H :    0.122476
  15 H :    0.142861
  16 H :    0.147163
  17 H :    0.140528
  18 H :    0.190787
Sum of atomic charges:    0.0000000

LOEWDIN ATOMIC CHARGES
----------------------
   0 O :   -0.045768
   1 C :   -0.338868
   2 C :   -0.337379
   3 O :   -0.021421
   4 C :   -0.188357
   5 C :   -0.173695
   6 C :   -0.187262
   7 C :   -0.094982
   8 C :   -0.092357
   9 H :    0.176839
  10 H :    0.114799
  11 H :    0.130871
  12 H :    0.157718
  13 H :    0.175588
  14 H :    0.151421
  15 H :    0.135782
  16 H :    0.144532
  17 H :    0.165363
  18 H :    0.127176

  Mayer bond orders larger than 0.1
B(  0-O ,  1-C ) :   0.9522 B(  0-O ,  9-H ) :   0.8223 B(  1-C ,  2-C ) :   0.9749
B(  1-C , 10-H ) :   0.8926 B(  1-C , 11-H ) :   0.9281 B(  2-C ,  3-O ) :   0.8603
B(  2-C ,  4-C ) :   0.9633 B(  2-C , 12-H ) :   0.9053 B(  3-O , 13-H ) :   0.8389
B(  4-C ,  5-C ) :   0.8958 B(  4-C ,  6-C ) :   0.8428 B(  4-C , 14-H ) :   0.9027
B(  5-C ,  6-C ) :   0.8405 B(  5-C , 15-H ) :   0.9214 B(  5-C , 16-H ) :   0.9302
B(  6-C ,  7-C ) :   1.2049 B(  6-C ,  8-C ) :  -0.1315 B(  6-C , 17-H ) :   0.9388
B(  7-C ,  8-C ) :   2.5512 B(  8-C , 18-H ) :   0.8976

MP2 TOTAL ENERGY:     -422.263968760 Eh
FINAL SINGLE POINT ENERGY      -422.263968760342

DIPOLE MOMENT
-------------
                                X             Y             Z
Electronic contribution:     -2.96228       1.20204      -1.45524
Nuclear contribution   :      3.16696      -2.25999       1.23926
                        -----------------------------------------
Total Dipole Moment    :      0.20468      -1.05795      -0.21598
                        -----------------------------------------
Magnitude (a.u.)       :      1.09900
Magnitude (Debye)      :      2.79344

                             ****ORCA TERMINATED NORMALLY****
TOTAL RUN TIME: 0 days 0 hours 16 minutes 42 seconds 5 msec
