                         Program Version 3.0.3 - RELEASE   -
|  1> ! RI-MP2 RIJK def2-TZVP def2-TZVP/C def2-TZVP/JK TIGHTSCF
|  2> % maxcore 2000
|  3> % mp2 density relaxed end
|  4> *xyz 0 1
|  5>  C        0.9340744963     1.3796971442     0.3236410771
|  6>  C        0.9445830832     0.2720091436    -0.6969289945
|  7>  C       -0.2350249161     0.4135025207     0.2282797890
|  8>  C       -0.5142420719    -0.5437580854     1.3331060945
|  9>  C       -0.0636267778    -1.7985194451     1.3893525169
| 10>  C       -0.3256444670    -2.6946998482     2.5707384334
| 11>  C       -0.8173905182    -1.8654788260     3.7582305741
| 12>  O       -1.8408909402    -0.9710842609     3.3583489691
| 13>  C       -1.3736395525     0.0062977117     2.4511560582
| 14>  H        1.5956665362     1.2767501312     1.1769439347
| 15>  H        0.7875243557     2.4002728655    -0.0124830791
| 16>  H        0.8024599778     0.5287601458    -1.7406616247
| 17>  H        1.6284998460    -0.5523238059    -0.5322524724
| 18>  H       -1.1301148406     0.8431537680    -0.2190259616
| 19>  H        0.5145170826    -2.2056479248     0.5640538431
| 20>  H       -1.0703203461    -3.4601648873     2.3114920357
| 21>  H        0.5865644164    -3.2378298143     2.8509821731
| 22>  H       -1.2487350794    -2.4965798117     4.5403047846
| 23>  H        0.0266540797    -1.3076707535     4.1981320482
| 24>  H       -0.8163285557     0.7982117139     2.9859794033
| 25>  H       -2.2689295084     0.4834213185     2.0331976073
| 26> *
| 27>
| 28>                          ****END OF INPUT****

CARTESIAN COORDINATES (ANGSTROEM)
---------------------------------
  C      0.934074    1.379697    0.323641
  C      0.944583    0.272009   -0.696929
  C     -0.235025    0.413503    0.228280
  C     -0.514242   -0.543758    1.333106
  C     -0.063627   -1.798519    1.389353
  C     -0.325644   -2.694700    2.570738
  C     -0.817391   -1.865479    3.758231
  O     -1.840891   -0.971084    3.358349
  C     -1.373640    0.006298    2.451156
  H      1.595667    1.276750    1.176944
  H      0.787524    2.400273   -0.012483
  H      0.802460    0.528760   -1.740662
  H      1.628500   -0.552324   -0.532252
  H     -1.130115    0.843154   -0.219026
  H      0.514517   -2.205648    0.564054
  H     -1.070320   -3.460165    2.311492
  H      0.586564   -3.237830    2.850982
  H     -1.248735   -2.496580    4.540305
  H      0.026654   -1.307671    4.198132
  H     -0.816329    0.798212    2.985979
  H     -2.268930    0.483421    2.033198

 Total Charge           Charge          ....    0
 Multiplicity           Mult            ....    1
 Number of Electrons    NEL             ....   68
 Basis Dimension        Dim             ....  351

ORBITAL ENERGIES
----------------

  NO   OCC          E(Eh)            E(eV)
   0   2.0000     -20.549499      -559.1803
   1   2.0000     -11.273754      -306.7744
   2   2.0000     -11.270787      -306.6937
   3   2.0000     -11.237257      -305.7813
   4   2.0000     -11.231730      -305.6309
   5   2.0000     -11.228761      -305.5501
   6   2.0000     -11.227666      -305.5203
   7   2.0000     -11.224543      -305.4353
   8   2.0000     -11.221197      -305.3443
   9   2.0000      -1.372976       -37.3606
  10   2.0000      -1.152582       -31.3634
  11   2.0000      -1.073653       -29.2156
  12   2.0000      -1.025177       -27.8965
  13   2.0000      -0.885838       -24.1049
  14   2.0000      -0.878086       -23.8939
  15   2.0000      -0.822771       -22.3887
  16   2.0000      -0.805482       -21.9183
  17   2.0000      -0.706243       -19.2178
  18   2.0000      -0.687790       -18.7157
  19   2.0000      -0.665705       -18.1147
  20   2.0000      -0.640936       -17.4408
  21   2.0000      -0.631332       -17.1794
  22   2.0000      -0.600116       -16.3300
  23   2.0000      -0.573569       -15.6076
  24   2.0000      -0.551155       -14.9977
  25   2.0000      -0.539331       -14.6759
  26   2.0000      -0.521951       -14.2030
  27   2.0000      -0.515909       -14.0386
  28   2.0000      -0.499863       -13.6020
  29   2.0000      -0.455001       -12.3812
  30   2.0000      -0.435689       -11.8557
  31   2.0000      -0.427019       -11.6198
  32   2.0000      -0.401559       -10.9270
  33   2.0000      -0.335747        -9.1361
  34   0.0000       0.140263         3.8168
  35   0.0000       0.148904         4.0519
  36   0.0000       0.156756         4.2655
  37   0.0000       0.169739         4.6188
  38   0.0000       0.173943         4.7332

MULLIKEN ATOMIC CHARGES
-----------------------
   0 C :   -0.269422
   1 C :   -0.247142
   2 C :   -0.136504
   3 C :    0.033930
   4 C :   -0.216211
   5 C :   -0.153053
   6 C :   -0.061794
   7 O :   -0.313327
   8 C :   -0.085937
   9 H :    0.132031
  10 H :    0.129644
  11 H :    0.132320
  12 H :    0.129652
  13 H :    0.124993
  14 H :    0.122162
  15 H :    0.116488
  16 H :    0.112625
  17 H :    0.126026
  18 H :    0.089501
  19 H :    0.109699
  20 H :    0.124320
Sum of atomic charges:   -0.0000000

LOEWDIN ATOMIC CHARGES
----------------------
   0 C :   -0.218147
   1 C :   -0.221892
   2 C :   -0.193624
   3 C :   -0.168762
   4 C :   -0.141071
   5 C :   -0.260311
   6 C :   -0.309865
   7 O :    0.158243
   8 C :   -0.277283
   9 H :    0.134004
  10 H :    0.129518
  11 H :    0.132047
  12 H :    0.132920
  13 H :    0.154758
  14 H :    0.143729
  15 H :    0.144530
  16 H :    0.143220
  17 H :    0.128195
  18 H :    0.121828
  19 H :    0.128862
  20 H :    0.139101

  Mayer bond orders larger than 0.1
B(  0-C ,  1-C ) :   0.9086 B(  0-C ,  2-C ) :   0.8712 B(  0-C ,  9-H ) :   0.9265
B(  0-C , 10-H ) :   0.9283 B(  1-C ,  2-C ) :   0.8924 B(  1-C , 11-H ) :   0.9315
B(  1-C , 12-H ) :   0.9287 B(  2-C ,  3-C ) :   0.9060 B(  2-C , 13-H ) :   0.9211
B(  3-C ,  4-C ) :   1.7240 B(  3-C ,  8-C ) :   0.9241 B(  4-C ,  5-C ) :   0.9355
B(  4-C , 14-H ) :   0.9342 B(  5-C ,  6-C ) :   0.9541 B(  5-C , 15-H ) :   0.9045
B(  5-C , 16-H ) :   0.9209 B(  6-C ,  7-O ) :   0.9157 B(  6-C , 17-H ) :   0.9310
B(  6-C , 18-H ) :   0.9325 B(  7-O ,  8-C ) :   0.9616 B(  8-C , 19-H ) :   0.9517
B(  8-C , 20-H ) :   0.9166

MP2 TOTAL ENERGY:     -386.397595393 Eh
FINAL SINGLE POINT ENERGY      -386.397595392803

DIPOLE MOMENT
-------------
                                X             Y             Z
Electronic contribution:     -3.22940      -0.77402       1.61070
Nuclear contribution   :      3.72663       0.79610      -1.83837
                        -----------------------------------------
Total Dipole Moment    :      0.49722       0.02208      -0.22767
                        -----------------------------------------
Magnitude (a.u.)       :      0.54731
Magnitude (Debye)      :      1.39116

                             ****ORCA TERMINATED NORMALLY****
TOTAL RUN TIME: 0 days 0 hours 18 minutes 39 seconds 120 msec
