                         Program Version 3.0.3 - RELEASE   -
|  1> ! RI-MP2 RIJK def2-TZVP def2-TZVP/C def2-TZVP/JK TIGHTSCF
|  2> % maxcore 2000
|  3> % mp2 density relaxed end
|  4> *xyz 0 1
|  5>  N       -0.1090333805     1.3027729729    -0.0958521077
|  6>  C        0.0642741138    -0.0455763948    -0.0091907961
|  7>  O        1.1244534940    -0.6200526866     0.0720828916
|  8>  O       -1.1449493203    -0.6686452380    -0.0592774536
|  9>  C       -1.0586339867    -2.1029520774    -0.0267484474
| 10>  C       -2.4020459895    -2.6506195137    -0.0049272283
| 11>  C       -3.5037084794    -3.1485084640     0.0144846677
| 12>  C       -4.7459401406    -3.7026652866     0.0359465764
| 13>  C       -5.8476762206    -4.1959462826     0.0552290168
| 14>  H        0.6895340063     1.8744925215     0.1169207914
| 15>  H       -1.0274257880     1.6910047598     0.0333403242
| 16>  H       -0.5051440971    -2.4573693920    -0.9042243139
| 17>  H       -0.4899500309    -2.4169248599     0.8557547459
| 18>  H       -6.8171677006    -4.6285591188     0.0716416330
| 19> *
| 20>
| 21>                          ****END OF INPUT****

CARTESIAN COORDINATES (ANGSTROEM)
---------------------------------
  N     -0.109033    1.302773   -0.095852
  C      0.064274   -0.045576   -0.009191
  O      1.124453   -0.620053    0.072083
  O     -1.144949   -0.668645   -0.059277
  C     -1.058634   -2.102952   -0.026748
  C     -2.402046   -2.650620   -0.004927
  C     -3.503708   -3.148508    0.014485
  C     -4.745940   -3.702665    0.035947
  C     -5.847676   -4.195946    0.055229
  H      0.689534    1.874493    0.116921
  H     -1.027426    1.691005    0.033340
  H     -0.505144   -2.457369   -0.904224
  H     -0.489950   -2.416925    0.855755
  H     -6.817168   -4.628559    0.071642

 Total Charge           Charge          ....    0
 Multiplicity           Mult            ....    1
 Number of Electrons    NEL             ....   64
 Basis Dimension        Dim             ....  309

ORBITAL ENERGIES
----------------

  NO   OCC          E(Eh)            E(eV)
   0   2.0000     -20.616177      -560.9947
   1   2.0000     -20.537007      -558.8404
   2   2.0000     -15.595003      -424.3616
   3   2.0000     -11.413555      -310.5786
   4   2.0000     -11.328699      -308.2696
   5   2.0000     -11.265021      -306.5368
   6   2.0000     -11.264136      -306.5127
   7   2.0000     -11.260767      -306.4210
   8   2.0000     -11.256072      -306.2933
   9   2.0000      -1.476309       -40.1724
  10   2.0000      -1.368641       -37.2426
  11   2.0000      -1.229007       -33.4430
  12   2.0000      -1.101687       -29.9784
  13   2.0000      -1.049524       -28.5590
  14   2.0000      -0.980533       -26.6817
  15   2.0000      -0.846104       -23.0237
  16   2.0000      -0.822089       -22.3702
  17   2.0000      -0.763183       -20.7673
  18   2.0000      -0.733638       -19.9633
  19   2.0000      -0.715816       -19.4783
  20   2.0000      -0.700011       -19.0483
  21   2.0000      -0.655998       -17.8506
  22   2.0000      -0.653521       -17.7832
  23   2.0000      -0.598721       -16.2920
  24   2.0000      -0.569694       -15.5022
  25   2.0000      -0.499179       -13.5834
  26   2.0000      -0.492633       -13.4052
  27   2.0000      -0.478430       -13.0188
  28   2.0000      -0.470390       -12.8000
  29   2.0000      -0.439890       -11.9700
  30   2.0000      -0.368046       -10.0151
  31   2.0000      -0.361120        -9.8266
  32   0.0000       0.098857         2.6900
  33   0.0000       0.110404         3.0043
  34   0.0000       0.130511         3.5514
  35   0.0000       0.145061         3.9473
  36   0.0000       0.161323         4.3898

MULLIKEN ATOMIC CHARGES
-----------------------
   0 N :   -0.506371
   1 C :    0.422747
   2 O :   -0.372598
   3 O :   -0.269345
   4 C :   -0.196010
   5 C :   -0.059830
   6 C :    0.081472
   7 C :   -0.021934
   8 C :   -0.141186
   9 H :    0.272545
  10 H :    0.273298
  11 H :    0.158083
  12 H :    0.162688
  13 H :    0.196441
Sum of atomic charges:   -0.0000000

LOEWDIN ATOMIC CHARGES
----------------------
   0 N :   -0.026906
   1 C :   -0.610037
   2 O :    0.078368
   3 O :    0.230590
   4 C :   -0.263599
   5 C :   -0.018336
   6 C :   -0.049367
   7 C :   -0.094655
   8 C :   -0.038803
   9 H :    0.179635
  10 H :    0.177318
  11 H :    0.151930
  12 H :    0.152553
  13 H :    0.131311

  Mayer bond orders larger than 0.1
B(  0-N ,  1-C ) :   1.1698 B(  0-N ,  9-H ) :   0.8649 B(  0-N , 10-H ) :   0.8627
B(  1-C ,  2-O ) :   1.9187 B(  1-C ,  3-O ) :   1.0668 B(  3-O ,  4-C ) :   0.8804
B(  4-C ,  5-C ) :   0.9551 B(  4-C , 11-H ) :   0.9374 B(  4-C , 12-H ) :   0.9462
B(  5-C ,  6-C ) :   2.5972 B(  5-C ,  8-C ) :   0.1238 B(  6-C ,  7-C ) :   1.2971
B(  7-C ,  8-C ) :   2.5512 B(  8-C , 13-H ) :   0.8866

MP2 TOTAL ENERGY:     -435.929591921 Eh
FINAL SINGLE POINT ENERGY      -435.929591920519

DIPOLE MOMENT
-------------
                                X             Y             Z
Electronic contribution:     -1.39841      -1.44184      -0.00664
Nuclear contribution   :      0.80535       2.04489       0.16946
                        -----------------------------------------
Total Dipole Moment    :     -0.59306       0.60305       0.16282
                        -----------------------------------------
Magnitude (a.u.)       :      0.86134
Magnitude (Debye)      :      2.18934

                             ****ORCA TERMINATED NORMALLY****
TOTAL RUN TIME: 0 days 0 hours 11 minutes 42 seconds 238 msec
