                         Program Version 3.0.3 - RELEASE   -
|  1> ! RI-MP2 RIJK def2-TZVP def2-TZVP/C def2-TZVP/JK TIGHTSCF
|  2> % maxcore 2000
|  3> % mp2 density relaxed end
|  4> *xyz 0 1
|  5>  O        0.0131579295     1.4432392882     0.0555784581
|  6>  C        0.0387826903     0.0234563088     0.0250928748
|  7>  C       -1.3941612418    -0.4471760999     0.2376668364
|  8>  C       -1.5426807453    -1.9656747702     0.1504132471
|  9>  N       -1.3069859827    -2.5128884431    -1.1891881694
| 10>  C       -0.0596295033    -2.7354108631    -1.7298715108
| 11>  O        0.1905356409    -3.6358497478    -2.4890861386
| 12>  O        0.9097186943    -1.8551850194    -1.3416356182
| 13>  C        0.6148438031    -0.4535781916    -1.3124842995
| 14>  H        0.9206460199     1.7648335644     0.0418988093
| 15>  H        0.6756065282    -0.3806188507     0.8290693133
| 16>  H       -1.7319240743    -0.1101093124     1.2232638592
| 17>  H       -2.0362904825     0.0312353611    -0.5107529107
| 18>  H       -0.8850047563    -2.4481222312     0.8870872964
| 19>  H       -2.5677514758    -2.2360929509     0.4158104716
| 20>  H       -1.9482377990    -3.2361708392    -1.4791920304
| 21>  H       -0.0609382340    -0.1844303141    -2.1318552388
| 22>  H        1.5771325788     0.0384922312    -1.4885180798
| 23> *
| 24>
| 25>                          ****END OF INPUT****

CARTESIAN COORDINATES (ANGSTROEM)
---------------------------------
  O      0.013158    1.443239    0.055578
  C      0.038783    0.023456    0.025093
  C     -1.394161   -0.447176    0.237667
  C     -1.542681   -1.965675    0.150413
  N     -1.306986   -2.512888   -1.189188
  C     -0.059630   -2.735411   -1.729872
  O      0.190536   -3.635850   -2.489086
  O      0.909719   -1.855185   -1.341636
  C      0.614844   -0.453578   -1.312484
  H      0.920646    1.764834    0.041899
  H      0.675607   -0.380619    0.829069
  H     -1.731924   -0.110109    1.223264
  H     -2.036290    0.031235   -0.510753
  H     -0.885005   -2.448122    0.887087
  H     -2.567751   -2.236093    0.415810
  H     -1.948238   -3.236171   -1.479192
  H     -0.060938   -0.184430   -2.131855
  H      1.577133    0.038492   -1.488518

 Total Charge           Charge          ....    0
 Multiplicity           Mult            ....    1
 Number of Electrons    NEL             ....   70
 Basis Dimension        Dim             ....  333

ORBITAL ENERGIES
----------------

  NO   OCC          E(Eh)            E(eV)
   0   2.0000     -20.596610      -560.4622
   1   2.0000     -20.576474      -559.9143
   2   2.0000     -20.525019      -558.5142
   3   2.0000     -15.589948      -424.2240
   4   2.0000     -11.400447      -310.2219
   5   2.0000     -11.301839      -307.5387
   6   2.0000     -11.299702      -307.4805
   7   2.0000     -11.286538      -307.1223
   8   2.0000     -11.239419      -305.8401
   9   2.0000      -1.457482       -39.6601
  10   2.0000      -1.383864       -37.6568
  11   2.0000      -1.357940       -36.9514
  12   2.0000      -1.238844       -33.7107
  13   2.0000      -1.080517       -29.4024
  14   2.0000      -0.993150       -27.0250
  15   2.0000      -0.924520       -25.1575
  16   2.0000      -0.818489       -22.2722
  17   2.0000      -0.801861       -21.8197
  18   2.0000      -0.745683       -20.2911
  19   2.0000      -0.708583       -19.2815
  20   2.0000      -0.702277       -19.1099
  21   2.0000      -0.664491       -18.0817
  22   2.0000      -0.641435       -17.4543
  23   2.0000      -0.631989       -17.1973
  24   2.0000      -0.629418       -17.1273
  25   2.0000      -0.585022       -15.9193
  26   2.0000      -0.566050       -15.4030
  27   2.0000      -0.549466       -14.9517
  28   2.0000      -0.534964       -14.5571
  29   2.0000      -0.518171       -14.1001
  30   2.0000      -0.497014       -13.5244
  31   2.0000      -0.480566       -13.0769
  32   2.0000      -0.460369       -12.5273
  33   2.0000      -0.441834       -12.0229
  34   2.0000      -0.406985       -11.0746
  35   0.0000       0.123082         3.3492
  36   0.0000       0.126597         3.4449
  37   0.0000       0.150274         4.0892
  38   0.0000       0.167782         4.5656
  39   0.0000       0.180325         4.9069

MULLIKEN ATOMIC CHARGES
-----------------------
   0 O :   -0.458663
   1 C :    0.067357
   2 C :   -0.180866
   3 C :   -0.161897
   4 N :   -0.346358
   5 C :    0.324159
   6 O :   -0.320375
   7 O :   -0.264854
   8 C :   -0.096904
   9 H :    0.318029
  10 H :    0.087864
  11 H :    0.132068
  12 H :    0.118676
  13 H :    0.133832
  14 H :    0.142887
  15 H :    0.246154
  16 H :    0.130509
  17 H :    0.128382
Sum of atomic charges:   -0.0000000

LOEWDIN ATOMIC CHARGES
----------------------
   0 O :   -0.008641
   1 C :   -0.364600
   2 C :   -0.248310
   3 C :   -0.276272
   4 N :    0.078874
   5 C :   -0.588789
   6 O :    0.100639
   7 O :    0.235310
   8 C :   -0.274763
   9 H :    0.176599
  10 H :    0.137199
  11 H :    0.147738
  12 H :    0.146864
  13 H :    0.135499
  14 H :    0.140355
  15 H :    0.194892
  16 H :    0.135165
  17 H :    0.132240

  Mayer bond orders larger than 0.1
B(  0-O ,  1-C ) :   0.9868 B(  0-O ,  9-H ) :   0.8437 B(  1-C ,  2-C ) :   0.9234
B(  1-C ,  8-C ) :   0.9225 B(  1-C , 10-H ) :   0.9363 B(  2-C ,  3-C ) :   0.9089
B(  2-C , 11-H ) :   0.9257 B(  2-C , 12-H ) :   0.9223 B(  3-C ,  4-N ) :   0.8865
B(  3-C , 13-H ) :   0.9385 B(  3-C , 14-H ) :   0.9303 B(  4-N ,  5-C ) :   1.1252
B(  4-N , 15-H ) :   0.8683 B(  5-C ,  6-O ) :   2.0244 B(  5-C ,  7-O ) :   1.0640
B(  7-O ,  8-C ) :   0.8566 B(  8-C , 16-H ) :   0.9254 B(  8-C , 17-H ) :   0.9283

MP2 TOTAL ENERGY:     -475.519911221 Eh
FINAL SINGLE POINT ENERGY      -475.519911221171

DIPOLE MOMENT
-------------
                                X             Y             Z
Electronic contribution:      2.89011      -4.02460      -3.98072
Nuclear contribution   :     -3.42299       4.83890       5.04211
                        -----------------------------------------
Total Dipole Moment    :     -0.53288       0.81430       1.06138
                        -----------------------------------------
Magnitude (a.u.)       :      1.43999
Magnitude (Debye)      :      3.66017

                             ****ORCA TERMINATED NORMALLY****
TOTAL RUN TIME: 0 days 0 hours 18 minutes 40 seconds 275 msec
