                         Program Version 3.0.3 - RELEASE   -
|  1> ! RI-MP2 RIJK def2-TZVP def2-TZVP/C def2-TZVP/JK TIGHTSCF
|  2> % maxcore 2000
|  3> % mp2 density relaxed end
|  4> *xyz 0 1
|  5>  N        0.1349276729     1.3852397372     0.2138309241
|  6>  C       -0.0403209511     0.0106702631     0.0530152541
|  7>  C       -1.1791153557    -0.7719676870     0.0013405375
|  8>  C       -0.6733059253    -2.0907998643    -0.0733680777
|  9>  O       -1.4314107289    -3.2046501371    -0.1538905703
| 10>  N        0.6453589596    -2.1505392428    -0.0759273121
| 11>  N        1.0200730448    -0.8298955405    -0.0123219418
| 12>  H        0.8155314164     1.7810523549    -0.4236842617
| 13>  H       -0.7372955964     1.8888042185     0.1269169958
| 14>  H       -2.2063512059    -0.4499812210    -0.0095115065
| 15>  H       -0.8217055193    -3.9519985454    -0.2012883492
| 16>  H        1.9830180490    -0.6070250355     0.1669868678
| 17> *
| 18>
| 19>                          ****END OF INPUT****

CARTESIAN COORDINATES (ANGSTROEM)
---------------------------------
  N      0.134928    1.385240    0.213831
  C     -0.040321    0.010670    0.053015
  C     -1.179115   -0.771968    0.001341
  C     -0.673306   -2.090800   -0.073368
  O     -1.431411   -3.204650   -0.153891
  N      0.645359   -2.150539   -0.075927
  N      1.020073   -0.829896   -0.012322
  H      0.815531    1.781052   -0.423684
  H     -0.737296    1.888804    0.126917
  H     -2.206351   -0.449981   -0.009512
  H     -0.821706   -3.951999   -0.201288
  H      1.983018   -0.607025    0.166987

 Total Charge           Charge          ....    0
 Multiplicity           Mult            ....    1
 Number of Electrons    NEL             ....   52
 Basis Dimension        Dim             ....  247

ORBITAL ENERGIES
----------------

  NO   OCC          E(Eh)            E(eV)
   0   2.0000     -20.584887      -560.1433
   1   2.0000     -15.618617      -425.0042
   2   2.0000     -15.589582      -424.2141
   3   2.0000     -15.560480      -423.4222
   4   2.0000     -11.322916      -308.1122
   5   2.0000     -11.314437      -307.8815
   6   2.0000     -11.207497      -304.9715
   7   2.0000      -1.415276       -38.5116
   8   2.0000      -1.353040       -36.8181
   9   2.0000      -1.229061       -33.4444
  10   2.0000      -1.074417       -29.2364
  11   2.0000      -1.032550       -28.0971
  12   2.0000      -0.833772       -22.6881
  13   2.0000      -0.802112       -21.8266
  14   2.0000      -0.744156       -20.2495
  15   2.0000      -0.699025       -19.0214
  16   2.0000      -0.678676       -18.4677
  17   2.0000      -0.635072       -17.2812
  18   2.0000      -0.611354       -16.6358
  19   2.0000      -0.589318       -16.0362
  20   2.0000      -0.562078       -15.2949
  21   2.0000      -0.557223       -15.1628
  22   2.0000      -0.483328       -13.1520
  23   2.0000      -0.455497       -12.3947
  24   2.0000      -0.343579        -9.3493
  25   2.0000      -0.321078        -8.7370
  26   0.0000       0.117614         3.2004
  27   0.0000       0.154341         4.1998
  28   0.0000       0.162693         4.4271
  29   0.0000       0.168665         4.5896
  30   0.0000       0.190571         5.1857

MULLIKEN ATOMIC CHARGES
-----------------------
   0 N :   -0.533329
   1 C :    0.227755
   2 C :   -0.283254
   3 C :    0.200766
   4 O :   -0.435229
   5 N :   -0.254535
   6 N :   -0.168677
   7 H :    0.253372
   8 H :    0.258231
   9 H :    0.144359
  10 H :    0.336321
  11 H :    0.254220
Sum of atomic charges:    0.0000000

LOEWDIN ATOMIC CHARGES
----------------------
   0 N :   -0.086972
   1 C :   -0.345136
   2 C :   -0.188486
   3 C :   -0.435231
   4 O :    0.067926
   5 N :   -0.003184
   6 N :    0.121311
   7 H :    0.169755
   8 H :    0.175709
   9 H :    0.142176
  10 H :    0.197409
  11 H :    0.184724

  Mayer bond orders larger than 0.1
B(  0-N ,  1-C ) :   1.0269 B(  0-N ,  7-H ) :   0.8720 B(  0-N ,  8-H ) :   0.8798
B(  1-C ,  2-C ) :   1.4192 B(  1-C ,  5-N ) :   0.1013 B(  1-C ,  6-N ) :   1.2126
B(  2-C ,  3-C ) :   1.2994 B(  2-C ,  9-H ) :   0.9128 B(  3-C ,  4-O ) :   1.0981
B(  3-C ,  5-N ) :   1.5955 B(  4-O , 10-H ) :   0.8212 B(  5-N ,  6-N ) :   0.9864
B(  6-N , 11-H ) :   0.8678

MP2 TOTAL ENERGY:     -356.136855156 Eh
FINAL SINGLE POINT ENERGY      -356.136855156021

DIPOLE MOMENT
-------------
                                X             Y             Z
Electronic contribution:      0.34413      -2.78500      -0.03840
Nuclear contribution   :      0.10112       3.89232      -0.26036
                        -----------------------------------------
Total Dipole Moment    :      0.44525       1.10732      -0.29877
                        -----------------------------------------
Magnitude (a.u.)       :      1.23031
Magnitude (Debye)      :      3.12719

                             ****ORCA TERMINATED NORMALLY****
TOTAL RUN TIME: 0 days 0 hours 7 minutes 7 seconds 926 msec
