                         Program Version 3.0.3 - RELEASE   -
|  1> ! RI-MP2 RIJK def2-TZVP def2-TZVP/C def2-TZVP/JK TIGHTSCF
|  2> % maxcore 2000
|  3> % mp2 density relaxed end
|  4> *xyz 0 1
|  5>  O       -0.6448763455     1.3879071046    -0.4610045391
|  6>  C       -0.0391791279     0.1557752106    -0.0553637823
|  7>  C       -1.1817743148    -0.8567321396     0.1991470463
|  8>  C       -1.4196756460    -1.5508192152    -1.1651549899
|  9>  N       -0.1014351804    -1.4374386703    -1.7803534769
| 10>  C        0.5899828886    -1.9628740134    -2.8228751437
| 11>  N        1.7964811576    -1.4325044526    -2.9119561609
| 12>  C        1.8822827918    -0.5208528847    -1.8837821641
| 13>  C        0.7096414909    -0.5088883208    -1.1694792595
| 14>  H        0.0047788050     1.8732733817    -0.9796149955
| 15>  H        0.5716128886     0.3151820832     0.8420509860
| 16>  H       -0.8541905088    -1.5956229858     0.9358968064
| 17>  H       -2.0725284894    -0.3541595722     0.5793935333
| 18>  H       -1.7250936330    -2.5952750651    -1.0673548801
| 19>  H       -2.1674176811    -1.0226170359    -1.7655527772
| 20>  H        0.1872640799    -2.7253755374    -3.4724712958
| 21>  H        2.7815468145     0.0535371026    -1.7198092072
| 22> *
| 23>
| 24>                          ****END OF INPUT****

CARTESIAN COORDINATES (ANGSTROEM)
---------------------------------
  O     -0.644876    1.387907   -0.461005
  C     -0.039179    0.155775   -0.055364
  C     -1.181774   -0.856732    0.199147
  C     -1.419676   -1.550819   -1.165155
  N     -0.101435   -1.437439   -1.780353
  C      0.589983   -1.962874   -2.822875
  N      1.796481   -1.432504   -2.911956
  C      1.882283   -0.520853   -1.883782
  C      0.709641   -0.508888   -1.169479
  H      0.004779    1.873273   -0.979615
  H      0.571613    0.315182    0.842051
  H     -0.854191   -1.595623    0.935897
  H     -2.072528   -0.354160    0.579394
  H     -1.725094   -2.595275   -1.067355
  H     -2.167418   -1.022617   -1.765553
  H      0.187264   -2.725376   -3.472471
  H      2.781547    0.053537   -1.719809

 Total Charge           Charge          ....    0
 Multiplicity           Mult            ....    1
 Number of Electrons    NEL             ....   66
 Basis Dimension        Dim             ....  327

ORBITAL ENERGIES
----------------

  NO   OCC          E(Eh)            E(eV)
   0   2.0000     -20.564619      -559.5917
   1   2.0000     -15.614823      -424.9009
   2   2.0000     -15.542448      -422.9315
   3   2.0000     -11.304775      -307.6186
   4   2.0000     -11.291906      -307.2684
   5   2.0000     -11.288258      -307.1691
   6   2.0000     -11.255059      -306.2657
   7   2.0000     -11.246674      -306.0375
   8   2.0000     -11.244137      -305.9685
   9   2.0000      -1.374920       -37.4135
  10   2.0000      -1.345119       -36.6025
  11   2.0000      -1.194225       -32.4965
  12   2.0000      -1.059849       -28.8399
  13   2.0000      -1.018703       -27.7203
  14   2.0000      -0.939223       -25.5576
  15   2.0000      -0.839995       -22.8574
  16   2.0000      -0.808119       -21.9900
  17   2.0000      -0.768657       -20.9162
  18   2.0000      -0.723153       -19.6780
  19   2.0000      -0.703257       -19.1366
  20   2.0000      -0.656092       -17.8532
  21   2.0000      -0.621714       -16.9177
  22   2.0000      -0.591140       -16.0857
  23   2.0000      -0.574087       -15.6217
  24   2.0000      -0.573389       -15.6027
  25   2.0000      -0.564405       -15.3582
  26   2.0000      -0.550594       -14.9824
  27   2.0000      -0.517129       -14.0718
  28   2.0000      -0.504284       -13.7223
  29   2.0000      -0.462233       -12.5780
  30   2.0000      -0.427696       -11.6382
  31   2.0000      -0.382257       -10.4017
  32   2.0000      -0.317807        -8.6480
  33   0.0000       0.128542         3.4978
  34   0.0000       0.142116         3.8672
  35   0.0000       0.153598         4.1796
  36   0.0000       0.162317         4.4169
  37   0.0000       0.177136         4.8201

MULLIKEN ATOMIC CHARGES
-----------------------
   0 O :   -0.474882
   1 C :    0.160195
   2 C :   -0.215747
   3 C :   -0.197632
   4 N :   -0.021480
   5 C :    0.002194
   6 N :   -0.281421
   7 C :   -0.142990
   8 C :   -0.098493
   9 H :    0.320806
  10 H :    0.113078
  11 H :    0.126640
  12 H :    0.144630
  13 H :    0.142943
  14 H :    0.139616
  15 H :    0.147936
  16 H :    0.134607
Sum of atomic charges:    0.0000000

LOEWDIN ATOMIC CHARGES
----------------------
   0 O :   -0.026127
   1 C :   -0.303312
   2 C :   -0.211920
   3 C :   -0.214208
   4 N :    0.278836
   5 C :   -0.299935
   6 N :    0.083416
   7 C :   -0.241437
   8 C :   -0.210625
   9 H :    0.176254
  10 H :    0.140121
  11 H :    0.143983
  12 H :    0.144502
  13 H :    0.136374
  14 H :    0.139807
  15 H :    0.131545
  16 H :    0.132725

  Mayer bond orders larger than 0.1
B(  0-O ,  1-C ) :   0.9183 B(  0-O ,  9-H ) :   0.8407 B(  1-C ,  2-C ) :   0.8878
B(  1-C ,  8-C ) :   0.9157 B(  1-C , 10-H ) :   0.9592 B(  2-C ,  3-C ) :   0.9540
B(  2-C , 11-H ) :   0.9203 B(  2-C , 12-H ) :   0.9313 B(  3-C ,  4-N ) :   0.8694
B(  3-C , 13-H ) :   0.9251 B(  3-C , 14-H ) :   0.9139 B(  4-N ,  5-C ) :   1.1820
B(  4-N ,  8-C ) :   1.1014 B(  5-C ,  6-N ) :   1.5235 B(  5-C , 15-H ) :   0.9218
B(  6-N ,  7-C ) :   1.3273 B(  7-C ,  8-C ) :   1.4639 B(  7-C , 16-H ) :   0.9449

MP2 TOTAL ENERGY:     -417.348464742 Eh
FINAL SINGLE POINT ENERGY      -417.348464742449

DIPOLE MOMENT
-------------
                                X             Y             Z
Electronic contribution:      3.18664       0.22491      -2.85987
Nuclear contribution   :     -4.08046      -0.38923       3.59796
                        -----------------------------------------
Total Dipole Moment    :     -0.89382      -0.16432       0.73809
                        -----------------------------------------
Magnitude (a.u.)       :      1.17077
Magnitude (Debye)      :      2.97586

                             ****ORCA TERMINATED NORMALLY****
TOTAL RUN TIME: 0 days 0 hours 17 minutes 34 seconds 467 msec
