                         Program Version 3.0.3 - RELEASE   -
|  1> ! RI-MP2 RIJK def2-TZVP def2-TZVP/C def2-TZVP/JK TIGHTSCF
|  2> % maxcore 2000
|  3> % mp2 density relaxed end
|  4> *xyz 0 1
|  5>  C       -0.0432005831     1.5356082577    -0.0159789439
|  6>  C        0.0352827136     0.0280457096    -0.0178745607
|  7>  C       -0.8069902867    -0.7987584129     0.9353562536
|  8>  C        0.6892761399    -0.7950850062     1.1176400286
|  9>  C        1.5316880346    -1.8425700899     0.4305935600
| 10>  O        1.1723238414    -3.2789697626     0.3558651672
| 11>  C        1.2463909042    -3.2541485387    -1.1027810151
| 12>  C        1.1538628620    -1.7494031481    -1.0171373873
| 13>  C        0.3077291771    -0.7540580821    -1.2776238408
| 14>  H        0.8927318913     1.9840454697    -0.3666482087
| 15>  H       -0.8470550222     1.8883846562    -0.6730351470
| 16>  H       -0.2472338740     1.9217724573     0.9874569145
| 17>  H       -1.3780346661    -0.2613771963     1.6863803484
| 18>  H       -1.2787929777    -1.7036468252     0.5680819726
| 19>  H        1.0901241820    -0.2836295918     1.9847291266
| 20>  H        2.5934160091    -1.7627307041     0.6965765332
| 21>  H        2.2029748720    -3.6619558323    -1.4560371664
| 22>  H        0.4170306250    -3.7895206105    -1.5757959674
| 23>  H       -0.2900001122    -0.6248625597    -2.1738762572
| 24> *
| 25>
| 26>                          ****END OF INPUT****

CARTESIAN COORDINATES (ANGSTROEM)
---------------------------------
  C     -0.043201    1.535608   -0.015979
  C      0.035283    0.028046   -0.017875
  C     -0.806990   -0.798758    0.935356
  C      0.689276   -0.795085    1.117640
  C      1.531688   -1.842570    0.430594
  O      1.172324   -3.278970    0.355865
  C      1.246391   -3.254149   -1.102781
  C      1.153863   -1.749403   -1.017137
  C      0.307729   -0.754058   -1.277624
  H      0.892732    1.984045   -0.366648
  H     -0.847055    1.888385   -0.673035
  H     -0.247234    1.921772    0.987457
  H     -1.378035   -0.261377    1.686380
  H     -1.278793   -1.703647    0.568082
  H      1.090124   -0.283630    1.984729
  H      2.593416   -1.762731    0.696577
  H      2.202975   -3.661956   -1.456037
  H      0.417031   -3.789521   -1.575796
  H     -0.290000   -0.624863   -2.173876

 Total Charge           Charge          ....    0
 Multiplicity           Mult            ....    1
 Number of Electrons    NEL             ....   66
 Basis Dimension        Dim             ....  339

ORBITAL ENERGIES
----------------

  NO   OCC          E(Eh)            E(eV)
   0   2.0000     -20.551515      -559.2352
   1   2.0000     -11.288588      -307.1781
   2   2.0000     -11.280520      -306.9586
   3   2.0000     -11.249297      -306.1089
   4   2.0000     -11.235845      -305.7429
   5   2.0000     -11.233604      -305.6819
   6   2.0000     -11.232112      -305.6413
   7   2.0000     -11.230289      -305.5917
   8   2.0000     -11.223124      -305.3967
   9   2.0000      -1.370797       -37.3013
  10   2.0000      -1.183449       -32.2033
  11   2.0000      -1.043003       -28.3816
  12   2.0000      -0.987057       -26.8592
  13   2.0000      -0.936913       -25.4947
  14   2.0000      -0.913353       -24.8536
  15   2.0000      -0.809065       -22.0158
  16   2.0000      -0.751916       -20.4607
  17   2.0000      -0.728784       -19.8312
  18   2.0000      -0.682624       -18.5751
  19   2.0000      -0.647595       -17.6219
  20   2.0000      -0.617282       -16.7971
  21   2.0000      -0.612008       -16.6536
  22   2.0000      -0.579406       -15.7664
  23   2.0000      -0.566410       -15.4128
  24   2.0000      -0.551168       -14.9980
  25   2.0000      -0.542754       -14.7691
  26   2.0000      -0.518793       -14.1171
  27   2.0000      -0.485226       -13.2037
  28   2.0000      -0.457253       -12.4425
  29   2.0000      -0.434307       -11.8181
  30   2.0000      -0.427815       -11.6414
  31   2.0000      -0.396584       -10.7916
  32   2.0000      -0.335773        -9.1369
  33   0.0000       0.128087         3.4854
  34   0.0000       0.141093         3.8393
  35   0.0000       0.165529         4.5043
  36   0.0000       0.170997         4.6531
  37   0.0000       0.180051         4.8994

MULLIKEN ATOMIC CHARGES
-----------------------
   0 C :   -0.409462
   1 C :    0.122547
   2 C :   -0.299006
   3 C :   -0.091429
   4 C :    0.025769
   5 O :   -0.309283
   6 C :   -0.014651
   7 C :   -0.056815
   8 C :   -0.214728
   9 H :    0.135634
  10 H :    0.133467
  11 H :    0.129500
  12 H :    0.133182
  13 H :    0.142852
  14 H :    0.133173
  15 H :    0.091124
  16 H :    0.103437
  17 H :    0.112277
  18 H :    0.132412
Sum of atomic charges:   -0.0000000

LOEWDIN ATOMIC CHARGES
----------------------
   0 C :   -0.268724
   1 C :   -0.213105
   2 C :   -0.169777
   3 C :   -0.149648
   4 C :   -0.203865
   5 O :    0.126307
   6 C :   -0.232941
   7 C :   -0.145849
   8 C :   -0.086455
   9 H :    0.128339
  10 H :    0.128982
  11 H :    0.129138
  12 H :    0.138186
  13 H :    0.141812
  14 H :    0.146752
  15 H :    0.141877
  16 H :    0.123069
  17 H :    0.123096
  18 H :    0.142807

  Mayer bond orders larger than 0.1
B(  0-C ,  1-C ) :   0.8929 B(  0-C ,  9-H ) :   0.9398 B(  0-C , 10-H ) :   0.9358
B(  0-C , 11-H ) :   0.9329 B(  1-C ,  2-C ) :   0.8855 B(  1-C ,  3-C ) :   0.8315
B(  1-C ,  8-C ) :   0.9218 B(  2-C ,  3-C ) :   0.8721 B(  2-C , 12-H ) :   0.9257
B(  2-C , 13-H ) :   0.9095 B(  3-C ,  4-C ) :   0.9321 B(  3-C , 14-H ) :   0.9276
B(  4-C ,  5-O ) :   0.9660 B(  4-C ,  7-C ) :   0.9968 B(  4-C , 15-H ) :   0.9235
B(  5-O ,  6-C ) :   0.9425 B(  6-C ,  7-C ) :   0.9911 B(  6-C , 16-H ) :   0.9002
B(  6-C , 17-H ) :   0.9146 B(  7-C ,  8-C ) :   1.7389 B(  8-C , 18-H ) :   0.9209

MP2 TOTAL ENERGY:     -385.157989671 Eh
FINAL SINGLE POINT ENERGY      -385.157989670986

DIPOLE MOMENT
-------------
                                X             Y             Z
Electronic contribution:      2.37125      -5.04819      -0.46690
Nuclear contribution   :     -2.51051       5.61922       0.16569
                        -----------------------------------------
Total Dipole Moment    :     -0.13925       0.57104      -0.30121
                        -----------------------------------------
Magnitude (a.u.)       :      0.66046
Magnitude (Debye)      :      1.67874

                             ****ORCA TERMINATED NORMALLY****
TOTAL RUN TIME: 0 days 0 hours 18 minutes 52 seconds 466 msec
