                         Program Version 3.0.3 - RELEASE   -
|  1> ! RI-MP2 RIJK def2-TZVP def2-TZVP/C def2-TZVP/JK TIGHTSCF
|  2> % maxcore 2000
|  3> % mp2 density relaxed end
|  4> *xyz 0 1
|  5>  N       -0.0082255528     1.2007047892    -0.3070340659
|  6>  C        0.0144928233    -0.0074853205    -0.0004261480
|  7>  O        1.0132362319    -0.8183601725     0.4797935086
|  8>  C        0.1443890637    -1.9835166783     0.5268959898
|  9>  C       -1.0538842908    -1.1306862682    -0.0194155832
| 10>  C       -2.1477455904    -0.9349126656     0.9218801143
| 11>  C       -3.0318753914    -0.7837369702     1.7195504407
| 12>  C       -1.5135222746    -1.4997857771    -1.3511020971
| 13>  C       -1.8677283778    -1.8205969229    -2.4522077604
| 14>  H        0.8982809085     1.6488921137    -0.1654604878
| 15>  H        0.4913422386    -2.7688387729    -0.1457405115
| 16>  H        0.0189578014    -2.3481561401     1.5471170245
| 17>  H       -3.8228199953    -0.6377681240     2.4133656131
| 18>  H       -2.1928150042    -2.0896529907    -3.4269930070
| 19> *
| 20>
| 21>                          ****END OF INPUT****

CARTESIAN COORDINATES (ANGSTROEM)
---------------------------------
  N     -0.008226    1.200705   -0.307034
  C      0.014493   -0.007485   -0.000426
  O      1.013236   -0.818360    0.479794
  C      0.144389   -1.983517    0.526896
  C     -1.053884   -1.130686   -0.019416
  C     -2.147746   -0.934913    0.921880
  C     -3.031875   -0.783737    1.719550
  C     -1.513522   -1.499786   -1.351102
  C     -1.867728   -1.820597   -2.452208
  H      0.898281    1.648892   -0.165460
  H      0.491342   -2.768839   -0.145741
  H      0.018958   -2.348156    1.547117
  H     -3.822820   -0.637768    2.413366
  H     -2.192815   -2.089653   -3.426993

 Total Charge           Charge          ....    0
 Multiplicity           Mult            ....    1
 Number of Electrons    NEL             ....   62
 Basis Dimension        Dim             ....  309

ORBITAL ENERGIES
----------------

  NO   OCC          E(Eh)            E(eV)
   0   2.0000     -20.610290      -560.8345
   1   2.0000     -15.551509      -423.1781
   2   2.0000     -11.360196      -309.1267
   3   2.0000     -11.323906      -308.1391
   4   2.0000     -11.323272      -308.1219
   5   2.0000     -11.254944      -306.2626
   6   2.0000     -11.254933      -306.2623
   7   2.0000     -11.245101      -305.9948
   8   2.0000     -11.245100      -305.9947
   9   2.0000      -1.455414       -39.6038
  10   2.0000      -1.214844       -33.0576
  11   2.0000      -1.135196       -30.8902
  12   2.0000      -1.039235       -28.2790
  13   2.0000      -1.005813       -27.3696
  14   2.0000      -0.926762       -25.2185
  15   2.0000      -0.817206       -22.2373
  16   2.0000      -0.780126       -21.2283
  17   2.0000      -0.724306       -19.7094
  18   2.0000      -0.715593       -19.4723
  19   2.0000      -0.709047       -19.2941
  20   2.0000      -0.689955       -18.7746
  21   2.0000      -0.637793       -17.3552
  22   2.0000      -0.570818       -15.5327
  23   2.0000      -0.553567       -15.0633
  24   2.0000      -0.551909       -15.0182
  25   2.0000      -0.463421       -12.6103
  26   2.0000      -0.425937       -11.5903
  27   2.0000      -0.418206       -11.3800
  28   2.0000      -0.413083       -11.2406
  29   2.0000      -0.400637       -10.9019
  30   2.0000      -0.395231       -10.7548
  31   0.0000       0.135374         3.6837
  32   0.0000       0.143967         3.9175
  33   0.0000       0.150479         4.0947
  34   0.0000       0.150521         4.0959
  35   0.0000       0.158979         4.3260

MULLIKEN ATOMIC CHARGES
-----------------------
   0 N :   -0.352026
   1 C :    0.109027
   2 O :   -0.253500
   3 C :   -0.031659
   4 C :   -0.059975
   5 C :   -0.046035
   6 C :   -0.112165
   7 C :   -0.045990
   8 C :   -0.112210
   9 H :    0.236924
  10 H :    0.133449
  11 H :    0.133453
  12 H :    0.200354
  13 H :    0.200353
Sum of atomic charges:    0.0000000

LOEWDIN ATOMIC CHARGES
----------------------
   0 N :   -0.021201
   1 C :   -0.342732
   2 O :    0.226349
   3 C :   -0.156201
   4 C :   -0.201438
   5 C :   -0.044063
   6 C :   -0.060867
   7 C :   -0.044060
   8 C :   -0.060866
   9 H :    0.179721
  10 H :    0.131557
  11 H :    0.131557
  12 H :    0.131123
  13 H :    0.131122

  Mayer bond orders larger than 0.1
B(  0-N ,  1-C ) :   2.1050 B(  0-N ,  9-H ) :   0.8406 B(  1-C ,  2-O ) :   1.0734
B(  1-C ,  4-C ) :   0.8307 B(  2-O ,  3-C ) :   0.8957 B(  3-C ,  4-C ) :   0.8818
B(  3-C , 10-H ) :   0.9136 B(  3-C , 11-H ) :   0.9136 B(  4-C ,  5-C ) :   1.1927
B(  4-C ,  6-C ) :  -0.1180 B(  4-C ,  7-C ) :   1.1927 B(  4-C ,  8-C ) :  -0.1180
B(  5-C ,  6-C ) :   2.5328 B(  6-C , 12-H ) :   0.8850 B(  7-C ,  8-C ) :   2.5328
B(  8-C , 13-H ) :   0.8850

MP2 TOTAL ENERGY:     -398.751879653 Eh
FINAL SINGLE POINT ENERGY      -398.751879652697

DIPOLE MOMENT
-------------
                                X             Y             Z
Electronic contribution:      0.29136       1.00419      -0.16816
Nuclear contribution   :     -0.26845      -1.84182       0.38264
                        -----------------------------------------
Total Dipole Moment    :      0.02291      -0.83763       0.21449
                        -----------------------------------------
Magnitude (a.u.)       :      0.86496
Magnitude (Debye)      :      2.19854

                             ****ORCA TERMINATED NORMALLY****
TOTAL RUN TIME: 0 days 0 hours 14 minutes 21 seconds 276 msec
