                         Program Version 3.0.3 - RELEASE   -
|  1> ! RI-MP2 RIJK def2-TZVP def2-TZVP/C def2-TZVP/JK TIGHTSCF
|  2> % maxcore 2000
|  3> % mp2 density relaxed end
|  4> *xyz 0 1
|  5>  C        0.0844564010     1.5799342952     0.0028764990
|  6>  C       -0.0048355483     0.0435260057     0.0279683360
|  7>  C        0.7233071167    -0.5114715857     1.1731360564
|  8>  N        1.3181935849    -0.9526150129     2.0595660661
|  9>  C       -1.4726458513    -0.4842757439     0.0455310484
| 10>  N       -2.2023254228     0.0227872571     1.2006588023
| 11>  C       -2.1196151175    -0.1743729742    -1.2490842698
| 12>  N       -2.6520163416     0.0984697323    -2.2384821585
| 13>  H        1.1269303431     1.8963133629    -0.0703958163
| 14>  H       -0.4573096454     1.9709456523    -0.8627435795
| 15>  H       -0.3333239152     2.0094802973     0.9163659209
| 16>  H        0.4676392723    -0.3520919676    -0.8790619366
| 17>  H       -1.4272899762    -1.5744519973     0.1345009026
| 18>  H       -2.4861058048     0.9862845213     1.0565879923
| 19>  H       -3.0482009450    -0.5162521426     1.3505753665
| 20> *
| 21>
| 22>                          ****END OF INPUT****

CARTESIAN COORDINATES (ANGSTROEM)
---------------------------------
  C      0.084456    1.579934    0.002876
  C     -0.004836    0.043526    0.027968
  C      0.723307   -0.511472    1.173136
  N      1.318194   -0.952615    2.059566
  C     -1.472646   -0.484276    0.045531
  N     -2.202325    0.022787    1.200659
  C     -2.119615   -0.174373   -1.249084
  N     -2.652016    0.098470   -2.238482
  H      1.126930    1.896313   -0.070396
  H     -0.457310    1.970946   -0.862744
  H     -0.333324    2.009480    0.916366
  H      0.467639   -0.352092   -0.879062
  H     -1.427290   -1.574452    0.134501
  H     -2.486106    0.986285    1.056588
  H     -3.048201   -0.516252    1.350575

 Total Charge           Charge          ....    0
 Multiplicity           Mult            ....    1
 Number of Electrons    NEL             ....   58
 Basis Dimension        Dim             ....  290

ORBITAL ENERGIES
----------------

  NO   OCC          E(Eh)            E(eV)
   0   2.0000     -15.594567      -424.3497
   1   2.0000     -15.590780      -424.2467
   2   2.0000     -15.579286      -423.9339
   3   2.0000     -11.346192      -308.7456
   4   2.0000     -11.314202      -307.8751
   5   2.0000     -11.292269      -307.2783
   6   2.0000     -11.281338      -306.9808
   7   2.0000     -11.259384      -306.3834
   8   2.0000      -1.263610       -34.3846
   9   2.0000      -1.230986       -33.4968
  10   2.0000      -1.220541       -33.2126
  11   2.0000      -1.110651       -30.2224
  12   2.0000      -0.989401       -26.9230
  13   2.0000      -0.909180       -24.7400
  14   2.0000      -0.759083       -20.6557
  15   2.0000      -0.732954       -19.9447
  16   2.0000      -0.703198       -19.1350
  17   2.0000      -0.645491       -17.5647
  18   2.0000      -0.627387       -17.0721
  19   2.0000      -0.595497       -16.2043
  20   2.0000      -0.582005       -15.8372
  21   2.0000      -0.561257       -15.2726
  22   2.0000      -0.555681       -15.1209
  23   2.0000      -0.552057       -15.0222
  24   2.0000      -0.499896       -13.6029
  25   2.0000      -0.487976       -13.2785
  26   2.0000      -0.467971       -12.7341
  27   2.0000      -0.462797       -12.5933
  28   2.0000      -0.448607       -12.2072
  29   0.0000       0.099495         2.7074
  30   0.0000       0.128835         3.5058
  31   0.0000       0.137029         3.7287
  32   0.0000       0.144333         3.9275
  33   0.0000       0.171920         4.6782

MULLIKEN ATOMIC CHARGES
-----------------------
   0 C :   -0.467231
   1 C :    0.077163
   2 C :   -0.179686
   3 N :   -0.043102
   4 C :    0.127888
   5 N :   -0.534496
   6 C :   -0.226881
   7 N :   -0.043763
   8 H :    0.161273
   9 H :    0.166069
  10 H :    0.154368
  11 H :    0.149930
  12 H :    0.162476
  13 H :    0.247890
  14 H :    0.248101
Sum of atomic charges:    0.0000000

LOEWDIN ATOMIC CHARGES
----------------------
   0 C :   -0.262143
   1 C :   -0.235009
   2 C :   -0.166480
   3 N :    0.071825
   4 C :   -0.292402
   5 N :   -0.103178
   6 C :   -0.180748
   7 N :    0.069828
   8 H :    0.136648
   9 H :    0.135711
  10 H :    0.132969
  11 H :    0.183722
  12 H :    0.178790
  13 H :    0.164136
  14 H :    0.166332

  Mayer bond orders larger than 0.1
B(  0-C ,  1-C ) :   0.8728 B(  0-C ,  8-H ) :   0.9300 B(  0-C ,  9-H ) :   0.9282
B(  0-C , 10-H ) :   0.9321 B(  1-C ,  2-C ) :   0.9187 B(  1-C ,  4-C ) :   0.8548
B(  1-C , 11-H ) :   0.9164 B(  2-C ,  3-N ) :   2.8784 B(  4-C ,  5-N ) :   0.9761
B(  4-C ,  6-C ) :   0.9172 B(  4-C , 12-H ) :   0.9133 B(  5-N , 13-H ) :   0.8858
B(  5-N , 14-H ) :   0.8894 B(  6-C ,  7-N ) :   2.8596

MP2 TOTAL ENERGY:     -358.250135499 Eh
FINAL SINGLE POINT ENERGY      -358.250135499450

DIPOLE MOMENT
-------------
                                X             Y             Z
Electronic contribution:     -0.08254      -3.81856      -0.76212
Nuclear contribution   :     -0.41272       4.24760       0.58592
                        -----------------------------------------
Total Dipole Moment    :     -0.49526       0.42904      -0.17620
                        -----------------------------------------
Magnitude (a.u.)       :      0.67853
Magnitude (Debye)      :      1.72468

                             ****ORCA TERMINATED NORMALLY****
TOTAL RUN TIME: 0 days 0 hours 10 minutes 53 seconds 742 msec
