                         Program Version 3.0.3 - RELEASE   -
|  1> ! RI-MP2 RIJK def2-TZVP def2-TZVP/C def2-TZVP/JK TIGHTSCF
|  2> % maxcore 2000
|  3> % mp2 density relaxed end
|  4> *xyz 0 1
|  5>  C        0.1093638787     1.6233527724    -0.1375285019
|  6>  C        0.0638597276     0.1101305346    -0.0087951879
|  7>  O        1.1249273102    -0.5203008179    -0.8226030331
|  8>  C        1.5953878816    -1.2382621144     0.3173649788
|  9>  C        2.1377555629    -0.3119561665     1.3567161687
| 10>  C        0.6433272135    -0.5462443749     1.2595170157
| 11>  C       -1.2590623597    -0.5295199718    -0.3770046351
| 12>  C       -2.5867897519    -0.0017042382     0.1141879026
| 13>  C       -2.2376863904     0.0712358114    -1.3514516545
| 14>  H        1.0552443349     2.0155671249     0.2401258818
| 15>  H        0.0222008964     1.9156595232    -1.1879810732
| 16>  H       -0.7016710492     2.0977671766     0.4232191571
| 17>  H        1.8772740772    -2.2766371017     0.1855984248
| 18>  H        2.6039551455    -0.7908622024     2.2129167416
| 19>  H        2.5895980991     0.6293577172     1.0585619847
| 20>  H        0.0488658673    -0.9332921542     2.0763563514
| 21>  H       -1.1765882458    -1.6121174618    -0.4068029822
| 22>  H       -3.3296268295    -0.7226343555     0.4374987182
| 23>  H       -2.6032790925     0.9261051848     0.6756198141
| 24>  H       -2.0219687118     1.0484121795    -1.7673571321
| 25>  H       -2.7412905442    -0.5989085053    -2.0390685196
| 26> *
| 27>
| 28>                          ****END OF INPUT****

CARTESIAN COORDINATES (ANGSTROEM)
---------------------------------
  C      0.109364    1.623353   -0.137529
  C      0.063860    0.110131   -0.008795
  O      1.124927   -0.520301   -0.822603
  C      1.595388   -1.238262    0.317365
  C      2.137756   -0.311956    1.356716
  C      0.643327   -0.546244    1.259517
  C     -1.259062   -0.529520   -0.377005
  C     -2.586790   -0.001704    0.114188
  C     -2.237686    0.071236   -1.351452
  H      1.055244    2.015567    0.240126
  H      0.022201    1.915660   -1.187981
  H     -0.701671    2.097767    0.423219
  H      1.877274   -2.276637    0.185598
  H      2.603955   -0.790862    2.212917
  H      2.589598    0.629358    1.058562
  H      0.048866   -0.933292    2.076356
  H     -1.176588   -1.612117   -0.406803
  H     -3.329627   -0.722634    0.437499
  H     -2.603279    0.926105    0.675620
  H     -2.021969    1.048412   -1.767357
  H     -2.741291   -0.598909   -2.039069

 Total Charge           Charge          ....    0
 Multiplicity           Mult            ....    1
 Number of Electrons    NEL             ....   68
 Basis Dimension        Dim             ....  351

ORBITAL ENERGIES
----------------

  NO   OCC          E(Eh)            E(eV)
   0   2.0000     -20.544783      -559.0520
   1   2.0000     -11.295171      -307.3572
   2   2.0000     -11.283109      -307.0290
   3   2.0000     -11.233509      -305.6793
   4   2.0000     -11.230777      -305.6050
   5   2.0000     -11.230174      -305.5886
   6   2.0000     -11.226820      -305.4973
   7   2.0000     -11.224774      -305.4416
   8   2.0000     -11.214983      -305.1752
   9   2.0000      -1.384056       -37.6621
  10   2.0000      -1.144586       -31.1458
  11   2.0000      -1.111862       -30.2553
  12   2.0000      -1.015454       -27.6319
  13   2.0000      -0.905257       -24.6333
  14   2.0000      -0.825918       -22.4744
  15   2.0000      -0.814763       -22.1708
  16   2.0000      -0.803340       -21.8600
  17   2.0000      -0.719580       -19.5808
  18   2.0000      -0.701065       -19.0770
  19   2.0000      -0.659172       -17.9370
  20   2.0000      -0.650903       -17.7120
  21   2.0000      -0.628213       -17.0946
  22   2.0000      -0.587308       -15.9815
  23   2.0000      -0.568345       -15.4655
  24   2.0000      -0.553166       -15.0524
  25   2.0000      -0.529418       -14.4062
  26   2.0000      -0.512815       -13.9544
  27   2.0000      -0.501737       -13.6530
  28   2.0000      -0.486669       -13.2429
  29   2.0000      -0.475581       -12.9412
  30   2.0000      -0.426962       -11.6182
  31   2.0000      -0.410559       -11.1719
  32   2.0000      -0.397375       -10.8131
  33   2.0000      -0.374506       -10.1908
  34   0.0000       0.147514         4.0141
  35   0.0000       0.153751         4.1838
  36   0.0000       0.167549         4.5592
  37   0.0000       0.170438         4.6378
  38   0.0000       0.188981         5.1424

MULLIKEN ATOMIC CHARGES
-----------------------
   0 C :   -0.424816
   1 C :    0.331059
   2 O :   -0.338285
   3 C :    0.030125
   4 C :   -0.241083
   5 C :   -0.230511
   6 C :   -0.175676
   7 C :   -0.276501
   8 C :   -0.254694
   9 H :    0.132506
  10 H :    0.141011
  11 H :    0.130754
  12 H :    0.129373
  13 H :    0.126177
  14 H :    0.132806
  15 H :    0.134390
  16 H :    0.127999
  17 H :    0.130963
  18 H :    0.130055
  19 H :    0.132398
  20 H :    0.131952
Sum of atomic charges:   -0.0000000

LOEWDIN ATOMIC CHARGES
----------------------
   0 C :   -0.259982
   1 C :   -0.286563
   2 O :    0.183040
   3 C :   -0.254219
   4 C :   -0.210104
   5 C :   -0.160260
   6 C :   -0.187357
   7 C :   -0.224773
   8 C :   -0.218950
   9 H :    0.128384
  10 H :    0.132730
  11 H :    0.129546
  12 H :    0.128806
  13 H :    0.141857
  14 H :    0.131688
  15 H :    0.139551
  16 H :    0.158771
  17 H :    0.130855
  18 H :    0.130969
  19 H :    0.133768
  20 H :    0.132243

  Mayer bond orders larger than 0.1
B(  0-C ,  1-C ) :   0.8854 B(  0-C ,  9-H ) :   0.9328 B(  0-C , 10-H ) :   0.9355
B(  0-C , 11-H ) :   0.9397 B(  1-C ,  2-O ) :   0.8442 B(  1-C ,  5-C ) :   0.8565
B(  1-C ,  6-C ) :   0.9049 B(  2-O ,  3-C ) :   0.9799 B(  3-C ,  4-C ) :   0.8748
B(  3-C ,  5-C ) :   0.9323 B(  3-C , 12-H ) :   0.9258 B(  4-C ,  5-C ) :   0.8819
B(  4-C , 13-H ) :   0.9224 B(  4-C , 14-H ) :   0.9080 B(  5-C , 15-H ) :   0.9190
B(  6-C ,  7-C ) :   0.8611 B(  6-C ,  8-C ) :   0.8921 B(  6-C , 16-H ) :   0.9288
B(  7-C ,  8-C ) :   0.9007 B(  7-C , 17-H ) :   0.9271 B(  7-C , 18-H ) :   0.9279
B(  8-C , 19-H ) :   0.9277 B(  8-C , 20-H ) :   0.9312

MP2 TOTAL ENERGY:     -386.354098818 Eh
FINAL SINGLE POINT ENERGY      -386.354098817900

DIPOLE MOMENT
-------------
                                X             Y             Z
Electronic contribution:      3.36131      -3.13443      -0.91394
Nuclear contribution   :     -3.65089       3.08326       1.51962
                        -----------------------------------------
Total Dipole Moment    :     -0.28958      -0.05117       0.60568
                        -----------------------------------------
Magnitude (a.u.)       :      0.67329
Magnitude (Debye)      :      1.71137

                             ****ORCA TERMINATED NORMALLY****
TOTAL RUN TIME: 0 days 0 hours 19 minutes 47 seconds 864 msec
