                         Program Version 3.0.3 - RELEASE   -
|  1> ! RI-MP2 RIJK def2-TZVP def2-TZVP/C def2-TZVP/JK TIGHTSCF
|  2> % maxcore 2000
|  3> % mp2 density relaxed end
|  4> *xyz 0 1
|  5>  C       -0.0618588468     1.5713993408     0.0121612477
|  6>  C       -0.0038166418     0.0404663349    -0.0026994009
|  7>  O       -1.3395117817    -0.4953495023     0.0018192763
|  8>  C        0.6436452383    -0.4798575561    -1.2926676371
|  9>  C        0.9130309480    -1.9874662987    -1.2256384344
| 10>  C        1.7596731505    -2.3673426845    -0.0212184578
| 11>  O        2.5382372742    -3.2992607703    -0.0287930152
| 12>  C        1.5431306505    -1.5506693892     1.1984414619
| 13>  C        0.7462329131    -0.4770299802     1.2117291220
| 14>  H        0.9415119637     2.0090653533    -0.0031945382
| 15>  H       -0.6169580948     1.9329640497    -0.8580022196
| 16>  H       -0.5704214422     1.9302195102     0.9146940470
| 17>  H       -1.7459893320    -0.2855962292     0.8497997426
| 18>  H       -0.0189933867    -0.2452810415    -2.1314048734
| 19>  H        1.5826801674     0.0607485380    -1.4551530536
| 20>  H       -0.0444471617    -2.5136863461    -1.1219348774
| 21>  H        1.4008316607    -2.3635869918    -2.1278639224
| 22>  H        2.0662843879    -1.8885463675     2.0882295758
| 23>  H        0.5949883533     0.0730629403     2.1405818368
| 24> *
| 25>
| 26>                          ****END OF INPUT****

CARTESIAN COORDINATES (ANGSTROEM)
---------------------------------
  C     -0.061859    1.571399    0.012161
  C     -0.003817    0.040466   -0.002699
  O     -1.339512   -0.495350    0.001819
  C      0.643645   -0.479858   -1.292668
  C      0.913031   -1.987466   -1.225638
  C      1.759673   -2.367343   -0.021218
  O      2.538237   -3.299261   -0.028793
  C      1.543131   -1.550669    1.198441
  C      0.746233   -0.477030    1.211729
  H      0.941512    2.009065   -0.003195
  H     -0.616958    1.932964   -0.858002
  H     -0.570421    1.930220    0.914694
  H     -1.745989   -0.285596    0.849800
  H     -0.018993   -0.245281   -2.131405
  H      1.582680    0.060749   -1.455153
  H     -0.044447   -2.513686   -1.121935
  H      1.400832   -2.363587   -2.127864
  H      2.066284   -1.888546    2.088230
  H      0.594988    0.073063    2.140582

 Total Charge           Charge          ....    0
 Multiplicity           Mult            ....    1
 Number of Electrons    NEL             ....   68
 Basis Dimension        Dim             ....  339

ORBITAL ENERGIES
----------------

  NO   OCC          E(Eh)            E(eV)
   0   2.0000     -20.569916      -559.7359
   1   2.0000     -20.539797      -558.9163
   2   2.0000     -11.326727      -308.2159
   3   2.0000     -11.310298      -307.7689
   4   2.0000     -11.263970      -306.5082
   5   2.0000     -11.245929      -306.0173
   6   2.0000     -11.238080      -305.8037
   7   2.0000     -11.234190      -305.6979
   8   2.0000     -11.232881      -305.6622
   9   2.0000      -1.381259       -37.5860
  10   2.0000      -1.376591       -37.4590
  11   2.0000      -1.130359       -30.7586
  12   2.0000      -1.039365       -28.2826
  13   2.0000      -1.026256       -27.9258
  14   2.0000      -0.918156       -24.9843
  15   2.0000      -0.857783       -23.3415
  16   2.0000      -0.806621       -21.9493
  17   2.0000      -0.734792       -19.9947
  18   2.0000      -0.682339       -18.5674
  19   2.0000      -0.668837       -18.2000
  20   2.0000      -0.643550       -17.5119
  21   2.0000      -0.619934       -16.8693
  22   2.0000      -0.606873       -16.5139
  23   2.0000      -0.597402       -16.2561
  24   2.0000      -0.577467       -15.7137
  25   2.0000      -0.561444       -15.2777
  26   2.0000      -0.555680       -15.1208
  27   2.0000      -0.535673       -14.5764
  28   2.0000      -0.523221       -14.2376
  29   2.0000      -0.490552       -13.3486
  30   2.0000      -0.472120       -12.8470
  31   2.0000      -0.458096       -12.4654
  32   2.0000      -0.406547       -11.0627
  33   2.0000      -0.388750       -10.5784
  34   0.0000       0.081686         2.2228
  35   0.0000       0.120025         3.2660
  36   0.0000       0.154864         4.2141
  37   0.0000       0.165672         4.5082
  38   0.0000       0.172059         4.6820

MULLIKEN ATOMIC CHARGES
-----------------------
   0 C :   -0.409049
   1 C :    0.288930
   2 O :   -0.459587
   3 C :   -0.256369
   4 C :   -0.183238
   5 C :    0.170744
   6 O :   -0.284467
   7 C :   -0.173114
   8 C :   -0.235208
   9 H :    0.136296
  10 H :    0.147787
  11 H :    0.123733
  12 H :    0.313055
  13 H :    0.130539
  14 H :    0.128690
  15 H :    0.144085
  16 H :    0.142734
  17 H :    0.138946
  18 H :    0.135494
Sum of atomic charges:    0.0000000

LOEWDIN ATOMIC CHARGES
----------------------
   0 C :   -0.272478
   1 C :   -0.389482
   2 O :    0.008963
   3 C :   -0.209178
   4 C :   -0.217952
   5 C :   -0.319578
   6 O :    0.147281
   7 C :   -0.119499
   8 C :   -0.098573
   9 H :    0.130635
  10 H :    0.131589
  11 H :    0.123591
  12 H :    0.175094
  13 H :    0.148012
  14 H :    0.148866
  15 H :    0.162502
  16 H :    0.148265
  17 H :    0.153230
  18 H :    0.148711

  Mayer bond orders larger than 0.1
B(  0-C ,  1-C ) :   0.9156 B(  0-C ,  9-H ) :   0.9308 B(  0-C , 10-H ) :   0.9436
B(  0-C , 11-H ) :   0.9210 B(  1-C ,  2-O ) :   0.9306 B(  1-C ,  3-C ) :   0.8858
B(  1-C ,  8-C ) :   0.9101 B(  2-O , 12-H ) :   0.8402 B(  3-C ,  4-C ) :   0.9051
B(  3-C , 13-H ) :   0.9221 B(  3-C , 14-H ) :   0.9280 B(  4-C ,  5-C ) :   0.9285
B(  4-C , 15-H ) :   0.8943 B(  4-C , 16-H ) :   0.9231 B(  5-C ,  6-O ) :   1.9685
B(  5-C ,  7-C ) :   0.9919 B(  7-C ,  8-C ) :   1.7075 B(  7-C , 17-H ) :   0.9232
B(  8-C , 18-H ) :   0.9059

MP2 TOTAL ENERGY:     -422.357567222 Eh
FINAL SINGLE POINT ENERGY      -422.357567222270

DIPOLE MOMENT
-------------
                                X             Y             Z
Electronic contribution:      2.65992      -6.73998       1.74556
Nuclear contribution   :     -3.27944       8.06379      -1.33151
                        -----------------------------------------
Total Dipole Moment    :     -0.61952       1.32380       0.41405
                        -----------------------------------------
Magnitude (a.u.)       :      1.51911
Magnitude (Debye)      :      3.86128

                             ****ORCA TERMINATED NORMALLY****
TOTAL RUN TIME: 0 days 0 hours 19 minutes 10 seconds 171 msec
