                         Program Version 3.0.3 - RELEASE   -
|  1> ! RI-MP2 RIJK def2-TZVP def2-TZVP/C def2-TZVP/JK TIGHTSCF
|  2> % maxcore 2000
|  3> % mp2 density relaxed end
|  4> *xyz 0 1
|  5>  C        0.0335457851     1.3848014169    -0.3473526850
|  6>  C        1.4551961235     1.4977463617     0.2855803109
|  7>  C        1.3190493762     0.0169774158     0.6233959388
|  8>  N        2.0823180335    -0.8494801039     1.1212953719
|  9>  C        1.6115146306    -2.2271235412     1.1906284615
| 10>  C        0.1214779085    -2.4492469976     1.5636924120
| 11>  N       -0.8943872135    -2.1648628436     0.5581910630
| 12>  C       -0.9101745012    -1.0361008364    -0.0239293372
| 13>  N        0.0180438653    -0.0214461118     0.0936184919
| 14>  H       -0.7418077164     2.0017373975     0.1155295829
| 15>  H       -0.0012174130     1.5044917017    -1.4345283829
| 16>  H        2.2637150583     1.7354848751    -0.4070914910
| 17>  H        1.5161599094     2.1559131802     1.1539954602
| 18>  H        1.8071926765    -2.7215376878     0.2300659764
| 19>  H        2.2235144630    -2.7489258291     1.9352966733
| 20>  H        0.0091435085    -3.5010250065     1.8484574877
| 21>  H       -0.0916519314    -1.8576429895     2.4655955505
| 22>  H       -1.7275361728    -0.7940572215    -0.7061329449
| 23> *
| 24>
| 25>                          ****END OF INPUT****

CARTESIAN COORDINATES (ANGSTROEM)
---------------------------------
  C      0.033546    1.384801   -0.347353
  C      1.455196    1.497746    0.285580
  C      1.319049    0.016977    0.623396
  N      2.082318   -0.849480    1.121295
  C      1.611515   -2.227124    1.190628
  C      0.121478   -2.449247    1.563692
  N     -0.894387   -2.164863    0.558191
  C     -0.910175   -1.036101   -0.023929
  N      0.018044   -0.021446    0.093618
  H     -0.741808    2.001737    0.115530
  H     -0.001217    1.504492   -1.434528
  H      2.263715    1.735485   -0.407091
  H      1.516160    2.155913    1.153995
  H      1.807193   -2.721538    0.230066
  H      2.223514   -2.748926    1.935297
  H      0.009144   -3.501025    1.848457
  H     -0.091652   -1.857643    2.465596
  H     -1.727536   -0.794057   -0.706133

 Total Charge           Charge          ....    0
 Multiplicity           Mult            ....    1
 Number of Electrons    NEL             ....   66
 Basis Dimension        Dim             ....  333

ORBITAL ENERGIES
----------------

  NO   OCC          E(Eh)            E(eV)
   0   2.0000     -15.600522      -424.5118
   1   2.0000     -15.538652      -422.8282
   2   2.0000     -15.535575      -422.7445
   3   2.0000     -11.318271      -307.9858
   4   2.0000     -11.313358      -307.8521
   5   2.0000     -11.291677      -307.2622
   6   2.0000     -11.254725      -306.2566
   7   2.0000     -11.247734      -306.0664
   8   2.0000     -11.246202      -306.0247
   9   2.0000      -1.329100       -36.1667
  10   2.0000      -1.216302       -33.0972
  11   2.0000      -1.201888       -32.7050
  12   2.0000      -1.040228       -28.3060
  13   2.0000      -0.993165       -27.0254
  14   2.0000      -0.916718       -24.9452
  15   2.0000      -0.866441       -23.5771
  16   2.0000      -0.819466       -22.2988
  17   2.0000      -0.720111       -19.5952
  18   2.0000      -0.687924       -18.7194
  19   2.0000      -0.678527       -18.4637
  20   2.0000      -0.655653       -17.8412
  21   2.0000      -0.609690       -16.5905
  22   2.0000      -0.579878       -15.7793
  23   2.0000      -0.564732       -15.3671
  24   2.0000      -0.559389       -15.2217
  25   2.0000      -0.543315       -14.7843
  26   2.0000      -0.535678       -14.5765
  27   2.0000      -0.519517       -14.1368
  28   2.0000      -0.499553       -13.5935
  29   2.0000      -0.418639       -11.3917
  30   2.0000      -0.412690       -11.2299
  31   2.0000      -0.381115       -10.3707
  32   2.0000      -0.339116        -9.2278
  33   0.0000       0.119689         3.2569
  34   0.0000       0.133489         3.6324
  35   0.0000       0.154926         4.2157
  36   0.0000       0.161251         4.3879
  37   0.0000       0.182705         4.9717

MULLIKEN ATOMIC CHARGES
-----------------------
   0 C :   -0.160381
   1 C :   -0.189224
   2 C :    0.029886
   3 N :   -0.233396
   4 C :   -0.131169
   5 C :   -0.149876
   6 N :   -0.258770
   7 C :   -0.002292
   8 N :   -0.080709
   9 H :    0.126945
  10 H :    0.126087
  11 H :    0.139402
  12 H :    0.138068
  13 H :    0.123239
  14 H :    0.130287
  15 H :    0.131920
  16 H :    0.126369
  17 H :    0.133614
Sum of atomic charges:    0.0000000

LOEWDIN ATOMIC CHARGES
----------------------
   0 C :   -0.205161
   1 C :   -0.184112
   2 C :   -0.308674
   3 N :    0.094448
   4 C :   -0.295780
   5 C :   -0.301272
   6 N :    0.069395
   7 C :   -0.314326
   8 N :    0.222019
   9 H :    0.125857
  10 H :    0.127049
  11 H :    0.141411
  12 H :    0.142817
  13 H :    0.138385
  14 H :    0.135559
  15 H :    0.135895
  16 H :    0.138657
  17 H :    0.137832

  Mayer bond orders larger than 0.1
B(  0-C ,  1-C ) :   0.9573 B(  0-C ,  8-N ) :   0.8963 B(  0-C ,  9-H ) :   0.9174
B(  0-C , 10-H ) :   0.9147 B(  1-C ,  2-C ) :   0.9370 B(  1-C , 11-H ) :   0.9181
B(  1-C , 12-H ) :   0.9127 B(  2-C ,  3-N ) :   1.9288 B(  2-C ,  8-N ) :   1.0106
B(  3-N ,  4-C ) :   0.9051 B(  4-C ,  5-C ) :   0.8715 B(  4-C , 13-H ) :   0.9263
B(  4-C , 14-H ) :   0.9299 B(  5-C ,  6-N ) :   0.9193 B(  5-C , 15-H ) :   0.9312
B(  5-C , 16-H ) :   0.9268 B(  6-N ,  7-C ) :   1.8484 B(  7-C ,  8-N ) :   1.0445
B(  7-C , 17-H ) :   0.9196

MP2 TOTAL ENERGY:     -397.431245659 Eh
FINAL SINGLE POINT ENERGY      -397.431245658787

DIPOLE MOMENT
-------------
                                X             Y             Z
Electronic contribution:     -0.62011      -0.50647      -0.48910
Nuclear contribution   :      0.41922       1.55338       0.10708
                        -----------------------------------------
Total Dipole Moment    :     -0.20089       1.04691      -0.38202
                        -----------------------------------------
Magnitude (a.u.)       :      1.13239
Magnitude (Debye)      :      2.87831

                             ****ORCA TERMINATED NORMALLY****
TOTAL RUN TIME: 0 days 0 hours 19 minutes 15 seconds 438 msec
