                         Program Version 3.0.3 - RELEASE   -
|  1> ! RI-MP2 RIJK def2-TZVP def2-TZVP/C def2-TZVP/JK TIGHTSCF
|  2> % maxcore 2000
|  3> % mp2 density relaxed end
|  4> *xyz 0 1
|  5>  O       -0.0066685477    -0.0295306889    -0.0825247889
|  6>  C        0.0169851410     1.1767467004     0.0123558259
|  7>  N       -1.0712344469     1.9947390237     0.2131329411
|  8>  C       -0.8339426323     3.4128481579     0.0122460260
|  9>  C        0.6991296312     3.5127813207    -0.0393409928
| 10>  C        1.4304371658     2.9544528568     1.1607995565
| 11>  C        1.2252293375     2.0763790321    -0.0480239135
| 12>  C        1.2838141983     4.5599994614    -0.8187287384
| 13>  C        1.7563857747     5.4498420778    -1.4756984033
| 14>  H       -1.9958258598     1.5958810505     0.2414100210
| 15>  H       -1.2620061044     3.7709792302    -0.9323535614
| 16>  H       -1.2523663730     4.0158794659     0.8267927306
| 17>  H        2.4333862050     3.3279680398     1.3285251949
| 18>  H        0.8576273756     2.7421218349     2.0578582431
| 19>  H        2.0690426634     1.7634181362    -0.6468617930
| 20>  H        2.1807223316     6.2314190605    -2.0558508976
| 21> *
| 22>
| 23>                          ****END OF INPUT****

CARTESIAN COORDINATES (ANGSTROEM)
---------------------------------
  O     -0.006669   -0.029531   -0.082525
  C      0.016985    1.176747    0.012356
  N     -1.071234    1.994739    0.213133
  C     -0.833943    3.412848    0.012246
  C      0.699130    3.512781   -0.039341
  C      1.430437    2.954453    1.160800
  C      1.225229    2.076379   -0.048024
  C      1.283814    4.559999   -0.818729
  C      1.756386    5.449842   -1.475698
  H     -1.995826    1.595881    0.241410
  H     -1.262006    3.770979   -0.932354
  H     -1.252366    4.015879    0.826793
  H      2.433386    3.327968    1.328525
  H      0.857627    2.742122    2.057858
  H      2.069043    1.763418   -0.646862
  H      2.180722    6.231419   -2.055851

 Total Charge           Charge          ....    0
 Multiplicity           Mult            ....    1
 Number of Electrons    NEL             ....   64
 Basis Dimension        Dim             ....  321

ORBITAL ENERGIES
----------------

  NO   OCC          E(Eh)            E(eV)
   0   2.0000     -20.522280      -558.4396
   1   2.0000     -15.587029      -424.1446
   2   2.0000     -11.354665      -308.9761
   3   2.0000     -11.291066      -307.2455
   4   2.0000     -11.287669      -307.1531
   5   2.0000     -11.262900      -306.4791
   6   2.0000     -11.261441      -306.4394
   7   2.0000     -11.249314      -306.1094
   8   2.0000     -11.237376      -305.7846
   9   2.0000      -1.387072       -37.7441
  10   2.0000      -1.268767       -34.5249
  11   2.0000      -1.167442       -31.7677
  12   2.0000      -1.045257       -28.4429
  13   2.0000      -0.983559       -26.7640
  14   2.0000      -0.900178       -24.4951
  15   2.0000      -0.856141       -23.2968
  16   2.0000      -0.793825       -21.6011
  17   2.0000      -0.736812       -20.0497
  18   2.0000      -0.705801       -19.2058
  19   2.0000      -0.670033       -18.2325
  20   2.0000      -0.655221       -17.8295
  21   2.0000      -0.630950       -17.1690
  22   2.0000      -0.620323       -16.8798
  23   2.0000      -0.583254       -15.8712
  24   2.0000      -0.563198       -15.3254
  25   2.0000      -0.545814       -14.8524
  26   2.0000      -0.491608       -13.3773
  27   2.0000      -0.464872       -12.6498
  28   2.0000      -0.432556       -11.7704
  29   2.0000      -0.399826       -10.8798
  30   2.0000      -0.398648       -10.8478
  31   2.0000      -0.371692       -10.1143
  32   0.0000       0.131359         3.5745
  33   0.0000       0.148295         4.0353
  34   0.0000       0.152261         4.1432
  35   0.0000       0.160672         4.3721
  36   0.0000       0.163547         4.4503

MULLIKEN ATOMIC CHARGES
-----------------------
   0 O :   -0.327903
   1 C :    0.195815
   2 N :   -0.351976
   3 C :   -0.097406
   4 C :   -0.128007
   5 C :   -0.286462
   6 C :   -0.070587
   7 C :    0.001169
   8 C :   -0.099007
   9 H :    0.240951
  10 H :    0.132309
  11 H :    0.132810
  12 H :    0.153691
  13 H :    0.147339
  14 H :    0.161178
  15 H :    0.196083
Sum of atomic charges:   -0.0000000

LOEWDIN ATOMIC CHARGES
----------------------
   0 O :    0.095085
   1 C :   -0.431467
   2 N :    0.117116
   3 C :   -0.205398
   4 C :   -0.203633
   5 C :   -0.143376
   6 C :   -0.114148
   7 C :   -0.070775
   8 C :   -0.082464
   9 H :    0.184658
  10 H :    0.139057
  11 H :    0.136495
  12 H :    0.146634
  13 H :    0.144270
  14 H :    0.159206
  15 H :    0.128741

  Mayer bond orders larger than 0.1
B(  0-O ,  1-C ) :   2.0138 B(  1-C ,  2-N ) :   1.1623 B(  1-C ,  6-C ) :   0.9166
B(  2-N ,  3-C ) :   0.8964 B(  2-N ,  9-H ) :   0.8671 B(  3-C ,  4-C ) :   0.9660
B(  3-C , 10-H ) :   0.9289 B(  3-C , 11-H ) :   0.9219 B(  4-C ,  5-C ) :   0.8536
B(  4-C ,  6-C ) :   0.7851 B(  4-C ,  7-C ) :   1.1747 B(  4-C ,  8-C ) :  -0.1612
B(  5-C ,  6-C ) :   0.8833 B(  5-C , 12-H ) :   0.9262 B(  5-C , 13-H ) :   0.9055
B(  6-C , 14-H ) :   0.9194 B(  7-C ,  8-C ) :   2.5916 B(  8-C , 15-H ) :   0.8754

MP2 TOTAL ENERGY:     -400.047904707 Eh
FINAL SINGLE POINT ENERGY      -400.047904707251

DIPOLE MOMENT
-------------
                                X             Y             Z
Electronic contribution:     -0.13585      -2.75762      -1.26162
Nuclear contribution   :     -0.15048       4.11356       1.41477
                        -----------------------------------------
Total Dipole Moment    :     -0.28632       1.35594       0.15315
                        -----------------------------------------
Magnitude (a.u.)       :      1.39428
Magnitude (Debye)      :      3.54398

                             ****ORCA TERMINATED NORMALLY****
TOTAL RUN TIME: 0 days 0 hours 16 minutes 33 seconds 730 msec
