                         Program Version 3.0.3 - RELEASE   -
|  1> ! RI-MP2 RIJK def2-TZVP def2-TZVP/C def2-TZVP/JK TIGHTSCF
|  2> % maxcore 2000
|  3> % mp2 density relaxed end
|  4> *xyz 0 1
|  5>  C       -0.0971119218     1.5550849481     0.2773046293
|  6>  C       -0.0307349806     0.1044151962     0.1936540308
|  7>  C        0.0133815144    -1.0961726047     0.1150525225
|  8>  C        0.1050686571    -2.5321056602     0.0151801055
|  9>  C        1.4060216113    -3.0872286905    -0.5685932773
| 10>  C        1.6753536555    -2.6303389668    -1.9265770590
| 11>  C        1.8984413097    -2.2566468295    -3.0459350237
| 12>  C       -0.6750811037    -3.3818580795     0.9385846580
| 13>  O       -1.0832381865    -3.2176052442    -0.4155395625
| 14>  H        0.6962125152     2.0211716275    -0.3168759285
| 15>  H       -1.0566018263     1.9249302811    -0.1002551347
| 16>  H        0.0102386323     1.9019610126     1.3108995279
| 17>  H        2.2341470927    -2.7984966360     0.0909695807
| 18>  H        1.3448382299    -4.1811957075    -0.5501701133
| 19>  H        2.0901534970    -1.9275025982    -4.0369146925
| 20>  H       -0.2960985122    -4.3694125946     1.2018295985
| 21>  H       -1.3103211341    -2.9077704640     1.6841208683
| 22> *
| 23>
| 24>                          ****END OF INPUT****

CARTESIAN COORDINATES (ANGSTROEM)
---------------------------------
  C     -0.097112    1.555085    0.277305
  C     -0.030735    0.104415    0.193654
  C      0.013382   -1.096173    0.115053
  C      0.105069   -2.532106    0.015180
  C      1.406022   -3.087229   -0.568593
  C      1.675354   -2.630339   -1.926577
  C      1.898441   -2.256647   -3.045935
  C     -0.675081   -3.381858    0.938585
  O     -1.083238   -3.217605   -0.415540
  H      0.696213    2.021172   -0.316876
  H     -1.056602    1.924930   -0.100255
  H      0.010239    1.901961    1.310900
  H      2.234147   -2.798497    0.090970
  H      1.344838   -4.181196   -0.550170
  H      2.090153   -1.927503   -4.036915
  H     -0.296099   -4.369413    1.201830
  H     -1.310321   -2.907770    1.684121

 Total Charge           Charge          ....    0
 Multiplicity           Mult            ....    1
 Number of Electrons    NEL             ....   64
 Basis Dimension        Dim             ....  327

ORBITAL ENERGIES
----------------

  NO   OCC          E(Eh)            E(eV)
   0   2.0000     -20.578345      -559.9652
   1   2.0000     -11.324756      -308.1623
   2   2.0000     -11.294553      -307.3404
   3   2.0000     -11.267124      -306.5940
   4   2.0000     -11.251450      -306.1675
   5   2.0000     -11.236829      -305.7697
   6   2.0000     -11.233055      -305.6670
   7   2.0000     -11.223500      -305.4070
   8   2.0000     -11.220355      -305.3214
   9   2.0000      -1.424139       -38.7528
  10   2.0000      -1.092711       -29.7342
  11   2.0000      -1.059437       -28.8287
  12   2.0000      -1.002204       -27.2713
  13   2.0000      -0.961713       -26.1695
  14   2.0000      -0.920694       -25.0533
  15   2.0000      -0.856589       -23.3090
  16   2.0000      -0.740806       -20.1583
  17   2.0000      -0.708800       -19.2874
  18   2.0000      -0.674612       -18.3571
  19   2.0000      -0.638863       -17.3844
  20   2.0000      -0.635563       -17.2946
  21   2.0000      -0.606903       -16.5147
  22   2.0000      -0.592087       -16.1115
  23   2.0000      -0.590563       -16.0700
  24   2.0000      -0.569165       -15.4878
  25   2.0000      -0.551108       -14.9964
  26   2.0000      -0.483772       -13.1641
  27   2.0000      -0.462729       -12.5915
  28   2.0000      -0.391021       -10.6402
  29   2.0000      -0.386494       -10.5170
  30   2.0000      -0.380137       -10.3440
  31   2.0000      -0.367109        -9.9895
  32   0.0000       0.133056         3.6206
  33   0.0000       0.146993         3.9999
  34   0.0000       0.162998         4.4354
  35   0.0000       0.169080         4.6009
  36   0.0000       0.172463         4.6929

MULLIKEN ATOMIC CHARGES
-----------------------
   0 C :   -0.480371
   1 C :    0.083759
   2 C :    0.031756
   3 C :    0.002627
   4 C :   -0.316352
   5 C :   -0.030325
   6 C :   -0.151909
   7 C :   -0.047569
   8 O :   -0.310929
   9 H :    0.167085
  10 H :    0.167883
  11 H :    0.162615
  12 H :    0.149261
  13 H :    0.142796
  14 H :    0.189802
  15 H :    0.115130
  16 H :    0.124742
Sum of atomic charges:    0.0000000

LOEWDIN ATOMIC CHARGES
----------------------
   0 C :   -0.290275
   1 C :   -0.074213
   2 C :   -0.035870
   3 C :   -0.306459
   4 C :   -0.194529
   5 C :   -0.098825
   6 C :   -0.094841
   7 C :   -0.227781
   8 O :    0.185794
   9 H :    0.143441
  10 H :    0.144383
  11 H :    0.141574
  12 H :    0.167447
  13 H :    0.166300
  14 H :    0.126619
  15 H :    0.121298
  16 H :    0.125939

  Mayer bond orders larger than 0.1
B(  0-C ,  1-C ) :   0.8495 B(  0-C ,  9-H ) :   0.9473 B(  0-C , 10-H ) :   0.9419
B(  0-C , 11-H ) :   0.9468 B(  1-C ,  2-C ) :   2.6732 B(  1-C ,  3-C ) :  -0.1749
B(  2-C ,  3-C ) :   1.1289 B(  3-C ,  4-C ) :   0.9452 B(  3-C ,  7-C ) :   0.9817
B(  3-C ,  8-O ) :   0.8895 B(  4-C ,  5-C ) :   1.1304 B(  4-C , 12-H ) :   0.9329
B(  4-C , 13-H ) :   0.8951 B(  5-C ,  6-C ) :   2.6147 B(  6-C , 14-H ) :   0.9008
B(  7-C ,  8-O ) :   0.9015 B(  7-C , 15-H ) :   0.9021 B(  7-C , 16-H ) :   0.9094

MP2 TOTAL ENERGY:     -383.909645218 Eh
FINAL SINGLE POINT ENERGY      -383.909645217844

DIPOLE MOMENT
-------------
                                X             Y             Z
Electronic contribution:     -0.68344      -3.75224      -2.09535
Nuclear contribution   :      1.08844       4.14640       2.79111
                        -----------------------------------------
Total Dipole Moment    :      0.40500       0.39416       0.69576
                        -----------------------------------------
Magnitude (a.u.)       :      0.89636
Magnitude (Debye)      :      2.27837

                             ****ORCA TERMINATED NORMALLY****
TOTAL RUN TIME: 0 days 0 hours 14 minutes 18 seconds 126 msec
