                         Program Version 3.0.3 - RELEASE   -
|  1> ! RI-MP2 RIJK def2-TZVP def2-TZVP/C def2-TZVP/JK TIGHTSCF
|  2> % maxcore 2000
|  3> % mp2 density relaxed end
|  4> *xyz 0 1
|  5>  C        0.0345105347     1.4366653082    -0.0645092092
|  6>  C        0.0347561176    -0.0600400438    -0.0036613600
|  7>  O        0.1453387095    -0.6917440788    -1.2558965332
|  8>  C        0.0971988811    -2.0407871004    -0.8962615602
|  9>  C       -0.7890608322    -2.2780567975     0.3121133038
| 10>  C        0.7321490248    -2.2919727043     0.4537508916
| 11>  C        0.6894738295    -0.8857804591     1.0976727393
| 12>  C        1.5867183646    -0.3962038773     2.1923720622
| 13>  C       -0.8366812041    -0.8774935117     0.9443436311
| 14>  H        0.9712067442     1.8114687746    -0.4890858554
| 15>  H       -0.7911207956     1.7946623435    -0.6872484228
| 16>  H       -0.0844451851     1.8636392259     0.9345071101
| 17>  H        0.1683185141    -2.7320444821    -1.7250644657
| 18>  H       -1.5155779973    -3.0727558830     0.4073908750
| 19>  H        1.4174140076    -3.0953777220     0.6885709175
| 20>  H        2.6325671219    -0.3653403892     1.8628829658
| 21>  H        1.3115582517     0.6136441907     2.5132949730
| 22>  H        1.5351624104    -1.0459309428     3.0736321994
| 23>  H       -1.6076088873    -0.4640159809     1.5811103076
| 24> *
| 25>
| 26>                          ****END OF INPUT****

CARTESIAN COORDINATES (ANGSTROEM)
---------------------------------
  C      0.034511    1.436665   -0.064509
  C      0.034756   -0.060040   -0.003661
  O      0.145339   -0.691744   -1.255897
  C      0.097199   -2.040787   -0.896262
  C     -0.789061   -2.278057    0.312113
  C      0.732149   -2.291973    0.453751
  C      0.689474   -0.885780    1.097673
  C      1.586718   -0.396204    2.192372
  C     -0.836681   -0.877494    0.944344
  H      0.971207    1.811469   -0.489086
  H     -0.791121    1.794662   -0.687248
  H     -0.084445    1.863639    0.934507
  H      0.168319   -2.732044   -1.725064
  H     -1.515578   -3.072756    0.407391
  H      1.417414   -3.095378    0.688571
  H      2.632567   -0.365340    1.862883
  H      1.311558    0.613644    2.513295
  H      1.535162   -1.045931    3.073632
  H     -1.607609   -0.464016    1.581110

 Total Charge           Charge          ....    0
 Multiplicity           Mult            ....    1
 Number of Electrons    NEL             ....   66
 Basis Dimension        Dim             ....  339

ORBITAL ENERGIES
----------------

  NO   OCC          E(Eh)            E(eV)
   0   2.0000     -20.558194      -559.4169
   1   2.0000     -11.283647      -307.0436
   2   2.0000     -11.280138      -306.9482
   3   2.0000     -11.237840      -305.7972
   4   2.0000     -11.232852      -305.6614
   5   2.0000     -11.230673      -305.6022
   6   2.0000     -11.227755      -305.5227
   7   2.0000     -11.223353      -305.4030
   8   2.0000     -11.221479      -305.3520
   9   2.0000      -1.406932       -38.2846
  10   2.0000      -1.193673       -32.4815
  11   2.0000      -1.079983       -29.3878
  12   2.0000      -0.985049       -26.8046
  13   2.0000      -0.950080       -25.8530
  14   2.0000      -0.859921       -23.3996
  15   2.0000      -0.811386       -22.0789
  16   2.0000      -0.762110       -20.7381
  17   2.0000      -0.715114       -19.4592
  18   2.0000      -0.694234       -18.8911
  19   2.0000      -0.619613       -16.8605
  20   2.0000      -0.614103       -16.7106
  21   2.0000      -0.599236       -16.3060
  22   2.0000      -0.581887       -15.8340
  23   2.0000      -0.564190       -15.3524
  24   2.0000      -0.557885       -15.1808
  25   2.0000      -0.549911       -14.9638
  26   2.0000      -0.531153       -14.4534
  27   2.0000      -0.518764       -14.1163
  28   2.0000      -0.472452       -12.8561
  29   2.0000      -0.449623       -12.2349
  30   2.0000      -0.391103       -10.6425
  31   2.0000      -0.362308        -9.8589
  32   2.0000      -0.340670        -9.2701
  33   0.0000       0.137426         3.7396
  34   0.0000       0.165098         4.4926
  35   0.0000       0.167055         4.5458
  36   0.0000       0.186838         5.0841
  37   0.0000       0.191184         5.2024

MULLIKEN ATOMIC CHARGES
-----------------------
   0 C :   -0.457255
   1 C :    0.207773
   2 O :   -0.300116
   3 C :    0.036318
   4 C :   -0.172207
   5 C :   -0.173053
   6 C :    0.035594
   7 C :   -0.415834
   8 C :   -0.140129
   9 H :    0.143911
  10 H :    0.147329
  11 H :    0.132315
  12 H :    0.136071
  13 H :    0.138208
  14 H :    0.136080
  15 H :    0.138853
  16 H :    0.128825
  17 H :    0.139044
  18 H :    0.138275
Sum of atomic charges:   -0.0000000

LOEWDIN ATOMIC CHARGES
----------------------
   0 C :   -0.258837
   1 C :   -0.284744
   2 O :    0.250571
   3 C :   -0.247547
   4 C :   -0.140066
   5 C :   -0.120595
   6 C :   -0.164058
   7 C :   -0.272433
   8 C :   -0.108827
   9 H :    0.133141
  10 H :    0.133859
  11 H :    0.132656
  12 H :    0.142744
  13 H :    0.136485
  14 H :    0.137984
  15 H :    0.131538
  16 H :    0.129683
  17 H :    0.129115
  18 H :    0.139331

  Mayer bond orders larger than 0.1
B(  0-C ,  1-C ) :   0.8673 B(  0-C ,  9-H ) :   0.9385 B(  0-C , 10-H ) :   0.9419
B(  0-C , 11-H ) :   0.9431 B(  1-C ,  2-O ) :   0.9748 B(  1-C ,  6-C ) :   0.8973
B(  1-C ,  8-C ) :   0.8516 B(  2-O ,  3-C ) :   0.9730 B(  3-C ,  4-C ) :   0.8606
B(  3-C ,  5-C ) :   0.8524 B(  3-C , 12-H ) :   0.9428 B(  4-C ,  5-C ) :   0.8750
B(  4-C ,  8-C ) :   0.9403 B(  4-C , 13-H ) :   0.9316 B(  5-C ,  6-C ) :   0.9245
B(  5-C , 14-H ) :   0.9301 B(  6-C ,  7-C ) :   0.8485 B(  6-C ,  8-C ) :   0.8433
B(  7-C , 15-H ) :   0.9383 B(  7-C , 16-H ) :   0.9445 B(  7-C , 17-H ) :   0.9471
B(  8-C , 18-H ) :   0.9184

MP2 TOTAL ENERGY:     -385.163250188 Eh
FINAL SINGLE POINT ENERGY      -385.163250188103

DIPOLE MOMENT
-------------
                                X             Y             Z
Electronic contribution:     -1.85139      -3.74910      -4.27883
Nuclear contribution   :      1.86705       3.63334       4.82133
                        -----------------------------------------
Total Dipole Moment    :      0.01567      -0.11576       0.54250
                        -----------------------------------------
Magnitude (a.u.)       :      0.55493
Magnitude (Debye)      :      1.41052

                             ****ORCA TERMINATED NORMALLY****
TOTAL RUN TIME: 0 days 0 hours 18 minutes 17 seconds 379 msec
