                         Program Version 3.0.3 - RELEASE   -
|  1> ! RI-MP2 RIJK def2-TZVP def2-TZVP/C def2-TZVP/JK TIGHTSCF
|  2> % maxcore 2000
|  3> % mp2 density relaxed end
|  4> *xyz 0 1
|  5>  C       -0.0970272038     1.5249212246    -0.1011556472
|  6>  C        0.0386502188     0.0277220534     0.0653062585
|  7>  C        1.3116766095    -0.7463029521    -0.1521977350
|  8>  O        2.4529907398     0.0104070456     0.2913017413
|  9>  C        1.9970098656    -0.0655573429     1.6633562487
| 10>  C        1.9762676993     1.2134153085     2.3748445710
| 11>  N        1.9418302880     2.2032334908     2.9708023584
| 12>  C        0.6785356496    -0.7232314536     1.2200917609
| 13>  O        0.0765030019    -1.7269052819     1.9378324746
| 14>  H        0.8494648728     2.0339042408     0.0890147055
| 15>  H       -0.4016435737     1.7596967266    -1.1260779291
| 16>  H       -0.8493583995     1.9387024242     0.5772363460
| 17>  H       -0.8132311975    -0.5559674144    -0.2841250594
| 18>  H        1.4833615331    -1.5289360478    -0.8802879406
| 19>  H        2.6093878636    -0.7799314412     2.2263682441
| 20>  H       -0.7065503575    -1.3714813107     2.3732980923
| 21> *
| 22>
| 23>                          ****END OF INPUT****

CARTESIAN COORDINATES (ANGSTROEM)
---------------------------------
  C     -0.097027    1.524921   -0.101156
  C      0.038650    0.027722    0.065306
  C      1.311677   -0.746303   -0.152198
  O      2.452991    0.010407    0.291302
  C      1.997010   -0.065557    1.663356
  C      1.976268    1.213415    2.374845
  N      1.941830    2.203233    2.970802
  C      0.678536   -0.723231    1.220092
  O      0.076503   -1.726905    1.937832
  H      0.849465    2.033904    0.089015
  H     -0.401644    1.759697   -1.126078
  H     -0.849358    1.938702    0.577236
  H     -0.813231   -0.555967   -0.284125
  H      1.483362   -1.528936   -0.880288
  H      2.609388   -0.779931    2.226368
  H     -0.706550   -1.371481    2.373298

 Total Charge           Charge          ....    0
 Multiplicity           Mult            ....    1
 Number of Electrons    NEL             ....   66
 Basis Dimension        Dim             ....  321

ORBITAL ENERGIES
----------------

  NO   OCC          E(Eh)            E(eV)
   0   2.0000     -20.601754      -560.6022
   1   2.0000     -20.592218      -560.3427
   2   2.0000     -15.583688      -424.0537
   3   2.0000     -11.348306      -308.8031
   4   2.0000     -11.326051      -308.1975
   5   2.0000     -11.310765      -307.7816
   6   2.0000     -11.281247      -306.9783
   7   2.0000     -11.266640      -306.5809
   8   2.0000     -11.231458      -305.6235
   9   2.0000      -1.438630       -39.1471
  10   2.0000      -1.404097       -38.2074
  11   2.0000      -1.227704       -33.4075
  12   2.0000      -1.145456       -31.1695
  13   2.0000      -1.023779       -27.8584
  14   2.0000      -0.983664       -26.7669
  15   2.0000      -0.834770       -22.7153
  16   2.0000      -0.807069       -21.9615
  17   2.0000      -0.766659       -20.8618
  18   2.0000      -0.729379       -19.8474
  19   2.0000      -0.676588       -18.4109
  20   2.0000      -0.658044       -17.9063
  21   2.0000      -0.621117       -16.9015
  22   2.0000      -0.604416       -16.4470
  23   2.0000      -0.584644       -15.9090
  24   2.0000      -0.571110       -15.5407
  25   2.0000      -0.568719       -15.4756
  26   2.0000      -0.537476       -14.6255
  27   2.0000      -0.527475       -14.3533
  28   2.0000      -0.508319       -13.8321
  29   2.0000      -0.476826       -12.9751
  30   2.0000      -0.472156       -12.8480
  31   2.0000      -0.422797       -11.5049
  32   2.0000      -0.398421       -10.8416
  33   0.0000       0.115145         3.1333
  34   0.0000       0.131220         3.5707
  35   0.0000       0.150327         4.0906
  36   0.0000       0.157526         4.2865
  37   0.0000       0.165086         4.4922

MULLIKEN ATOMIC CHARGES
-----------------------
   0 C :   -0.381456
   1 C :   -0.165930
   2 C :    0.050384
   3 O :   -0.314293
   4 C :    0.184878
   5 C :   -0.198199
   6 N :   -0.044969
   7 C :    0.104740
   8 O :   -0.440609
   9 H :    0.163599
  10 H :    0.138870
  11 H :    0.135973
  12 H :    0.130124
  13 H :    0.154191
  14 H :    0.140130
  15 H :    0.342567
Sum of atomic charges:   -0.0000000

LOEWDIN ATOMIC CHARGES
----------------------
   0 C :   -0.284134
   1 C :   -0.201109
   2 C :   -0.192606
   3 O :    0.187779
   4 C :   -0.230117
   5 C :   -0.164307
   6 N :    0.078359
   7 C :   -0.309296
   8 O :    0.049133
   9 H :    0.136695
  10 H :    0.129966
  11 H :    0.129409
  12 H :    0.167987
  13 H :    0.137515
  14 H :    0.170805
  15 H :    0.193920

  Mayer bond orders larger than 0.1
B(  0-C ,  1-C ) :   0.8896 B(  0-C ,  9-H ) :   0.9282 B(  0-C , 10-H ) :   0.9299
B(  0-C , 11-H ) :   0.9334 B(  1-C ,  2-C ) :   0.8743 B(  1-C ,  7-C ) :   0.8851
B(  1-C , 12-H ) :   0.9239 B(  2-C ,  3-O ) :   0.9312 B(  2-C ,  7-C ) :   0.8860
B(  2-C , 13-H ) :   0.9053 B(  3-O ,  4-C ) :   0.9508 B(  4-C ,  5-C ) :   0.9326
B(  4-C ,  7-C ) :   0.9109 B(  4-C , 14-H ) :   0.8833 B(  5-C ,  6-N ) :   2.8317
B(  7-C ,  8-O ) :   1.0887 B(  8-O , 15-H ) :   0.8274

MP2 TOTAL ENERGY:     -437.120646934 Eh
FINAL SINGLE POINT ENERGY      -437.120646934090

DIPOLE MOMENT
-------------
                                X             Y             Z
Electronic contribution:      4.33214      -1.28812       4.07486
Nuclear contribution   :     -5.34316       0.35122      -4.60823
                        -----------------------------------------
Total Dipole Moment    :     -1.01101      -0.93690      -0.53337
                        -----------------------------------------
Magnitude (a.u.)       :      1.47797
Magnitude (Debye)      :      3.75671

                             ****ORCA TERMINATED NORMALLY****
TOTAL RUN TIME: 0 days 0 hours 16 minutes 18 seconds 50 msec
