                         Program Version 3.0.3 - RELEASE   -
|  1> ! RI-MP2 RIJK def2-TZVP def2-TZVP/C def2-TZVP/JK TIGHTSCF
|  2> % maxcore 2000
|  3> % mp2 density relaxed end
|  4> *xyz 0 1
|  5>  O        0.0303425702     1.4054745637     0.0247940901
|  6>  C        0.0199649438     0.0080956056     0.0016053896
|  7>  C        0.4842227037    -0.7202884215    -1.2859054400
|  8>  C       -0.6876488725    -1.7242409763    -1.1297061825
|  9>  C       -0.4505702431    -2.7948812101    -0.0328175456
| 10>  C       -0.7663050938    -1.7367951611     1.0555004612
| 11>  O       -1.5537820408    -2.1100091541     2.1481560181
| 12>  C        0.4078411869    -0.7499654136     1.3005435385
| 13>  C       -1.3319855402    -0.7808753278    -0.0485390906
| 14>  H        0.9446640654     1.6993611218     0.1108142754
| 15>  H        0.3136434476    -0.0646919355    -2.1447774743
| 16>  H        1.5055356589    -1.1154533677    -1.3266455255
| 17>  H       -1.1933707108    -2.0456061701    -2.0389759491
| 18>  H       -1.2519310797    -3.5393417868    -0.0461618401
| 19>  H        0.5192643131    -3.3043002633    -0.0044276873
| 20>  H       -1.0172784058    -2.6557800387     2.7347227029
| 21>  H        1.4235910524    -1.1495504498     1.3966712338
| 22>  H        0.1654454713    -0.1206295402     2.1618955349
| 23>  H       -2.3254511664    -0.3431211246    -0.0649290095
| 24> *
| 25>
| 26>                          ****END OF INPUT****

CARTESIAN COORDINATES (ANGSTROEM)
---------------------------------
  O      0.030343    1.405475    0.024794
  C      0.019965    0.008096    0.001605
  C      0.484223   -0.720288   -1.285905
  C     -0.687649   -1.724241   -1.129706
  C     -0.450570   -2.794881   -0.032818
  C     -0.766305   -1.736795    1.055500
  O     -1.553782   -2.110009    2.148156
  C      0.407841   -0.749965    1.300544
  C     -1.331986   -0.780875   -0.048539
  H      0.944664    1.699361    0.110814
  H      0.313643   -0.064692   -2.144777
  H      1.505536   -1.115453   -1.326646
  H     -1.193371   -2.045606   -2.038976
  H     -1.251931   -3.539342   -0.046162
  H      0.519264   -3.304300   -0.004428
  H     -1.017278   -2.655780    2.734723
  H      1.423591   -1.149550    1.396671
  H      0.165445   -0.120630    2.161896
  H     -2.325451   -0.343121   -0.064929

 Total Charge           Charge          ....    0
 Multiplicity           Mult            ....    1
 Number of Electrons    NEL             ....   68
 Basis Dimension        Dim             ....  339

ORBITAL ENERGIES
----------------

  NO   OCC          E(Eh)            E(eV)
   0   2.0000     -20.558693      -559.4305
   1   2.0000     -20.558671      -559.4299
   2   2.0000     -11.285494      -307.0939
   3   2.0000     -11.285472      -307.0933
   4   2.0000     -11.231588      -305.6270
   5   2.0000     -11.222651      -305.3839
   6   2.0000     -11.221322      -305.3477
   7   2.0000     -11.221264      -305.3461
   8   2.0000     -11.220973      -305.3382
   9   2.0000      -1.371873       -37.3306
  10   2.0000      -1.365702       -37.1626
  11   2.0000      -1.189492       -32.3677
  12   2.0000      -1.001777       -27.2597
  13   2.0000      -0.990346       -26.9487
  14   2.0000      -0.892633       -24.2898
  15   2.0000      -0.805660       -21.9231
  16   2.0000      -0.801551       -21.8113
  17   2.0000      -0.722351       -19.6562
  18   2.0000      -0.694522       -18.8989
  19   2.0000      -0.664607       -18.0849
  20   2.0000      -0.637964       -17.3599
  21   2.0000      -0.627046       -17.0628
  22   2.0000      -0.611479       -16.6392
  23   2.0000      -0.589148       -16.0315
  24   2.0000      -0.572338       -15.5741
  25   2.0000      -0.557855       -15.1800
  26   2.0000      -0.548415       -14.9231
  27   2.0000      -0.504529       -13.7289
  28   2.0000      -0.461252       -12.5513
  29   2.0000      -0.447297       -12.1716
  30   2.0000      -0.440514       -11.9870
  31   2.0000      -0.413207       -11.2439
  32   2.0000      -0.392805       -10.6888
  33   2.0000      -0.390195       -10.6178
  34   0.0000       0.132672         3.6102
  35   0.0000       0.143377         3.9015
  36   0.0000       0.154606         4.2071
  37   0.0000       0.177079         4.8186
  38   0.0000       0.187967         5.1149

MULLIKEN ATOMIC CHARGES
-----------------------
   0 O :   -0.452852
   1 C :    0.221977
   2 C :   -0.299723
   3 C :   -0.036205
   4 C :   -0.300046
   5 C :    0.221757
   6 O :   -0.452787
   7 C :   -0.273215
   8 C :   -0.202011
   9 H :    0.315386
  10 H :    0.116432
  11 H :    0.109592
  12 H :    0.124780
  13 H :    0.116485
  14 H :    0.109636
  15 H :    0.315364
  16 H :    0.116617
  17 H :    0.105300
  18 H :    0.143511
Sum of atomic charges:    0.0000000

LOEWDIN ATOMIC CHARGES
----------------------
   0 O :    0.013190
   1 C :   -0.327465
   2 C :   -0.191382
   3 C :   -0.174313
   4 C :   -0.191424
   5 C :   -0.327467
   6 O :    0.013196
   7 C :   -0.177801
   8 C :   -0.072194
   9 H :    0.179968
  10 H :    0.143581
  11 H :    0.123765
  12 H :    0.132295
  13 H :    0.143564
  14 H :    0.123777
  15 H :    0.179972
  16 H :    0.123597
  17 H :    0.147342
  18 H :    0.137797

  Mayer bond orders larger than 0.1
B(  0-O ,  1-C ) :   1.0436 B(  0-O ,  9-H ) :   0.8383 B(  1-C ,  2-C ) :   0.9371
B(  1-C ,  7-C ) :   0.9470 B(  1-C ,  8-C ) :   0.8997 B(  2-C ,  3-C ) :   0.8907
B(  2-C , 10-H ) :   0.9136 B(  2-C , 11-H ) :   0.9107 B(  3-C ,  4-C ) :   0.8907
B(  3-C ,  8-C ) :   0.9024 B(  3-C , 12-H ) :   0.9173 B(  4-C ,  5-C ) :   0.9372
B(  4-C , 13-H ) :   0.9136 B(  4-C , 14-H ) :   0.9107 B(  5-C ,  6-O ) :   1.0440
B(  5-C ,  7-C ) :   0.9468 B(  5-C ,  8-C ) :   0.8996 B(  6-O , 15-H ) :   0.8383
B(  7-C , 16-H ) :   0.8979 B(  7-C , 17-H ) :   0.8880 B(  8-C , 18-H ) :   0.8578

MP2 TOTAL ENERGY:     -422.285246612 Eh
FINAL SINGLE POINT ENERGY      -422.285246612049

DIPOLE MOMENT
-------------
                                X             Y             Z
Electronic contribution:     -2.10055       2.00358       1.74831
Nuclear contribution   :      3.08820      -2.46142      -1.76499
                        -----------------------------------------
Total Dipole Moment    :      0.98765      -0.45784      -0.01668
                        -----------------------------------------
Magnitude (a.u.)       :      1.08874
Magnitude (Debye)      :      2.76736

                             ****ORCA TERMINATED NORMALLY****
TOTAL RUN TIME: 0 days 0 hours 17 minutes 55 seconds 950 msec
