                         Program Version 3.0.3 - RELEASE   -
|  1> ! RI-MP2 RIJK def2-TZVP def2-TZVP/C def2-TZVP/JK TIGHTSCF
|  2> % maxcore 2000
|  3> % mp2 density relaxed end
|  4> *xyz 0 1
|  5>  C       -0.0043909258     1.5186565724     0.0455160660
|  6>  C       -0.0060281838     0.0178047612    -0.0211866335
|  7>  C       -0.0858113932    -0.7017756167    -1.1800689837
|  8>  C       -0.0787651779    -2.1440752336    -1.2010548595
|  9>  O       -0.1186610070    -2.8417641797    -2.2205888606
| 10>  C       -0.0022830111    -2.7870484813     0.1290100502
| 11>  N       -0.0633579365    -4.1681163855     0.1004111618
| 12>  C        0.0811134991    -2.0219471102     1.2499002492
| 13>  N        0.0812692023    -0.6429210987     1.1654979340
| 14>  H        0.9057857010     1.8968126151     0.5262724230
| 15>  H       -0.0576191055     1.9429144867    -0.9577321565
| 16>  H       -0.8611519285     1.8938106846     0.6180432533
| 17>  H       -0.1422416542    -0.1862307031    -2.1310427072
| 18>  H        0.0901054909    -4.4957777513    -0.8482676770
| 19>  H        0.4592118480    -4.6676677204     0.8032448462
| 20>  H        0.1462008677    -2.4301369512     2.2508824984
| 21>  H        0.1401529645    -0.1107764581     2.0175211158
| 22> *
| 23>
| 24>                          ****END OF INPUT****

CARTESIAN COORDINATES (ANGSTROEM)
---------------------------------
  C     -0.004391    1.518657    0.045516
  C     -0.006028    0.017805   -0.021187
  C     -0.085811   -0.701776   -1.180069
  C     -0.078765   -2.144075   -1.201055
  O     -0.118661   -2.841764   -2.220589
  C     -0.002283   -2.787048    0.129010
  N     -0.063358   -4.168116    0.100411
  C      0.081113   -2.021947    1.249900
  N      0.081269   -0.642921    1.165498
  H      0.905786    1.896813    0.526272
  H     -0.057619    1.942914   -0.957732
  H     -0.861152    1.893811    0.618043
  H     -0.142242   -0.186231   -2.131043
  H      0.090105   -4.495778   -0.848268
  H      0.459212   -4.667668    0.803245
  H      0.146201   -2.430137    2.250882
  H      0.140153   -0.110776    2.017521

 Total Charge           Charge          ....    0
 Multiplicity           Mult            ....    1
 Number of Electrons    NEL             ....   66
 Basis Dimension        Dim             ....  327

ORBITAL ENERGIES
----------------

  NO   OCC          E(Eh)            E(eV)
   0   2.0000     -20.495729      -557.7171
   1   2.0000     -15.623254      -425.1304
   2   2.0000     -15.546962      -423.0544
   3   2.0000     -11.308641      -307.7238
   4   2.0000     -11.305491      -307.6380
   5   2.0000     -11.278891      -306.9142
   6   2.0000     -11.267469      -306.6034
   7   2.0000     -11.253984      -306.2365
   8   2.0000     -11.216669      -305.2211
   9   2.0000      -1.342487       -36.5309
  10   2.0000      -1.302629       -35.4463
  11   2.0000      -1.202696       -32.7270
  12   2.0000      -1.077757       -29.3273
  13   2.0000      -1.034326       -28.1454
  14   2.0000      -0.963450       -26.2168
  15   2.0000      -0.856588       -23.3089
  16   2.0000      -0.830969       -22.6118
  17   2.0000      -0.749012       -20.3817
  18   2.0000      -0.725327       -19.7372
  19   2.0000      -0.656882       -17.8747
  20   2.0000      -0.637766       -17.3545
  21   2.0000      -0.625209       -17.0128
  22   2.0000      -0.624287       -16.9877
  23   2.0000      -0.602550       -16.3962
  24   2.0000      -0.571233       -15.5440
  25   2.0000      -0.568970       -15.4825
  26   2.0000      -0.554492       -15.0885
  27   2.0000      -0.536730       -14.6052
  28   2.0000      -0.512662       -13.9502
  29   2.0000      -0.465798       -12.6750
  30   2.0000      -0.398354       -10.8398
  31   2.0000      -0.346782        -9.4364
  32   2.0000      -0.290743        -7.9115
  33   0.0000       0.109734         2.9860
  34   0.0000       0.116414         3.1678
  35   0.0000       0.139831         3.8050
  36   0.0000       0.146683         3.9914
  37   0.0000       0.156856         4.2683

MULLIKEN ATOMIC CHARGES
-----------------------
   0 C :   -0.451332
   1 C :    0.242745
   2 C :   -0.280200
   3 C :    0.225343
   4 O :   -0.423124
   5 C :    0.080603
   6 N :   -0.517679
   7 C :   -0.111057
   8 N :   -0.246696
   9 H :    0.148411
  10 H :    0.157154
  11 H :    0.150446
  12 H :    0.126963
  13 H :    0.274445
  14 H :    0.239604
  15 H :    0.138439
  16 H :    0.245936
Sum of atomic charges:   -0.0000000

LOEWDIN ATOMIC CHARGES
----------------------
   0 C :   -0.266759
   1 C :   -0.242710
   2 C :   -0.124256
   3 C :   -0.354458
   4 O :    0.045895
   5 C :   -0.240284
   6 N :   -0.058491
   7 C :   -0.198140
   8 N :    0.191887
   9 H :    0.132377
  10 H :    0.139567
  11 H :    0.133070
  12 H :    0.155083
  13 H :    0.181358
  14 H :    0.163343
  15 H :    0.140254
  16 H :    0.202265

  Mayer bond orders larger than 0.1
B(  0-C ,  1-C ) :   0.8494 B(  0-C ,  9-H ) :   0.9325 B(  0-C , 10-H ) :   0.9475
B(  0-C , 11-H ) :   0.9311 B(  1-C ,  2-C ) :   1.4510 B(  1-C ,  8-N ) :   1.1541
B(  2-C ,  3-C ) :   1.1895 B(  2-C , 12-H ) :   0.9246 B(  3-C ,  4-O ) :   1.7582
B(  3-C ,  5-C ) :   0.9686 B(  5-C ,  6-N ) :   1.0802 B(  5-C ,  7-C ) :   1.5204
B(  6-N , 13-H ) :   0.8382 B(  6-N , 14-H ) :   0.8780 B(  7-C ,  8-N ) :   1.0918
B(  7-C , 15-H ) :   0.8956 B(  8-N , 16-H ) :   0.8764

MP2 TOTAL ENERGY:     -417.360140315 Eh
FINAL SINGLE POINT ENERGY      -417.360140315152

DIPOLE MOMENT
-------------
                                X             Y             Z
Electronic contribution:     -0.25810      -4.61830      -1.70457
Nuclear contribution   :      0.76513       5.83611       3.76492
                        -----------------------------------------
Total Dipole Moment    :      0.50704       1.21781       2.06036
                        -----------------------------------------
Magnitude (a.u.)       :      2.44647
Magnitude (Debye)      :      6.21843

                             ****ORCA TERMINATED NORMALLY****
TOTAL RUN TIME: 0 days 0 hours 16 minutes 9 seconds 601 msec
