                         Program Version 3.0.3 - RELEASE   -
|  1> ! RI-MP2 RIJK def2-TZVP def2-TZVP/C def2-TZVP/JK TIGHTSCF
|  2> % maxcore 2000
|  3> % mp2 density relaxed end
|  4> *xyz 0 1
|  5>  C       -0.0103117987     1.5141715303    -0.1366762864
|  6>  C        1.3047015881     0.7937452668     0.0043182084
|  7>  C        0.0101744671     0.0109616758     0.0277846779
|  8>  C       -0.4557351456    -0.6351391313     1.2745470422
|  9>  N       -0.2776303030    -2.0793821261     1.5614471012
| 10>  C       -1.6379262372    -1.4814195699     1.5668654089
| 11>  C       -1.8268976771    -0.7471417438     2.9414410688
| 12>  O       -0.6372076741    -0.8895206142     3.7160734889
| 13>  C       -0.6545221498     0.0827619696     2.6741330623
| 14>  H       -0.3533093725     2.1188561139     0.6955954076
| 15>  H       -0.2824630637     1.9103769742    -1.1084653628
| 16>  H        1.9432046242     0.7018198918    -0.8670137806
| 17>  H        1.8413986128     0.8974860665     0.9412184979
| 18>  H       -0.2151107063    -0.5630839907    -0.8681234610
| 19>  H       -0.1688263569    -2.5394583666     0.6561505553
| 20>  H       -2.4274661303    -1.8291974563     0.9135210132
| 21>  H       -2.7562008697    -0.5392797587     3.4571782093
| 22>  H       -0.4231536371     1.1098166388     2.9300585489
| 23> *
| 24>
| 25>                          ****END OF INPUT****

CARTESIAN COORDINATES (ANGSTROEM)
---------------------------------
  C     -0.010312    1.514172   -0.136676
  C      1.304702    0.793745    0.004318
  C      0.010174    0.010962    0.027785
  C     -0.455735   -0.635139    1.274547
  N     -0.277630   -2.079382    1.561447
  C     -1.637926   -1.481420    1.566865
  C     -1.826898   -0.747142    2.941441
  O     -0.637208   -0.889521    3.716073
  C     -0.654522    0.082762    2.674133
  H     -0.353309    2.118856    0.695595
  H     -0.282463    1.910377   -1.108465
  H      1.943205    0.701820   -0.867014
  H      1.841399    0.897486    0.941218
  H     -0.215111   -0.563084   -0.868123
  H     -0.168826   -2.539458    0.656151
  H     -2.427466   -1.829197    0.913521
  H     -2.756201   -0.539280    3.457178
  H     -0.423154    1.109817    2.930059

 Total Charge           Charge          ....    0
 Multiplicity           Mult            ....    1
 Number of Electrons    NEL             ....   66
 Basis Dimension        Dim             ....  333

ORBITAL ENERGIES
----------------

  NO   OCC          E(Eh)            E(eV)
   0   2.0000     -20.566939      -559.6549
   1   2.0000     -15.561882      -423.4604
   2   2.0000     -11.289898      -307.2138
   3   2.0000     -11.288969      -307.1885
   4   2.0000     -11.275899      -306.8328
   5   2.0000     -11.266095      -306.5660
   6   2.0000     -11.249932      -306.1262
   7   2.0000     -11.238262      -305.8086
   8   2.0000     -11.235278      -305.7275
   9   2.0000      -1.423666       -38.7399
  10   2.0000      -1.264561       -34.4105
  11   2.0000      -1.150720       -31.3127
  12   2.0000      -0.996554       -27.1176
  13   2.0000      -0.911555       -24.8047
  14   2.0000      -0.857001       -23.3202
  15   2.0000      -0.833664       -22.6852
  16   2.0000      -0.812157       -22.0999
  17   2.0000      -0.754005       -20.5175
  18   2.0000      -0.716507       -19.4971
  19   2.0000      -0.672575       -18.3017
  20   2.0000      -0.650567       -17.7028
  21   2.0000      -0.625169       -17.0117
  22   2.0000      -0.590451       -16.0670
  23   2.0000      -0.561016       -15.2660
  24   2.0000      -0.548207       -14.9175
  25   2.0000      -0.524482       -14.2719
  26   2.0000      -0.492756       -13.4086
  27   2.0000      -0.481627       -13.1057
  28   2.0000      -0.469824       -12.7846
  29   2.0000      -0.438716       -11.9381
  30   2.0000      -0.424612       -11.5543
  31   2.0000      -0.404062       -10.9951
  32   2.0000      -0.337073        -9.1722
  33   0.0000       0.137629         3.7451
  34   0.0000       0.148122         4.0306
  35   0.0000       0.159481         4.3397
  36   0.0000       0.164125         4.4661
  37   0.0000       0.179439         4.8828

MULLIKEN ATOMIC CHARGES
-----------------------
   0 C :   -0.280599
   1 C :   -0.265239
   2 C :   -0.040495
   3 C :    0.187687
   4 N :   -0.360283
   5 C :   -0.178222
   6 C :    0.015589
   7 O :   -0.290875
   8 C :   -0.095444
   9 H :    0.134139
  10 H :    0.134459
  11 H :    0.134471
  12 H :    0.144493
  13 H :    0.114968
  14 H :    0.212828
  15 H :    0.147601
  16 H :    0.142327
  17 H :    0.142594
Sum of atomic charges:   -0.0000000

LOEWDIN ATOMIC CHARGES
----------------------
   0 C :   -0.218237
   1 C :   -0.215684
   2 C :   -0.204390
   3 C :   -0.229792
   4 N :    0.036559
   5 C :   -0.199608
   6 C :   -0.223634
   7 O :    0.203762
   8 C :   -0.204794
   9 H :    0.132461
  10 H :    0.132365
  11 H :    0.132190
  12 H :    0.137644
  13 H :    0.153849
  14 H :    0.173721
  15 H :    0.131381
  16 H :    0.130303
  17 H :    0.131903

  Mayer bond orders larger than 0.1
B(  0-C ,  1-C ) :   0.8881 B(  0-C ,  2-C ) :   0.8689 B(  0-C ,  9-H ) :   0.9341
B(  0-C , 10-H ) :   0.9294 B(  1-C ,  2-C ) :   0.8606 B(  1-C , 11-H ) :   0.9296
B(  1-C , 12-H ) :   0.9324 B(  2-C ,  3-C ) :   0.9267 B(  2-C , 13-H ) :   0.9167
B(  3-C ,  4-N ) :   0.9282 B(  3-C ,  5-C ) :   0.8997 B(  3-C ,  6-C ) :  -0.1128
B(  3-C ,  8-C ) :   0.7744 B(  4-N ,  5-C ) :   1.0192 B(  4-N , 14-H ) :   0.8627
B(  5-C ,  6-C ) :   0.8835 B(  5-C , 15-H ) :   0.9073 B(  6-C ,  7-O ) :   0.9418
B(  6-C ,  8-C ) :   1.0335 B(  6-C , 16-H ) :   0.9192 B(  7-O ,  8-C ) :   0.9689
B(  8-C , 17-H ) :   0.9345

MP2 TOTAL ENERGY:     -401.126868315 Eh
FINAL SINGLE POINT ENERGY      -401.126868315455

DIPOLE MOMENT
-------------
                                X             Y             Z
Electronic contribution:     -1.75617      -3.80695       5.40994
Nuclear contribution   :      1.18727       4.43775      -6.55493
                        -----------------------------------------
Total Dipole Moment    :     -0.56890       0.63080      -1.14498
                        -----------------------------------------
Magnitude (a.u.)       :      1.42567
Magnitude (Debye)      :      3.62377

                             ****ORCA TERMINATED NORMALLY****
TOTAL RUN TIME: 0 days 0 hours 17 minutes 58 seconds 901 msec
