                         Program Version 3.0.3 - RELEASE   -
|  1> ! RI-MP2 RIJK def2-TZVP def2-TZVP/C def2-TZVP/JK TIGHTSCF
|  2> % maxcore 2000
|  3> % mp2 density relaxed end
|  4> *xyz 0 1
|  5>  C        0.0073039254     1.4736854852     0.0089842571
|  6>  C        0.0312748180    -0.0309470886     0.0030566633
|  7>  N        1.1582274430    -0.6308358964    -0.0086299780
|  8>  N       -1.2089244454    -0.6983745283     0.0108527374
|  9>  C       -1.2848556045    -2.1515771651     0.0060183334
| 10>  C       -2.7600502531    -2.4254677437     0.0178776201
| 11>  C       -3.4423323240    -1.2821451638     0.0281465281
| 12>  C       -2.5017692115    -0.1317933467     0.0236608653
| 13>  O       -2.7786941287     1.0457441824     0.0311148380
| 14>  H        1.0420081157     1.8149919042     0.0017850282
| 15>  H       -0.5279649364     1.8662765905    -0.8584273668
| 16>  H       -0.5136509892     1.8596488457     0.8880043048
| 17>  H        1.0681042896    -1.6462105198    -0.0117430007
| 18>  H       -0.7996272696    -2.5753963110    -0.8842793323
| 19>  H       -0.7842152007    -2.5820478765     0.8845149828
| 20>  H       -3.1566497522    -3.4321355168     0.0177414396
| 21>  H       -4.5120736564    -1.1317057010     0.0382383997
| 22> *
| 23>
| 24>                          ****END OF INPUT****

CARTESIAN COORDINATES (ANGSTROEM)
---------------------------------
  C      0.007304    1.473685    0.008984
  C      0.031275   -0.030947    0.003057
  N      1.158227   -0.630836   -0.008630
  N     -1.208924   -0.698375    0.010853
  C     -1.284856   -2.151577    0.006018
  C     -2.760050   -2.425468    0.017878
  C     -3.442332   -1.282145    0.028147
  C     -2.501769   -0.131793    0.023661
  O     -2.778694    1.045744    0.031115
  H      1.042008    1.814992    0.001785
  H     -0.527965    1.866277   -0.858427
  H     -0.513651    1.859649    0.888004
  H      1.068104   -1.646211   -0.011743
  H     -0.799627   -2.575396   -0.884279
  H     -0.784215   -2.582048    0.884515
  H     -3.156650   -3.432136    0.017741
  H     -4.512074   -1.131706    0.038238

 Total Charge           Charge          ....    0
 Multiplicity           Mult            ....    1
 Number of Electrons    NEL             ....   66
 Basis Dimension        Dim             ....  327

ORBITAL ENERGIES
----------------

  NO   OCC          E(Eh)            E(eV)
   0   2.0000     -20.539822      -558.9170
   1   2.0000     -15.614107      -424.8814
   2   2.0000     -15.534203      -422.7072
   3   2.0000     -11.372505      -309.4616
   4   2.0000     -11.327756      -308.2439
   5   2.0000     -11.302798      -307.5648
   6   2.0000     -11.284593      -307.0694
   7   2.0000     -11.261562      -306.4427
   8   2.0000     -11.217645      -305.2476
   9   2.0000      -1.405182       -38.2369
  10   2.0000      -1.305030       -35.5117
  11   2.0000      -1.199693       -32.6453
  12   2.0000      -1.097100       -29.8536
  13   2.0000      -1.001765       -27.2594
  14   2.0000      -0.974096       -26.5065
  15   2.0000      -0.863288       -23.4913
  16   2.0000      -0.809877       -22.0379
  17   2.0000      -0.737585       -20.0707
  18   2.0000      -0.721860       -19.6428
  19   2.0000      -0.679933       -18.5019
  20   2.0000      -0.652734       -17.7618
  21   2.0000      -0.647271       -17.6131
  22   2.0000      -0.620903       -16.8956
  23   2.0000      -0.585083       -15.9209
  24   2.0000      -0.567008       -15.4291
  25   2.0000      -0.560847       -15.2614
  26   2.0000      -0.554023       -15.0757
  27   2.0000      -0.536048       -14.5866
  28   2.0000      -0.477328       -12.9887
  29   2.0000      -0.448573       -12.2063
  30   2.0000      -0.426084       -11.5943
  31   2.0000      -0.405045       -11.0218
  32   2.0000      -0.376814       -10.2536
  33   0.0000       0.083588         2.2745
  34   0.0000       0.124645         3.3918
  35   0.0000       0.152913         4.1610
  36   0.0000       0.165670         4.5081
  37   0.0000       0.172905         4.7050

MULLIKEN ATOMIC CHARGES
-----------------------
   0 C :   -0.345677
   1 C :    0.107086
   2 N :   -0.364671
   3 N :   -0.064612
   4 C :   -0.158714
   5 C :   -0.158145
   6 C :   -0.176973
   7 C :    0.235492
   8 O :   -0.332083
   9 H :    0.151823
  10 H :    0.145266
  11 H :    0.145304
  12 H :    0.203615
  13 H :    0.150663
  14 H :    0.150658
  15 H :    0.155276
  16 H :    0.155692
Sum of atomic charges:    0.0000000

LOEWDIN ATOMIC CHARGES
----------------------
   0 C :   -0.262732
   1 C :   -0.345059
   2 N :   -0.054857
   3 N :    0.232604
   4 C :   -0.232283
   5 C :   -0.119583
   6 C :   -0.108352
   7 C :   -0.383078
   8 O :    0.121330
   9 H :    0.136061
  10 H :    0.137384
  11 H :    0.137387
  12 H :    0.151115
  13 H :    0.146895
  14 H :    0.146905
  15 H :    0.145491
  16 H :    0.150773

  Mayer bond orders larger than 0.1
B(  0-C ,  1-C ) :   0.9327 B(  0-C ,  9-H ) :   0.9294 B(  0-C , 10-H ) :   0.9191
B(  0-C , 11-H ) :   0.9191 B(  1-C ,  2-N ) :   1.9763 B(  1-C ,  3-N ) :   1.0077
B(  2-N , 12-H ) :   0.8765 B(  3-N ,  4-C ) :   0.9020 B(  3-N ,  7-C ) :   1.0476
B(  4-C ,  5-C ) :   0.9724 B(  4-C , 13-H ) :   0.8975 B(  4-C , 14-H ) :   0.8974
B(  5-C ,  6-C ) :   1.7282 B(  5-C , 15-H ) :   0.9199 B(  6-C ,  7-C ) :   0.9935
B(  6-C , 16-H ) :   0.9228 B(  7-C ,  8-O ) :   1.9209

MP2 TOTAL ENERGY:     -417.344653259 Eh
FINAL SINGLE POINT ENERGY      -417.344653258964

DIPOLE MOMENT
-------------
                                X             Y             Z
Electronic contribution:     -3.41250       0.09506       0.02830
Nuclear contribution   :      2.77147      -1.67331      -0.02904
                        -----------------------------------------
Total Dipole Moment    :     -0.64103      -1.57825      -0.00074
                        -----------------------------------------
Magnitude (a.u.)       :      1.70347
Magnitude (Debye)      :      4.32987

                             ****ORCA TERMINATED NORMALLY****
TOTAL RUN TIME: 0 days 0 hours 18 minutes 34 seconds 295 msec
