                         Program Version 3.0.3 - RELEASE   -
|  1> ! RI-MP2 RIJK def2-TZVP def2-TZVP/C def2-TZVP/JK TIGHTSCF
|  2> % maxcore 2000
|  3> % mp2 density relaxed end
|  4> *xyz 0 1
|  5>  C        0.3001808599     1.5025705810     0.1277112072
|  6>  C       -0.1262924597     0.0602480041    -0.1531920000
|  7>  N        0.6053853574    -0.5402782989    -1.2539267203
|  8>  C        1.7035257442    -1.3443163402    -1.1832182048
|  9>  C        2.0925613767    -1.5712001017    -2.4862620924
| 10>  O        3.1485992197    -2.3432763204    -2.8744351590
| 11>  C        1.1724860064    -0.8568519562    -3.2875838270
| 12>  C        1.1248084506    -0.7692040131    -4.7797421955
| 13>  N        0.2765976115    -0.2308858526    -2.5181402995
| 14>  H        1.3563077512     1.5515466669     0.4091829926
| 15>  H        0.1509051683     2.1183029565    -0.7626147207
| 16>  H       -0.2949100062     1.9208365523     0.9455373721
| 17>  H        0.0288848169    -0.5714508772     0.7265248374
| 18>  H       -1.1883271294     0.0205149863    -0.4106616049
| 19>  H        2.1079358494    -1.6914766306    -0.2468537310
| 20>  H        3.1899917657    -2.3397279490    -3.8353411918
| 21>  H        0.9814783081    -1.7522466227    -5.2464098660
| 22>  H        0.2915401579    -0.1316162955    -5.0821387777
| 23>  H        2.0448743912    -0.3395886690    -5.1960924788
| 24> *
| 25>
| 26>                          ****END OF INPUT****

CARTESIAN COORDINATES (ANGSTROEM)
---------------------------------
  C      0.300181    1.502571    0.127711
  C     -0.126292    0.060248   -0.153192
  N      0.605385   -0.540278   -1.253927
  C      1.703526   -1.344316   -1.183218
  C      2.092561   -1.571200   -2.486262
  O      3.148599   -2.343276   -2.874435
  C      1.172486   -0.856852   -3.287584
  C      1.124808   -0.769204   -4.779742
  N      0.276598   -0.230886   -2.518140
  H      1.356308    1.551547    0.409183
  H      0.150905    2.118303   -0.762615
  H     -0.294910    1.920837    0.945537
  H      0.028885   -0.571451    0.726525
  H     -1.188327    0.020515   -0.410662
  H      2.107936   -1.691477   -0.246854
  H      3.189992   -2.339728   -3.835341
  H      0.981478   -1.752247   -5.246410
  H      0.291540   -0.131616   -5.082139
  H      2.044874   -0.339589   -5.196092

 Total Charge           Charge          ....    0
 Multiplicity           Mult            ....    1
 Number of Electrons    NEL             ....   68
 Basis Dimension        Dim             ....  339

ORBITAL ENERGIES
----------------

  NO   OCC          E(Eh)            E(eV)
   0   2.0000     -20.581733      -560.0574
   1   2.0000     -15.627750      -425.2527
   2   2.0000     -15.576396      -423.8553
   3   2.0000     -11.273196      -306.7593
   4   2.0000     -11.272375      -306.7369
   5   2.0000     -11.257115      -306.3217
   6   2.0000     -11.250338      -306.1372
   7   2.0000     -11.228840      -305.5523
   8   2.0000     -11.221293      -305.3469
   9   2.0000      -1.398558       -38.0567
  10   2.0000      -1.366078       -37.1729
  11   2.0000      -1.130383       -30.7593
  12   2.0000      -1.048672       -28.5358
  13   2.0000      -1.016309       -27.6552
  14   2.0000      -0.954112       -25.9627
  15   2.0000      -0.858946       -23.3731
  16   2.0000      -0.796163       -21.6647
  17   2.0000      -0.783164       -21.3110
  18   2.0000      -0.708433       -19.2775
  19   2.0000      -0.668531       -18.1916
  20   2.0000      -0.642598       -17.4860
  21   2.0000      -0.620328       -16.8800
  22   2.0000      -0.605392       -16.4736
  23   2.0000      -0.582153       -15.8412
  24   2.0000      -0.575048       -15.6479
  25   2.0000      -0.562422       -15.3043
  26   2.0000      -0.552421       -15.0321
  27   2.0000      -0.529825       -14.4173
  28   2.0000      -0.522906       -14.2290
  29   2.0000      -0.508916       -13.8483
  30   2.0000      -0.502559       -13.6753
  31   2.0000      -0.446270       -12.1436
  32   2.0000      -0.339545        -9.2395
  33   2.0000      -0.309576        -8.4240
  34   0.0000       0.126376         3.4389
  35   0.0000       0.138858         3.7785
  36   0.0000       0.154020         4.1911
  37   0.0000       0.173128         4.7110
  38   0.0000       0.189205         5.1485

MULLIKEN ATOMIC CHARGES
-----------------------
   0 C :   -0.386542
   1 C :   -0.150784
   2 N :    0.142006
   3 C :   -0.186515
   4 C :    0.128131
   5 O :   -0.446422
   6 C :    0.074336
   7 C :   -0.497415
   8 N :   -0.283521
   9 H :    0.129773
  10 H :    0.149324
  11 H :    0.128756
  12 H :    0.128870
  13 H :    0.139399
  14 H :    0.148909
  15 H :    0.335259
  16 H :    0.144014
  17 H :    0.158549
  18 H :    0.143873
Sum of atomic charges:    0.0000000

LOEWDIN ATOMIC CHARGES
----------------------
   0 C :   -0.311648
   1 C :   -0.275029
   2 N :    0.190209
   3 C :   -0.209362
   4 C :   -0.303759
   5 O :    0.055629
   6 C :   -0.302569
   7 C :   -0.289013
   8 N :    0.061309
   9 H :    0.123037
  10 H :    0.128484
  11 H :    0.124456
  12 H :    0.138206
  13 H :    0.141846
  14 H :    0.139454
  15 H :    0.192483
  16 H :    0.128223
  17 H :    0.139889
  18 H :    0.128155

  Mayer bond orders larger than 0.1
B(  0-C ,  1-C ) :   0.9270 B(  0-C ,  9-H ) :   0.9329 B(  0-C , 10-H ) :   0.9339
B(  0-C , 11-H ) :   0.9314 B(  1-C ,  2-N ) :   0.8604 B(  1-C , 12-H ) :   0.9304
B(  1-C , 13-H ) :   0.9293 B(  2-N ,  3-C ) :   1.1762 B(  2-N ,  8-N ) :   1.0317
B(  3-C ,  4-C ) :   1.4373 B(  3-C ,  8-N ) :   0.1035 B(  3-C , 14-H ) :   0.9045
B(  4-C ,  5-O ) :   1.0868 B(  4-C ,  6-C ) :   1.2302 B(  5-O , 15-H ) :   0.8344
B(  6-C ,  7-C ) :   0.8497 B(  6-C ,  8-N ) :   1.4708 B(  7-C , 16-H ) :   0.9376
B(  7-C , 17-H ) :   0.9423 B(  7-C , 18-H ) :   0.9390

MP2 TOTAL ENERGY:     -418.526107005 Eh
FINAL SINGLE POINT ENERGY      -418.526107005400

DIPOLE MOMENT
-------------
                                X             Y             Z
Electronic contribution:      2.75500      -5.09764      -1.46327
Nuclear contribution   :     -2.75829       5.18162       1.70346
                        -----------------------------------------
Total Dipole Moment    :     -0.00329       0.08398       0.24019
                        -----------------------------------------
Magnitude (a.u.)       :      0.25447
Magnitude (Debye)      :      0.64681

                             ****ORCA TERMINATED NORMALLY****
TOTAL RUN TIME: 0 days 0 hours 18 minutes 30 seconds 244 msec
