                         Program Version 3.0.3 - RELEASE   -
|  1> ! RI-MP2 RIJK def2-TZVP def2-TZVP/C def2-TZVP/JK TIGHTSCF
|  2> % maxcore 2000
|  3> % mp2 density relaxed end
|  4> *xyz 0 1
|  5>  C       -0.0517493920     1.5879974604    -0.0736225693
|  6>  C        0.0402964916     0.0877971032     0.0905199849
|  7>  N        1.1969207751    -0.7395635641    -0.2543559271
|  8>  C        2.4464429495     0.0090690820     0.1532210531
|  9>  C        2.0183977695     0.1000218115     1.6371014410
| 10>  C        0.7301095500    -0.6000678893     1.2223138786
| 11>  C        0.1290667436    -1.7490319684     1.9226209306
| 12>  O        0.3936339053    -2.0614741024     3.0590642750
| 13>  H        0.7906558129     2.1258826435     0.3642088784
| 14>  H       -0.1072565254     1.8483518337    -1.1359884403
| 15>  H       -0.9645876372     1.9526103977     0.4073905286
| 16>  H       -0.8661646701    -0.4251087174    -0.2305307142
| 17>  H        3.3104034727    -0.6347154138    -0.0161699875
| 18>  H        2.5927366098     0.9466049337    -0.3903939524
| 19>  H        2.6194861525    -0.5220547910     2.3006860241
| 20>  H        1.9149062016     1.0920691618     2.0840664704
| 21>  H       -0.5989928693    -2.3259903212     1.3085693060
| 22> *
| 23>
| 24>                          ****END OF INPUT****

CARTESIAN COORDINATES (ANGSTROEM)
---------------------------------
  C     -0.051749    1.587997   -0.073623
  C      0.040296    0.087797    0.090520
  N      1.196921   -0.739564   -0.254356
  C      2.446443    0.009069    0.153221
  C      2.018398    0.100022    1.637101
  C      0.730110   -0.600068    1.222314
  C      0.129067   -1.749032    1.922621
  O      0.393634   -2.061474    3.059064
  H      0.790656    2.125883    0.364209
  H     -0.107257    1.848352   -1.135988
  H     -0.964588    1.952610    0.407391
  H     -0.866165   -0.425109   -0.230531
  H      3.310403   -0.634715   -0.016170
  H      2.592737    0.946605   -0.390394
  H      2.619486   -0.522055    2.300686
  H      1.914906    1.092069    2.084066
  H     -0.598993   -2.325990    1.308569

 Total Charge           Charge          ....    0
 Multiplicity           Mult            ....    1
 Number of Electrons    NEL             ....   60
 Basis Dimension        Dim             ....  302

ORBITAL ENERGIES
----------------

  NO   OCC          E(Eh)            E(eV)
   0   2.0000     -20.556752      -559.3777
   1   2.0000     -15.581356      -423.9903
   2   2.0000     -11.333923      -308.4117
   3   2.0000     -11.285741      -307.1006
   4   2.0000     -11.279020      -306.9177
   5   2.0000     -11.267530      -306.6051
   6   2.0000     -11.241513      -305.8971
   7   2.0000     -11.239368      -305.8387
   8   2.0000      -1.395130       -37.9634
   9   2.0000      -1.304006       -35.4838
  10   2.0000      -1.041529       -28.3414
  11   2.0000      -0.991005       -26.9666
  12   2.0000      -0.980092       -26.6697
  13   2.0000      -0.860319       -23.4105
  14   2.0000      -0.791345       -21.5336
  15   2.0000      -0.736299       -20.0357
  16   2.0000      -0.704032       -19.1577
  17   2.0000      -0.663806       -18.0631
  18   2.0000      -0.653036       -17.7700
  19   2.0000      -0.608297       -16.5526
  20   2.0000      -0.594105       -16.1664
  21   2.0000      -0.578200       -15.7336
  22   2.0000      -0.549758       -14.9597
  23   2.0000      -0.536405       -14.5963
  24   2.0000      -0.529278       -14.4024
  25   2.0000      -0.511871       -13.9287
  26   2.0000      -0.464151       -12.6302
  27   2.0000      -0.450318       -12.2538
  28   2.0000      -0.414176       -11.2703
  29   2.0000      -0.378231       -10.2922
  30   0.0000       0.117672         3.2020
  31   0.0000       0.130129         3.5410
  32   0.0000       0.159357         4.3363
  33   0.0000       0.169379         4.6090
  34   0.0000       0.173630         4.7247

MULLIKEN ATOMIC CHARGES
-----------------------
   0 C :   -0.403559
   1 C :   -0.027230
   2 N :   -0.243386
   3 C :   -0.164446
   4 C :   -0.252439
   5 C :    0.158799
   6 C :    0.028894
   7 O :   -0.273144
   8 H :    0.140480
   9 H :    0.146695
  10 H :    0.145120
  11 H :    0.123541
  12 H :    0.133545
  13 H :    0.124719
  14 H :    0.144839
  15 H :    0.131855
  16 H :    0.085718
Sum of atomic charges:    0.0000000

LOEWDIN ATOMIC CHARGES
----------------------
   0 C :   -0.286628
   1 C :   -0.252994
   2 N :    0.139069
   3 C :   -0.237634
   4 C :   -0.205095
   5 C :   -0.219688
   6 C :   -0.271652
   7 O :    0.132505
   8 H :    0.128920
   9 H :    0.132556
  10 H :    0.134666
  11 H :    0.155202
  12 H :    0.130483
  13 H :    0.122079
  14 H :    0.146427
  15 H :    0.131670
  16 H :    0.120114

  Mayer bond orders larger than 0.1
B(  0-C ,  1-C ) :   0.8895 B(  0-C ,  8-H ) :   0.9374 B(  0-C ,  9-H ) :   0.9346
B(  0-C , 10-H ) :   0.9282 B(  1-C ,  2-N ) :   0.9247 B(  1-C ,  5-C ) :   0.8743
B(  1-C , 11-H ) :   0.9227 B(  2-N ,  3-C ) :   0.9165 B(  2-N ,  5-C ) :   0.7501
B(  3-C ,  4-C ) :   0.9716 B(  3-C , 12-H ) :   0.9199 B(  3-C , 13-H ) :   0.9396
B(  4-C ,  5-C ) :   0.8797 B(  4-C , 14-H ) :   0.9161 B(  4-C , 15-H ) :   0.9268
B(  5-C ,  6-C ) :   0.8644 B(  6-C ,  7-O ) :   1.9849 B(  6-C , 16-H ) :   0.9579

MP2 TOTAL ENERGY:     -363.205517894 Eh
FINAL SINGLE POINT ENERGY      -363.205517894218

DIPOLE MOMENT
-------------
                                X             Y             Z
Electronic contribution:     -0.90421      -6.20245       3.28114
Nuclear contribution   :      0.88360       7.27732      -3.89985
                        -----------------------------------------
Total Dipole Moment    :     -0.02061       1.07487      -0.61871
                        -----------------------------------------
Magnitude (a.u.)       :      1.24039
Magnitude (Debye)      :      3.15282

                             ****ORCA TERMINATED NORMALLY****
TOTAL RUN TIME: 0 days 0 hours 13 minutes 31 seconds 674 msec
