                         Program Version 3.0.3 - RELEASE   -
|  1> ! RI-MP2 RIJK def2-TZVP def2-TZVP/C def2-TZVP/JK TIGHTSCF
|  2> % maxcore 2000
|  3> % mp2 density relaxed end
|  4> *xyz 0 1
|  5>  C       -0.2389673915     1.4020624406     0.0364829768
|  6>  C       -0.0445287798    -0.0741256348     0.1508162634
|  7>  C        1.1213797528    -0.8801196182    -0.3402833022
|  8>  C        0.6829657595    -0.9978344842     1.1124131175
|  9>  C        1.5968732484    -0.7553608975     2.2793533253
| 10>  C       -0.6226244862    -1.7941026236     1.1319461142
| 11>  C       -1.4636628783    -1.7160685999     2.3958407600
| 12>  O       -2.8002443860    -2.0782807542     2.1139444547
| 13>  O       -1.2198767894    -0.9056397797     0.1324540667
| 14>  H        0.7158378750     1.9235096294     0.1499773441
| 15>  H       -0.6475196172     1.6601911586    -0.9472490556
| 16>  H       -0.9319800527     1.7701073775     0.7995844059
| 17>  H        0.9540182905    -1.6918481060    -1.0437895508
| 18>  H        2.0478906779    -0.3310466368    -0.4840097976
| 19>  H        2.2888427679     0.0660396592     2.0672335196
| 20>  H        1.0432051914    -0.4950925560     3.1875281807
| 21>  H        2.2034319689    -1.6417733665     2.5005170399
| 22>  H       -0.5871700010    -2.8270243984     0.7623110784
| 23>  H       -1.0900923372    -2.4164895365     3.1513048318
| 24>  H       -1.4010891685    -0.6988342596     2.8157298436
| 25>  H       -3.0576901745    -1.5409319833     1.3540061537
| 26> *
| 27>
| 28>                          ****END OF INPUT****

CARTESIAN COORDINATES (ANGSTROEM)
---------------------------------
  C     -0.238967    1.402062    0.036483
  C     -0.044529   -0.074126    0.150816
  C      1.121380   -0.880120   -0.340283
  C      0.682966   -0.997834    1.112413
  C      1.596873   -0.755361    2.279353
  C     -0.622624   -1.794103    1.131946
  C     -1.463663   -1.716069    2.395841
  O     -2.800244   -2.078281    2.113944
  O     -1.219877   -0.905640    0.132454
  H      0.715838    1.923510    0.149977
  H     -0.647520    1.660191   -0.947249
  H     -0.931980    1.770107    0.799584
  H      0.954018   -1.691848   -1.043790
  H      2.047891   -0.331047   -0.484010
  H      2.288843    0.066040    2.067234
  H      1.043205   -0.495093    3.187528
  H      2.203432   -1.641773    2.500517
  H     -0.587170   -2.827024    0.762311
  H     -1.090092   -2.416490    3.151305
  H     -1.401089   -0.698834    2.815730
  H     -3.057690   -1.540932    1.354006

 Total Charge           Charge          ....    0
 Multiplicity           Mult            ....    1
 Number of Electrons    NEL             ....   70
 Basis Dimension        Dim             ....  351

ORBITAL ENERGIES
----------------

  NO   OCC          E(Eh)            E(eV)
   0   2.0000     -20.556058      -559.3588
   1   2.0000     -20.548958      -559.1656
   2   2.0000     -11.295358      -307.3623
   3   2.0000     -11.286134      -307.1113
   4   2.0000     -11.274561      -306.7964
   5   2.0000     -11.247198      -306.0518
   6   2.0000     -11.233077      -305.6676
   7   2.0000     -11.231370      -305.6211
   8   2.0000     -11.229942      -305.5822
   9   2.0000      -1.398002       -38.0416
  10   2.0000      -1.352549       -36.8047
  11   2.0000      -1.131129       -30.7796
  12   2.0000      -1.029333       -28.0096
  13   2.0000      -0.972772       -26.4705
  14   2.0000      -0.964647       -26.2494
  15   2.0000      -0.851726       -23.1766
  16   2.0000      -0.810917       -22.0662
  17   2.0000      -0.706500       -19.2248
  18   2.0000      -0.695833       -18.9346
  19   2.0000      -0.673382       -18.3237
  20   2.0000      -0.651781       -17.7359
  21   2.0000      -0.624553       -16.9950
  22   2.0000      -0.596412       -16.2292
  23   2.0000      -0.586518       -15.9600
  24   2.0000      -0.578294       -15.7362
  25   2.0000      -0.571823       -15.5601
  26   2.0000      -0.563904       -15.3446
  27   2.0000      -0.548763       -14.9326
  28   2.0000      -0.529099       -14.3975
  29   2.0000      -0.503734       -13.7073
  30   2.0000      -0.492816       -13.4102
  31   2.0000      -0.460939       -12.5428
  32   2.0000      -0.450369       -12.2552
  33   2.0000      -0.395816       -10.7707
  34   2.0000      -0.370315       -10.0768
  35   0.0000       0.126126         3.4321
  36   0.0000       0.154603         4.2070
  37   0.0000       0.165626         4.5069
  38   0.0000       0.172430         4.6921
  39   0.0000       0.181770         4.9462

MULLIKEN ATOMIC CHARGES
-----------------------
   0 C :   -0.400027
   1 C :    0.167215
   2 C :   -0.262401
   3 C :   -0.070422
   4 C :   -0.402356
   5 C :    0.137022
   6 C :   -0.062297
   7 O :   -0.476046
   8 O :   -0.367379
   9 H :    0.129794
  10 H :    0.147145
  11 H :    0.136028
  12 H :    0.136244
  13 H :    0.128653
  14 H :    0.132066
  15 H :    0.135590
  16 H :    0.143477
  17 H :    0.100832
  18 H :    0.112546
  19 H :    0.104549
  20 H :    0.329768
Sum of atomic charges:   -0.0000000

LOEWDIN ATOMIC CHARGES
----------------------
   0 C :   -0.268547
   1 C :   -0.288949
   2 C :   -0.167245
   3 C :   -0.206265
   4 C :   -0.272298
   5 C :   -0.239288
   6 C :   -0.329825
   7 O :   -0.041531
   8 O :    0.170758
   9 H :    0.134690
  10 H :    0.135779
  11 H :    0.130530
  12 H :    0.136706
  13 H :    0.142462
  14 H :    0.131787
  15 H :    0.128508
  16 H :    0.131241
  17 H :    0.138863
  18 H :    0.131553
  19 H :    0.120973
  20 H :    0.180099

  Mayer bond orders larger than 0.1
B(  0-C ,  1-C ) :   0.9022 B(  0-C ,  9-H ) :   0.9292 B(  0-C , 10-H ) :   0.9368
B(  0-C , 11-H ) :   0.9333 B(  1-C ,  2-C ) :   0.8619 B(  1-C ,  3-C ) :   0.8923
B(  1-C ,  8-O ) :   0.9386 B(  2-C ,  3-C ) :   0.8607 B(  2-C , 12-H ) :   0.9042
B(  2-C , 13-H ) :   0.9281 B(  3-C ,  4-C ) :   0.9019 B(  3-C ,  5-C ) :   0.8893
B(  4-C , 14-H ) :   0.9333 B(  4-C , 15-H ) :   0.9343 B(  4-C , 16-H ) :   0.9356
B(  5-C ,  6-C ) :   0.9100 B(  5-C ,  8-O ) :   0.8386 B(  5-C , 17-H ) :   0.9069
B(  6-C ,  7-O ) :   0.9215 B(  6-C , 18-H ) :   0.9262 B(  6-C , 19-H ) :   0.9245
B(  7-O , 20-H ) :   0.8291

MP2 TOTAL ENERGY:     -423.489660920 Eh
FINAL SINGLE POINT ENERGY      -423.489660919587

DIPOLE MOMENT
-------------
                                X             Y             Z
Electronic contribution:     -4.77086      -3.36832      -1.84619
Nuclear contribution   :      5.81995       3.96796       1.86818
                        -----------------------------------------
Total Dipole Moment    :      1.04909       0.59965       0.02200
                        -----------------------------------------
Magnitude (a.u.)       :      1.20858
Magnitude (Debye)      :      3.07196

                             ****ORCA TERMINATED NORMALLY****
TOTAL RUN TIME: 0 days 0 hours 28 minutes 58 seconds 248 msec
