                         Program Version 3.0.3 - RELEASE   -
|  1> ! RI-MP2 RIJK def2-TZVP def2-TZVP/C def2-TZVP/JK TIGHTSCF
|  2> % maxcore 2000
|  3> % mp2 density relaxed end
|  4> *xyz 0 1
|  5>  C       -0.2879353552     1.5895574027     0.1352837922
|  6>  C        0.0111400918     0.0949940808    -0.0221793511
|  7>  C        0.8827414730    -0.3607873761    -1.2531731169
|  8>  C        1.8973736531    -1.0757939921    -0.3129781273
|  9>  C        1.1928995087    -0.4297728045     0.8801288813
| 10>  O        1.4562332212    -0.2493646595     2.0269316983
| 11>  C       -1.1850328661    -0.7185022481     0.1447431905
| 12>  N       -2.1251961241    -1.3797801093     0.2761077886
| 13>  H        0.6317255424     2.1691354363     0.0155471735
| 14>  H       -1.0118044256     1.9222470046    -0.6134279325
| 15>  H       -0.6943515648     1.7915413152     1.1291670715
| 16>  H        0.3706446507    -0.9964486001    -1.9739469789
| 17>  H        1.3098623793     0.5003943535    -1.7699225649
| 18>  H        1.7813485992    -2.1643572043    -0.2976633573
| 19>  H        2.9589329964    -0.8422887790    -0.4208473768
| 20> *
| 21>
| 22>                          ****END OF INPUT****

CARTESIAN COORDINATES (ANGSTROEM)
---------------------------------
  C     -0.287935    1.589557    0.135284
  C      0.011140    0.094994   -0.022179
  C      0.882741   -0.360787   -1.253173
  C      1.897374   -1.075794   -0.312978
  C      1.192900   -0.429773    0.880129
  O      1.456233   -0.249365    2.026932
  C     -1.185033   -0.718502    0.144743
  N     -2.125196   -1.379780    0.276108
  H      0.631726    2.169135    0.015547
  H     -1.011804    1.922247   -0.613428
  H     -0.694352    1.791541    1.129167
  H      0.370645   -0.996449   -1.973947
  H      1.309862    0.500394   -1.769923
  H      1.781349   -2.164357   -0.297663
  H      2.958933   -0.842289   -0.420847

 Total Charge           Charge          ....    0
 Multiplicity           Mult            ....    1
 Number of Electrons    NEL             ....   58
 Basis Dimension        Dim             ....  290

ORBITAL ENERGIES
----------------

  NO   OCC          E(Eh)            E(eV)
   0   2.0000     -20.581552      -560.0525
   1   2.0000     -15.579712      -423.9455
   2   2.0000     -11.361528      -309.1629
   3   2.0000     -11.306399      -307.6628
   4   2.0000     -11.282429      -307.0105
   5   2.0000     -11.271354      -306.7091
   6   2.0000     -11.266264      -306.5706
   7   2.0000     -11.255901      -306.2886
   8   2.0000      -1.426409       -38.8146
   9   2.0000      -1.231799       -33.5190
  10   2.0000      -1.171873       -31.8883
  11   2.0000      -1.040376       -28.3101
  12   2.0000      -0.920401       -25.0454
  13   2.0000      -0.897085       -24.4109
  14   2.0000      -0.797377       -21.6977
  15   2.0000      -0.701359       -19.0849
  16   2.0000      -0.677095       -18.4247
  17   2.0000      -0.666259       -18.1298
  18   2.0000      -0.621728       -16.9181
  19   2.0000      -0.592593       -16.1253
  20   2.0000      -0.585129       -15.9222
  21   2.0000      -0.576404       -15.6848
  22   2.0000      -0.562459       -15.3053
  23   2.0000      -0.531776       -14.4704
  24   2.0000      -0.521149       -14.1812
  25   2.0000      -0.512295       -13.9403
  26   2.0000      -0.485850       -13.2206
  27   2.0000      -0.457750       -12.4560
  28   2.0000      -0.411261       -11.1910
  29   0.0000       0.099197         2.6993
  30   0.0000       0.121119         3.2958
  31   0.0000       0.142801         3.8858
  32   0.0000       0.152750         4.1565
  33   0.0000       0.165023         4.4905

MULLIKEN ATOMIC CHARGES
-----------------------
   0 C :   -0.408032
   1 C :    0.284620
   2 C :   -0.284532
   3 C :   -0.219839
   4 C :    0.104643
   5 O :   -0.220981
   6 C :   -0.266474
   7 N :   -0.046531
   8 H :    0.140790
   9 H :    0.155147
  10 H :    0.162105
  11 H :    0.152966
  12 H :    0.141235
  13 H :    0.159199
  14 H :    0.145685
Sum of atomic charges:    0.0000000

LOEWDIN ATOMIC CHARGES
----------------------
   0 C :   -0.240394
   1 C :   -0.236290
   2 C :   -0.168671
   3 C :   -0.199612
   4 C :   -0.262614
   5 O :    0.197585
   6 C :   -0.152279
   7 N :    0.071514
   8 H :    0.132651
   9 H :    0.135752
  10 H :    0.140772
  11 H :    0.139873
  12 H :    0.140882
  13 H :    0.157498
  14 H :    0.143333

  Mayer bond orders larger than 0.1
B(  0-C ,  1-C ) :   0.8916 B(  0-C ,  8-H ) :   0.9248 B(  0-C ,  9-H ) :   0.9331
B(  0-C , 10-H ) :   0.9277 B(  1-C ,  2-C ) :   0.8526 B(  1-C ,  3-C ) :  -0.1193
B(  1-C ,  4-C ) :   0.7257 B(  1-C ,  6-C ) :   0.9369 B(  2-C ,  3-C ) :   0.9594
B(  2-C , 11-H ) :   0.9241 B(  2-C , 12-H ) :   0.9211 B(  3-C ,  4-C ) :   0.9265
B(  3-C , 13-H ) :   0.8912 B(  3-C , 14-H ) :   0.9061 B(  4-C ,  5-O ) :   2.0591
B(  6-C ,  7-N ) :   2.8616

MP2 TOTAL ENERGY:     -362.060966116 Eh
FINAL SINGLE POINT ENERGY      -362.060966115650

DIPOLE MOMENT
-------------
                                X             Y             Z
Electronic contribution:     -2.15745      -3.42680       4.14865
Nuclear contribution   :      3.27014       4.13720      -5.29795
                        -----------------------------------------
Total Dipole Moment    :      1.11269       0.71040      -1.14930
                        -----------------------------------------
Magnitude (a.u.)       :      1.75032
Magnitude (Debye)      :      4.44897

                             ****ORCA TERMINATED NORMALLY****
TOTAL RUN TIME: 0 days 0 hours 11 minutes 36 seconds 903 msec
