                         Program Version 3.0.3 - RELEASE   -
|  1> ! RI-MP2 RIJK def2-TZVP def2-TZVP/C def2-TZVP/JK TIGHTSCF
|  2> % maxcore 2000
|  3> % mp2 density relaxed end
|  4> *xyz 0 1
|  5>  C        0.1327630997     1.3981489188     0.0996100069
|  6>  N        0.0040128900    -0.0393833224    -0.0641314416
|  7>  C        0.5551221664    -0.6697078935    -1.1296515050
|  8>  N        1.0477662005    -0.0766413597    -2.1638949453
|  9>  C        1.5715321069    -1.0824730809    -3.0915265252
| 10>  C        1.5842267905    -2.3836273182    -2.2911418573
| 11>  O        2.3100976745    -3.3404973126    -2.3691645345
| 12>  C        0.5568513731    -2.1850135647    -1.1739633653
| 13>  O        0.8858473152    -2.8313559505     0.0275173867
| 14>  H        1.1736409218     1.7103151952     0.2563235152
| 15>  H       -0.2323308822     1.8985902761    -0.7998153671
| 16>  H       -0.4699304832     1.7140670485     0.9535128390
| 17>  H       -0.0688803292    -0.6033443669     0.7685338518
| 18>  H        0.9391921891    -1.1903884726    -3.9860215428
| 19>  H        2.5765716525    -0.8261015642    -3.4440402061
| 20>  H       -0.4253335831    -2.5304398157    -1.5460039182
| 21>  H        1.5500857775    -3.4986906867    -0.2012525211
| 22> *
| 23>
| 24>                          ****END OF INPUT****

CARTESIAN COORDINATES (ANGSTROEM)
---------------------------------
  C      0.132763    1.398149    0.099610
  N      0.004013   -0.039383   -0.064131
  C      0.555122   -0.669708   -1.129652
  N      1.047766   -0.076641   -2.163895
  C      1.571532   -1.082473   -3.091527
  C      1.584227   -2.383627   -2.291142
  O      2.310098   -3.340497   -2.369165
  C      0.556851   -2.185014   -1.173963
  O      0.885847   -2.831356    0.027517
  H      1.173641    1.710315    0.256324
  H     -0.232331    1.898590   -0.799815
  H     -0.469930    1.714067    0.953513
  H     -0.068880   -0.603344    0.768534
  H      0.939192   -1.190388   -3.986022
  H      2.576572   -0.826102   -3.444040
  H     -0.425334   -2.530440   -1.546004
  H      1.550086   -3.498691   -0.201253

 Total Charge           Charge          ....    0
 Multiplicity           Mult            ....    1
 Number of Electrons    NEL             ....   68
 Basis Dimension        Dim             ....  327

ORBITAL ENERGIES
----------------

  NO   OCC          E(Eh)            E(eV)
   0   2.0000     -20.585229      -560.1526
   1   2.0000     -20.574611      -559.8636
   2   2.0000     -15.584844      -424.0852
   3   2.0000     -15.544389      -422.9843
   4   2.0000     -11.348505      -308.8085
   5   2.0000     -11.323429      -308.1262
   6   2.0000     -11.314189      -307.8747
   7   2.0000     -11.270844      -306.6953
   8   2.0000     -11.261163      -306.4318
   9   2.0000      -1.425045       -38.7775
  10   2.0000      -1.387984       -37.7690
  11   2.0000      -1.293706       -35.2035
  12   2.0000      -1.206596       -32.8332
  13   2.0000      -1.014450       -27.6046
  14   2.0000      -0.987694       -26.8765
  15   2.0000      -0.928297       -25.2602
  16   2.0000      -0.792374       -21.5616
  17   2.0000      -0.774050       -21.0630
  18   2.0000      -0.723977       -19.7004
  19   2.0000      -0.707954       -19.2644
  20   2.0000      -0.681785       -18.5523
  21   2.0000      -0.653982       -17.7958
  22   2.0000      -0.621970       -16.9247
  23   2.0000      -0.616754       -16.7827
  24   2.0000      -0.601534       -16.3686
  25   2.0000      -0.588301       -16.0085
  26   2.0000      -0.564232       -15.3535
  27   2.0000      -0.548839       -14.9347
  28   2.0000      -0.533344       -14.5130
  29   2.0000      -0.510150       -13.8819
  30   2.0000      -0.478941       -13.0327
  31   2.0000      -0.446432       -12.1480
  32   2.0000      -0.398676       -10.8485
  33   2.0000      -0.356956        -9.7133
  34   0.0000       0.112539         3.0623
  35   0.0000       0.142153         3.8682
  36   0.0000       0.148797         4.0490
  37   0.0000       0.157197         4.2776
  38   0.0000       0.168827         4.5940

MULLIKEN ATOMIC CHARGES
-----------------------
   0 C :   -0.265341
   1 N :   -0.345315
   2 C :    0.138298
   3 N :   -0.279626
   4 C :   -0.115280
   5 C :    0.110871
   6 O :   -0.281137
   7 C :    0.117734
   8 O :   -0.494353
   9 H :    0.133503
  10 H :    0.153520
  11 H :    0.138031
  12 H :    0.256846
  13 H :    0.133727
  14 H :    0.138104
  15 H :    0.121118
  16 H :    0.339299
Sum of atomic charges:    0.0000000

LOEWDIN ATOMIC CHARGES
----------------------
   0 C :   -0.312143
   1 N :    0.080638
   2 C :   -0.340595
   3 N :    0.077532
   4 C :   -0.253331
   5 C :   -0.294972
   6 O :    0.157986
   7 C :   -0.293689
   8 O :   -0.009226
   9 H :    0.114425
  10 H :    0.126005
  11 H :    0.117935
  12 H :    0.192961
  13 H :    0.143623
  14 H :    0.142429
  15 H :    0.160463
  16 H :    0.189958

  Mayer bond orders larger than 0.1
B(  0-C ,  1-N ) :   0.8789 B(  0-C ,  9-H ) :   0.9356 B(  0-C , 10-H ) :   0.9332
B(  0-C , 11-H ) :   0.9321 B(  1-N ,  2-C ) :   1.1626 B(  1-N , 12-H ) :   0.8663
B(  2-C ,  3-N ) :   1.7217 B(  2-C ,  7-C ) :   0.8685 B(  3-N ,  4-C ) :   0.9584
B(  4-C ,  5-C ) :   0.9290 B(  4-C , 13-H ) :   0.8914 B(  4-C , 14-H ) :   0.9152
B(  5-C ,  6-O ) :   1.9840 B(  5-C ,  7-C ) :   0.8931 B(  7-C ,  8-O ) :   1.0323
B(  7-C , 15-H ) :   0.9177 B(  8-O , 16-H ) :   0.8146

MP2 TOTAL ENERGY:     -454.432373127 Eh
FINAL SINGLE POINT ENERGY      -454.432373126797

DIPOLE MOMENT
-------------
                                X             Y             Z
Electronic contribution:      2.02284      -6.14147      -1.94085
Nuclear contribution   :     -2.50675       6.37827       2.33450
                        -----------------------------------------
Total Dipole Moment    :     -0.48392       0.23680       0.39365
                        -----------------------------------------
Magnitude (a.u.)       :      0.66724
Magnitude (Debye)      :      1.69599

                             ****ORCA TERMINATED NORMALLY****
TOTAL RUN TIME: 0 days 0 hours 15 minutes 56 seconds 920 msec
