                         Program Version 3.0.3 - RELEASE   -
|  1> ! RI-MP2 RIJK def2-TZVP def2-TZVP/C def2-TZVP/JK TIGHTSCF
|  2> % maxcore 2000
|  3> % mp2 density relaxed end
|  4> *xyz 0 1
|  5>  O        0.0371768593     0.0159933292     0.0890056715
|  6>  C       -0.0163120874     1.2091125008     0.0365071710
|  7>  C       -1.1545674936     2.2465919309     0.1016306793
|  8>  C       -0.0769042911     3.2618904650     0.5979043817
|  9>  C        1.0562925325     2.3493888543     0.0345334204
| 10>  O        1.5753648486     2.6722667469    -1.2381177561
| 11>  C        0.6859953577     3.2409308844    -2.1924817747
| 12>  C       -0.6105474727     2.4574813964    -2.4335156936
| 13>  C       -1.6729439893     2.5587083870    -1.3191758651
| 14>  H       -1.9830352041     2.0232300753     0.7777856530
| 15>  H       -0.1385156697     4.2783195882     0.2075730652
| 16>  H       -0.0259490908     3.3060710972     1.6883821672
| 17>  H        1.9232989383     2.1738646250     0.6761214911
| 18>  H        0.4505363861     4.2832995811    -1.9266549921
| 19>  H        1.2718549401     3.2696113860    -3.1156429414
| 20>  H       -1.0523518696     2.8276119075    -3.3660909857
| 21>  H       -0.3502541795     1.4066997689    -2.6104206642
| 22>  H       -2.4860940145     1.8641887403    -1.5546589269
| 23>  H       -2.1082425404     3.5661088158    -1.3151735106
| 24> *
| 25>
| 26>                          ****END OF INPUT****

CARTESIAN COORDINATES (ANGSTROEM)
---------------------------------
  O      0.037177    0.015993    0.089006
  C     -0.016312    1.209113    0.036507
  C     -1.154567    2.246592    0.101631
  C     -0.076904    3.261890    0.597904
  C      1.056293    2.349389    0.034533
  O      1.575365    2.672267   -1.238118
  C      0.685995    3.240931   -2.192482
  C     -0.610547    2.457481   -2.433516
  C     -1.672944    2.558708   -1.319176
  H     -1.983035    2.023230    0.777786
  H     -0.138516    4.278320    0.207573
  H     -0.025949    3.306071    1.688382
  H      1.923299    2.173865    0.676121
  H      0.450536    4.283300   -1.926655
  H      1.271855    3.269611   -3.115643
  H     -1.052352    2.827612   -3.366091
  H     -0.350254    1.406700   -2.610421
  H     -2.486094    1.864189   -1.554659
  H     -2.108243    3.566109   -1.315174

 Total Charge           Charge          ....    0
 Multiplicity           Mult            ....    1
 Number of Electrons    NEL             ....   68
 Basis Dimension        Dim             ....  339

ORBITAL ENERGIES
----------------

  NO   OCC          E(Eh)            E(eV)
   0   2.0000     -20.568383      -559.6942
   1   2.0000     -20.557508      -559.3982
   2   2.0000     -11.328421      -308.2620
   3   2.0000     -11.296799      -307.4015
   4   2.0000     -11.285084      -307.0828
   5   2.0000     -11.249170      -306.1055
   6   2.0000     -11.244355      -305.9745
   7   2.0000     -11.241655      -305.9010
   8   2.0000     -11.236522      -305.7613
   9   2.0000      -1.401951       -38.1490
  10   2.0000      -1.382540       -37.6208
  11   2.0000      -1.142246       -31.0821
  12   2.0000      -1.070584       -29.1321
  13   2.0000      -0.946743       -25.7622
  14   2.0000      -0.918565       -24.9954
  15   2.0000      -0.864452       -23.5229
  16   2.0000      -0.783302       -21.3147
  17   2.0000      -0.725885       -19.7523
  18   2.0000      -0.701378       -19.0855
  19   2.0000      -0.676210       -18.4006
  20   2.0000      -0.652292       -17.7498
  21   2.0000      -0.632666       -17.2157
  22   2.0000      -0.608318       -16.5532
  23   2.0000      -0.591697       -16.1009
  24   2.0000      -0.586800       -15.9676
  25   2.0000      -0.571071       -15.5396
  26   2.0000      -0.530483       -14.4352
  27   2.0000      -0.521415       -14.1884
  28   2.0000      -0.502150       -13.6642
  29   2.0000      -0.478864       -13.0306
  30   2.0000      -0.469923       -12.7873
  31   2.0000      -0.466159       -12.6848
  32   2.0000      -0.440101       -11.9757
  33   2.0000      -0.377161       -10.2631
  34   0.0000       0.118281         3.2186
  35   0.0000       0.135192         3.6788
  36   0.0000       0.155592         4.2339
  37   0.0000       0.159490         4.3400
  38   0.0000       0.166778         4.5383

MULLIKEN ATOMIC CHARGES
-----------------------
   0 O :   -0.235128
   1 C :    0.019379
   2 C :    0.063486
   3 C :   -0.360269
   4 C :    0.156886
   5 O :   -0.302502
   6 C :   -0.100843
   7 C :   -0.230633
   8 C :   -0.286624
   9 H :    0.123124
  10 H :    0.137054
  11 H :    0.137842
  12 H :    0.122857
  13 H :    0.097744
  14 H :    0.134975
  15 H :    0.130147
  16 H :    0.138323
  17 H :    0.133448
  18 H :    0.120734
Sum of atomic charges:   -0.0000000

LOEWDIN ATOMIC CHARGES
----------------------
   0 O :    0.174873
   1 C :   -0.276913
   2 C :   -0.197616
   3 C :   -0.200382
   4 C :   -0.261760
   5 O :    0.181784
   6 C :   -0.314571
   7 C :   -0.268181
   8 C :   -0.238508
   9 H :    0.147077
  10 H :    0.133401
  11 H :    0.142614
  12 H :    0.141304
  13 H :    0.120359
  14 H :    0.134625
  15 H :    0.145825
  16 H :    0.147872
  17 H :    0.146365
  18 H :    0.141831

  Mayer bond orders larger than 0.1
B(  0-O ,  1-C ) :   2.0403 B(  1-C ,  2-C ) :   0.8136 B(  1-C ,  4-C ) :   0.7921
B(  2-C ,  3-C ) :   0.8889 B(  2-C ,  4-C ) :  -0.1160 B(  2-C ,  8-C ) :   0.8766
B(  2-C ,  9-H ) :   0.9063 B(  3-C ,  4-C ) :   0.8761 B(  3-C , 10-H ) :   0.9297
B(  3-C , 11-H ) :   0.9157 B(  4-C ,  5-O ) :   0.9426 B(  4-C , 12-H ) :   0.9254
B(  5-O ,  6-C ) :   0.9343 B(  6-C ,  7-C ) :   0.9185 B(  6-C , 13-H ) :   0.9431
B(  6-C , 14-H ) :   0.9253 B(  7-C ,  8-C ) :   0.9365 B(  7-C , 15-H ) :   0.9198
B(  7-C , 16-H ) :   0.9177 B(  8-C , 17-H ) :   0.9260 B(  8-C , 18-H ) :   0.9314

MP2 TOTAL ENERGY:     -422.319595069 Eh
FINAL SINGLE POINT ENERGY      -422.319595069285

DIPOLE MOMENT
-------------
                                X             Y             Z
Electronic contribution:      3.51510      -5.21071       2.98090
Nuclear contribution   :     -4.18012       6.33365      -3.10358
                        -----------------------------------------
Total Dipole Moment    :     -0.66503       1.12294      -0.12267
                        -----------------------------------------
Magnitude (a.u.)       :      1.31084
Magnitude (Debye)      :      3.33188

                             ****ORCA TERMINATED NORMALLY****
TOTAL RUN TIME: 0 days 0 hours 19 minutes 34 seconds 341 msec
