                         Program Version 3.0.3 - RELEASE   -
|  1> ! RI-MP2 RIJK def2-TZVP def2-TZVP/C def2-TZVP/JK TIGHTSCF
|  2> % maxcore 2000
|  3> % mp2 density relaxed end
|  4> *xyz 0 1
|  5>  C        0.0602668672     1.4877911541    -0.0897477666
|  6>  O        1.4946822244     1.4302615709     0.1618863830
|  7>  C        1.3339429558     0.1017590373     0.7339529725
|  8>  C        2.1872157591    -1.0968540374     0.2792937326
|  9>  C        1.1016662442    -1.9343632508    -0.4537332836
| 10>  C       -0.0394116683    -2.3463901803     0.5356139958
| 11>  C       -0.9115345829    -1.0430309539     0.7251515581
| 12>  C       -0.0144631957    -0.0409791491     0.0097909506
| 13>  C        0.4006322893    -0.8247822613    -1.2564533031
| 14>  H       -0.4603372718     2.0238410811     0.7160625118
| 15>  H       -0.1706524077     1.9561197871    -1.0519772062
| 16>  H        1.2607936831     0.1831685198     1.8272162195
| 17>  H        2.9780952398    -0.7887865814    -0.4116369864
| 18>  H        2.6516678000    -1.6224998804     1.1187517885
| 19>  H        1.5014982582    -2.7789414813    -1.0181865886
| 20>  H       -0.6389000197    -3.1537799494     0.1066181469
| 21>  H        0.3597244710    -2.7133823243     1.4862217645
| 22>  H       -1.8944410892    -1.1528961476     0.2562132873
| 23>  H       -1.0689141423    -0.7960636706     1.7791631906
| 24>  H        1.0762858081    -0.2654732340    -1.9078331049
| 25>  H       -0.4601428726    -1.1706452584    -1.8375211822
| 26> *
| 27>
| 28>                          ****END OF INPUT****

CARTESIAN COORDINATES (ANGSTROEM)
---------------------------------
  C      0.060267    1.487791   -0.089748
  O      1.494682    1.430262    0.161886
  C      1.333943    0.101759    0.733953
  C      2.187216   -1.096854    0.279294
  C      1.101666   -1.934363   -0.453733
  C     -0.039412   -2.346390    0.535614
  C     -0.911535   -1.043031    0.725152
  C     -0.014463   -0.040979    0.009791
  C      0.400632   -0.824782   -1.256453
  H     -0.460337    2.023841    0.716063
  H     -0.170652    1.956120   -1.051977
  H      1.260794    0.183169    1.827216
  H      2.978095   -0.788787   -0.411637
  H      2.651668   -1.622500    1.118752
  H      1.501498   -2.778941   -1.018187
  H     -0.638900   -3.153780    0.106618
  H      0.359724   -2.713382    1.486222
  H     -1.894441   -1.152896    0.256213
  H     -1.068914   -0.796064    1.779163
  H      1.076286   -0.265473   -1.907833
  H     -0.460143   -1.170645   -1.837521

 Total Charge           Charge          ....    0
 Multiplicity           Mult            ....    1
 Number of Electrons    NEL             ....   68
 Basis Dimension        Dim             ....  351

ORBITAL ENERGIES
----------------

  NO   OCC          E(Eh)            E(eV)
   0   2.0000     -20.543338      -559.0127
   1   2.0000     -11.276178      -306.8404
   2   2.0000     -11.269935      -306.6705
   3   2.0000     -11.230240      -305.5904
   4   2.0000     -11.229097      -305.5593
   5   2.0000     -11.226859      -305.4984
   6   2.0000     -11.226125      -305.4784
   7   2.0000     -11.219927      -305.3097
   8   2.0000     -11.216917      -305.2278
   9   2.0000      -1.369616       -37.2691
  10   2.0000      -1.159009       -31.5382
  11   2.0000      -1.012351       -27.5475
  12   2.0000      -0.978845       -26.6357
  13   2.0000      -0.948355       -25.8060
  14   2.0000      -0.892964       -24.2988
  15   2.0000      -0.828378       -22.5413
  16   2.0000      -0.758937       -20.6517
  17   2.0000      -0.722817       -19.6689
  18   2.0000      -0.680060       -18.5054
  19   2.0000      -0.654308       -17.8046
  20   2.0000      -0.632082       -17.1998
  21   2.0000      -0.609189       -16.5769
  22   2.0000      -0.590221       -16.0607
  23   2.0000      -0.553333       -15.0570
  24   2.0000      -0.550046       -14.9675
  25   2.0000      -0.524992       -14.2858
  26   2.0000      -0.507703       -13.8153
  27   2.0000      -0.490009       -13.3338
  28   2.0000      -0.466772       -12.7015
  29   2.0000      -0.460797       -12.5389
  30   2.0000      -0.447652       -12.1812
  31   2.0000      -0.441458       -12.0127
  32   2.0000      -0.410712       -11.1760
  33   2.0000      -0.401665       -10.9299
  34   0.0000       0.132406         3.6030
  35   0.0000       0.153399         4.1742
  36   0.0000       0.163110         4.4384
  37   0.0000       0.172583         4.6962
  38   0.0000       0.190394         5.1809

MULLIKEN ATOMIC CHARGES
-----------------------
   0 C :   -0.016459
   1 O :   -0.325621
   2 C :    0.014708
   3 C :   -0.281743
   4 C :   -0.008567
   5 C :   -0.268772
   6 C :   -0.264001
   7 C :    0.095697
   8 C :   -0.316755
   9 H :    0.091592
  10 H :    0.108338
  11 H :    0.079386
  12 H :    0.126448
  13 H :    0.123251
  14 H :    0.118249
  15 H :    0.123662
  16 H :    0.118777
  17 H :    0.116339
  18 H :    0.114907
  19 H :    0.131073
  20 H :    0.119489
Sum of atomic charges:   -0.0000000

LOEWDIN ATOMIC CHARGES
----------------------
   0 C :   -0.231171
   1 O :    0.123271
   2 C :   -0.222946
   3 C :   -0.212624
   4 C :   -0.223934
   5 C :   -0.209686
   6 C :   -0.211728
   7 C :   -0.243859
   8 C :   -0.182549
   9 H :    0.121443
  10 H :    0.120027
  11 H :    0.135630
  12 H :    0.144612
  13 H :    0.134097
  14 H :    0.140188
  15 H :    0.134488
  16 H :    0.132991
  17 H :    0.133347
  18 H :    0.134440
  19 H :    0.144776
  20 H :    0.139188

  Mayer bond orders larger than 0.1
B(  0-C ,  1-O ) :   0.9291 B(  0-C ,  7-C ) :   0.9581 B(  0-C ,  9-H ) :   0.9094
B(  0-C , 10-H ) :   0.9070 B(  1-O ,  2-C ) :   0.9809 B(  2-C ,  3-C ) :   0.9273
B(  2-C ,  7-C ) :   0.9274 B(  2-C , 11-H ) :   0.9269 B(  3-C ,  4-C ) :   0.9129
B(  3-C , 12-H ) :   0.9094 B(  3-C , 13-H ) :   0.9259 B(  4-C ,  5-C ) :   0.9186
B(  4-C ,  8-C ) :   0.9388 B(  4-C , 14-H ) :   0.9211 B(  5-C ,  6-C ) :   0.9596
B(  5-C , 15-H ) :   0.9259 B(  5-C , 16-H ) :   0.9269 B(  6-C ,  7-C ) :   0.9250
B(  6-C , 17-H ) :   0.9169 B(  6-C , 18-H ) :   0.9220 B(  7-C ,  8-C ) :   0.8964
B(  8-C , 19-H ) :   0.9114 B(  8-C , 20-H ) :   0.9217

MP2 TOTAL ENERGY:     -386.412682765 Eh
FINAL SINGLE POINT ENERGY      -386.412682764693

DIPOLE MOMENT
-------------
                                X             Y             Z
Electronic contribution:      1.76652       3.95452      -0.11723
Nuclear contribution   :     -2.29155      -4.54794       0.13980
                        -----------------------------------------
Total Dipole Moment    :     -0.52503      -0.59342       0.02258
                        -----------------------------------------
Magnitude (a.u.)       :      0.79266
Magnitude (Debye)      :      2.01479

                             ****ORCA TERMINATED NORMALLY****
TOTAL RUN TIME: 0 days 0 hours 22 minutes 45 seconds 25 msec
