                         Program Version 3.0.3 - RELEASE   -
|  1> ! RI-MP2 RIJK def2-TZVP def2-TZVP/C def2-TZVP/JK TIGHTSCF
|  2> % maxcore 2000
|  3> % mp2 density relaxed end
|  4> *xyz 0 1
|  5>  O       -0.0831460350    -0.0682066121    -0.1703243050
|  6>  C       -0.0709371742     1.1305469626    -0.0184740520
|  7>  N       -1.2430007155     1.9010032550    -0.1570876578
|  8>  C       -1.2268519500     3.1228575393     0.5153040302
|  9>  C       -0.1131240671     3.8698913616     0.4335007345
| 10>  C        0.7315420794     4.1183118186     1.6875957442
| 11>  C        1.7241247695     3.1407841657     1.0089143971
| 12>  C        1.1052945052     3.3529786489    -0.3466737855
| 13>  C        1.1997220012     1.9434460023     0.1305952494
| 14>  H       -2.0900782848     1.3559336442    -0.2295325775
| 15>  H       -1.9825032395     3.2840784089     1.2817648729
| 16>  H        1.2073710758     5.1041662254     1.7408232606
| 17>  H        0.2952077269     3.8608301210     2.6564190120
| 18>  H        2.7853443638     3.1028024636     1.2362684939
| 19>  H        1.5220488008     3.7640662036    -1.2573206263
| 20>  H        2.0462554034     1.3456797514    -0.1966270206
| 21> *
| 22>
| 23>                          ****END OF INPUT****

CARTESIAN COORDINATES (ANGSTROEM)
---------------------------------
  O     -0.083146   -0.068207   -0.170324
  C     -0.070937    1.130547   -0.018474
  N     -1.243001    1.901003   -0.157088
  C     -1.226852    3.122858    0.515304
  C     -0.113124    3.869891    0.433501
  C      0.731542    4.118312    1.687596
  C      1.724125    3.140784    1.008914
  C      1.105295    3.352979   -0.346674
  C      1.199722    1.943446    0.130595
  H     -2.090078    1.355934   -0.229533
  H     -1.982503    3.284078    1.281765
  H      1.207371    5.104166    1.740823
  H      0.295208    3.860830    2.656419
  H      2.785344    3.102802    1.236268
  H      1.522049    3.764066   -1.257321
  H      2.046255    1.345680   -0.196627

 Total Charge           Charge          ....    0
 Multiplicity           Mult            ....    1
 Number of Electrons    NEL             ....   64
 Basis Dimension        Dim             ....  321

ORBITAL ENERGIES
----------------

  NO   OCC          E(Eh)            E(eV)
   0   2.0000     -20.533386      -558.7418
   1   2.0000     -15.596131      -424.3923
   2   2.0000     -11.362750      -309.1961
   3   2.0000     -11.286791      -307.1292
   4   2.0000     -11.269182      -306.6500
   5   2.0000     -11.260967      -306.4265
   6   2.0000     -11.255998      -306.2913
   7   2.0000     -11.250891      -306.1523
   8   2.0000     -11.242397      -305.9212
   9   2.0000      -1.397386       -38.0248
  10   2.0000      -1.267870       -34.5005
  11   2.0000      -1.202198       -32.7135
  12   2.0000      -1.039342       -28.2819
  13   2.0000      -0.960487       -26.1362
  14   2.0000      -0.889542       -24.2057
  15   2.0000      -0.853778       -23.2325
  16   2.0000      -0.763991       -20.7892
  17   2.0000      -0.724541       -19.7158
  18   2.0000      -0.708459       -19.2781
  19   2.0000      -0.678968       -18.4756
  20   2.0000      -0.674953       -18.3664
  21   2.0000      -0.614596       -16.7240
  22   2.0000      -0.598257       -16.2794
  23   2.0000      -0.587288       -15.9809
  24   2.0000      -0.564299       -15.3554
  25   2.0000      -0.505342       -13.7510
  26   2.0000      -0.496421       -13.5083
  27   2.0000      -0.463863       -12.6223
  28   2.0000      -0.448864       -12.2142
  29   2.0000      -0.426744       -11.6123
  30   2.0000      -0.399661       -10.8753
  31   2.0000      -0.325713        -8.8631
  32   0.0000       0.104340         2.8392
  33   0.0000       0.136408         3.7119
  34   0.0000       0.148629         4.0444
  35   0.0000       0.158866         4.3230
  36   0.0000       0.176340         4.7985

MULLIKEN ATOMIC CHARGES
-----------------------
   0 O :   -0.305048
   1 C :    0.246143
   2 N :   -0.303487
   3 C :   -0.057729
   4 C :   -0.026555
   5 C :   -0.194689
   6 C :   -0.133953
   7 C :   -0.089201
   8 C :   -0.180413
   9 H :    0.240781
  10 H :    0.134649
  11 H :    0.121215
  12 H :    0.119286
  13 H :    0.137495
  14 H :    0.151063
  15 H :    0.140445
Sum of atomic charges:   -0.0000000

LOEWDIN ATOMIC CHARGES
----------------------
   0 O :    0.118377
   1 C :   -0.393394
   2 N :    0.131022
   3 C :   -0.187696
   4 C :   -0.149448
   5 C :   -0.173963
   6 C :   -0.133697
   7 C :   -0.122871
   8 C :   -0.140761
   9 H :    0.190363
  10 H :    0.139097
  11 H :    0.143057
  12 H :    0.127940
  13 H :    0.142118
  14 H :    0.141485
  15 H :    0.168371

  Mayer bond orders larger than 0.1
B(  0-O ,  1-C ) :   1.9999 B(  1-C ,  2-N ) :   1.0855 B(  1-C ,  8-C ) :   0.9455
B(  2-N ,  3-C ) :   1.0003 B(  2-N ,  9-H ) :   0.8629 B(  3-C ,  4-C ) :   1.7025
B(  3-C , 10-H ) :   0.9196 B(  4-C ,  5-C ) :   0.9261 B(  4-C ,  7-C ) :   0.8768
B(  5-C ,  6-C ) :   0.9190 B(  5-C , 11-H ) :   0.9087 B(  5-C , 12-H ) :   0.9232
B(  6-C ,  7-C ) :   0.8469 B(  6-C ,  8-C ) :   0.8265 B(  6-C , 13-H ) :   0.9102
B(  7-C ,  8-C ) :   0.8071 B(  7-C , 14-H ) :   0.9056 B(  8-C , 15-H ) :   0.9286

MP2 TOTAL ENERGY:     -400.008356778 Eh
FINAL SINGLE POINT ENERGY      -400.008356777925

DIPOLE MOMENT
-------------
                                X             Y             Z
Electronic contribution:     -2.18787      -3.46031      -2.25328
Nuclear contribution   :      2.16546       4.38707       2.65826
                        -----------------------------------------
Total Dipole Moment    :     -0.02242       0.92677       0.40498
                        -----------------------------------------
Magnitude (a.u.)       :      1.01163
Magnitude (Debye)      :      2.57137

                             ****ORCA TERMINATED NORMALLY****
TOTAL RUN TIME: 0 days 0 hours 18 minutes 1 seconds 767 msec
