                         Program Version 3.0.3 - RELEASE   -
|  1> ! RI-MP2 RIJK def2-TZVP def2-TZVP/C def2-TZVP/JK TIGHTSCF
|  2> % maxcore 2000
|  3> % mp2 density relaxed end
|  4> *xyz 0 1
|  5>  C       -0.0324520871     1.4688229868     0.4197786849
|  6>  C       -0.0188366138     0.0344600961     0.1680834732
|  7>  C        0.0008846339    -1.1504567486    -0.0449193390
|  8>  C        0.0030773444    -2.5921654899    -0.3005547187
|  9>  C       -1.3616118251    -3.2235222920    -0.1740824724
| 10>  C       -1.9983514176    -3.9295835534    -1.1088096438
| 11>  C       -3.3179307645    -4.4779492915    -0.6222543297
| 12>  C       -3.5476980560    -3.7044967723     0.7035113553
| 13>  C       -2.1529604218    -3.1717888382     1.1161942989
| 14>  H        0.6720062623     1.9943296854    -0.2346937630
| 15>  H       -1.0262276736     1.8954494372     0.2435228118
| 16>  H        0.2461048904     1.6969172217     1.4547167139
| 17>  H        0.4070846015    -2.7918611471    -1.3005532354
| 18>  H        0.6934242552    -3.0755168628     0.4080192860
| 19>  H       -1.6092288108    -4.1305926362    -2.1019692943
| 20>  H       -4.1336732530    -4.3302184882    -1.3393636236
| 21>  H       -3.2505659557    -5.5632300194    -0.4573515044
| 22>  H       -4.2171033165    -2.8589334347     0.5168109385
| 23>  H       -4.0139177871    -4.3189605870     1.4777990731
| 24>  H       -1.6775514815    -3.8080133467     1.8778267401
| 25>  H       -2.1917227436    -2.1631534392     1.5408592583
| 26> *
| 27>
| 28>                          ****END OF INPUT****

CARTESIAN COORDINATES (ANGSTROEM)
---------------------------------
  C     -0.032452    1.468823    0.419779
  C     -0.018837    0.034460    0.168083
  C      0.000885   -1.150457   -0.044919
  C      0.003077   -2.592165   -0.300555
  C     -1.361612   -3.223522   -0.174082
  C     -1.998351   -3.929584   -1.108810
  C     -3.317931   -4.477949   -0.622254
  C     -3.547698   -3.704497    0.703511
  C     -2.152960   -3.171789    1.116194
  H      0.672006    1.994330   -0.234694
  H     -1.026228    1.895449    0.243523
  H      0.246105    1.696917    1.454717
  H      0.407085   -2.791861   -1.300553
  H      0.693424   -3.075517    0.408019
  H     -1.609229   -4.130593   -2.101969
  H     -4.133673   -4.330218   -1.339364
  H     -3.250566   -5.563230   -0.457352
  H     -4.217103   -2.858933    0.516811
  H     -4.013918   -4.318961    1.477799
  H     -1.677551   -3.808013    1.877827
  H     -2.191723   -2.163153    1.540859

 Total Charge           Charge          ....    0
 Multiplicity           Mult            ....    1
 Number of Electrons    NEL             ....   66
 Basis Dimension        Dim             ....  351

ORBITAL ENERGIES
----------------

  NO   OCC          E(Eh)            E(eV)
   0   2.0000     -11.250195      -306.1334
   1   2.0000     -11.242627      -305.9274
   2   2.0000     -11.228254      -305.5363
   3   2.0000     -11.219337      -305.2937
   4   2.0000     -11.217699      -305.2491
   5   2.0000     -11.217375      -305.2403
   6   2.0000     -11.216617      -305.2197
   7   2.0000     -11.214565      -305.1638
   8   2.0000     -11.213202      -305.1267
   9   2.0000      -1.136231       -30.9184
  10   2.0000      -1.065215       -28.9860
  11   2.0000      -1.019848       -27.7515
  12   2.0000      -0.957560       -26.0565
  13   2.0000      -0.947215       -25.7750
  14   2.0000      -0.898606       -24.4523
  15   2.0000      -0.786294       -21.3961
  16   2.0000      -0.708010       -19.2659
  17   2.0000      -0.667644       -18.1675
  18   2.0000      -0.644976       -17.5507
  19   2.0000      -0.627727       -17.0813
  20   2.0000      -0.600186       -16.3319
  21   2.0000      -0.599325       -16.3085
  22   2.0000      -0.580954       -15.8086
  23   2.0000      -0.578528       -15.7425
  24   2.0000      -0.545380       -14.8405
  25   2.0000      -0.525403       -14.2969
  26   2.0000      -0.488544       -13.2940
  27   2.0000      -0.480668       -13.0796
  28   2.0000      -0.476906       -12.9773
  29   2.0000      -0.469765       -12.7830
  30   2.0000      -0.364588        -9.9209
  31   2.0000      -0.362205        -9.8561
  32   2.0000      -0.335029        -9.1166
  33   0.0000       0.132562         3.6072
  34   0.0000       0.148714         4.0467
  35   0.0000       0.153289         4.1712
  36   0.0000       0.170042         4.6271
  37   0.0000       0.175876         4.7858

MULLIKEN ATOMIC CHARGES
-----------------------
   0 C :   -0.484725
   1 C :    0.007473
   2 C :   -0.006954
   3 C :   -0.323902
   4 C :    0.043508
   5 C :   -0.210016
   6 C :   -0.166365
   7 C :   -0.237222
   8 C :   -0.215965
   9 H :    0.160597
  10 H :    0.160539
  11 H :    0.159592
  12 H :    0.145414
  13 H :    0.146256
  14 H :    0.121336
  15 H :    0.116739
  16 H :    0.110542
  17 H :    0.111521
  18 H :    0.120077
  19 H :    0.107771
  20 H :    0.133784
Sum of atomic charges:   -0.0000000

LOEWDIN ATOMIC CHARGES
----------------------
   0 C :   -0.297380
   1 C :   -0.111367
   2 C :   -0.081162
   3 C :   -0.214286
   4 C :   -0.158889
   5 C :   -0.141391
   6 C :   -0.244877
   7 C :   -0.236915
   8 C :   -0.212383
   9 H :    0.140219
  10 H :    0.139792
  11 H :    0.139375
  12 H :    0.161618
  13 H :    0.162850
  14 H :    0.136693
  15 H :    0.134081
  16 H :    0.137277
  17 H :    0.136881
  18 H :    0.129476
  19 H :    0.139533
  20 H :    0.140856

  Mayer bond orders larger than 0.1
B(  0-C ,  1-C ) :   0.8655 B(  0-C ,  9-H ) :   0.9495 B(  0-C , 10-H ) :   0.9473
B(  0-C , 11-H ) :   0.9473 B(  1-C ,  2-C ) :   2.7079 B(  2-C ,  3-C ) :   0.9894
B(  3-C ,  4-C ) :   0.9159 B(  3-C , 12-H ) :   0.9343 B(  3-C , 13-H ) :   0.9278
B(  4-C ,  5-C ) :   1.7427 B(  4-C ,  8-C ) :   0.9242 B(  5-C ,  6-C ) :   0.9403
B(  5-C , 14-H ) :   0.9216 B(  6-C ,  7-C ) :   0.9450 B(  6-C , 15-H ) :   0.9323
B(  6-C , 16-H ) :   0.9123 B(  7-C ,  8-C ) :   0.9442 B(  7-C , 17-H ) :   0.9329
B(  7-C , 18-H ) :   0.9389 B(  8-C , 19-H ) :   0.9064 B(  8-C , 20-H ) :   0.9278

MP2 TOTAL ENERGY:     -349.285426400 Eh
FINAL SINGLE POINT ENERGY      -349.285426399650

DIPOLE MOMENT
-------------
                                X             Y             Z
Electronic contribution:      2.95023      -0.11341      -1.50613
Nuclear contribution   :     -2.98146       0.17589       1.58320
                        -----------------------------------------
Total Dipole Moment    :     -0.03123       0.06248       0.07707
                        -----------------------------------------
Magnitude (a.u.)       :      0.10401
Magnitude (Debye)      :      0.26437

                             ****ORCA TERMINATED NORMALLY****
TOTAL RUN TIME: 0 days 0 hours 19 minutes 34 seconds 26 msec
