                         Program Version 3.0.3 - RELEASE   -
|  1> ! RI-MP2 RIJK def2-TZVP def2-TZVP/C def2-TZVP/JK TIGHTSCF
|  2> % maxcore 2000
|  3> % mp2 density relaxed end
|  4> *xyz 0 1
|  5>  C        0.5017552252     1.4276412623     0.0635094216
|  6>  C        0.1750253897    -0.0399551011     0.0247381353
|  7>  C       -1.0804276735    -0.6254851529     0.6156512395
|  8>  C        0.2584318859    -1.0603996953     1.1821960175
|  9>  N        0.8675968490    -2.2546462372     0.6623480735
| 10>  C        1.0811482682    -2.0469786046    -0.5909940406
| 11>  C        1.7052987062    -3.0383038760    -1.5298855591
| 12>  O        2.6747808339    -2.4199153909    -2.3733975661
| 13>  N        0.6878691036    -0.8156183005    -1.0823169023
| 14>  H        1.5827570582     1.5983930933     0.0027713512
| 15>  H        0.0232318826     1.9681244511    -0.7621804176
| 16>  H        0.1431579315     1.8717913430     0.9959200559
| 17>  H       -1.6725049299     0.0285030831     1.2472396365
| 18>  H       -1.6497351633    -1.3374797342     0.0268137148
| 19>  H        0.4964057458    -0.8046017574     2.2096871817
| 20>  H        2.1196665879    -3.8640111259    -0.9407688021
| 21>  H        0.9475975300    -3.4477663784    -2.2063984601
| 22>  H        3.4326007405    -2.1947329891    -1.8235185843
| 23>  H        1.2214465186    -0.3907411793    -1.8255458653
| 24> *
| 25>
| 26>                          ****END OF INPUT****

CARTESIAN COORDINATES (ANGSTROEM)
---------------------------------
  C      0.501755    1.427641    0.063509
  C      0.175025   -0.039955    0.024738
  C     -1.080428   -0.625485    0.615651
  C      0.258432   -1.060400    1.182196
  N      0.867597   -2.254646    0.662348
  C      1.081148   -2.046979   -0.590994
  C      1.705299   -3.038304   -1.529886
  O      2.674781   -2.419915   -2.373398
  N      0.687869   -0.815618   -1.082317
  H      1.582757    1.598393    0.002771
  H      0.023232    1.968124   -0.762180
  H      0.143158    1.871791    0.995920
  H     -1.672505    0.028503    1.247240
  H     -1.649735   -1.337480    0.026814
  H      0.496406   -0.804602    2.209687
  H      2.119667   -3.864011   -0.940769
  H      0.947598   -3.447766   -2.206398
  H      3.432601   -2.194733   -1.823519
  H      1.221447   -0.390741   -1.825546

 Total Charge           Charge          ....    0
 Multiplicity           Mult            ....    1
 Number of Electrons    NEL             ....   68
 Basis Dimension        Dim             ....  339

ORBITAL ENERGIES
----------------

  NO   OCC          E(Eh)            E(eV)
   0   2.0000     -20.574436      -559.8589
   1   2.0000     -15.572933      -423.7610
   2   2.0000     -15.533717      -422.6939
   3   2.0000     -11.301450      -307.5281
   4   2.0000     -11.292329      -307.2799
   5   2.0000     -11.272547      -306.7416
   6   2.0000     -11.251991      -306.1823
   7   2.0000     -11.231312      -305.6195
   8   2.0000     -11.221028      -305.3397
   9   2.0000      -1.378504       -37.5110
  10   2.0000      -1.313933       -35.7539
  11   2.0000      -1.151867       -31.3439
  12   2.0000      -1.112238       -30.2655
  13   2.0000      -0.976990       -26.5853
  14   2.0000      -0.965330       -26.2680
  15   2.0000      -0.828471       -22.5438
  16   2.0000      -0.794451       -21.6181
  17   2.0000      -0.763734       -20.7823
  18   2.0000      -0.725387       -19.7388
  19   2.0000      -0.680356       -18.5134
  20   2.0000      -0.632186       -17.2027
  21   2.0000      -0.623978       -16.9793
  22   2.0000      -0.618394       -16.8273
  23   2.0000      -0.595301       -16.1990
  24   2.0000      -0.579567       -15.7708
  25   2.0000      -0.552451       -15.0329
  26   2.0000      -0.532889       -14.5006
  27   2.0000      -0.532299       -14.4846
  28   2.0000      -0.513162       -13.9639
  29   2.0000      -0.474878       -12.9221
  30   2.0000      -0.467298       -12.7158
  31   2.0000      -0.433109       -11.7855
  32   2.0000      -0.362267        -9.8578
  33   2.0000      -0.334467        -9.1013
  34   0.0000       0.119780         3.2594
  35   0.0000       0.146718         3.9924
  36   0.0000       0.165326         4.4987
  37   0.0000       0.178820         4.8659
  38   0.0000       0.179051         4.8722

MULLIKEN ATOMIC CHARGES
-----------------------
   0 C :   -0.415001
   1 C :    0.150593
   2 C :   -0.261365
   3 C :   -0.025614
   4 N :   -0.269198
   5 C :    0.055062
   6 C :   -0.031808
   7 O :   -0.483341
   8 N :   -0.346624
   9 H :    0.131290
  10 H :    0.144148
  11 H :    0.133711
  12 H :    0.129116
  13 H :    0.134636
  14 H :    0.125758
  15 H :    0.139347
  16 H :    0.124657
  17 H :    0.321714
  18 H :    0.242919
Sum of atomic charges:   -0.0000000

LOEWDIN ATOMIC CHARGES
----------------------
   0 C :   -0.273265
   1 C :   -0.284595
   2 C :   -0.193012
   3 C :   -0.229066
   4 N :    0.104012
   5 C :   -0.355292
   6 C :   -0.300163
   7 O :   -0.051471
   8 N :    0.140849
   9 H :    0.127065
  10 H :    0.129892
  11 H :    0.134990
  12 H :    0.138215
  13 H :    0.138647
  14 H :    0.136930
  15 H :    0.133206
  16 H :    0.139189
  17 H :    0.177264
  18 H :    0.186607

  Mayer bond orders larger than 0.1
B(  0-C ,  1-C ) :   0.8923 B(  0-C ,  9-H ) :   0.9345 B(  0-C , 10-H ) :   0.9408
B(  0-C , 11-H ) :   0.9325 B(  1-C ,  2-C ) :   0.8824 B(  1-C ,  3-C ) :   0.8527
B(  1-C ,  8-N ) :   0.9794 B(  2-C ,  3-C ) :   0.8350 B(  2-C , 12-H ) :   0.9279
B(  2-C , 13-H ) :   0.9120 B(  3-C ,  4-N ) :   0.9862 B(  3-C , 14-H ) :   0.9383
B(  4-N ,  5-C ) :   1.8129 B(  5-C ,  6-C ) :   0.8882 B(  5-C ,  8-N ) :   1.1302
B(  6-C ,  7-O ) :   0.8689 B(  6-C , 15-H ) :   0.9567 B(  6-C , 16-H ) :   0.9128
B(  7-O , 17-H ) :   0.8446 B(  8-N , 18-H ) :   0.8594

MP2 TOTAL ENERGY:     -418.501301714 Eh
FINAL SINGLE POINT ENERGY      -418.501301714451

DIPOLE MOMENT
-------------
                                X             Y             Z
Electronic contribution:      1.61592      -4.30378      -0.88010
Nuclear contribution   :     -1.39888       5.19076       0.78846
                        -----------------------------------------
Total Dipole Moment    :      0.21704       0.88698      -0.09164
                        -----------------------------------------
Magnitude (a.u.)       :      0.91774
Magnitude (Debye)      :      2.33270

                             ****ORCA TERMINATED NORMALLY****
TOTAL RUN TIME: 0 days 0 hours 18 minutes 34 seconds 226 msec
