                         Program Version 3.0.3 - RELEASE   -
|  1> ! RI-MP2 RIJK def2-TZVP def2-TZVP/C def2-TZVP/JK TIGHTSCF
|  2> % maxcore 2000
|  3> % mp2 density relaxed end
|  4> *xyz 0 1
|  5>  C       -0.0187282350     1.5850981115    -0.0029119458
|  6>  C        0.0108651232     0.0491319761    -0.0000908725
|  7>  C        0.6640992507    -0.5110843168    -1.2744651467
|  8>  C        0.9542978677    -2.0093243952    -1.1504984837
|  9>  C        1.9534868160    -2.2779159687    -0.0011057892
| 10>  C        1.5699107004    -1.4914857866     1.2420127002
| 11>  C        0.7030293353    -0.4814163555     1.2331455177
| 12>  C        2.0674264501    -3.7066864450     0.2904475258
| 13>  C        2.1506242743    -4.8818144770     0.5303384948
| 14>  H        0.9970158098     1.9957012891    -0.0131094990
| 15>  H       -0.5454943622     1.9645843617    -0.8848168653
| 16>  H       -0.5274735260     1.9739261962     0.8854646576
| 17>  H       -1.0352707048    -0.2959800958     0.0289263315
| 18>  H        0.0195488685    -0.3195358604    -2.1396333409
| 19>  H        1.6039987402     0.0272674955    -1.4596833201
| 20>  H        0.0261937417    -2.5533018409    -0.9403444546
| 21>  H        1.3552264177    -2.4122931161    -2.0855293309
| 22>  H        2.9479460851    -1.9323437209    -0.3273807456
| 23>  H        2.0403738821    -1.8052278650     2.1694360635
| 24>  H        0.4696109377     0.0209977754     2.1705149698
| 25>  H        2.2292546474    -5.9192089417     0.7419912233
| 26> *
| 27>
| 28>                          ****END OF INPUT****

CARTESIAN COORDINATES (ANGSTROEM)
---------------------------------
  C     -0.018728    1.585098   -0.002912
  C      0.010865    0.049132   -0.000091
  C      0.664099   -0.511084   -1.274465
  C      0.954298   -2.009324   -1.150498
  C      1.953487   -2.277916   -0.001106
  C      1.569911   -1.491486    1.242013
  C      0.703029   -0.481416    1.233146
  C      2.067426   -3.706686    0.290448
  C      2.150624   -4.881814    0.530338
  H      0.997016    1.995701   -0.013109
  H     -0.545494    1.964584   -0.884817
  H     -0.527474    1.973926    0.885465
  H     -1.035271   -0.295980    0.028926
  H      0.019549   -0.319536   -2.139633
  H      1.603999    0.027267   -1.459683
  H      0.026194   -2.553302   -0.940344
  H      1.355226   -2.412293   -2.085529
  H      2.947946   -1.932344   -0.327381
  H      2.040374   -1.805228    2.169436
  H      0.469611    0.020998    2.170515
  H      2.229255   -5.919209    0.741991

 Total Charge           Charge          ....    0
 Multiplicity           Mult            ....    1
 Number of Electrons    NEL             ....   66
 Basis Dimension        Dim             ....  351

ORBITAL ENERGIES
----------------

  NO   OCC          E(Eh)            E(eV)
   0   2.0000     -11.258082      -306.3480
   1   2.0000     -11.233553      -305.6805
   2   2.0000     -11.229538      -305.5713
   3   2.0000     -11.229290      -305.5645
   4   2.0000     -11.227636      -305.5195
   5   2.0000     -11.226066      -305.4768
   6   2.0000     -11.223078      -305.3955
   7   2.0000     -11.217234      -305.2365
   8   2.0000     -11.217009      -305.2303
   9   2.0000      -1.140122       -31.0243
  10   2.0000      -1.067258       -29.0416
  11   2.0000      -1.012932       -27.5633
  12   2.0000      -1.002457       -27.2782
  13   2.0000      -0.930332       -25.3156
  14   2.0000      -0.836499       -22.7623
  15   2.0000      -0.822328       -22.3767
  16   2.0000      -0.725546       -19.7431
  17   2.0000      -0.710910       -19.3449
  18   2.0000      -0.672752       -18.3065
  19   2.0000      -0.635967       -17.3055
  20   2.0000      -0.608732       -16.5644
  21   2.0000      -0.601302       -16.3623
  22   2.0000      -0.562541       -15.3075
  23   2.0000      -0.557393       -15.1674
  24   2.0000      -0.539364       -14.6768
  25   2.0000      -0.524459       -14.2713
  26   2.0000      -0.507580       -13.8119
  27   2.0000      -0.476266       -12.9599
  28   2.0000      -0.463556       -12.6140
  29   2.0000      -0.444949       -12.1077
  30   2.0000      -0.385730       -10.4963
  31   2.0000      -0.382733       -10.4147
  32   2.0000      -0.350265        -9.5312
  33   0.0000       0.125281         3.4091
  34   0.0000       0.152457         4.1486
  35   0.0000       0.159944         4.3523
  36   0.0000       0.162016         4.4087
  37   0.0000       0.169888         4.6229

MULLIKEN ATOMIC CHARGES
-----------------------
   0 C :   -0.415611
   1 C :    0.041223
   2 C :   -0.244195
   3 C :   -0.222874
   4 C :   -0.092390
   5 C :   -0.198490
   6 C :   -0.200574
   7 C :   -0.053501
   8 C :   -0.144035
   9 H :    0.128918
  10 H :    0.131177
  11 H :    0.132767
  12 H :    0.096251
  13 H :    0.127011
  14 H :    0.106788
  15 H :    0.121731
  16 H :    0.131807
  17 H :    0.118364
  18 H :    0.128051
  19 H :    0.118524
  20 H :    0.189060
Sum of atomic charges:   -0.0000000

LOEWDIN ATOMIC CHARGES
----------------------
   0 C :   -0.289909
   1 C :   -0.270117
   2 C :   -0.233628
   3 C :   -0.214739
   4 C :   -0.228573
   5 C :   -0.130389
   6 C :   -0.144035
   7 C :   -0.083892
   8 C :   -0.103433
   9 H :    0.124182
  10 H :    0.123434
  11 H :    0.122908
  12 H :    0.159176
  13 H :    0.139206
  14 H :    0.143214
  15 H :    0.147554
  16 H :    0.141013
  17 H :    0.177033
  18 H :    0.148552
  19 H :    0.146506
  20 H :    0.125937

  Mayer bond orders larger than 0.1
B(  0-C ,  1-C ) :   0.8969 B(  0-C ,  9-H ) :   0.9340 B(  0-C , 10-H ) :   0.9386
B(  0-C , 11-H ) :   0.9409 B(  1-C ,  2-C ) :   0.9364 B(  1-C ,  6-C ) :   0.8968
B(  1-C , 12-H ) :   0.9167 B(  2-C ,  3-C ) :   0.9141 B(  2-C , 13-H ) :   0.9283
B(  2-C , 14-H ) :   0.9220 B(  3-C ,  4-C ) :   0.9500 B(  3-C , 15-H ) :   0.9312
B(  3-C , 16-H ) :   0.9286 B(  4-C ,  5-C ) :   0.8820 B(  4-C ,  7-C ) :   1.1631
B(  4-C ,  8-C ) :  -0.1063 B(  4-C , 17-H ) :   0.8930 B(  5-C ,  6-C ) :   1.8132
B(  5-C , 18-H ) :   0.9285 B(  6-C , 19-H ) :   0.9250 B(  7-C ,  8-C ) :   2.5868
B(  8-C , 20-H ) :   0.8881

MP2 TOTAL ENERGY:     -349.284249048 Eh
FINAL SINGLE POINT ENERGY      -349.284249048454

DIPOLE MOMENT
-------------
                                X             Y             Z
Electronic contribution:      3.09784      -7.34646       2.37334
Nuclear contribution   :     -3.22802       7.63203      -2.53972
                        -----------------------------------------
Total Dipole Moment    :     -0.13018       0.28557      -0.16637
                        -----------------------------------------
Magnitude (a.u.)       :      0.35522
Magnitude (Debye)      :      0.90289

                             ****ORCA TERMINATED NORMALLY****
TOTAL RUN TIME: 0 days 0 hours 20 minutes 39 seconds 137 msec
