                         Program Version 3.0.3 - RELEASE   -
|  1> ! RI-MP2 RIJK def2-TZVP def2-TZVP/C def2-TZVP/JK TIGHTSCF
|  2> % maxcore 2000
|  3> % mp2 density relaxed end
|  4> *xyz 0 1
|  5>  C        0.0831968900     1.4646419627     0.0777494453
|  6>  C        0.1518461306    -0.0698538969     0.0865557014
|  7>  C        0.9022469482    -0.5817778015     1.3195859931
|  8>  O        2.2312087889    -0.0840896271     1.2706201573
|  9>  C       -1.2461676997    -0.6765938526     0.0466026080
| 10>  C       -2.1524352472    -0.6771354828    -1.2198107724
| 11>  C       -1.2931298209    -1.7892342498    -1.8676019338
| 12>  C       -1.5589927630    -2.1425214753    -0.3845625909
| 13>  O       -2.9703443885    -1.7351723312    -0.5798097656
| 14>  H        1.0840431836     1.8907185046     0.1730922264
| 15>  H       -0.3661174502     1.8361932272    -0.8485135637
| 16>  H       -0.5238966369     1.8323254106     0.9137994790
| 17>  H        0.7331140835    -0.3919691549    -0.7848921559
| 18>  H        0.3827575420    -0.2437552315     2.2318374193
| 19>  H        0.8947403577    -1.6836087362     1.3273441532
| 20>  H        2.6829373861    -0.3477259201     2.0771912549
| 21>  H       -1.8252709820    -0.4000099140     0.9342652297
| 22>  H       -2.6859344633     0.1493569430    -1.6907475452
| 23>  H       -1.8265863004    -2.4142135311    -2.5844605337
| 24>  H       -0.2752421410    -1.5580673231    -2.1857939634
| 25>  H       -1.3803539575    -3.0785468101     0.1464376969
| 26> *
| 27>
| 28>                          ****END OF INPUT****

CARTESIAN COORDINATES (ANGSTROEM)
---------------------------------
  C      0.083197    1.464642    0.077749
  C      0.151846   -0.069854    0.086556
  C      0.902247   -0.581778    1.319586
  O      2.231209   -0.084090    1.270620
  C     -1.246168   -0.676594    0.046603
  C     -2.152435   -0.677135   -1.219811
  C     -1.293130   -1.789234   -1.867602
  C     -1.558993   -2.142521   -0.384563
  O     -2.970344   -1.735172   -0.579810
  H      1.084043    1.890719    0.173092
  H     -0.366117    1.836193   -0.848514
  H     -0.523897    1.832325    0.913799
  H      0.733114   -0.391969   -0.784892
  H      0.382758   -0.243755    2.231837
  H      0.894740   -1.683609    1.327344
  H      2.682937   -0.347726    2.077191
  H     -1.825271   -0.400010    0.934265
  H     -2.685934    0.149357   -1.690748
  H     -1.826586   -2.414214   -2.584461
  H     -0.275242   -1.558067   -2.185794
  H     -1.380354   -3.078547    0.146438

 Total Charge           Charge          ....    0
 Multiplicity           Mult            ....    1
 Number of Electrons    NEL             ....   70
 Basis Dimension        Dim             ....  351

ORBITAL ENERGIES
----------------

  NO   OCC          E(Eh)            E(eV)
   0   2.0000     -20.560529      -559.4804
   1   2.0000     -20.545228      -559.0641
   2   2.0000     -11.298693      -307.4531
   3   2.0000     -11.298394      -307.4449
   4   2.0000     -11.280286      -306.9522
   5   2.0000     -11.240503      -305.8696
   6   2.0000     -11.235028      -305.7207
   7   2.0000     -11.232660      -305.6562
   8   2.0000     -11.212895      -305.1184
   9   2.0000      -1.392693       -37.8971
  10   2.0000      -1.365177       -37.1483
  11   2.0000      -1.102659       -30.0049
  12   2.0000      -1.037249       -28.2250
  13   2.0000      -0.928242       -25.2587
  14   2.0000      -0.916876       -24.9495
  15   2.0000      -0.880316       -23.9546
  16   2.0000      -0.805545       -21.9200
  17   2.0000      -0.736581       -20.0434
  18   2.0000      -0.704256       -19.1638
  19   2.0000      -0.691562       -18.8184
  20   2.0000      -0.659493       -17.9457
  21   2.0000      -0.625069       -17.0090
  22   2.0000      -0.602724       -16.4010
  23   2.0000      -0.586626       -15.9629
  24   2.0000      -0.552930       -15.0460
  25   2.0000      -0.543399       -14.7866
  26   2.0000      -0.533300       -14.5118
  27   2.0000      -0.511364       -13.9149
  28   2.0000      -0.494396       -13.4532
  29   2.0000      -0.478821       -13.0294
  30   2.0000      -0.464578       -12.6418
  31   2.0000      -0.458842       -12.4857
  32   2.0000      -0.450012       -12.2455
  33   2.0000      -0.435059       -11.8386
  34   2.0000      -0.405523       -11.0349
  35   0.0000       0.130583         3.5533
  36   0.0000       0.151537         4.1235
  37   0.0000       0.157115         4.2753
  38   0.0000       0.160641         4.3713
  39   0.0000       0.180552         4.9131

MULLIKEN ATOMIC CHARGES
-----------------------
   0 C :   -0.420407
   1 C :    0.019872
   2 C :   -0.088356
   3 O :   -0.467390
   4 C :   -0.088437
   5 C :   -0.048710
   6 C :   -0.169233
   7 C :   -0.053309
   8 O :   -0.309343
   9 H :    0.159655
  10 H :    0.128824
  11 H :    0.119456
  12 H :    0.076837
  13 H :    0.099858
  14 H :    0.099796
  15 H :    0.317017
  16 H :    0.112194
  17 H :    0.136623
  18 H :    0.120655
  19 H :    0.118483
  20 H :    0.135913
Sum of atomic charges:   -0.0000000

LOEWDIN ATOMIC CHARGES
----------------------
   0 C :   -0.286148
   1 C :   -0.273279
   2 C :   -0.325421
   3 O :   -0.045709
   4 C :   -0.174162
   5 C :   -0.209670
   6 C :   -0.201765
   7 C :   -0.213923
   8 O :    0.127523
   9 H :    0.129855
  10 H :    0.122702
  11 H :    0.124219
  12 H :    0.155717
  13 H :    0.118795
  14 H :    0.118135
  15 H :    0.173066
  16 H :    0.155010
  17 H :    0.123717
  18 H :    0.133135
  19 H :    0.125914
  20 H :    0.122288

  Mayer bond orders larger than 0.1
B(  0-C ,  1-C ) :   0.9092 B(  0-C ,  9-H ) :   0.9341 B(  0-C , 10-H ) :   0.9384
B(  0-C , 11-H ) :   0.9319 B(  1-C ,  2-C ) :   0.9116 B(  1-C ,  4-C ) :   0.8862
B(  1-C , 12-H ) :   0.9091 B(  2-C ,  3-O ) :   1.0255 B(  2-C , 13-H ) :   0.9242
B(  2-C , 14-H ) :   0.9313 B(  3-O , 15-H ) :   0.8472 B(  4-C ,  5-C ) :   0.9292
B(  4-C ,  7-C ) :   0.9318 B(  4-C , 16-H ) :   0.9064 B(  5-C ,  6-C ) :   0.9134
B(  5-C ,  8-O ) :   0.9190 B(  5-C , 17-H ) :   0.8880 B(  6-C ,  7-C ) :   0.9102
B(  6-C , 18-H ) :   0.9207 B(  6-C , 19-H ) :   0.9175 B(  7-C ,  8-O ) :   0.9191
B(  7-C , 20-H ) :   0.8862

MP2 TOTAL ENERGY:     -423.448147412 Eh
FINAL SINGLE POINT ENERGY      -423.448147412393

DIPOLE MOMENT
-------------
                                X             Y             Z
Electronic contribution:     -3.14371      -3.56995      -0.50651
Nuclear contribution   :      3.80130       3.52203       0.84383
                        -----------------------------------------
Total Dipole Moment    :      0.65759      -0.04792       0.33731
                        -----------------------------------------
Magnitude (a.u.)       :      0.74061
Magnitude (Debye)      :      1.88247

                             ****ORCA TERMINATED NORMALLY****
TOTAL RUN TIME: 0 days 0 hours 17 minutes 13 seconds 101 msec
