                         Program Version 3.0.3 - RELEASE   -
|  1> ! RI-MP2 RIJK def2-TZVP def2-TZVP/C def2-TZVP/JK TIGHTSCF
|  2> % maxcore 2000
|  3> % mp2 density relaxed end
|  4> *xyz 0 1
|  5>  C       -0.0532057839     1.5376943837     0.0781368167
|  6>  C       -0.0107155925     0.0222182829    -0.0365091526
|  7>  N       -1.3448012844    -0.5012022451    -0.2596804590
|  8>  C        1.1503105657    -0.5814940863    -0.9453639773
|  9>  C        1.7200288289    -1.2727873024     0.2945268037
| 10>  O        2.0126174849    -0.2570490474     1.2551195655
| 11>  C        0.6594503261    -0.7126224273     1.1644652200
| 12>  C        0.0255429795    -1.2380340600     2.3341689581
| 13>  N       -0.5141287646    -1.6654658408     3.2632008443
| 14>  H        0.9239385677     1.9261967929     0.3712526077
| 15>  H       -0.3222474903     1.9838315486    -0.8863265345
| 16>  H       -0.8004000998     1.8428829786     0.8158371666
| 17>  H       -1.7569369965    -0.0772076296    -1.0851475117
| 18>  H       -1.3331942626    -1.5056637669    -0.4123364766
| 19>  H        0.7505533512    -1.2795988489    -1.6847375317
| 20>  H        1.8332310075     0.1210979245    -1.4289881561
| 21>  H        2.2585367932    -2.2087403764     0.3877076770
| 22> *
| 23>
| 24>                          ****END OF INPUT****

CARTESIAN COORDINATES (ANGSTROEM)
---------------------------------
  C     -0.053206    1.537694    0.078137
  C     -0.010716    0.022218   -0.036509
  N     -1.344801   -0.501202   -0.259680
  C      1.150311   -0.581494   -0.945364
  C      1.720029   -1.272787    0.294527
  O      2.012617   -0.257049    1.255120
  C      0.659450   -0.712622    1.164465
  C      0.025543   -1.238034    2.334169
  N     -0.514129   -1.665466    3.263201
  H      0.923939    1.926197    0.371253
  H     -0.322247    1.983832   -0.886327
  H     -0.800400    1.842883    0.815837
  H     -1.756937   -0.077208   -1.085148
  H     -1.333194   -1.505664   -0.412336
  H      0.750553   -1.279599   -1.684738
  H      1.833231    0.121098   -1.428988
  H      2.258537   -2.208740    0.387708

 Total Charge           Charge          ....    0
 Multiplicity           Mult            ....    1
 Number of Electrons    NEL             ....   66
 Basis Dimension        Dim             ....  327

ORBITAL ENERGIES
----------------

  NO   OCC          E(Eh)            E(eV)
   0   2.0000     -20.606223      -560.7238
   1   2.0000     -15.581418      -423.9919
   2   2.0000     -15.565784      -423.5665
   3   2.0000     -11.337946      -308.5212
   4   2.0000     -11.324326      -308.1506
   5   2.0000     -11.304807      -307.6194
   6   2.0000     -11.281556      -306.9868
   7   2.0000     -11.256190      -306.2965
   8   2.0000     -11.229043      -305.5578
   9   2.0000      -1.459173       -39.7061
  10   2.0000      -1.227827       -33.4109
  11   2.0000      -1.219334       -33.1798
  12   2.0000      -1.079763       -29.3819
  13   2.0000      -0.995729       -27.0952
  14   2.0000      -0.972382       -26.4599
  15   2.0000      -0.863967       -23.5097
  16   2.0000      -0.819398       -22.2969
  17   2.0000      -0.744484       -20.2584
  18   2.0000      -0.694289       -18.8926
  19   2.0000      -0.663694       -18.0600
  20   2.0000      -0.628490       -17.1021
  21   2.0000      -0.621017       -16.8987
  22   2.0000      -0.613574       -16.6962
  23   2.0000      -0.569049       -15.4846
  24   2.0000      -0.560952       -15.2643
  25   2.0000      -0.537887       -14.6367
  26   2.0000      -0.528329       -14.3766
  27   2.0000      -0.517480       -14.0814
  28   2.0000      -0.505665       -13.7599
  29   2.0000      -0.491547       -13.3757
  30   2.0000      -0.461794       -12.5661
  31   2.0000      -0.413018       -11.2388
  32   2.0000      -0.404934       -11.0188
  33   0.0000       0.116638         3.1739
  34   0.0000       0.133487         3.6324
  35   0.0000       0.149336         4.0636
  36   0.0000       0.158347         4.3089
  37   0.0000       0.167292         4.5522

MULLIKEN ATOMIC CHARGES
-----------------------
   0 C :   -0.457706
   1 C :    0.191050
   2 N :   -0.540593
   3 C :   -0.181873
   4 C :   -0.056638
   5 O :   -0.301105
   6 C :    0.280216
   7 C :   -0.216309
   8 N :   -0.028213
   9 H :    0.154900
  10 H :    0.131829
  11 H :    0.155633
  12 H :    0.236081
  13 H :    0.231593
  14 H :    0.120853
  15 H :    0.128269
  16 H :    0.152012
Sum of atomic charges:    0.0000000

LOEWDIN ATOMIC CHARGES
----------------------
   0 C :   -0.267669
   1 C :   -0.309737
   2 N :   -0.103340
   3 C :   -0.182471
   4 C :   -0.198961
   5 O :    0.228170
   6 C :   -0.246946
   7 C :   -0.143382
   8 N :    0.090367
   9 H :    0.135363
  10 H :    0.128197
  11 H :    0.135032
  12 H :    0.162306
  13 H :    0.161036
  14 H :    0.137465
  15 H :    0.137094
  16 H :    0.137476

  Mayer bond orders larger than 0.1
B(  0-C ,  1-C ) :   0.8864 B(  0-C ,  9-H ) :   0.9362 B(  0-C , 10-H ) :   0.9280
B(  0-C , 11-H ) :   0.9362 B(  1-C ,  2-N ) :   0.9578 B(  1-C ,  3-C ) :   0.9748
B(  1-C ,  6-C ) :   0.8456 B(  2-N , 12-H ) :   0.8788 B(  2-N , 13-H ) :   0.8769
B(  3-C ,  4-C ) :   0.9075 B(  3-C , 14-H ) :   0.9057 B(  3-C , 15-H ) :   0.8951
B(  4-C ,  5-O ) :   0.9158 B(  4-C ,  6-C ) :   0.8511 B(  4-C , 16-H ) :   0.9250
B(  5-O ,  6-C ) :   0.8517 B(  6-C ,  7-C ) :   0.9271 B(  7-C ,  8-N ) :   2.8552

MP2 TOTAL ENERGY:     -417.271182951 Eh
FINAL SINGLE POINT ENERGY      -417.271182951360

DIPOLE MOMENT
-------------
                                X             Y             Z
Electronic contribution:      1.86031      -4.35550       7.21427
Nuclear contribution   :     -1.53587       4.41479      -9.28106
                        -----------------------------------------
Total Dipole Moment    :      0.32444       0.05929      -2.06680
                        -----------------------------------------
Magnitude (a.u.)       :      2.09294
Magnitude (Debye)      :      5.31984

                             ****ORCA TERMINATED NORMALLY****
TOTAL RUN TIME: 0 days 0 hours 24 minutes 5 seconds 674 msec
