                         Program Version 3.0.3 - RELEASE   -
|  1> ! RI-MP2 RIJK def2-TZVP def2-TZVP/C def2-TZVP/JK TIGHTSCF
|  2> % maxcore 2000
|  3> % mp2 density relaxed end
|  4> *xyz 0 1
|  5>  C        0.0059171559     1.5462854422    -0.1483639472
|  6>  C       -0.0567557713     0.0514930180    -0.0475093777
|  7>  C       -0.8919431650    -0.6699732256     0.9326892622
|  8>  N        0.5759075959    -0.7290147656     1.1025900641
|  9>  C        1.0460975974    -1.7541804424     0.0957627665
| 10>  C        0.4873288675    -0.9219175111    -1.0939106725
| 11>  C        2.5380730896    -1.9187107065     0.1352846737
| 12>  C        3.1511330346    -3.0143056346     0.9214298561
| 13>  N        3.1698778184    -3.0582446311    -0.5534498508
| 14>  H        0.9944362696     1.8796210360    -0.4825484230
| 15>  H       -0.7347441625     1.9185545746    -0.8663249135
| 16>  H       -0.1991271506     2.0100004025     0.8209051651
| 17>  H       -1.3816782121    -0.0828320660     1.7041692356
| 18>  H       -1.4265335077    -1.5755201292     0.6489460444
| 19>  H        0.5675704994    -2.7317593368     0.2468387696
| 20>  H       -0.2423535151    -1.3930197849    -1.7593287617
| 21>  H        1.2879150793    -0.4914128751    -1.7008958551
| 22>  H        3.0928955226    -0.9879071527     0.0323365356
| 23>  H        4.1222169757    -2.8727396118     1.3865237079
| 24>  H        2.4866955602    -3.6880341319     1.4568131874
| 25>  H        2.4503715784    -3.6989845379    -0.8832145566
| 26> *
| 27>
| 28>                          ****END OF INPUT****

CARTESIAN COORDINATES (ANGSTROEM)
---------------------------------
  C      0.005917    1.546285   -0.148364
  C     -0.056756    0.051493   -0.047509
  C     -0.891943   -0.669973    0.932689
  N      0.575908   -0.729015    1.102590
  C      1.046098   -1.754180    0.095763
  C      0.487329   -0.921918   -1.093911
  C      2.538073   -1.918711    0.135285
  C      3.151133   -3.014306    0.921430
  N      3.169878   -3.058245   -0.553450
  H      0.994436    1.879621   -0.482548
  H     -0.734744    1.918555   -0.866325
  H     -0.199127    2.010000    0.820905
  H     -1.381678   -0.082832    1.704169
  H     -1.426534   -1.575520    0.648946
  H      0.567570   -2.731759    0.246839
  H     -0.242354   -1.393020   -1.759329
  H      1.287915   -0.491413   -1.700896
  H      3.092896   -0.987907    0.032337
  H      4.122217   -2.872740    1.386524
  H      2.486696   -3.688034    1.456813
  H      2.450372   -3.698985   -0.883215

 Total Charge           Charge          ....    0
 Multiplicity           Mult            ....    1
 Number of Electrons    NEL             ....   68
 Basis Dimension        Dim             ....  351

ORBITAL ENERGIES
----------------

  NO   OCC          E(Eh)            E(eV)
   0   2.0000     -15.558072      -423.3567
   1   2.0000     -15.555231      -423.2794
   2   2.0000     -11.269554      -306.6601
   3   2.0000     -11.266607      -306.5800
   4   2.0000     -11.255547      -306.2790
   5   2.0000     -11.254703      -306.2560
   6   2.0000     -11.250309      -306.1365
   7   2.0000     -11.232572      -305.6538
   8   2.0000     -11.224507      -305.4344
   9   2.0000      -1.293393       -35.1950
  10   2.0000      -1.254780       -34.1443
  11   2.0000      -1.024737       -27.8845
  12   2.0000      -1.003942       -27.3186
  13   2.0000      -0.923510       -25.1300
  14   2.0000      -0.878780       -23.9128
  15   2.0000      -0.848105       -23.0781
  16   2.0000      -0.797778       -21.7087
  17   2.0000      -0.726567       -19.7709
  18   2.0000      -0.688359       -18.7312
  19   2.0000      -0.659661       -17.9503
  20   2.0000      -0.629265       -17.1232
  21   2.0000      -0.612568       -16.6688
  22   2.0000      -0.600015       -16.3272
  23   2.0000      -0.571363       -15.5476
  24   2.0000      -0.559362       -15.2210
  25   2.0000      -0.540166       -14.6987
  26   2.0000      -0.513636       -13.9768
  27   2.0000      -0.491670       -13.3790
  28   2.0000      -0.484101       -13.1731
  29   2.0000      -0.460174       -12.5220
  30   2.0000      -0.440643       -11.9905
  31   2.0000      -0.420791       -11.4503
  32   2.0000      -0.384510       -10.4630
  33   2.0000      -0.367564       -10.0019
  34   0.0000       0.137941         3.7536
  35   0.0000       0.138361         3.7650
  36   0.0000       0.171110         4.6561
  37   0.0000       0.172668         4.6985
  38   0.0000       0.179343         4.8802

MULLIKEN ATOMIC CHARGES
-----------------------
   0 C :   -0.426427
   1 C :    0.105595
   2 C :   -0.183611
   3 N :   -0.251199
   4 C :   -0.043446
   5 C :   -0.207805
   6 C :   -0.023857
   7 C :   -0.192765
   8 N :   -0.359842
   9 H :    0.131201
  10 H :    0.134809
  11 H :    0.139976
  12 H :    0.127321
  13 H :    0.116866
  14 H :    0.092289
  15 H :    0.120797
  16 H :    0.129649
  17 H :    0.124514
  18 H :    0.124906
  19 H :    0.125559
  20 H :    0.215469
Sum of atomic charges:    0.0000000

LOEWDIN ATOMIC CHARGES
----------------------
   0 C :   -0.272668
   1 C :   -0.275844
   2 C :   -0.232071
   3 N :    0.133746
   4 C :   -0.246814
   5 C :   -0.185379
   6 C :   -0.264156
   7 C :   -0.260957
   8 N :   -0.019098
   9 H :    0.128758
  10 H :    0.131252
  11 H :    0.133841
  12 H :    0.133648
  13 H :    0.126038
  14 H :    0.139320
  15 H :    0.130031
  16 H :    0.143612
  17 H :    0.146217
  18 H :    0.125330
  19 H :    0.122017
  20 H :    0.163178

  Mayer bond orders larger than 0.1
B(  0-C ,  1-C ) :   0.8872 B(  0-C ,  9-H ) :   0.9379 B(  0-C , 10-H ) :   0.9351
B(  0-C , 11-H ) :   0.9371 B(  1-C ,  2-C ) :   0.9608 B(  1-C ,  3-N ) :   0.7979
B(  1-C ,  5-C ) :   0.9136 B(  2-C ,  3-N ) :   0.9162 B(  2-C , 12-H ) :   0.9178
B(  2-C , 13-H ) :   0.9039 B(  3-N ,  4-C ) :   0.9330 B(  4-C ,  5-C ) :   0.9155
B(  4-C ,  6-C ) :   0.9481 B(  4-C , 14-H ) :   0.9075 B(  5-C , 15-H ) :   0.9070
B(  5-C , 16-H ) :   0.9291 B(  6-C ,  7-C ) :   0.9413 B(  6-C ,  8-N ) :   0.9392
B(  6-C , 17-H ) :   0.9082 B(  7-C ,  8-N ) :   0.9244 B(  7-C , 18-H ) :   0.9213
B(  7-C , 19-H ) :   0.9161 B(  8-N , 20-H ) :   0.8753

MP2 TOTAL ENERGY:     -382.524335128 Eh
FINAL SINGLE POINT ENERGY      -382.524335127707

DIPOLE MOMENT
-------------
                                X             Y             Z
Electronic contribution:      1.37449      -2.17380       0.86386
Nuclear contribution   :     -2.25620       2.15662      -1.05026
                        -----------------------------------------
Total Dipole Moment    :     -0.88171      -0.01718      -0.18640
                        -----------------------------------------
Magnitude (a.u.)       :      0.90136
Magnitude (Debye)      :      2.29107

                             ****ORCA TERMINATED NORMALLY****
TOTAL RUN TIME: 0 days 0 hours 18 minutes 41 seconds 67 msec
