                         Program Version 3.0.3 - RELEASE   -
|  1> ! RI-MP2 RIJK def2-TZVP def2-TZVP/C def2-TZVP/JK TIGHTSCF
|  2> % maxcore 2000
|  3> % mp2 density relaxed end
|  4> *xyz 0 1
|  5>  O       -0.6257868533     0.0413698749    -0.3450165480
|  6>  C       -0.1764797212     1.1378194289    -0.1407193152
|  7>  C        1.2089136474     1.5920964124    -0.5732620238
|  8>  N        1.1883231086     2.9924103729    -0.9693171822
|  9>  C        2.4503827243     3.6797695859    -0.9827645063
| 10>  C        3.6370035937     3.2078652519    -1.8277725259
| 11>  C        2.8870379855     4.4315546728    -2.2318339629
| 12>  C        2.7973401151     4.3505793587     0.3077754424
| 13>  O        3.8463770365     4.9042851681     0.5311103364
| 14>  H       -0.7497386318     1.9236485035     0.4005861004
| 15>  H        1.8544059445     1.4970653990     0.3118782543
| 16>  H        1.5949170641     0.8891454297    -1.3269134813
| 17>  H        0.6795401956     3.1234221932    -1.8335145361
| 18>  H        4.6169607389     3.3383339591    -1.3832962386
| 19>  H        3.4915210077     2.3006651392    -2.4028250275
| 20>  H        2.2236532139     4.3763008451    -3.0890909053
| 21>  H        3.3549180518     5.3956868672    -2.0696735516
| 22>  H        1.9796502286     4.3044382775     1.0604459912
| 23> *
| 24>
| 25>                          ****END OF INPUT****

CARTESIAN COORDINATES (ANGSTROEM)
---------------------------------
  O     -0.625787    0.041370   -0.345017
  C     -0.176480    1.137819   -0.140719
  C      1.208914    1.592096   -0.573262
  N      1.188323    2.992410   -0.969317
  C      2.450383    3.679770   -0.982765
  C      3.637004    3.207865   -1.827773
  C      2.887038    4.431555   -2.231834
  C      2.797340    4.350579    0.307775
  O      3.846377    4.904285    0.531110
  H     -0.749739    1.923649    0.400586
  H      1.854406    1.497065    0.311878
  H      1.594917    0.889145   -1.326913
  H      0.679540    3.123422   -1.833515
  H      4.616961    3.338334   -1.383296
  H      3.491521    2.300665   -2.402825
  H      2.223653    4.376301   -3.089091
  H      3.354918    5.395687   -2.069674
  H      1.979650    4.304438    1.060446

 Total Charge           Charge          ....    0
 Multiplicity           Mult            ....    1
 Number of Electrons    NEL             ....   68
 Basis Dimension        Dim             ....  333

ORBITAL ENERGIES
----------------

  NO   OCC          E(Eh)            E(eV)
   0   2.0000     -20.568730      -559.7036
   1   2.0000     -20.559001      -559.4389
   2   2.0000     -15.582497      -424.0213
   3   2.0000     -11.340582      -308.5929
   4   2.0000     -11.337090      -308.4979
   5   2.0000     -11.291495      -307.2572
   6   2.0000     -11.284294      -307.0613
   7   2.0000     -11.258316      -306.3543
   8   2.0000     -11.251816      -306.1775
   9   2.0000      -1.407709       -38.3057
  10   2.0000      -1.400336       -38.1051
  11   2.0000      -1.259886       -34.2833
  12   2.0000      -1.142643       -31.0929
  13   2.0000      -0.991293       -26.9745
  14   2.0000      -0.918938       -25.0056
  15   2.0000      -0.853414       -23.2226
  16   2.0000      -0.809713       -22.0334
  17   2.0000      -0.764065       -20.7913
  18   2.0000      -0.719765       -19.5858
  19   2.0000      -0.709545       -19.3077
  20   2.0000      -0.673532       -18.3277
  21   2.0000      -0.651578       -17.7303
  22   2.0000      -0.637574       -17.3493
  23   2.0000      -0.622804       -16.9474
  24   2.0000      -0.612302       -16.6616
  25   2.0000      -0.580653       -15.8004
  26   2.0000      -0.562239       -15.2993
  27   2.0000      -0.531507       -14.4631
  28   2.0000      -0.519537       -14.1373
  29   2.0000      -0.490659       -13.3515
  30   2.0000      -0.462296       -12.5797
  31   2.0000      -0.429232       -11.6800
  32   2.0000      -0.423269       -11.5177
  33   2.0000      -0.389061       -10.5869
  34   0.0000       0.106159         2.8887
  35   0.0000       0.118517         3.2250
  36   0.0000       0.129308         3.5187
  37   0.0000       0.154612         4.2072
  38   0.0000       0.155666         4.2359

MULLIKEN ATOMIC CHARGES
-----------------------
   0 O :   -0.256314
   1 C :    0.078915
   2 C :   -0.073074
   3 N :   -0.359100
   4 C :    0.074689
   5 C :   -0.234498
   6 C :   -0.276078
   7 C :    0.084939
   8 O :   -0.287309
   9 H :    0.085874
  10 H :    0.142620
  11 H :    0.117505
  12 H :    0.214412
  13 H :    0.157304
  14 H :    0.141803
  15 H :    0.143341
  16 H :    0.155885
  17 H :    0.089086
Sum of atomic charges:    0.0000000

LOEWDIN ATOMIC CHARGES
----------------------
   0 O :    0.137005
   1 C :   -0.297797
   2 C :   -0.299384
   3 N :    0.037895
   4 C :   -0.316833
   5 C :   -0.192838
   6 C :   -0.187264
   7 C :   -0.264599
   8 O :    0.130126
   9 H :    0.111891
  10 H :    0.153695
  11 H :    0.129784
  12 H :    0.177485
  13 H :    0.143833
  14 H :    0.137155
  15 H :    0.136119
  16 H :    0.144734
  17 H :    0.118993

  Mayer bond orders larger than 0.1
B(  0-O ,  1-C ) :   2.0072 B(  1-C ,  2-C ) :   0.8860 B(  1-C ,  9-H ) :   0.9329
B(  2-C ,  3-N ) :   0.8879 B(  2-C , 10-H ) :   0.9052 B(  2-C , 11-H ) :   0.8881
B(  3-N ,  4-C ) :   1.0005 B(  3-N , 12-H ) :   0.8797 B(  4-C ,  5-C ) :   0.8175
B(  4-C ,  6-C ) :   0.8489 B(  4-C ,  7-C ) :   0.9194 B(  5-C ,  6-C ) :   0.9195
B(  5-C , 13-H ) :   0.9103 B(  5-C , 14-H ) :   0.9282 B(  6-C , 15-H ) :   0.9246
B(  6-C , 16-H ) :   0.9191 B(  7-C ,  8-O ) :   1.9608 B(  7-C , 17-H ) :   0.9381

MP2 TOTAL ENERGY:     -438.343672859 Eh
FINAL SINGLE POINT ENERGY      -438.343672858502

DIPOLE MOMENT
-------------
                                X             Y             Z
Electronic contribution:     -1.89801      -0.70395       3.18435
Nuclear contribution   :      1.84046       0.92573      -3.93067
                        -----------------------------------------
Total Dipole Moment    :     -0.05755       0.22178      -0.74631
                        -----------------------------------------
Magnitude (a.u.)       :      0.78069
Magnitude (Debye)      :      1.98437

                             ****ORCA TERMINATED NORMALLY****
TOTAL RUN TIME: 0 days 0 hours 15 minutes 59 seconds 480 msec
