                         Program Version 3.0.3 - RELEASE   -
|  1> ! RI-MP2 RIJK def2-TZVP def2-TZVP/C def2-TZVP/JK TIGHTSCF
|  2> % maxcore 2000
|  3> % mp2 density relaxed end
|  4> *xyz 0 1
|  5>  C        0.0224594147     1.5224654570     0.0068367133
|  6>  C       -0.0048502934     0.0238469642     0.0142383255
|  7>  C       -0.0596824212    -0.7974394957    -1.0862128794
|  8>  N       -0.0554847862    -2.1050519444    -0.6470996689
|  9>  C        0.0035505132    -2.1322204678     0.7225224929
| 10>  N       -0.0390960658    -3.3762927586     1.3892702103
| 11>  C        0.0408163396    -0.8283753935     1.1635277329
| 12>  H        0.9367432867     1.9182156076     0.4657234222
| 13>  H       -0.0273159239     1.9122193665    -1.0144592260
| 14>  H       -0.8215395354     1.9476279614     0.5633817091
| 15>  H       -0.0933667173    -0.5622497742    -2.1380985794
| 16>  H       -0.1942003876    -2.9226855141    -1.2146020300
| 17>  H        0.8645747092    -3.8420119444     1.3906801454
| 18>  H       -0.3139053031    -3.2481080471     2.3555592295
| 19>  H        0.1133710805    -0.5146895970     2.1948125325
| 20> *
| 21>
| 22>                          ****END OF INPUT****

CARTESIAN COORDINATES (ANGSTROEM)
---------------------------------
  C      0.022459    1.522465    0.006837
  C     -0.004850    0.023847    0.014238
  C     -0.059682   -0.797439   -1.086213
  N     -0.055485   -2.105052   -0.647100
  C      0.003551   -2.132220    0.722522
  N     -0.039096   -3.376293    1.389270
  C      0.040816   -0.828375    1.163528
  H      0.936743    1.918216    0.465723
  H     -0.027316    1.912219   -1.014459
  H     -0.821540    1.947628    0.563382
  H     -0.093367   -0.562250   -2.138099
  H     -0.194200   -2.922686   -1.214602
  H      0.864575   -3.842012    1.390680
  H     -0.313905   -3.248108    2.355559
  H      0.113371   -0.514690    2.194813

 Total Charge           Charge          ....    0
 Multiplicity           Mult            ....    1
 Number of Electrons    NEL             ....   52
 Basis Dimension        Dim             ....  265

ORBITAL ENERGIES
----------------

  NO   OCC          E(Eh)            E(eV)
   0   2.0000     -15.588336      -424.1802
   1   2.0000     -15.563226      -423.4969
   2   2.0000     -11.282899      -307.0233
   3   2.0000     -11.233892      -305.6897
   4   2.0000     -11.211293      -305.0748
   5   2.0000     -11.209245      -305.0191
   6   2.0000     -11.193444      -304.5891
   7   2.0000      -1.292112       -35.1602
   8   2.0000      -1.182715       -32.1833
   9   2.0000      -1.054572       -28.6964
  10   2.0000      -0.965699       -26.2780
  11   2.0000      -0.914822       -24.8936
  12   2.0000      -0.777379       -21.1536
  13   2.0000      -0.742582       -20.2067
  14   2.0000      -0.714455       -19.4413
  15   2.0000      -0.665622       -18.1125
  16   2.0000      -0.604729       -16.4555
  17   2.0000      -0.579282       -15.7631
  18   2.0000      -0.572630       -15.5821
  19   2.0000      -0.556223       -15.1356
  20   2.0000      -0.541231       -14.7276
  21   2.0000      -0.522050       -14.2057
  22   2.0000      -0.497392       -13.5347
  23   2.0000      -0.438107       -11.9215
  24   2.0000      -0.332423        -9.0457
  25   2.0000      -0.275199        -7.4885
  26   0.0000       0.131618         3.5815
  27   0.0000       0.154886         4.2147
  28   0.0000       0.159215         4.3325
  29   0.0000       0.177864         4.8399
  30   0.0000       0.194004         5.2791

MULLIKEN ATOMIC CHARGES
-----------------------
   0 C :   -0.426128
   1 C :    0.097609
   2 C :   -0.151548
   3 N :   -0.268288
   4 C :    0.217604
   5 N :   -0.545548
   6 C :   -0.319773
   7 H :    0.134568
   8 H :    0.129367
   9 H :    0.135630
  10 H :    0.136075
  11 H :    0.241443
  12 H :    0.251215
  13 H :    0.251494
  14 H :    0.116279
Sum of atomic charges:    0.0000000

LOEWDIN ATOMIC CHARGES
----------------------
   0 C :   -0.278301
   1 C :   -0.222576
   2 C :   -0.225666
   3 N :    0.187650
   4 C :   -0.338598
   5 N :   -0.120196
   6 C :   -0.176872
   7 H :    0.126737
   8 H :    0.128315
   9 H :    0.127303
  10 H :    0.131344
  11 H :    0.189786
  12 H :    0.164875
  13 H :    0.169381
  14 H :    0.136819

  Mayer bond orders larger than 0.1
B(  0-C ,  1-C ) :   0.8519 B(  0-C ,  7-H ) :   0.9372 B(  0-C ,  8-H ) :   0.9571
B(  0-C ,  9-H ) :   0.9383 B(  1-C ,  2-C ) :   1.5030 B(  1-C ,  6-C ) :   1.2299
B(  2-C ,  3-N ) :   1.1116 B(  2-C , 10-H ) :   0.9111 B(  3-N ,  4-C ) :   1.1237
B(  3-N , 11-H ) :   0.8702 B(  4-C ,  5-N ) :   1.0312 B(  4-C ,  6-C ) :   1.4924
B(  5-N , 12-H ) :   0.8747 B(  5-N , 13-H ) :   0.8898 B(  6-C , 14-H ) :   0.9353

MP2 TOTAL ENERGY:     -304.197939581 Eh
FINAL SINGLE POINT ENERGY      -304.197939581423

DIPOLE MOMENT
-------------
                                X             Y             Z
Electronic contribution:     -0.20741      -3.97308      -0.65296
Nuclear contribution   :      0.49996       3.48525       0.65727
                        -----------------------------------------
Total Dipole Moment    :      0.29255      -0.48783       0.00431
                        -----------------------------------------
Magnitude (a.u.)       :      0.56885
Magnitude (Debye)      :      1.44590

                             ****ORCA TERMINATED NORMALLY****
TOTAL RUN TIME: 0 days 0 hours 8 minutes 26 seconds 128 msec
