                         Program Version 3.0.3 - RELEASE   -
|  1> ! RI-MP2 RIJK def2-TZVP def2-TZVP/C def2-TZVP/JK TIGHTSCF
|  2> % maxcore 2000
|  3> % mp2 density relaxed end
|  4> *xyz 0 1
|  5>  C       -0.0527276216     1.5420086199     0.0980907930
|  6>  C        0.0178931693     0.0170008284     0.0218573560
|  7>  O        0.7757314633    -0.4108901347    -1.1087320620
|  8>  C        0.6931684815    -0.5909742376     1.2503372153
|  9>  C        0.7201551991    -2.1106674186     1.2017710282
| 10>  O        1.3601536992    -2.5669532610     2.4099877472
| 11>  C        1.4179735889    -3.9041235451     2.5760729166
| 12>  C        2.1240065799    -4.2504277537     3.8661749307
| 13>  O        0.9630268786    -4.6971812483     1.7909669874
| 14>  H        0.9529255009     1.9670238707     0.1755100469
| 15>  H       -0.5290476358     1.9537442131    -0.7990911235
| 16>  H       -0.6387237203     1.8680182186     0.9635608770
| 17>  H       -1.0089485244    -0.3824354902    -0.0463174006
| 18>  H        0.3571316678    -0.0601872772    -1.9009082376
| 19>  H        1.7187595393    -0.2099193699     1.3173863683
| 20>  H        0.1629422338    -0.2643869054     2.1516504816
| 21>  H       -0.2886350454    -2.5341224140     1.1499787669
| 22>  H        1.2764522618    -2.4724944383     0.3345313449
| 23>  H        1.6203601973    -3.7743030488     4.7120216020
| 24>  H        2.1317912945    -5.3318794081     3.9963128004
| 25>  H        3.1498490720    -3.8713659799     3.8438896712
| 26> *
| 27>
| 28>                          ****END OF INPUT****

CARTESIAN COORDINATES (ANGSTROEM)
---------------------------------
  C     -0.052728    1.542009    0.098091
  C      0.017893    0.017001    0.021857
  O      0.775731   -0.410890   -1.108732
  C      0.693168   -0.590974    1.250337
  C      0.720155   -2.110667    1.201771
  O      1.360154   -2.566953    2.409988
  C      1.417974   -3.904124    2.576073
  C      2.124007   -4.250428    3.866175
  O      0.963027   -4.697181    1.790967
  H      0.952926    1.967024    0.175510
  H     -0.529048    1.953744   -0.799091
  H     -0.638724    1.868018    0.963561
  H     -1.008949   -0.382435   -0.046317
  H      0.357132   -0.060187   -1.900908
  H      1.718760   -0.209919    1.317386
  H      0.162942   -0.264387    2.151650
  H     -0.288635   -2.534122    1.149979
  H      1.276452   -2.472494    0.334531
  H      1.620360   -3.774303    4.712022
  H      2.131791   -5.331879    3.996313
  H      3.149849   -3.871366    3.843890

 Total Charge           Charge          ....    0
 Multiplicity           Mult            ....    1
 Number of Electrons    NEL             ....   72
 Basis Dimension        Dim             ....  351

ORBITAL ENERGIES
----------------

  NO   OCC          E(Eh)            E(eV)
   0   2.0000     -20.592763      -560.3576
   1   2.0000     -20.559163      -559.4433
   2   2.0000     -20.535327      -558.7947
   3   2.0000     -11.372790      -309.4694
   4   2.0000     -11.288868      -307.1857
   5   2.0000     -11.278297      -306.8981
   6   2.0000     -11.236378      -305.7574
   7   2.0000     -11.226027      -305.4757
   8   2.0000     -11.224630      -305.4377
   9   2.0000      -1.451585       -39.4996
  10   2.0000      -1.366230       -37.1770
  11   2.0000      -1.351871       -36.7863
  12   2.0000      -1.073911       -29.2226
  13   2.0000      -1.022501       -27.8237
  14   2.0000      -0.980440       -26.6791
  15   2.0000      -0.881091       -23.9757
  16   2.0000      -0.801295       -21.8044
  17   2.0000      -0.771524       -20.9942
  18   2.0000      -0.712962       -19.4007
  19   2.0000      -0.684256       -18.6196
  20   2.0000      -0.670428       -18.2433
  21   2.0000      -0.666006       -18.1230
  22   2.0000      -0.622551       -16.9405
  23   2.0000      -0.605219       -16.4688
  24   2.0000      -0.597762       -16.2659
  25   2.0000      -0.569794       -15.5049
  26   2.0000      -0.554793       -15.0967
  27   2.0000      -0.543633       -14.7930
  28   2.0000      -0.542720       -14.7682
  29   2.0000      -0.524389       -14.2694
  30   2.0000      -0.504849       -13.7376
  31   2.0000      -0.496129       -13.5003
  32   2.0000      -0.479143       -13.0381
  33   2.0000      -0.454105       -12.3568
  34   2.0000      -0.443638       -12.0720
  35   2.0000      -0.440428       -11.9846
  36   0.0000       0.124445         3.3863
  37   0.0000       0.143094         3.8938
  38   0.0000       0.165691         4.5087
  39   0.0000       0.170185         4.6310
  40   0.0000       0.176907         4.8139

MULLIKEN ATOMIC CHARGES
-----------------------
   0 C :   -0.402512
   1 C :    0.054116
   2 O :   -0.469708
   3 C :   -0.158037
   4 C :   -0.088729
   5 O :   -0.249281
   6 C :    0.316714
   7 C :   -0.396094
   8 O :   -0.334269
   9 H :    0.137604
  10 H :    0.125677
  11 H :    0.126476
  12 H :    0.082263
  13 H :    0.313470
  14 H :    0.117259
  15 H :    0.115681
  16 H :    0.114514
  17 H :    0.146820
  18 H :    0.147018
  19 H :    0.152385
  20 H :    0.148634
Sum of atomic charges:   -0.0000000

LOEWDIN ATOMIC CHARGES
----------------------
   0 C :   -0.303883
   1 C :   -0.376429
   2 O :   -0.022481
   3 C :   -0.251258
   4 C :   -0.273089
   5 O :    0.242566
   6 C :   -0.505498
   7 C :   -0.274223
   8 O :    0.116686
   9 H :    0.126872
  10 H :    0.120119
  11 H :    0.126593
  12 H :    0.133428
  13 H :    0.174002
  14 H :    0.146155
  15 H :    0.144752
  16 H :    0.129626
  17 H :    0.135070
  18 H :    0.137454
  19 H :    0.134883
  20 H :    0.138654

  Mayer bond orders larger than 0.1
B(  0-C ,  1-C ) :   0.9213 B(  0-C ,  9-H ) :   0.9354 B(  0-C , 10-H ) :   0.9385
B(  0-C , 11-H ) :   0.9319 B(  1-C ,  2-O ) :   0.9532 B(  1-C ,  3-C ) :   0.9242
B(  1-C , 12-H ) :   0.9290 B(  2-O , 13-H ) :   0.8460 B(  3-C ,  4-C ) :   0.9392
B(  3-C , 14-H ) :   0.9121 B(  3-C , 15-H ) :   0.9206 B(  4-C ,  5-O ) :   0.8434
B(  4-C , 16-H ) :   0.9356 B(  4-C , 17-H ) :   0.9345 B(  5-O ,  6-C ) :   1.1003
B(  6-C ,  7-C ) :   0.9246 B(  6-C ,  8-O ) :   1.9391 B(  7-C , 18-H ) :   0.9182
B(  7-C , 19-H ) :   0.9439 B(  7-C , 20-H ) :   0.9169

MP2 TOTAL ENERGY:     -460.671692386 Eh
FINAL SINGLE POINT ENERGY      -460.671692386485

DIPOLE MOMENT
-------------
                                X             Y             Z
Electronic contribution:      1.32882      -7.65814       0.07960
Nuclear contribution   :     -1.66195       8.76675       0.10030
                        -----------------------------------------
Total Dipole Moment    :     -0.33313       1.10861       0.17990
                        -----------------------------------------
Magnitude (a.u.)       :      1.17148
Magnitude (Debye)      :      2.97766

                             ****ORCA TERMINATED NORMALLY****
TOTAL RUN TIME: 0 days 0 hours 15 minutes 56 seconds 476 msec
