                         Program Version 3.0.3 - RELEASE   -
|  1> ! RI-MP2 RIJK def2-TZVP def2-TZVP/C def2-TZVP/JK TIGHTSCF
|  2> % maxcore 2000
|  3> % mp2 density relaxed end
|  4> *xyz 0 1
|  5>  C       -0.1551940500     1.4113527080    -0.0516061401
|  6>  N        0.1529652037     0.0007954734     0.0795592892
|  7>  C        0.7009689383    -0.6483679469    -1.0135702455
|  8>  C        1.3234317650    -0.1486041133    -2.1171149210
|  9>  O        1.7385969604    -1.2072431792    -2.9272387773
| 10>  C        1.3614482684    -2.3378369479    -2.3052776741
| 11>  O        1.6366639571    -3.5068468187    -2.9158310910
| 12>  C        0.7156123263    -2.0901251766    -1.1357801130
| 13>  N        0.0828997276    -2.9700288629    -0.2191845232
| 14>  H        0.7728903785     1.9816124096    -0.1744845953
| 15>  H       -0.8048488671     1.6393265574    -0.9125967502
| 16>  H       -0.6424809709     1.7636039578     0.8606154271
| 17>  H       -0.5789013252    -0.5559591102     0.5023898931
| 18>  H        1.5693656185     0.8333690783    -2.4752464931
| 19>  H        1.9551861004    -3.3095941102    -3.8043674383
| 20>  H       -0.2008615706    -3.8286746413    -0.6779841325
| 21>  H        0.7011725796    -3.2288319972     0.5450163453
| 22> *
| 23>
| 24>                          ****END OF INPUT****

CARTESIAN COORDINATES (ANGSTROEM)
---------------------------------
  C     -0.155194    1.411353   -0.051606
  N      0.152965    0.000795    0.079559
  C      0.700969   -0.648368   -1.013570
  C      1.323432   -0.148604   -2.117115
  O      1.738597   -1.207243   -2.927239
  C      1.361448   -2.337837   -2.305278
  O      1.636664   -3.506847   -2.915831
  C      0.715612   -2.090125   -1.135780
  N      0.082900   -2.970029   -0.219185
  H      0.772890    1.981612   -0.174485
  H     -0.804849    1.639327   -0.912597
  H     -0.642481    1.763604    0.860615
  H     -0.578901   -0.555959    0.502390
  H      1.569366    0.833369   -2.475246
  H      1.955186   -3.309594   -3.804367
  H     -0.200862   -3.828675   -0.677984
  H      0.701173   -3.228832    0.545016

 Total Charge           Charge          ....    0
 Multiplicity           Mult            ....    1
 Number of Electrons    NEL             ....   68
 Basis Dimension        Dim             ....  327

ORBITAL ENERGIES
----------------

  NO   OCC          E(Eh)            E(eV)
   0   2.0000     -20.610965      -560.8529
   1   2.0000     -20.605685      -560.7092
   2   2.0000     -15.558983      -423.3814
   3   2.0000     -15.556668      -423.3185
   4   2.0000     -11.345387      -308.7237
   5   2.0000     -11.262306      -306.4629
   6   2.0000     -11.252350      -306.1920
   7   2.0000     -11.251611      -306.1719
   8   2.0000     -11.241984      -305.9099
   9   2.0000      -1.473238       -40.0888
  10   2.0000      -1.396650       -38.0048
  11   2.0000      -1.235653       -33.6238
  12   2.0000      -1.188932       -32.3525
  13   2.0000      -1.041491       -28.3404
  14   2.0000      -0.971779       -26.4434
  15   2.0000      -0.921525       -25.0760
  16   2.0000      -0.807555       -21.9747
  17   2.0000      -0.789511       -21.4837
  18   2.0000      -0.730173       -19.8690
  19   2.0000      -0.682336       -18.5673
  20   2.0000      -0.673152       -18.3174
  21   2.0000      -0.664733       -18.0883
  22   2.0000      -0.637379       -17.3440
  23   2.0000      -0.616027       -16.7630
  24   2.0000      -0.600018       -16.3273
  25   2.0000      -0.583738       -15.8843
  26   2.0000      -0.578088       -15.7306
  27   2.0000      -0.557450       -15.1690
  28   2.0000      -0.536638       -14.6027
  29   2.0000      -0.524720       -14.2784
  30   2.0000      -0.461144       -12.5484
  31   2.0000      -0.432011       -11.7556
  32   2.0000      -0.328969        -8.9517
  33   2.0000      -0.280539        -7.6338
  34   0.0000       0.134069         3.6482
  35   0.0000       0.145056         3.9472
  36   0.0000       0.153142         4.1672
  37   0.0000       0.178964         4.8698
  38   0.0000       0.184270         5.0142

MULLIKEN ATOMIC CHARGES
-----------------------
   0 C :   -0.298432
   1 N :   -0.338037
   2 C :    0.151502
   3 C :   -0.165465
   4 O :   -0.238748
   5 C :    0.316109
   6 O :   -0.435590
   7 C :   -0.050737
   8 N :   -0.578873
   9 H :    0.134175
  10 H :    0.124643
  11 H :    0.138017
  12 H :    0.243141
  13 H :    0.142664
  14 H :    0.345983
  15 H :    0.254273
  16 H :    0.255377
Sum of atomic charges:   -0.0000000

LOEWDIN ATOMIC CHARGES
----------------------
   0 C :   -0.330094
   1 N :    0.039179
   2 C :   -0.254477
   3 C :   -0.253592
   4 O :    0.312666
   5 C :   -0.402805
   6 O :    0.072422
   7 C :   -0.259859
   8 N :   -0.116903
   9 H :    0.118018
  10 H :    0.106056
  11 H :    0.117679
  12 H :    0.185967
  13 H :    0.128523
  14 H :    0.202184
  15 H :    0.167906
  16 H :    0.167129

  Mayer bond orders larger than 0.1
B(  0-C ,  1-N ) :   0.9232 B(  0-C ,  9-H ) :   0.9347 B(  0-C , 10-H ) :   0.9307
B(  0-C , 11-H ) :   0.9374 B(  1-N ,  2-C ) :   1.0970 B(  1-N , 12-H ) :   0.8616
B(  2-C ,  3-C ) :   1.5484 B(  2-C ,  7-C ) :   1.1592 B(  3-C ,  4-O ) :   0.9406
B(  3-C , 13-H ) :   0.9404 B(  4-O ,  5-C ) :   1.0920 B(  5-C ,  6-O ) :   1.0939
B(  5-C ,  7-C ) :   1.5635 B(  6-O , 14-H ) :   0.8182 B(  7-C ,  8-N ) :   0.9595
B(  8-N , 15-H ) :   0.8891 B(  8-N , 16-H ) :   0.8799

MP2 TOTAL ENERGY:     -454.412241282 Eh
FINAL SINGLE POINT ENERGY      -454.412241282361

DIPOLE MOMENT
-------------
                                X             Y             Z
Electronic contribution:      3.55705      -5.39675      -4.93797
Nuclear contribution   :     -3.67941       5.36767       4.82563
                        -----------------------------------------
Total Dipole Moment    :     -0.12235      -0.02908      -0.11234
                        -----------------------------------------
Magnitude (a.u.)       :      0.16863
Magnitude (Debye)      :      0.42862

                             ****ORCA TERMINATED NORMALLY****
TOTAL RUN TIME: 0 days 0 hours 15 minutes 18 seconds 525 msec
