                         Program Version 3.0.3 - RELEASE   -
|  1> ! RI-MP2 RIJK def2-TZVP def2-TZVP/C def2-TZVP/JK TIGHTSCF
|  2> % maxcore 2000
|  3> % mp2 density relaxed end
|  4> *xyz 0 1
|  5>  N        0.0924538897     1.4254773383     0.0942236903
|  6>  C       -0.0384147459     0.0217430652     0.0648300010
|  7>  C       -0.5438891910    -0.7494476409     1.2106554687
|  8>  O       -1.5775346150    -0.0022963328     1.8900578445
|  9>  C       -2.4295671386    -0.1274500753     0.7815255419
| 10>  N       -3.6204908313     0.2106327219     0.6277592849
| 11>  C       -1.4048826913    -0.8133925976    -0.0588190996
| 12>  C       -1.5859068247    -1.8235788155    -1.0358477076
| 13>  N       -1.7002068239    -2.6411568204    -1.8476737153
| 14>  H       -0.0642227717     1.8517230547    -0.8114020523
| 15>  H       -0.5247872335     1.8469639787     0.7787252763
| 16>  H        0.7264403575    -0.4919227273    -0.5130458001
| 17>  H       -0.0580244902    -1.5394324983     1.7683107475
| 18>  H       -4.0068819498     0.6508926693     1.4634327397
| 19> *
| 20>
| 21>                          ****END OF INPUT****

CARTESIAN COORDINATES (ANGSTROEM)
---------------------------------
  N      0.092454    1.425477    0.094224
  C     -0.038415    0.021743    0.064830
  C     -0.543889   -0.749448    1.210655
  O     -1.577535   -0.002296    1.890058
  C     -2.429567   -0.127450    0.781526
  N     -3.620491    0.210633    0.627759
  C     -1.404883   -0.813393   -0.058819
  C     -1.585907   -1.823579   -1.035848
  N     -1.700207   -2.641157   -1.847674
  H     -0.064223    1.851723   -0.811402
  H     -0.524787    1.846964    0.778725
  H      0.726440   -0.491923   -0.513046
  H     -0.058024   -1.539432    1.768311
  H     -4.006882    0.650893    1.463433

 Total Charge           Charge          ....    0
 Multiplicity           Mult            ....    1
 Number of Electrons    NEL             ....   64
 Basis Dimension        Dim             ....  309

ORBITAL ENERGIES
----------------

  NO   OCC          E(Eh)            E(eV)
   0   2.0000     -20.628752      -561.3369
   1   2.0000     -15.586533      -424.1311
   2   2.0000     -15.584255      -424.0692
   3   2.0000     -15.568934      -423.6522
   4   2.0000     -11.377888      -309.6081
   5   2.0000     -11.354557      -308.9732
   6   2.0000     -11.335558      -308.4562
   7   2.0000     -11.311831      -307.8106
   8   2.0000     -11.290366      -307.2265
   9   2.0000      -1.478043       -40.2196
  10   2.0000      -1.251959       -34.0675
  11   2.0000      -1.233682       -33.5702
  12   2.0000      -1.225374       -33.3441
  13   2.0000      -1.143347       -31.1121
  14   2.0000      -0.965708       -26.2782
  15   2.0000      -0.860026       -23.4025
  16   2.0000      -0.857962       -23.3463
  17   2.0000      -0.761598       -20.7241
  18   2.0000      -0.737716       -20.0743
  19   2.0000      -0.714088       -19.4313
  20   2.0000      -0.685714       -18.6592
  21   2.0000      -0.621805       -16.9202
  22   2.0000      -0.603956       -16.4345
  23   2.0000      -0.598175       -16.2772
  24   2.0000      -0.565915       -15.3993
  25   2.0000      -0.563716       -15.3395
  26   2.0000      -0.520735       -14.1699
  27   2.0000      -0.489475       -13.3193
  28   2.0000      -0.471064       -12.8183
  29   2.0000      -0.456315       -12.4170
  30   2.0000      -0.439787       -11.9672
  31   2.0000      -0.385575       -10.4920
  32   0.0000       0.120698         3.2844
  33   0.0000       0.125049         3.4028
  34   0.0000       0.132452         3.6042
  35   0.0000       0.152059         4.1377
  36   0.0000       0.156332         4.2540

MULLIKEN ATOMIC CHARGES
-----------------------
   0 N :   -0.509170
   1 C :   -0.066926
   2 C :    0.142700
   3 O :   -0.289396
   4 C :    0.091219
   5 N :   -0.337227
   6 C :    0.164707
   7 C :   -0.238346
   8 N :   -0.043565
   9 H :    0.253486
  10 H :    0.259606
  11 H :    0.156688
  12 H :    0.172665
  13 H :    0.243559
Sum of atomic charges:   -0.0000000

LOEWDIN ATOMIC CHARGES
----------------------
   0 N :   -0.095873
   1 C :   -0.225686
   2 C :   -0.159476
   3 O :    0.228370
   4 C :   -0.348393
   5 N :   -0.012615
   6 C :   -0.144648
   7 C :   -0.158965
   8 N :    0.081457
   9 H :    0.170125
  10 H :    0.170399
  11 H :    0.167744
  12 H :    0.146081
  13 H :    0.181481

  Mayer bond orders larger than 0.1
B(  0-N ,  1-C ) :   1.0659 B(  0-N ,  9-H ) :   0.8783 B(  0-N , 10-H ) :   0.8786
B(  1-C ,  2-C ) :   0.8883 B(  1-C ,  6-C ) :   0.7315 B(  1-C , 11-H ) :   0.9319
B(  2-C ,  3-O ) :   0.9157 B(  2-C ,  6-C ) :   0.8157 B(  2-C , 12-H ) :   0.8998
B(  3-O ,  4-C ) :   1.0042 B(  4-C ,  5-N ) :   2.0885 B(  4-C ,  6-C ) :   0.9045
B(  5-N , 13-H ) :   0.8369 B(  6-C ,  7-C ) :   0.9703 B(  7-C ,  8-N ) :   2.8442

MP2 TOTAL ENERGY:     -432.112814585 Eh
FINAL SINGLE POINT ENERGY      -432.112814584548

DIPOLE MOMENT
-------------
                                X             Y             Z
Electronic contribution:     -2.13500      -3.25320      -0.48119
Nuclear contribution   :      2.95739       4.22988       1.43945
                        -----------------------------------------
Total Dipole Moment    :      0.82239       0.97668       0.95827
                        -----------------------------------------
Magnitude (a.u.)       :      1.59640
Magnitude (Debye)      :      4.05773

                             ****ORCA TERMINATED NORMALLY****
TOTAL RUN TIME: 0 days 0 hours 15 minutes 15 seconds 671 msec
