                         Program Version 3.0.3 - RELEASE   -
|  1> ! RI-MP2 RIJK def2-TZVP def2-TZVP/C def2-TZVP/JK TIGHTSCF
|  2> % maxcore 2000
|  3> % mp2 density relaxed end
|  4> *xyz 0 1
|  5>  O        0.0043645055    -0.1118902543     0.0426317922
|  6>  C       -0.0125903048     1.1082298400     0.0284222946
|  7>  N       -1.2160548948     1.7903908473     0.0073666677
|  8>  C       -1.4843279800     3.2083627807     0.2078777734
|  9>  C       -0.7975815850     4.0503898667    -0.8521666504
| 10>  O       -0.0747080684     5.2017571603    -0.4077397704
| 11>  C        0.6674977051     4.0705552888    -0.8716224641
| 12>  C        1.4050013284     3.2480603907     0.1694860567
| 13>  N        1.1706738121     1.8232024758    -0.0246269858
| 14>  H       -1.9841947228     1.1491422351     0.1207529701
| 15>  H       -2.5679987900     3.3388082257     0.1491672571
| 16>  H       -1.1771092557     3.5656436765     1.1984874614
| 17>  H       -1.3339170527     4.1827562419    -1.7905165105
| 18>  H        1.1748915470     4.2172561438    -1.8238356991
| 19>  H        2.4827340618     3.4083233744     0.0822475880
| 20>  H        1.1143180618     3.5969308134     1.1680495867
| 21>  H        1.9589235625     1.2033681732     0.0679048325
| 22> *
| 23>
| 24>                          ****END OF INPUT****

CARTESIAN COORDINATES (ANGSTROEM)
---------------------------------
  O      0.004365   -0.111890    0.042632
  C     -0.012590    1.108230    0.028422
  N     -1.216055    1.790391    0.007367
  C     -1.484328    3.208363    0.207878
  C     -0.797582    4.050390   -0.852167
  O     -0.074708    5.201757   -0.407740
  C      0.667498    4.070555   -0.871622
  C      1.405001    3.248060    0.169486
  N      1.170674    1.823202   -0.024627
  H     -1.984195    1.149142    0.120753
  H     -2.567999    3.338808    0.149167
  H     -1.177109    3.565644    1.198487
  H     -1.333917    4.182756   -1.790517
  H      1.174892    4.217256   -1.823836
  H      2.482734    3.408323    0.082248
  H      1.114318    3.596931    1.168050
  H      1.958924    1.203368    0.067905

 Total Charge           Charge          ....    0
 Multiplicity           Mult            ....    1
 Number of Electrons    NEL             ....   68
 Basis Dimension        Dim             ....  327

ORBITAL ENERGIES
----------------

  NO   OCC          E(Eh)            E(eV)
   0   2.0000     -20.584190      -560.1243
   1   2.0000     -20.502291      -557.8957
   2   2.0000     -15.584010      -424.0625
   3   2.0000     -15.583987      -424.0619
   4   2.0000     -11.376506      -309.5705
   5   2.0000     -11.300950      -307.5145
   6   2.0000     -11.300140      -307.4924
   7   2.0000     -11.288652      -307.1798
   8   2.0000     -11.288647      -307.1797
   9   2.0000      -1.429918       -38.9100
  10   2.0000      -1.388795       -37.7910
  11   2.0000      -1.245116       -33.8813
  12   2.0000      -1.213423       -33.0189
  13   2.0000      -1.026022       -27.9195
  14   2.0000      -0.994095       -27.0507
  15   2.0000      -0.902121       -24.5480
  16   2.0000      -0.815152       -22.1814
  17   2.0000      -0.814170       -22.1547
  18   2.0000      -0.717819       -19.5328
  19   2.0000      -0.694926       -18.9099
  20   2.0000      -0.686546       -18.6819
  21   2.0000      -0.665487       -18.1088
  22   2.0000      -0.662680       -18.0324
  23   2.0000      -0.604179       -16.4405
  24   2.0000      -0.602446       -16.3934
  25   2.0000      -0.593868       -16.1600
  26   2.0000      -0.561391       -15.2762
  27   2.0000      -0.545016       -14.8306
  28   2.0000      -0.528044       -14.3688
  29   2.0000      -0.469022       -12.7628
  30   2.0000      -0.447993       -12.1905
  31   2.0000      -0.437656       -11.9092
  32   2.0000      -0.398494       -10.8436
  33   2.0000      -0.397666       -10.8210
  34   0.0000       0.125472         3.4143
  35   0.0000       0.143900         3.9157
  36   0.0000       0.149989         4.0814
  37   0.0000       0.169607         4.6152
  38   0.0000       0.179289         4.8787

MULLIKEN ATOMIC CHARGES
-----------------------
   0 O :   -0.397231
   1 C :    0.321976
   2 N :   -0.349670
   3 C :   -0.144446
   4 C :    0.036903
   5 O :   -0.328532
   6 C :    0.036925
   7 C :   -0.144464
   8 N :   -0.349667
   9 H :    0.249924
  10 H :    0.145763
  11 H :    0.139920
  12 H :    0.123490
  13 H :    0.123487
  14 H :    0.145769
  15 H :    0.139930
  16 H :    0.249922
Sum of atomic charges:    0.0000000

LOEWDIN ATOMIC CHARGES
----------------------
   0 O :    0.040381
   1 C :   -0.550187
   2 N :    0.090592
   3 C :   -0.269582
   4 C :   -0.264094
   5 O :    0.169189
   6 C :   -0.264111
   7 C :   -0.269577
   8 N :    0.090589
   9 H :    0.193424
  10 H :    0.142638
  11 H :    0.137770
  12 H :    0.139568
  13 H :    0.139568
  14 H :    0.142636
  15 H :    0.137774
  16 H :    0.193421

  Mayer bond orders larger than 0.1
B(  0-O ,  1-C ) :   1.9505 B(  1-C ,  2-N ) :   1.1167 B(  1-C ,  8-N ) :   1.1167
B(  2-N ,  3-C ) :   0.9079 B(  2-N ,  9-H ) :   0.8643 B(  3-C ,  4-C ) :   0.8818
B(  3-C , 10-H ) :   0.9236 B(  3-C , 11-H ) :   0.9483 B(  4-C ,  5-O ) :   0.9246
B(  4-C ,  6-C ) :   0.9748 B(  4-C , 12-H ) :   0.9114 B(  5-O ,  6-C ) :   0.9246
B(  6-C ,  7-C ) :   0.8818 B(  6-C , 13-H ) :   0.9114 B(  7-C ,  8-N ) :   0.9079
B(  7-C , 14-H ) :   0.9236 B(  7-C , 15-H ) :   0.9483 B(  8-N , 16-H ) :   0.8643

MP2 TOTAL ENERGY:     -454.428803723 Eh
FINAL SINGLE POINT ENERGY      -454.428803723054

DIPOLE MOMENT
-------------
                                X             Y             Z
Electronic contribution:      0.02036      -1.99406      -0.54599
Nuclear contribution   :     -0.03262       2.89654       0.55763
                        -----------------------------------------
Total Dipole Moment    :     -0.01225       0.90248       0.01164
                        -----------------------------------------
Magnitude (a.u.)       :      0.90264
Magnitude (Debye)      :      2.29432

                             ****ORCA TERMINATED NORMALLY****
TOTAL RUN TIME: 0 days 0 hours 15 minutes 40 seconds 942 msec
