                         Program Version 3.0.3 - RELEASE   -
|  1> ! RI-MP2 RIJK def2-TZVP def2-TZVP/C def2-TZVP/JK TIGHTSCF
|  2> % maxcore 2000
|  3> % mp2 density relaxed end
|  4> *xyz 0 1
|  5>  O       -0.6865831860     0.8849405490     0.8410120891
|  6>  C        0.0287973547     1.0279483312    -0.1148267568
|  7>  C        1.3038319003     1.8451828170    -0.1253078382
|  8>  C        1.2843045135     2.9135084162    -1.2295605691
|  9>  C        2.6219943867     3.6810052999    -1.3094275786
| 10>  C        2.6261188067     4.6982356163    -2.3468187161
| 11>  C        2.6059701727     5.5367883274    -3.2164528005
| 12>  C        2.5880823065     6.4850066956    -4.1984396159
| 13>  N        2.5722379491     7.2912359605    -5.0347149503
| 14>  H       -0.2150577546     0.5491960262    -1.0924005436
| 15>  H        1.4410611165     2.2880722295     0.8655776818
| 16>  H        2.1377214882     1.1511230880    -0.3077479395
| 17>  H        1.0808735355     2.4481868615    -2.2005277859
| 18>  H        0.4733420608     3.6258926055    -1.0457579922
| 19>  H        2.8363449651     4.1541033366    -0.3424498517
| 20>  H        3.4437386742     2.9767756596    -1.4951584923
| 21> *
| 22>
| 23>                          ****END OF INPUT****

CARTESIAN COORDINATES (ANGSTROEM)
---------------------------------
  O     -0.686583    0.884941    0.841012
  C      0.028797    1.027948   -0.114827
  C      1.303832    1.845183   -0.125308
  C      1.284305    2.913508   -1.229561
  C      2.621994    3.681005   -1.309428
  C      2.626119    4.698236   -2.346819
  C      2.605970    5.536788   -3.216453
  C      2.588082    6.485007   -4.198440
  N      2.572238    7.291236   -5.034715
  H     -0.215058    0.549196   -1.092401
  H      1.441061    2.288072    0.865578
  H      2.137721    1.151123   -0.307748
  H      1.080874    2.448187   -2.200528
  H      0.473342    3.625893   -1.045758
  H      2.836345    4.154103   -0.342450
  H      3.443739    2.976776   -1.495158

 Total Charge           Charge          ....    0
 Multiplicity           Mult            ....    1
 Number of Electrons    NEL             ....   64
 Basis Dimension        Dim             ....  321

ORBITAL ENERGIES
----------------

  NO   OCC          E(Eh)            E(eV)
   0   2.0000     -20.572941      -559.8182
   1   2.0000     -15.596636      -424.4060
   2   2.0000     -11.348120      -308.7980
   3   2.0000     -11.304286      -307.6053
   4   2.0000     -11.300179      -307.4935
   5   2.0000     -11.295059      -307.3542
   6   2.0000     -11.282525      -307.0131
   7   2.0000     -11.275521      -306.8225
   8   2.0000     -11.265499      -306.5498
   9   2.0000      -1.412002       -38.4225
  10   2.0000      -1.236951       -33.6591
  11   2.0000      -1.142625       -31.0924
  12   2.0000      -1.087645       -29.5963
  13   2.0000      -1.019976       -27.7550
  14   2.0000      -0.904290       -24.6070
  15   2.0000      -0.865398       -23.5487
  16   2.0000      -0.813388       -22.1334
  17   2.0000      -0.707541       -19.2532
  18   2.0000      -0.690995       -18.8029
  19   2.0000      -0.666177       -18.1276
  20   2.0000      -0.642958       -17.4958
  21   2.0000      -0.607542       -16.5321
  22   2.0000      -0.586112       -15.9489
  23   2.0000      -0.580971       -15.8090
  24   2.0000      -0.559477       -15.2241
  25   2.0000      -0.537770       -14.6335
  26   2.0000      -0.531931       -14.4746
  27   2.0000      -0.526749       -14.3336
  28   2.0000      -0.513681       -13.9780
  29   2.0000      -0.438110       -11.9216
  30   2.0000      -0.408617       -11.1190
  31   2.0000      -0.407580       -11.0908
  32   0.0000       0.085899         2.3374
  33   0.0000       0.093470         2.5434
  34   0.0000       0.112629         3.0648
  35   0.0000       0.122952         3.3457
  36   0.0000       0.142558         3.8792

MULLIKEN ATOMIC CHARGES
-----------------------
   0 O :   -0.254443
   1 C :    0.094541
   2 C :   -0.151397
   3 C :   -0.254967
   4 C :   -0.380524
   5 C :   -0.061905
   6 C :    0.325185
   7 C :   -0.219923
   8 N :   -0.038547
   9 H :    0.076301
  10 H :    0.128638
  11 H :    0.128966
  12 H :    0.135796
  13 H :    0.146312
  14 H :    0.165242
  15 H :    0.160724
Sum of atomic charges:    0.0000000

LOEWDIN ATOMIC CHARGES
----------------------
   0 O :    0.139435
   1 C :   -0.295350
   2 C :   -0.260785
   3 C :   -0.242055
   4 C :   -0.239347
   5 C :    0.002088
   6 C :   -0.058614
   7 C :   -0.177177
   8 N :    0.098649
   9 H :    0.111168
  10 H :    0.147109
  11 H :    0.152534
  12 H :    0.145187
  13 H :    0.147858
  14 H :    0.165403
  15 H :    0.163899

  Mayer bond orders larger than 0.1
B(  0-O ,  1-C ) :   2.0086 B(  1-C ,  2-C ) :   0.8756 B(  1-C ,  9-H ) :   0.9382
B(  2-C ,  3-C ) :   0.9072 B(  2-C , 10-H ) :   0.9027 B(  2-C , 11-H ) :   0.9149
B(  3-C ,  4-C ) :   0.9347 B(  3-C , 12-H ) :   0.9299 B(  3-C , 13-H ) :   0.9208
B(  4-C ,  5-C ) :   1.0615 B(  4-C ,  6-C ) :  -0.1594 B(  4-C , 14-H ) :   0.9192
B(  4-C , 15-H ) :   0.9201 B(  5-C ,  6-C ) :   2.5423 B(  5-C ,  8-N ) :   0.1119
B(  6-C ,  7-C ) :   0.9592 B(  7-C ,  8-N ) :   2.7605

MP2 TOTAL ENERGY:     -400.038479678 Eh
FINAL SINGLE POINT ENERGY      -400.038479678158

DIPOLE MOMENT
-------------
                                X             Y             Z
Electronic contribution:      0.63651       7.05842      -5.64506
Nuclear contribution   :      0.00434      -8.18715       6.31596
                        -----------------------------------------
Total Dipole Moment    :      0.64085      -1.12873       0.67090
                        -----------------------------------------
Magnitude (a.u.)       :      1.46110
Magnitude (Debye)      :      3.71383

                             ****ORCA TERMINATED NORMALLY****
TOTAL RUN TIME: 0 days 0 hours 12 minutes 15 seconds 160 msec
