                         Program Version 3.0.3 - RELEASE   -
|  1> ! RI-MP2 RIJK def2-TZVP def2-TZVP/C def2-TZVP/JK TIGHTSCF
|  2> % maxcore 2000
|  3> % mp2 density relaxed end
|  4> *xyz 0 1
|  5>  O       -0.0415249775     1.3846282252     0.0156454050
|  6>  C        0.0352619817    -0.0355490785    -0.0028649565
|  7>  C       -1.3685902418    -0.5657845389     0.0068626922
|  8>  C       -2.2974688358    -0.3856393075     1.2453015687
|  9>  C       -2.9929459052    -1.6558700576     0.7684844562
| 10>  C       -1.7769085930    -2.0985681163    -0.0283082672
| 11>  C       -2.9891893108    -1.6278738530    -0.7754467423
| 12>  O       -3.8279702689    -2.4330597420    -1.5185857482
| 13>  C       -2.3202439988    -0.3269187145    -1.2069602254
| 14>  H        0.8543294907     1.7340933034     0.0111812213
| 15>  H        0.5630830907    -0.3965093975    -0.9010240657
| 16>  H        0.5818473232    -0.4175244209     0.8754254956
| 17>  H       -1.7528741287    -0.5484735924     2.1810859364
| 18>  H       -2.8695289567     0.5461282149     1.3106145652
| 19>  H       -3.6913151826    -2.2966034952     1.2928312479
| 20>  H       -1.2174087372    -3.0223312699    -0.0510671804
| 21>  H       -4.7275075093    -2.0993127499    -1.4282389459
| 22>  H       -2.8980181661     0.6038515402    -1.2184501242
| 23>  H       -1.7943614240    -0.4547394794    -2.1578967828
| 24> *
| 25>
| 26>                          ****END OF INPUT****

CARTESIAN COORDINATES (ANGSTROEM)
---------------------------------
  O     -0.041525    1.384628    0.015645
  C      0.035262   -0.035549   -0.002865
  C     -1.368590   -0.565785    0.006863
  C     -2.297469   -0.385639    1.245302
  C     -2.992946   -1.655870    0.768484
  C     -1.776909   -2.098568   -0.028308
  C     -2.989189   -1.627874   -0.775447
  O     -3.827970   -2.433060   -1.518586
  C     -2.320244   -0.326919   -1.206960
  H      0.854329    1.734093    0.011181
  H      0.563083   -0.396509   -0.901024
  H      0.581847   -0.417524    0.875425
  H     -1.752874   -0.548474    2.181086
  H     -2.869529    0.546128    1.310615
  H     -3.691315   -2.296603    1.292831
  H     -1.217409   -3.022331   -0.051067
  H     -4.727508   -2.099313   -1.428239
  H     -2.898018    0.603852   -1.218450
  H     -1.794361   -0.454739   -2.157897

 Total Charge           Charge          ....    0
 Multiplicity           Mult            ....    1
 Number of Electrons    NEL             ....   68
 Basis Dimension        Dim             ....  339

ORBITAL ENERGIES
----------------

  NO   OCC          E(Eh)            E(eV)
   0   2.0000     -20.566068      -559.6312
   1   2.0000     -20.557574      -559.4000
   2   2.0000     -11.284942      -307.0789
   3   2.0000     -11.277440      -306.8747
   4   2.0000     -11.241656      -305.9010
   5   2.0000     -11.229647      -305.5742
   6   2.0000     -11.226222      -305.4810
   7   2.0000     -11.220729      -305.3315
   8   2.0000     -11.218845      -305.2803
   9   2.0000      -1.377870       -37.4938
  10   2.0000      -1.360976       -37.0341
  11   2.0000      -1.221833       -33.2478
  12   2.0000      -0.997942       -27.1554
  13   2.0000      -0.969064       -26.3696
  14   2.0000      -0.914560       -24.8865
  15   2.0000      -0.822282       -22.3754
  16   2.0000      -0.765491       -20.8301
  17   2.0000      -0.724066       -19.7028
  18   2.0000      -0.706968       -19.2376
  19   2.0000      -0.674219       -18.3464
  20   2.0000      -0.638767       -17.3817
  21   2.0000      -0.627328       -17.0705
  22   2.0000      -0.611926       -16.6513
  23   2.0000      -0.598676       -16.2908
  24   2.0000      -0.582883       -15.8610
  25   2.0000      -0.550449       -14.9785
  26   2.0000      -0.525882       -14.3100
  27   2.0000      -0.504291       -13.7225
  28   2.0000      -0.465598       -12.6696
  29   2.0000      -0.462361       -12.5815
  30   2.0000      -0.441765       -12.0210
  31   2.0000      -0.424707       -11.5569
  32   2.0000      -0.371886       -10.1195
  33   2.0000      -0.366053        -9.9608
  34   0.0000       0.131239         3.5712
  35   0.0000       0.143302         3.8994
  36   0.0000       0.166383         4.5275
  37   0.0000       0.176769         4.8101
  38   0.0000       0.181839         4.9481

MULLIKEN ATOMIC CHARGES
-----------------------
   0 O :   -0.469501
   1 C :   -0.103910
   2 C :    0.084309
   3 C :   -0.171941
   4 C :   -0.225370
   5 C :   -0.195334
   6 C :    0.160252
   7 O :   -0.458974
   8 C :   -0.184717
   9 H :    0.314406
  10 H :    0.101816
  11 H :    0.100252
  12 H :    0.103273
  13 H :    0.110525
  14 H :    0.137754
  15 H :    0.156938
  16 H :    0.326607
  17 H :    0.110710
  18 H :    0.102906
Sum of atomic charges:    0.0000000

LOEWDIN ATOMIC CHARGES
----------------------
   0 O :   -0.041456
   1 C :   -0.316827
   2 C :   -0.191706
   3 C :   -0.173344
   4 C :   -0.158519
   5 C :   -0.087691
   6 C :   -0.322611
   7 O :    0.033382
   8 C :   -0.155132
   9 H :    0.172461
  10 H :    0.121877
  11 H :    0.121489
  12 H :    0.139112
  13 H :    0.127600
  14 H :    0.136881
  15 H :    0.137076
  16 H :    0.186180
  17 H :    0.128067
  18 H :    0.143161

  Mayer bond orders larger than 0.1
B(  0-O ,  1-C ) :   1.0773 B(  0-O ,  2-C ) :  -0.1383 B(  0-O ,  9-H ) :   0.8491
B(  1-C ,  2-C ) :   0.8833 B(  1-C , 10-H ) :   0.9273 B(  1-C , 11-H ) :   0.9302
B(  2-C ,  3-C ) :   0.9156 B(  2-C ,  5-C ) :   0.8619 B(  2-C ,  8-C ) :   0.9196
B(  3-C ,  4-C ) :   0.9328 B(  3-C , 12-H ) :   0.9129 B(  3-C , 13-H ) :   0.9166
B(  4-C ,  5-C ) :   0.8589 B(  4-C ,  6-C ) :   0.8242 B(  4-C , 14-H ) :   0.9334
B(  5-C ,  6-C ) :   0.8719 B(  5-C , 15-H ) :   0.8836 B(  6-C ,  7-O ) :   1.0304
B(  6-C ,  8-C ) :   0.9926 B(  7-O , 16-H ) :   0.8358 B(  8-C , 17-H ) :   0.9083
B(  8-C , 18-H ) :   0.9133

MP2 TOTAL ENERGY:     -422.265123706 Eh
FINAL SINGLE POINT ENERGY      -422.265123706091

DIPOLE MOMENT
-------------
                                X             Y             Z
Electronic contribution:     -1.86885      -1.60748      -1.42068
Nuclear contribution   :      2.21696       1.75476       1.69145
                        -----------------------------------------
Total Dipole Moment    :      0.34811       0.14728       0.27077
                        -----------------------------------------
Magnitude (a.u.)       :      0.46497
Magnitude (Debye)      :      1.18185

                             ****ORCA TERMINATED NORMALLY****
TOTAL RUN TIME: 0 days 0 hours 16 minutes 44 seconds 38 msec
