                         Program Version 3.0.3 - RELEASE   -
|  1> ! RI-MP2 RIJK def2-TZVP def2-TZVP/C def2-TZVP/JK TIGHTSCF
|  2> % maxcore 2000
|  3> % mp2 density relaxed end
|  4> *xyz 0 1
|  5>  O       -0.2985003742     1.3156626378     0.1319061060
|  6>  C       -0.0069838194    -0.0677250972     0.0445142594
|  7>  C        0.7349142098    -0.4502377358    -1.2497022584
|  8>  C       -0.0652439883    -0.0759010957    -2.5007924292
|  9>  C        0.6909537018    -0.3962708072    -3.8004676948
| 10>  C       -0.0699054443     0.0721991182    -5.0217259783
| 11>  O       -0.3742784307    -0.6241249031    -5.9542118913
| 12>  C        0.7490215709    -0.5257329842     1.2286085356
| 13>  N        1.3707791823    -0.8598049197     2.1435284724
| 14>  H        0.5324382268     1.7946368072     0.2339149593
| 15>  H       -0.9835722470    -0.5656538222     0.0590768807
| 16>  H        1.7111780621     0.0524397051    -1.2558437928
| 17>  H        0.9401274826    -1.5268551272    -1.2308074309
| 18>  H       -1.0221259805    -0.6133832717    -2.4947223241
| 19>  H       -0.3097269878     0.9913404658    -2.4619120036
| 20>  H        1.6570000127     0.1302914435    -3.7941858553
| 21>  H        0.8909869185    -1.4668824440    -3.9032943598
| 22>  H       -0.3466968753     1.1531354504    -4.9985839248
| 23> *
| 24>
| 25>                          ****END OF INPUT****

CARTESIAN COORDINATES (ANGSTROEM)
---------------------------------
  O     -0.298500    1.315663    0.131906
  C     -0.006984   -0.067725    0.044514
  C      0.734914   -0.450238   -1.249702
  C     -0.065244   -0.075901   -2.500792
  C      0.690954   -0.396271   -3.800468
  C     -0.069905    0.072199   -5.021726
  O     -0.374278   -0.624125   -5.954212
  C      0.749022   -0.525733    1.228609
  N      1.370779   -0.859805    2.143528
  H      0.532438    1.794637    0.233915
  H     -0.983572   -0.565654    0.059077
  H      1.711178    0.052440   -1.255844
  H      0.940127   -1.526855   -1.230807
  H     -1.022126   -0.613383   -2.494722
  H     -0.309727    0.991340   -2.461912
  H      1.657000    0.130291   -3.794186
  H      0.890987   -1.466882   -3.903294
  H     -0.346697    1.153135   -4.998584

 Total Charge           Charge          ....    0
 Multiplicity           Mult            ....    1
 Number of Electrons    NEL             ....   68
 Basis Dimension        Dim             ....  333

ORBITAL ENERGIES
----------------

  NO   OCC          E(Eh)            E(eV)
   0   2.0000     -20.602133      -560.6125
   1   2.0000     -20.566998      -559.6565
   2   2.0000     -15.588908      -424.1958
   3   2.0000     -11.354345      -308.9674
   4   2.0000     -11.341952      -308.6302
   5   2.0000     -11.285481      -307.0936
   6   2.0000     -11.268799      -306.6396
   7   2.0000     -11.261053      -306.4288
   8   2.0000     -11.257322      -306.3273
   9   2.0000      -1.412088       -38.4249
  10   2.0000      -1.405931       -38.2573
  11   2.0000      -1.233173       -33.5563
  12   2.0000      -1.120757       -30.4974
  13   2.0000      -1.051605       -28.6156
  14   2.0000      -0.954123       -25.9630
  15   2.0000      -0.854446       -23.2507
  16   2.0000      -0.807196       -21.9649
  17   2.0000      -0.775575       -21.1045
  18   2.0000      -0.702136       -19.1061
  19   2.0000      -0.687613       -18.7109
  20   2.0000      -0.671156       -18.2631
  21   2.0000      -0.640403       -17.4262
  22   2.0000      -0.634847       -17.2751
  23   2.0000      -0.592858       -16.1325
  24   2.0000      -0.585596       -15.9349
  25   2.0000      -0.569910       -15.5080
  26   2.0000      -0.555350       -15.1118
  27   2.0000      -0.527275       -14.3479
  28   2.0000      -0.518749       -14.1159
  29   2.0000      -0.512197       -13.9376
  30   2.0000      -0.500807       -13.6277
  31   2.0000      -0.481951       -13.1146
  32   2.0000      -0.469719       -12.7817
  33   2.0000      -0.428246       -11.6532
  34   0.0000       0.104015         2.8304
  35   0.0000       0.122553         3.3348
  36   0.0000       0.134503         3.6600
  37   0.0000       0.137404         3.7389
  38   0.0000       0.145915         3.9706

MULLIKEN ATOMIC CHARGES
-----------------------
   0 O :   -0.451323
   1 C :    0.199049
   2 C :   -0.276028
   3 C :   -0.270158
   4 C :   -0.136722
   5 C :    0.094518
   6 O :   -0.257904
   7 C :   -0.182716
   8 N :   -0.048023
   9 H :    0.327705
  10 H :    0.136946
  11 H :    0.129286
  12 H :    0.142651
  13 H :    0.130367
  14 H :    0.135713
  15 H :    0.127831
  16 H :    0.125875
  17 H :    0.072932
Sum of atomic charges:   -0.0000000

LOEWDIN ATOMIC CHARGES
----------------------
   0 O :    0.010679
   1 C :   -0.338449
   2 C :   -0.239810
   3 C :   -0.259593
   4 C :   -0.261170
   5 C :   -0.296502
   6 O :    0.135767
   7 C :   -0.172833
   8 N :    0.072436
   9 H :    0.185433
  10 H :    0.169758
  11 H :    0.145036
  12 H :    0.152508
  13 H :    0.144406
  14 H :    0.143987
  15 H :    0.152032
  16 H :    0.146104
  17 H :    0.110213

  Mayer bond orders larger than 0.1
B(  0-O ,  1-C ) :   0.9085 B(  0-O ,  9-H ) :   0.8346 B(  1-C ,  2-C ) :   0.9348
B(  1-C ,  7-C ) :   0.9244 B(  1-C , 10-H ) :   0.9079 B(  2-C ,  3-C ) :   0.9157
B(  2-C , 11-H ) :   0.9200 B(  2-C , 12-H ) :   0.9194 B(  3-C ,  4-C ) :   0.9021
B(  3-C , 13-H ) :   0.9208 B(  3-C , 14-H ) :   0.9326 B(  4-C ,  5-C ) :   0.8747
B(  4-C , 15-H ) :   0.9168 B(  4-C , 16-H ) :   0.9019 B(  5-C ,  6-O ) :   2.0102
B(  5-C , 17-H ) :   0.9391 B(  7-C ,  8-N ) :   2.8590

MP2 TOTAL ENERGY:     -438.380989932 Eh
FINAL SINGLE POINT ENERGY      -438.380989932119

DIPOLE MOMENT
-------------
                                X             Y             Z
Electronic contribution:     -0.29076      -0.53993       3.78416
Nuclear contribution   :      0.48031       1.18278      -4.09937
                        -----------------------------------------
Total Dipole Moment    :      0.18955       0.64284      -0.31522
                        -----------------------------------------
Magnitude (a.u.)       :      0.74063
Magnitude (Debye)      :      1.88254

                             ****ORCA TERMINATED NORMALLY****
TOTAL RUN TIME: 0 days 0 hours 14 minutes 58 seconds 865 msec
