                         Program Version 3.0.3 - RELEASE   -
|  1> ! RI-MP2 RIJK def2-TZVP def2-TZVP/C def2-TZVP/JK TIGHTSCF
|  2> % maxcore 2000
|  3> % mp2 density relaxed end
|  4> *xyz 0 1
|  5>  C        0.0118004649     1.5425565269     0.1124350986
|  6>  C       -0.0207442232     0.0127181413     0.0866289534
|  7>  C       -1.4385290343    -0.5592065827    -0.0291663520
|  8>  O       -2.1084544819    -0.0690670233    -1.1925693483
|  9>  C       -1.4565149715    -2.0937968743     0.0100273632
| 10>  C       -2.8648505866    -2.6579362801     0.0674554755
| 11>  C       -3.0403673021    -4.1744988898     0.3059594275
| 12>  C       -3.8347401576    -3.7407421269     1.5534879408
| 13>  O       -3.5217416673    -2.3519539251     1.3270630940
| 14>  H        1.0391085068     1.9177820602     0.1439323603
| 15>  H       -0.4803434108     1.9541493710    -0.7725543729
| 16>  H       -0.5139783765     1.9301832810     0.9919009871
| 17>  H        0.5780147670    -0.3621716135    -0.7576727269
| 18>  H        0.4487427603    -0.3902870799     0.9926224019
| 19>  H       -2.0440921901    -0.1896883894     0.8072776065
| 20>  H       -1.5878433433    -0.3351813838    -1.9594552491
| 21>  H       -0.9476921434    -2.4880603690    -0.8831612765
| 22>  H       -0.8948711131    -2.4479581456     0.8832558606
| 23>  H       -3.4518054048    -2.2659951984    -0.7725427989
| 24>  H       -3.5955575436    -4.7229143884    -0.4564265842
| 25>  H       -2.1084320337    -4.7023557435     0.5215961642
| 26>  H       -4.9151366684    -3.9288792649     1.5021668710
| 27>  H       -3.4622688568    -4.0943985119     2.5222446341
| 28> *
| 29>
| 30>                          ****END OF INPUT****

CARTESIAN COORDINATES (ANGSTROEM)
---------------------------------
  C      0.011800    1.542557    0.112435
  C     -0.020744    0.012718    0.086629
  C     -1.438529   -0.559207   -0.029166
  O     -2.108454   -0.069067   -1.192569
  C     -1.456515   -2.093797    0.010027
  C     -2.864851   -2.657936    0.067455
  C     -3.040367   -4.174499    0.305959
  C     -3.834740   -3.740742    1.553488
  O     -3.521742   -2.351954    1.327063
  H      1.039109    1.917782    0.143932
  H     -0.480343    1.954149   -0.772554
  H     -0.513978    1.930183    0.991901
  H      0.578015   -0.362172   -0.757673
  H      0.448743   -0.390287    0.992622
  H     -2.044092   -0.189688    0.807278
  H     -1.587843   -0.335181   -1.959455
  H     -0.947692   -2.488060   -0.883161
  H     -0.894871   -2.447958    0.883256
  H     -3.451805   -2.265995   -0.772543
  H     -3.595558   -4.722914   -0.456427
  H     -2.108432   -4.702356    0.521596
  H     -4.915137   -3.928879    1.502167
  H     -3.462269   -4.094399    2.522245

 Total Charge           Charge          ....    0
 Multiplicity           Mult            ....    1
 Number of Electrons    NEL             ....   72
 Basis Dimension        Dim             ....  363

ORBITAL ENERGIES
----------------

  NO   OCC          E(Eh)            E(eV)
   0   2.0000     -20.550155      -559.1982
   1   2.0000     -20.540066      -558.9236
   2   2.0000     -11.276964      -306.8618
   3   2.0000     -11.275262      -306.8155
   4   2.0000     -11.273338      -306.7631
   5   2.0000     -11.227626      -305.5192
   6   2.0000     -11.222535      -305.3807
   7   2.0000     -11.221722      -305.3586
   8   2.0000     -11.208794      -305.0068
   9   2.0000      -1.371283       -37.3145
  10   2.0000      -1.355472       -36.8843
  11   2.0000      -1.066110       -29.0103
  12   2.0000      -1.024589       -27.8805
  13   2.0000      -0.995158       -27.0796
  14   2.0000      -0.913954       -24.8699
  15   2.0000      -0.848744       -23.0955
  16   2.0000      -0.803804       -21.8726
  17   2.0000      -0.756326       -20.5807
  18   2.0000      -0.683709       -18.6047
  19   2.0000      -0.663422       -18.0526
  20   2.0000      -0.648037       -17.6340
  21   2.0000      -0.635686       -17.2979
  22   2.0000      -0.618065       -16.8184
  23   2.0000      -0.602724       -16.4010
  24   2.0000      -0.564324       -15.3560
  25   2.0000      -0.548754       -14.9324
  26   2.0000      -0.536393       -14.5960
  27   2.0000      -0.531789       -14.4707
  28   2.0000      -0.516691       -14.0599
  29   2.0000      -0.501630       -13.6500
  30   2.0000      -0.482439       -13.1278
  31   2.0000      -0.471679       -12.8350
  32   2.0000      -0.461232       -12.5508
  33   2.0000      -0.452830       -12.3221
  34   2.0000      -0.423942       -11.5360
  35   2.0000      -0.402897       -10.9634
  36   0.0000       0.130139         3.5413
  37   0.0000       0.149650         4.0722
  38   0.0000       0.158899         4.3239
  39   0.0000       0.168240         4.5780
  40   0.0000       0.179186         4.8759

MULLIKEN ATOMIC CHARGES
-----------------------
   0 C :   -0.365207
   1 C :   -0.205877
   2 C :    0.047671
   3 O :   -0.474272
   4 C :   -0.272125
   5 C :    0.153099
   6 C :   -0.277704
   7 C :   -0.012331
   8 O :   -0.342430
   9 H :    0.130620
  10 H :    0.130820
  11 H :    0.122582
  12 H :    0.095486
  13 H :    0.110882
  14 H :    0.109692
  15 H :    0.306735
  16 H :    0.109343
  17 H :    0.109451
  18 H :    0.087352
  19 H :    0.127718
  20 H :    0.118003
  21 H :    0.093591
  22 H :    0.096900
Sum of atomic charges:   -0.0000000

LOEWDIN ATOMIC CHARGES
----------------------
   0 C :   -0.319029
   1 C :   -0.287029
   2 C :   -0.343677
   3 O :   -0.020200
   4 C :   -0.245687
   5 C :   -0.279670
   6 C :   -0.231487
   7 C :   -0.278083
   8 O :    0.125977
   9 H :    0.119277
  10 H :    0.123032
  11 H :    0.122541
  12 H :    0.133208
  13 H :    0.140042
  14 H :    0.152870
  15 H :    0.172205
  16 H :    0.141881
  17 H :    0.146097
  18 H :    0.138453
  19 H :    0.128382
  20 H :    0.131445
  21 H :    0.115394
  22 H :    0.114060

  Mayer bond orders larger than 0.1
B(  0-C ,  1-C ) :   0.9324 B(  0-C ,  9-H ) :   0.9417 B(  0-C , 10-H ) :   0.9346
B(  0-C , 11-H ) :   0.9373 B(  1-C ,  2-C ) :   0.9428 B(  1-C , 12-H ) :   0.9139
B(  1-C , 13-H ) :   0.9325 B(  2-C ,  3-O ) :   0.8759 B(  2-C ,  4-C ) :   0.9480
B(  2-C , 14-H ) :   0.9210 B(  3-O , 15-H ) :   0.8440 B(  4-C ,  5-C ) :   0.9356
B(  4-C , 16-H ) :   0.9107 B(  4-C , 17-H ) :   0.9155 B(  5-C ,  6-C ) :   0.8851
B(  5-C ,  8-O ) :   0.9242 B(  5-C , 18-H ) :   0.9212 B(  6-C ,  7-C ) :   0.9827
B(  6-C , 19-H ) :   0.9306 B(  6-C , 20-H ) :   0.9248 B(  7-C ,  8-O ) :   0.9498
B(  7-C , 21-H ) :   0.9181 B(  7-C , 22-H ) :   0.9166

MP2 TOTAL ENERGY:     -424.706819180 Eh
FINAL SINGLE POINT ENERGY      -424.706819180296

DIPOLE MOMENT
-------------
                                X             Y             Z
Electronic contribution:     -5.35320      -2.09002       0.12145
Nuclear contribution   :      6.03712       1.22506      -0.46364
                        -----------------------------------------
Total Dipole Moment    :      0.68391      -0.86496      -0.34218
                        -----------------------------------------
Magnitude (a.u.)       :      1.15455
Magnitude (Debye)      :      2.93462

                             ****ORCA TERMINATED NORMALLY****
TOTAL RUN TIME: 0 days 0 hours 16 minutes 42 seconds 834 msec
