                         Program Version 3.0.3 - RELEASE   -
|  1> ! RI-MP2 RIJK def2-TZVP def2-TZVP/C def2-TZVP/JK TIGHTSCF
|  2> % maxcore 2000
|  3> % mp2 density relaxed end
|  4> *xyz 0 1
|  5>  C       -0.0164839155     1.5596185447    -0.0223782495
|  6>  C       -0.0456202414     0.0494375073     0.0085848939
|  7>  C        0.3642083453    -0.7310784553    -1.2757376799
|  8>  C       -0.7248579812    -1.8007360342    -0.9989925799
|  9>  C       -0.3483303532    -2.7397682038     0.1622325894
| 10>  N       -0.6831269466    -1.7025033566     1.1973373791
| 11>  C        0.4237373001    -0.6904934886     1.2831929521
| 12>  C       -1.3220438309    -0.8603440046     0.0960233378
| 13>  H        1.0153170811     1.9291444507    -0.0773869400
| 14>  H       -0.5531369938     1.9541213466    -0.8925223964
| 15>  H       -0.4731152010     1.9870740661     0.8774136376
| 16>  H        0.1147629853    -0.1478302186    -2.1682625838
| 17>  H        1.4032744072    -1.0686201796    -1.3590833149
| 18>  H       -1.2704899558    -2.2080947553    -1.8509754866
| 19>  H       -1.0368046367    -3.5857347706     0.2613577198
| 20>  H        0.6792991861    -3.1198133459     0.2056024291
| 21>  H        1.4359072057    -1.1125861442     1.2917312144
| 22>  H        0.2932843926    -0.0837949040     2.1868318948
| 23>  H       -2.3570309875    -0.5333638240     0.1986298429
| 24> *
| 25>
| 26>                          ****END OF INPUT****

CARTESIAN COORDINATES (ANGSTROEM)
---------------------------------
  C     -0.016484    1.559619   -0.022378
  C     -0.045620    0.049438    0.008585
  C      0.364208   -0.731078   -1.275738
  C     -0.724858   -1.800736   -0.998993
  C     -0.348330   -2.739768    0.162233
  N     -0.683127   -1.702503    1.197337
  C      0.423737   -0.690493    1.283193
  C     -1.322044   -0.860344    0.096023
  H      1.015317    1.929144   -0.077387
  H     -0.553137    1.954121   -0.892522
  H     -0.473115    1.987074    0.877414
  H      0.114763   -0.147830   -2.168263
  H      1.403274   -1.068620   -1.359083
  H     -1.270490   -2.208095   -1.850975
  H     -1.036805   -3.585735    0.261358
  H      0.679299   -3.119813    0.205602
  H      1.435907   -1.112586    1.291731
  H      0.293284   -0.083795    2.186832
  H     -2.357031   -0.533364    0.198630

 Total Charge           Charge          ....    0
 Multiplicity           Mult            ....    1
 Number of Electrons    NEL             ....   60
 Basis Dimension        Dim             ....  314

ORBITAL ENERGIES
----------------

  NO   OCC          E(Eh)            E(eV)
   0   2.0000     -15.538430      -422.8222
   1   2.0000     -11.252038      -306.1835
   2   2.0000     -11.245253      -305.9989
   3   2.0000     -11.243953      -305.9635
   4   2.0000     -11.234428      -305.7043
   5   2.0000     -11.228089      -305.5318
   6   2.0000     -11.223871      -305.4171
   7   2.0000     -11.217330      -305.2391
   8   2.0000      -1.269609       -34.5478
   9   2.0000      -1.066497       -29.0209
  10   2.0000      -1.025220       -27.8976
  11   2.0000      -0.938866       -25.5478
  12   2.0000      -0.893737       -24.3198
  13   2.0000      -0.828751       -22.5515
  14   2.0000      -0.780333       -21.2339
  15   2.0000      -0.705236       -19.1905
  16   2.0000      -0.651832       -17.7372
  17   2.0000      -0.629863       -17.1394
  18   2.0000      -0.627793       -17.0831
  19   2.0000      -0.585641       -15.9361
  20   2.0000      -0.560650       -15.2561
  21   2.0000      -0.554688       -15.0938
  22   2.0000      -0.546332       -14.8664
  23   2.0000      -0.525536       -14.3006
  24   2.0000      -0.470231       -12.7956
  25   2.0000      -0.456366       -12.4184
  26   2.0000      -0.442969       -12.0538
  27   2.0000      -0.431283       -11.7358
  28   2.0000      -0.396123       -10.7791
  29   2.0000      -0.341258        -9.2861
  30   0.0000       0.135375         3.6837
  31   0.0000       0.157872         4.2959
  32   0.0000       0.169117         4.6019
  33   0.0000       0.178800         4.8654
  34   0.0000       0.192014         5.2250

MULLIKEN ATOMIC CHARGES
-----------------------
   0 C :   -0.402567
   1 C :    0.101253
   2 C :   -0.276158
   3 C :   -0.078049
   4 C :   -0.170604
   5 N :   -0.199685
   6 C :   -0.186044
   7 C :   -0.088068
   8 H :    0.133037
   9 H :    0.127111
  10 H :    0.132269
  11 H :    0.113275
  12 H :    0.107801
  13 H :    0.118942
  14 H :    0.121963
  15 H :    0.105792
  16 H :    0.105616
  17 H :    0.113099
  18 H :    0.121017
Sum of atomic charges:   -0.0000000

LOEWDIN ATOMIC CHARGES
----------------------
   0 C :   -0.282481
   1 C :   -0.248256
   2 C :   -0.181879
   3 C :   -0.195632
   4 C :   -0.237848
   5 N :    0.083079
   6 C :   -0.213716
   7 C :   -0.125670
   8 H :    0.129319
   9 H :    0.125710
  10 H :    0.127236
  11 H :    0.139664
  12 H :    0.125518
  13 H :    0.129359
  14 H :    0.129867
  15 H :    0.119721
  16 H :    0.120777
  17 H :    0.130755
  18 H :    0.124478

  Mayer bond orders larger than 0.1
B(  0-C ,  1-C ) :   0.8769 B(  0-C ,  8-H ) :   0.9371 B(  0-C ,  9-H ) :   0.9369
B(  0-C , 10-H ) :   0.9391 B(  1-C ,  2-C ) :   0.9119 B(  1-C ,  6-C ) :   0.9394
B(  1-C ,  7-C ) :   0.8933 B(  2-C ,  3-C ) :   0.9116 B(  2-C , 11-H ) :   0.9071
B(  2-C , 12-H ) :   0.9134 B(  3-C ,  4-C ) :   0.9202 B(  3-C ,  7-C ) :   0.9115
B(  3-C , 13-H ) :   0.9170 B(  4-C ,  5-N ) :   0.9029 B(  4-C , 14-H ) :   0.9275
B(  4-C , 15-H ) :   0.9252 B(  5-N ,  6-C ) :   0.9307 B(  5-N ,  7-C ) :   0.9383
B(  6-C , 16-H ) :   0.9259 B(  6-C , 17-H ) :   0.9114 B(  7-C , 18-H ) :   0.8895

MP2 TOTAL ENERGY:     -327.275011563 Eh
FINAL SINGLE POINT ENERGY      -327.275011563316

DIPOLE MOMENT
-------------
                                X             Y             Z
Electronic contribution:     -1.92802      -2.84379       1.25931
Nuclear contribution   :      2.16659       3.12023      -1.84910
                        -----------------------------------------
Total Dipole Moment    :      0.23857       0.27644      -0.58979
                        -----------------------------------------
Magnitude (a.u.)       :      0.69368
Magnitude (Debye)      :      1.76319

                             ****ORCA TERMINATED NORMALLY****
TOTAL RUN TIME: 0 days 0 hours 14 minutes 16 seconds 731 msec
