                         Program Version 3.0.3 - RELEASE   -
|  1> ! RI-MP2 RIJK def2-TZVP def2-TZVP/C def2-TZVP/JK TIGHTSCF
|  2> % maxcore 2000
|  3> % mp2 density relaxed end
|  4> *xyz 0 1
|  5>  C       -0.0296672160     1.5540661678    -0.0996547868
|  6>  C       -0.0271262211     0.0289553218     0.0415394494
|  7>  N       -1.3585973360    -0.5503700726     0.0540351934
|  8>  C       -2.0715309187    -0.8811548277     1.1709617565
|  9>  C       -3.3287356268    -1.3051281702     0.7893184449
| 10>  C       -3.3683606385    -1.2181957842    -0.6307870671
| 11>  O       -4.3822236782    -1.5327894457    -1.4839439802
| 12>  C       -5.5640195016    -2.0150204067    -0.8814621624
| 13>  C       -2.1457196563    -0.7472151326    -1.0617159459
| 14>  H        0.9960399594     1.9364713046    -0.1053793690
| 15>  H       -0.5147952663     1.8580025640    -1.0313463839
| 16>  H       -0.5682418287     2.0191112348     0.7310624961
| 17>  H        0.5386445934    -0.4259611691    -0.7790984010
| 18>  H        0.4680326782    -0.2655784763     0.9718366840
| 19>  H       -1.6296120864    -0.7923235508     2.1510269770
| 20>  H       -4.1068758406    -1.6494652876     1.4505108156
| 21>  H       -6.2690892160    -2.2132050369    -1.6912814565
| 22>  H       -5.3851843954    -2.9452950235    -0.3245862080
| 23>  H       -6.0014298239    -1.2751117880    -0.1968730505
| 24>  H       -1.7823470203    -0.5497436712    -2.0561026255
| 25> *
| 26>
| 27>                          ****END OF INPUT****

CARTESIAN COORDINATES (ANGSTROEM)
---------------------------------
  C     -0.029667    1.554066   -0.099655
  C     -0.027126    0.028955    0.041539
  N     -1.358597   -0.550370    0.054035
  C     -2.071531   -0.881155    1.170962
  C     -3.328736   -1.305128    0.789318
  C     -3.368361   -1.218196   -0.630787
  O     -4.382224   -1.532789   -1.483944
  C     -5.564020   -2.015020   -0.881462
  C     -2.145720   -0.747215   -1.061716
  H      0.996040    1.936471   -0.105379
  H     -0.514795    1.858003   -1.031346
  H     -0.568242    2.019111    0.731062
  H      0.538645   -0.425961   -0.779098
  H      0.468033   -0.265578    0.971837
  H     -1.629612   -0.792324    2.151027
  H     -4.106876   -1.649465    1.450511
  H     -6.269089   -2.213205   -1.691281
  H     -5.385184   -2.945295   -0.324586
  H     -6.001430   -1.275112   -0.196873
  H     -1.782347   -0.549744   -2.056103

 Total Charge           Charge          ....    0
 Multiplicity           Mult            ....    1
 Number of Electrons    NEL             ....   68
 Basis Dimension        Dim             ....  345

ORBITAL ENERGIES
----------------

  NO   OCC          E(Eh)            E(eV)
   0   2.0000     -20.564916      -559.5998
   1   2.0000     -15.598907      -424.4678
   2   2.0000     -11.274195      -306.7864
   3   2.0000     -11.271264      -306.7067
   4   2.0000     -11.265838      -306.5590
   5   2.0000     -11.249631      -306.1180
   6   2.0000     -11.229411      -305.5678
   7   2.0000     -11.224290      -305.4285
   8   2.0000     -11.203989      -304.8760
   9   2.0000      -1.390839       -37.8466
  10   2.0000      -1.294363       -35.2214
  11   2.0000      -1.083032       -29.4708
  12   2.0000      -0.993023       -27.0215
  13   2.0000      -0.980998       -26.6943
  14   2.0000      -0.921890       -25.0859
  15   2.0000      -0.863236       -23.4898
  16   2.0000      -0.763901       -20.7868
  17   2.0000      -0.755016       -20.5450
  18   2.0000      -0.712775       -19.3956
  19   2.0000      -0.646415       -17.5898
  20   2.0000      -0.639561       -17.4033
  21   2.0000      -0.625211       -17.0129
  22   2.0000      -0.612702       -16.6725
  23   2.0000      -0.599717       -16.3191
  24   2.0000      -0.572043       -15.5661
  25   2.0000      -0.563358       -15.3297
  26   2.0000      -0.540725       -14.7139
  27   2.0000      -0.524524       -14.2730
  28   2.0000      -0.514427       -13.9983
  29   2.0000      -0.502145       -13.6641
  30   2.0000      -0.479811       -13.0563
  31   2.0000      -0.469903       -12.7867
  32   2.0000      -0.320992        -8.7346
  33   2.0000      -0.279668        -7.6102
  34   0.0000       0.134460         3.6588
  35   0.0000       0.153640         4.1808
  36   0.0000       0.155512         4.2317
  37   0.0000       0.170377         4.6362
  38   0.0000       0.182094         4.9550

MULLIKEN ATOMIC CHARGES
-----------------------
   0 C :   -0.369110
   1 C :   -0.181869
   2 N :    0.038758
   3 C :   -0.159864
   4 C :   -0.284371
   5 C :    0.225051
   6 O :   -0.298602
   7 C :   -0.226800
   8 C :   -0.216311
   9 H :    0.130081
  10 H :    0.137190
  11 H :    0.134461
  12 H :    0.134130
  13 H :    0.132902
  14 H :    0.139891
  15 H :    0.132146
  16 H :    0.143928
  17 H :    0.124658
  18 H :    0.124346
  19 H :    0.139386
Sum of atomic charges:   -0.0000000

LOEWDIN ATOMIC CHARGES
----------------------
   0 C :   -0.310341
   1 C :   -0.269328
   2 N :    0.249738
   3 C :   -0.232662
   4 C :   -0.201612
   5 C :   -0.297734
   6 O :    0.213619
   7 C :   -0.337302
   8 C :   -0.203696
   9 H :    0.124142
  10 H :    0.124665
  11 H :    0.124955
  12 H :    0.138431
  13 H :    0.139603
  14 H :    0.133644
  15 H :    0.139705
  16 H :    0.114152
  17 H :    0.106789
  18 H :    0.106784
  19 H :    0.136447

  Mayer bond orders larger than 0.1
B(  0-C ,  1-C ) :   0.9227 B(  0-C ,  9-H ) :   0.9317 B(  0-C , 10-H ) :   0.9341
B(  0-C , 11-H ) :   0.9334 B(  1-C ,  2-N ) :   0.8662 B(  1-C , 12-H ) :   0.9332
B(  1-C , 13-H ) :   0.9343 B(  2-N ,  3-C ) :   1.1731 B(  2-N ,  8-C ) :   1.1142
B(  3-C ,  4-C ) :   1.3993 B(  3-C , 14-H ) :   0.9112 B(  4-C ,  5-C ) :   1.2393
B(  4-C , 15-H ) :   0.9242 B(  5-C ,  6-O ) :   1.0588 B(  5-C ,  8-C ) :   1.4434
B(  6-O ,  7-C ) :   0.8867 B(  7-C , 16-H ) :   0.9407 B(  7-C , 17-H ) :   0.9345
B(  7-C , 18-H ) :   0.9346 B(  8-C , 19-H ) :   0.9119

MP2 TOTAL ENERGY:     -402.470320364 Eh
FINAL SINGLE POINT ENERGY      -402.470320363580

DIPOLE MOMENT
-------------
                                X             Y             Z
Electronic contribution:     -2.43690      -3.26190      -1.41868
Nuclear contribution   :      2.96235       3.50622       1.79115
                        -----------------------------------------
Total Dipole Moment    :      0.52545       0.24432       0.37247
                        -----------------------------------------
Magnitude (a.u.)       :      0.68886
Magnitude (Debye)      :      1.75093

                             ****ORCA TERMINATED NORMALLY****
TOTAL RUN TIME: 0 days 0 hours 18 minutes 16 seconds 387 msec
