                         Program Version 3.0.3 - RELEASE   -
|  1> ! RI-MP2 RIJK def2-TZVP def2-TZVP/C def2-TZVP/JK TIGHTSCF
|  2> % maxcore 2000
|  3> % mp2 density relaxed end
|  4> *xyz 0 1
|  5>  O       -0.0484376657     1.4554671289     0.0505002783
|  6>  C       -0.0082353540     0.0309558498     0.0050888304
|  7>  C        0.7682888582    -0.5831812795     1.2425606049
|  8>  C       -0.2737301773    -1.4466601311     1.9698683727
|  9>  C       -1.0792916060    -1.1924991269     3.2908367521
| 10>  C       -1.5057627509     0.1774567811     2.7119313884
| 11>  C       -1.6188455074    -0.8402939892     1.5264007625
| 12>  C       -2.3164218595    -1.8042193683     2.5312499623
| 13>  C       -1.4916163624    -0.4665821012     0.0696215385
| 14>  H        0.8583930491     1.7769534310     0.0245744508
| 15>  H        0.4591703624    -0.2901343150    -0.9366945233
| 16>  H        1.6231493166    -1.1816343338     0.9150311970
| 17>  H        1.1638150759     0.2400283522     1.8441031283
| 18>  H       -0.1532124898    -2.5091481529     1.7299008137
| 19>  H       -0.7805139283    -1.4168879793     4.3165958961
| 20>  H       -2.4510318835     0.5882404095     3.0781709015
| 21>  H       -0.7510547555     0.9583131521     2.6296346566
| 22>  H       -2.2709841344    -2.8725107919     2.2992781453
| 23>  H       -3.3019154910    -1.5153611896     2.9067179317
| 24>  H       -2.1584794232     0.3242180178    -0.2817127758
| 25>  H       -1.6222968733    -1.3438431237    -0.5738333418
| 26> *
| 27>
| 28>                          ****END OF INPUT****

CARTESIAN COORDINATES (ANGSTROEM)
---------------------------------
  O     -0.048438    1.455467    0.050500
  C     -0.008235    0.030956    0.005089
  C      0.768289   -0.583181    1.242561
  C     -0.273730   -1.446660    1.969868
  C     -1.079292   -1.192499    3.290837
  C     -1.505763    0.177457    2.711931
  C     -1.618846   -0.840294    1.526401
  C     -2.316422   -1.804219    2.531250
  C     -1.491616   -0.466582    0.069622
  H      0.858393    1.776953    0.024574
  H      0.459170   -0.290134   -0.936695
  H      1.623149   -1.181634    0.915031
  H      1.163815    0.240028    1.844103
  H     -0.153212   -2.509148    1.729901
  H     -0.780514   -1.416888    4.316596
  H     -2.451032    0.588240    3.078171
  H     -0.751055    0.958313    2.629635
  H     -2.270984   -2.872511    2.299278
  H     -3.301915   -1.515361    2.906718
  H     -2.158479    0.324218   -0.281713
  H     -1.622297   -1.343843   -0.573833

 Total Charge           Charge          ....    0
 Multiplicity           Mult            ....    1
 Number of Electrons    NEL             ....   68
 Basis Dimension        Dim             ....  351

ORBITAL ENERGIES
----------------

  NO   OCC          E(Eh)            E(eV)
   0   2.0000     -20.551502      -559.2348
   1   2.0000     -11.281137      -306.9754
   2   2.0000     -11.242197      -305.9157
   3   2.0000     -11.234543      -305.7074
   4   2.0000     -11.228741      -305.5496
   5   2.0000     -11.221006      -305.3391
   6   2.0000     -11.219550      -305.2995
   7   2.0000     -11.217755      -305.2506
   8   2.0000     -11.215112      -305.1787
   9   2.0000      -1.357307       -36.9342
  10   2.0000      -1.212569       -32.9957
  11   2.0000      -1.050416       -28.5833
  12   2.0000      -0.967004       -26.3135
  13   2.0000      -0.900796       -24.5119
  14   2.0000      -0.872832       -23.7510
  15   2.0000      -0.825888       -22.4736
  16   2.0000      -0.770885       -20.9768
  17   2.0000      -0.709353       -19.3025
  18   2.0000      -0.693897       -18.8819
  19   2.0000      -0.653873       -17.7928
  20   2.0000      -0.622149       -16.9295
  21   2.0000      -0.606935       -16.5155
  22   2.0000      -0.576944       -15.6994
  23   2.0000      -0.573505       -15.6059
  24   2.0000      -0.550510       -14.9801
  25   2.0000      -0.516800       -14.0628
  26   2.0000      -0.501510       -13.6468
  27   2.0000      -0.476105       -12.9555
  28   2.0000      -0.455849       -12.4043
  29   2.0000      -0.441008       -12.0004
  30   2.0000      -0.437350       -11.9009
  31   2.0000      -0.426232       -11.5984
  32   2.0000      -0.411175       -11.1886
  33   2.0000      -0.386375       -10.5138
  34   0.0000       0.136848         3.7238
  35   0.0000       0.154178         4.1954
  36   0.0000       0.165365         4.4998
  37   0.0000       0.171284         4.6609
  38   0.0000       0.185978         5.0607

MULLIKEN ATOMIC CHARGES
-----------------------
   0 O :   -0.466090
   1 C :    0.067130
   2 C :   -0.301922
   3 C :   -0.097380
   4 C :   -0.130499
   5 C :   -0.205658
   6 C :   -0.068697
   7 C :   -0.162776
   8 C :   -0.176871
   9 H :    0.309810
  10 H :    0.084995
  11 H :    0.125504
  12 H :    0.125657
  13 H :    0.089418
  14 H :    0.127627
  15 H :    0.107651
  16 H :    0.118709
  17 H :    0.107559
  18 H :    0.112365
  19 H :    0.122889
  20 H :    0.110580
Sum of atomic charges:   -0.0000000

LOEWDIN ATOMIC CHARGES
----------------------
   0 O :   -0.029735
   1 C :   -0.300387
   2 C :   -0.227483
   3 C :   -0.163921
   4 C :   -0.164139
   5 C :   -0.167919
   6 C :   -0.200616
   7 C :   -0.174262
   8 C :   -0.202495
   9 H :    0.171266
  10 H :    0.125022
  11 H :    0.133161
  12 H :    0.138394
  13 H :    0.143367
  14 H :    0.120840
  15 H :    0.128168
  16 H :    0.129567
  17 H :    0.127204
  18 H :    0.127060
  19 H :    0.144042
  20 H :    0.142866

  Mayer bond orders larger than 0.1
B(  0-O ,  1-C ) :   0.9880 B(  0-O ,  9-H ) :   0.8478 B(  1-C ,  2-C ) :   0.9245
B(  1-C ,  8-C ) :   0.8987 B(  1-C , 10-H ) :   0.9402 B(  2-C ,  3-C ) :   0.9334
B(  2-C , 11-H ) :   0.9149 B(  2-C , 12-H ) :   0.9220 B(  3-C ,  4-C ) :   0.8876
B(  3-C ,  6-C ) :   0.8572 B(  3-C , 13-H ) :   0.9327 B(  4-C ,  5-C ) :   0.9092
B(  4-C ,  7-C ) :   0.9143 B(  4-C , 14-H ) :   0.8942 B(  5-C ,  6-C ) :   0.9103
B(  5-C , 15-H ) :   0.9315 B(  5-C , 16-H ) :   0.9126 B(  6-C ,  7-C ) :   0.8698
B(  6-C ,  8-C ) :   0.9503 B(  7-C , 17-H ) :   0.9245 B(  7-C , 18-H ) :   0.9269
B(  8-C , 19-H ) :   0.9067 B(  8-C , 20-H ) :   0.9140

MP2 TOTAL ENERGY:     -386.362927927 Eh
FINAL SINGLE POINT ENERGY      -386.362927926595

DIPOLE MOMENT
-------------
                                X             Y             Z
Electronic contribution:      0.18723       1.28998      -0.68078
Nuclear contribution   :      0.32894      -1.54549       0.57362
                        -----------------------------------------
Total Dipole Moment    :      0.51617      -0.25551      -0.10717
                        -----------------------------------------
Magnitude (a.u.)       :      0.58583
Magnitude (Debye)      :      1.48907

                             ****ORCA TERMINATED NORMALLY****
TOTAL RUN TIME: 0 days 0 hours 20 minutes 5 seconds 440 msec
