                         Program Version 3.0.3 - RELEASE   -
|  1> ! RI-MP2 RIJK def2-TZVP def2-TZVP/C def2-TZVP/JK TIGHTSCF
|  2> % maxcore 2000
|  3> % mp2 density relaxed end
|  4> *xyz 0 1
|  5>  C        0.1543852022     1.5254191097     0.0377228887
|  6>  C       -0.0020313625     0.0053556147    -0.0522061820
|  7>  C       -1.4446271065    -0.4101344386    -0.3168401571
|  8>  O        0.7759809573    -0.5467166367    -1.1152345540
|  9>  C        2.1680162796    -0.6470570737    -0.8772359410
| 10>  C        2.7712709556    -1.2505949306    -2.1393498403
| 11>  O        2.4450450020    -0.4457650893    -3.2672249295
| 12>  C        4.2933203593    -1.3305039645    -2.1092212272
| 13>  O        4.7959216595    -1.8493369738    -3.3228705954
| 14>  H        1.1889449406     1.8201207516     0.2340198375
| 15>  H       -0.1646222939     1.9945877898    -0.8986642846
| 16>  H       -0.4621719546     1.9229282784     0.8500714198
| 17>  H        0.3348451864    -0.4476122791     0.8947276716
| 18>  H       -1.7934747786     0.0126099337    -1.2646256306
| 19>  H       -1.5242389215    -1.4985278661    -0.3772662857
| 20>  H       -2.1018745764    -0.0537528414     0.4815544021
| 21>  H        2.6146537510     0.3408776337    -0.6912553908
| 22>  H        2.3686226007    -1.2873101169    -0.0029997131
| 23>  H        2.3649212523    -2.2659446251    -2.2720784021
| 24>  H        1.4979637757    -0.2734763869    -3.2071795209
| 25>  H        4.7000408426    -0.3265628150    -1.9018832470
| 26>  H        4.6222346795    -2.0017006645    -1.3087020608
| 27>  H        4.3403977596    -1.3633234696    -4.0211276578
| 28> *
| 29>
| 30>                          ****END OF INPUT****

CARTESIAN COORDINATES (ANGSTROEM)
---------------------------------
  C      0.154385    1.525419    0.037723
  C     -0.002031    0.005356   -0.052206
  C     -1.444627   -0.410134   -0.316840
  O      0.775981   -0.546717   -1.115235
  C      2.168016   -0.647057   -0.877236
  C      2.771271   -1.250595   -2.139350
  O      2.445045   -0.445765   -3.267225
  C      4.293320   -1.330504   -2.109221
  O      4.795922   -1.849337   -3.322871
  H      1.188945    1.820121    0.234020
  H     -0.164622    1.994588   -0.898664
  H     -0.462172    1.922928    0.850071
  H      0.334845   -0.447612    0.894728
  H     -1.793475    0.012610   -1.264626
  H     -1.524239   -1.498528   -0.377266
  H     -2.101875   -0.053753    0.481554
  H      2.614654    0.340878   -0.691255
  H      2.368623   -1.287310   -0.003000
  H      2.364921   -2.265945   -2.272078
  H      1.497964   -0.273476   -3.207180
  H      4.700041   -0.326563   -1.901883
  H      4.622235   -2.001701   -1.308702
  H      4.340398   -1.363323   -4.021128

 Total Charge           Charge          ....    0
 Multiplicity           Mult            ....    1
 Number of Electrons    NEL             ....   74
 Basis Dimension        Dim             ....  363

ORBITAL ENERGIES
----------------

  NO   OCC          E(Eh)            E(eV)
   0   2.0000     -20.565779      -559.6233
   1   2.0000     -20.556798      -559.3789
   2   2.0000     -20.545178      -559.0627
   3   2.0000     -11.291623      -307.2607
   4   2.0000     -11.284283      -307.0609
   5   2.0000     -11.280179      -306.9493
   6   2.0000     -11.272169      -306.7313
   7   2.0000     -11.224030      -305.4214
   8   2.0000     -11.221163      -305.3434
   9   2.0000      -1.394001       -37.9327
  10   2.0000      -1.368145       -37.2291
  11   2.0000      -1.341841       -36.5134
  12   2.0000      -1.070725       -29.1359
  13   2.0000      -1.019421       -27.7399
  14   2.0000      -0.947504       -25.7829
  15   2.0000      -0.910234       -24.7687
  16   2.0000      -0.815037       -22.1783
  17   2.0000      -0.805965       -21.9314
  18   2.0000      -0.724750       -19.7214
  19   2.0000      -0.687670       -18.7124
  20   2.0000      -0.671903       -18.2834
  21   2.0000      -0.661977       -18.0133
  22   2.0000      -0.628954       -17.1147
  23   2.0000      -0.617087       -16.7918
  24   2.0000      -0.594205       -16.1692
  25   2.0000      -0.581753       -15.8303
  26   2.0000      -0.556269       -15.1369
  27   2.0000      -0.552030       -15.0215
  28   2.0000      -0.542779       -14.7698
  29   2.0000      -0.539785       -14.6883
  30   2.0000      -0.521184       -14.1821
  31   2.0000      -0.506246       -13.7756
  32   2.0000      -0.484070       -13.1722
  33   2.0000      -0.474430       -12.9099
  34   2.0000      -0.449288       -12.2257
  35   2.0000      -0.434014       -11.8101
  36   2.0000      -0.430128       -11.7044
  37   0.0000       0.128355         3.4927
  38   0.0000       0.150791         4.1032
  39   0.0000       0.160847         4.3769
  40   0.0000       0.163904         4.4601
  41   0.0000       0.182063         4.9542

MULLIKEN ATOMIC CHARGES
-----------------------
   0 C :   -0.391204
   1 C :    0.078216
   2 C :   -0.361939
   3 O :   -0.322697
   4 C :   -0.107509
   5 C :    0.094133
   6 O :   -0.510591
   7 C :    0.002315
   8 O :   -0.482587
   9 H :    0.132776
  10 H :    0.126876
  11 H :    0.132144
  12 H :    0.073416
  13 H :    0.126998
  14 H :    0.137178
  15 H :    0.123698
  16 H :    0.098376
  17 H :    0.102919
  18 H :    0.089046
  19 H :    0.332393
  20 H :    0.090265
  21 H :    0.103131
  22 H :    0.332646
Sum of atomic charges:   -0.0000000

LOEWDIN ATOMIC CHARGES
----------------------
   0 C :   -0.298959
   1 C :   -0.371877
   2 C :   -0.292538
   3 O :    0.165916
   4 C :   -0.312026
   5 C :   -0.368601
   6 O :   -0.030296
   7 C :   -0.331815
   8 O :   -0.044687
   9 H :    0.121196
  10 H :    0.126334
  11 H :    0.128006
  12 H :    0.134301
  13 H :    0.126006
  14 H :    0.125974
  15 H :    0.126378
  16 H :    0.123392
  17 H :    0.125327
  18 H :    0.138931
  19 H :    0.179089
  20 H :    0.119270
  21 H :    0.129926
  22 H :    0.180750

  Mayer bond orders larger than 0.1
B(  0-C ,  1-C ) :   0.9231 B(  0-C ,  9-H ) :   0.9356 B(  0-C , 10-H ) :   0.9303
B(  0-C , 11-H ) :   0.9304 B(  1-C ,  2-C ) :   0.9330 B(  1-C ,  3-O ) :   0.9009
B(  1-C , 12-H ) :   0.9365 B(  2-C , 13-H ) :   0.9328 B(  2-C , 14-H ) :   0.9370
B(  2-C , 15-H ) :   0.9324 B(  3-O ,  4-C ) :   0.9150 B(  4-C ,  5-C ) :   0.9496
B(  4-C , 16-H ) :   0.9152 B(  4-C , 17-H ) :   0.9235 B(  5-C ,  6-O ) :   0.9005
B(  5-C ,  7-C ) :   0.9392 B(  5-C , 18-H ) :   0.9294 B(  6-O , 19-H ) :   0.8244
B(  7-C ,  8-O ) :   0.9454 B(  7-C , 20-H ) :   0.9162 B(  7-C , 21-H ) :   0.9225
B(  8-O , 22-H ) :   0.8288

MP2 TOTAL ENERGY:     -461.830793927 Eh
FINAL SINGLE POINT ENERGY      -461.830793927166

DIPOLE MOMENT
-------------
                                X             Y             Z
Electronic contribution:      5.85192      -3.53450      -6.09773
Nuclear contribution   :     -6.75359       4.03413       7.11595
                        -----------------------------------------
Total Dipole Moment    :     -0.90167       0.49963       1.01822
                        -----------------------------------------
Magnitude (a.u.)       :      1.44894
Magnitude (Debye)      :      3.68291

                             ****ORCA TERMINATED NORMALLY****
TOTAL RUN TIME: 0 days 0 hours 16 minutes 10 seconds 96 msec
