                         Program Version 3.0.3 - RELEASE   -
|  1> ! RI-MP2 RIJK def2-TZVP def2-TZVP/C def2-TZVP/JK TIGHTSCF
|  2> % maxcore 2000
|  3> % mp2 density relaxed end
|  4> *xyz 0 1
|  5>  C       -0.1031134656     1.6000085706     0.1009204080
|  6>  C       -0.0352302035     0.0637422607    -0.0230854231
|  7>  C       -1.3742255322    -0.5173819145     0.0391047570
|  8>  C       -2.4781239553    -0.9890594654     0.0890146569
|  9>  C        0.6922128478    -0.4177876918    -1.3145526231
| 10>  O        0.1063414943     0.0808810519    -2.4943576952
| 11>  C        2.2085349898    -0.1089139911    -1.2550133385
| 12>  C        2.9296710367    -0.6508618051    -2.4034957704
| 13>  N        3.5086117272    -1.0838933888    -3.3043852788
| 14>  H        0.8941590826     2.0500002580     0.1189154338
| 15>  H       -0.6746023171     2.0314744632    -0.7260629715
| 16>  H       -0.6118005015     1.8779852874     1.0263426539
| 17>  H        0.5420942662    -0.3236149439     0.8282638482
| 18>  H       -3.4515727902    -1.4116278503     0.1302338927
| 19>  H        0.5701191765    -1.5029507345    -1.3767660248
| 20>  H        0.2246391249     1.0365069349    -2.5249648765
| 21>  H        2.3768717695     0.9740438294    -1.2198113313
| 22>  H        2.6416765698    -0.5268742507    -0.3390810173
| 23> *
| 24>
| 25>                          ****END OF INPUT****

CARTESIAN COORDINATES (ANGSTROEM)
---------------------------------
  C     -0.103113    1.600009    0.100920
  C     -0.035230    0.063742   -0.023085
  C     -1.374226   -0.517382    0.039105
  C     -2.478124   -0.989059    0.089015
  C      0.692213   -0.417788   -1.314553
  O      0.106341    0.080881   -2.494358
  C      2.208535   -0.108914   -1.255013
  C      2.929671   -0.650862   -2.403496
  N      3.508612   -1.083893   -3.304385
  H      0.894159    2.050000    0.118915
  H     -0.674602    2.031474   -0.726063
  H     -0.611801    1.877985    1.026343
  H      0.542094   -0.323615    0.828264
  H     -3.451573   -1.411628    0.130234
  H      0.570119   -1.502951   -1.376766
  H      0.224639    1.036507   -2.524965
  H      2.376872    0.974044   -1.219811
  H      2.641677   -0.526874   -0.339081

 Total Charge           Charge          ....    0
 Multiplicity           Mult            ....    1
 Number of Electrons    NEL             ....   66
 Basis Dimension        Dim             ....  333

ORBITAL ENERGIES
----------------

  NO   OCC          E(Eh)            E(eV)
   0   2.0000     -20.579578      -559.9988
   1   2.0000     -15.570784      -423.7026
   2   2.0000     -11.321453      -308.0724
   3   2.0000     -11.293337      -307.3073
   4   2.0000     -11.282758      -307.0194
   5   2.0000     -11.275433      -306.8201
   6   2.0000     -11.249437      -306.1127
   7   2.0000     -11.241924      -305.9083
   8   2.0000     -11.231739      -305.6312
   9   2.0000      -1.392393       -37.8889
  10   2.0000      -1.219972       -33.1971
  11   2.0000      -1.125107       -30.6157
  12   2.0000      -1.064495       -28.9664
  13   2.0000      -1.009330       -27.4653
  14   2.0000      -0.937368       -25.5071
  15   2.0000      -0.848863       -23.0987
  16   2.0000      -0.756691       -20.5906
  17   2.0000      -0.715372       -19.4663
  18   2.0000      -0.686809       -18.6890
  19   2.0000      -0.672488       -18.2993
  20   2.0000      -0.666642       -18.1403
  21   2.0000      -0.637346       -17.3431
  22   2.0000      -0.606685       -16.5087
  23   2.0000      -0.570893       -15.5348
  24   2.0000      -0.559792       -15.2327
  25   2.0000      -0.554717       -15.0946
  26   2.0000      -0.541202       -14.7269
  27   2.0000      -0.511188       -13.9101
  28   2.0000      -0.483639       -13.1605
  29   2.0000      -0.461136       -12.5481
  30   2.0000      -0.454474       -12.3669
  31   2.0000      -0.397477       -10.8159
  32   2.0000      -0.395572       -10.7641
  33   0.0000       0.104481         2.8431
  34   0.0000       0.134171         3.6510
  35   0.0000       0.151042         4.1101
  36   0.0000       0.158740         4.3195
  37   0.0000       0.161630         4.3982

MULLIKEN ATOMIC CHARGES
-----------------------
   0 C :   -0.454124
   1 C :   -0.207008
   2 C :    0.014026
   3 C :   -0.110710
   4 C :    0.069619
   5 O :   -0.443659
   6 C :   -0.181309
   7 C :   -0.155608
   8 N :   -0.046348
   9 H :    0.140457
  10 H :    0.138862
  11 H :    0.157826
  12 H :    0.118360
  13 H :    0.194727
  14 H :    0.131442
  15 H :    0.316760
  16 H :    0.156835
  17 H :    0.159854
Sum of atomic charges:    0.0000000

LOEWDIN ATOMIC CHARGES
----------------------
   0 C :   -0.276779
   1 C :   -0.253687
   2 C :   -0.089063
   3 C :   -0.087663
   4 C :   -0.306684
   5 O :    0.021096
   6 C :   -0.234489
   7 C :   -0.192102
   8 N :    0.063295
   9 H :    0.121885
  10 H :    0.127493
  11 H :    0.135338
  12 H :    0.173376
  13 H :    0.128321
  14 H :    0.161373
  15 H :    0.178021
  16 H :    0.162206
  17 H :    0.168063

  Mayer bond orders larger than 0.1
B(  0-C ,  1-C ) :   0.8840 B(  0-C ,  9-H ) :   0.9367 B(  0-C , 10-H ) :   0.9307
B(  0-C , 11-H ) :   0.9329 B(  1-C ,  2-C ) :   1.1441 B(  1-C ,  3-C ) :  -0.1142
B(  1-C ,  4-C ) :   0.9009 B(  1-C , 12-H ) :   0.9266 B(  2-C ,  3-C ) :   2.6194
B(  3-C , 13-H ) :   0.8854 B(  4-C ,  5-O ) :   0.9302 B(  4-C ,  6-C ) :   0.9066
B(  4-C , 14-H ) :   0.9302 B(  5-O , 15-H ) :   0.8380 B(  6-C ,  7-C ) :   0.9658
B(  6-C , 16-H ) :   0.8986 B(  6-C , 17-H ) :   0.9031 B(  7-C ,  8-N ) :   2.8801

MP2 TOTAL ENERGY:     -401.232437276 Eh
FINAL SINGLE POINT ENERGY      -401.232437276368

DIPOLE MOMENT
-------------
                                X             Y             Z
Electronic contribution:      2.30561      -4.44113      -4.66941
Nuclear contribution   :     -2.80986       5.44555       6.25588
                        -----------------------------------------
Total Dipole Moment    :     -0.50425       1.00442       1.58648
                        -----------------------------------------
Magnitude (a.u.)       :      1.94423
Magnitude (Debye)      :      4.94184

                             ****ORCA TERMINATED NORMALLY****
TOTAL RUN TIME: 0 days 0 hours 17 minutes 26 seconds 221 msec
