                         Program Version 3.0.3 - RELEASE   -
|  1> ! RI-MP2 RIJK def2-TZVP def2-TZVP/C def2-TZVP/JK TIGHTSCF
|  2> % maxcore 2000
|  3> % mp2 density relaxed end
|  4> *xyz 0 1
|  5>  O        0.6107532641     0.3009086553    -0.7429260949
|  6>  C       -0.1620513010     0.2063641432     0.4414087993
|  7>  C       -1.4973743040    -0.4393459275     0.2007970124
|  8>  O       -2.4561978864    -0.3871102948     1.2608543654
|  9>  C       -3.1093009405    -1.5748107827     0.7034003870
| 10>  C       -4.2550908359    -1.0694229109    -0.1600412691
| 11>  O       -3.6074252103    -0.2601096223    -1.1530373726
| 12>  C       -2.2378021517    -0.5845441002    -1.1247348701
| 13>  C       -1.9468889355    -1.7984682143    -0.2886290186
| 14>  H        0.2097142613     0.9768658500    -1.2985767932
| 15>  H        0.4260678891    -0.3884728717     1.1481482765
| 16>  H       -0.3359580442     1.1884056109     0.9080917230
| 17>  H       -3.3466291872    -2.3193091236     1.4634899459
| 18>  H       -4.8100928816    -1.8947284436    -0.6323441700
| 19>  H       -4.9476773555    -0.4413633230     0.4076146512
| 20>  H       -1.7202966703    -0.4106623959    -2.0595299286
| 21>  H       -1.4382367705    -2.7112988389    -0.5659415236
| 22> *
| 23>
| 24>                          ****END OF INPUT****

CARTESIAN COORDINATES (ANGSTROEM)
---------------------------------
  O      0.610753    0.300909   -0.742926
  C     -0.162051    0.206364    0.441409
  C     -1.497374   -0.439346    0.200797
  O     -2.456198   -0.387110    1.260854
  C     -3.109301   -1.574811    0.703400
  C     -4.255091   -1.069423   -0.160041
  O     -3.607425   -0.260110   -1.153037
  C     -2.237802   -0.584544   -1.124735
  C     -1.946889   -1.798468   -0.288629
  H      0.209714    0.976866   -1.298577
  H      0.426068   -0.388473    1.148148
  H     -0.335958    1.188406    0.908092
  H     -3.346629   -2.319309    1.463490
  H     -4.810093   -1.894728   -0.632344
  H     -4.947677   -0.441363    0.407615
  H     -1.720297   -0.410662   -2.059530
  H     -1.438237   -2.711299   -0.565942

 Total Charge           Charge          ....    0
 Multiplicity           Mult            ....    1
 Number of Electrons    NEL             ....   68
 Basis Dimension        Dim             ....  327

ORBITAL ENERGIES
----------------

  NO   OCC          E(Eh)            E(eV)
   0   2.0000     -20.569278      -559.7185
   1   2.0000     -20.563366      -559.5576
   2   2.0000     -20.563055      -559.5492
   3   2.0000     -11.302271      -307.5504
   4   2.0000     -11.299453      -307.4737
   5   2.0000     -11.292850      -307.2941
   6   2.0000     -11.289601      -307.2057
   7   2.0000     -11.282803      -307.0207
   8   2.0000     -11.241724      -305.9029
   9   2.0000      -1.428215       -38.8637
  10   2.0000      -1.373809       -37.3832
  11   2.0000      -1.360647       -37.0251
  12   2.0000      -1.117419       -30.4065
  13   2.0000      -1.027225       -27.9522
  14   2.0000      -0.963229       -26.2108
  15   2.0000      -0.845745       -23.0139
  16   2.0000      -0.814438       -22.1620
  17   2.0000      -0.751487       -20.4490
  18   2.0000      -0.734961       -19.9993
  19   2.0000      -0.702976       -19.1289
  20   2.0000      -0.673015       -18.3137
  21   2.0000      -0.644292       -17.5321
  22   2.0000      -0.629196       -17.1213
  23   2.0000      -0.611780       -16.6474
  24   2.0000      -0.590555       -16.0698
  25   2.0000      -0.569868       -15.5069
  26   2.0000      -0.543483       -14.7889
  27   2.0000      -0.516224       -14.0472
  28   2.0000      -0.506484       -13.7821
  29   2.0000      -0.500029       -13.6065
  30   2.0000      -0.486292       -13.2327
  31   2.0000      -0.450037       -12.2461
  32   2.0000      -0.402814       -10.9611
  33   2.0000      -0.364592        -9.9211
  34   0.0000       0.133603         3.6355
  35   0.0000       0.151016         4.1093
  36   0.0000       0.170330         4.6349
  37   0.0000       0.180150         4.9021
  38   0.0000       0.188134         5.1194

MULLIKEN ATOMIC CHARGES
-----------------------
   0 O :   -0.474652
   1 C :   -0.041866
   2 C :    0.145351
   3 O :   -0.327761
   4 C :    0.058574
   5 C :   -0.026862
   6 O :   -0.312525
   7 C :   -0.006087
   8 C :   -0.234383
   9 H :    0.322251
  10 H :    0.121415
  11 H :    0.130037
  12 H :    0.137247
  13 H :    0.092462
  14 H :    0.119563
  15 H :    0.139622
  16 H :    0.157615
Sum of atomic charges:    0.0000000

LOEWDIN ATOMIC CHARGES
----------------------
   0 O :   -0.034568
   1 C :   -0.305011
   2 C :   -0.274630
   3 O :    0.189763
   4 C :   -0.226730
   5 C :   -0.267648
   6 O :    0.176546
   7 C :   -0.249575
   8 C :   -0.134913
   9 H :    0.176886
  10 H :    0.137099
  11 H :    0.131218
  12 H :    0.140280
  13 H :    0.124562
  14 H :    0.133096
  15 H :    0.144740
  16 H :    0.138885

  Mayer bond orders larger than 0.1
B(  0-O ,  1-C ) :   0.9251 B(  0-O ,  9-H ) :   0.8430 B(  1-C ,  2-C ) :   0.8453
B(  1-C , 10-H ) :   0.9266 B(  1-C , 11-H ) :   0.9508 B(  2-C ,  3-O ) :   0.9639
B(  2-C ,  7-C ) :   0.8528 B(  2-C ,  8-C ) :   0.8380 B(  3-O ,  4-C ) :   0.8826
B(  4-C ,  5-C ) :   0.9874 B(  4-C ,  8-C ) :   0.9290 B(  4-C , 12-H ) :   0.8978
B(  5-C ,  6-O ) :   0.9423 B(  5-C , 13-H ) :   0.9137 B(  5-C , 14-H ) :   0.9071
B(  6-O ,  7-C ) :   0.9632 B(  7-C ,  8-C ) :   0.8901 B(  7-C , 15-H ) :   0.9240
B(  8-C , 16-H ) :   0.8829

MP2 TOTAL ENERGY:     -458.169987652 Eh
FINAL SINGLE POINT ENERGY      -458.169987651838

DIPOLE MOMENT
-------------
                                X             Y             Z
Electronic contribution:     -0.54029       0.76374      -0.21439
Nuclear contribution   :      0.38002      -1.22896       0.19777
                        -----------------------------------------
Total Dipole Moment    :     -0.16027      -0.46522      -0.01662
                        -----------------------------------------
Magnitude (a.u.)       :      0.49233
Magnitude (Debye)      :      1.25141

                             ****ORCA TERMINATED NORMALLY****
TOTAL RUN TIME: 0 days 0 hours 15 minutes 15 seconds 670 msec
