                         Program Version 3.0.3 - RELEASE   -
|  1> ! RI-MP2 RIJK def2-TZVP def2-TZVP/C def2-TZVP/JK TIGHTSCF
|  2> % maxcore 2000
|  3> % mp2 density relaxed end
|  4> *xyz 0 1
|  5>  O       -0.0123715709     1.4415947112     0.1438918416
|  6>  C        1.2608782767     0.8057663636    -0.0056578528
|  7>  C        0.0334548350     0.0103939405     0.0277165576
|  8>  C       -0.3777572778    -0.5804071537    -1.2783816314
|  9>  C       -0.1505993400     0.1015013302    -2.5679526585
| 10>  C        1.1363882921     0.9456723768    -2.6312022744
| 11>  C        1.9183289912     0.8683558680    -1.3415650156
| 12>  C        1.8786396813    -0.3181692122    -2.2870504759
| 13>  N        0.6168854365    -1.1525147351    -2.2623301920
| 14>  H        1.9046013476     0.8600678946     0.8698435051
| 15>  H       -0.2584192672    -0.5283863486     0.9258942588
| 16>  H       -1.2476717544    -1.2308541543    -1.2459764201
| 17>  H       -0.8936656991     0.1177136971    -3.3588517168
| 18>  H        1.3329613899     1.6904564682    -3.3898360230
| 19>  H        2.8631631523     1.4022282087    -1.3897624282
| 20>  H        2.7659582467    -0.7775400249    -2.7024822743
| 21> *
| 22>
| 23>                          ****END OF INPUT****

CARTESIAN COORDINATES (ANGSTROEM)
---------------------------------
  O     -0.012372    1.441595    0.143892
  C      1.260878    0.805766   -0.005658
  C      0.033455    0.010394    0.027717
  C     -0.377757   -0.580407   -1.278382
  C     -0.150599    0.101501   -2.567953
  C      1.136388    0.945672   -2.631202
  C      1.918329    0.868356   -1.341565
  C      1.878640   -0.318169   -2.287050
  N      0.616885   -1.152515   -2.262330
  H      1.904601    0.860068    0.869844
  H     -0.258419   -0.528386    0.925894
  H     -1.247672   -1.230854   -1.245976
  H     -0.893666    0.117714   -3.358852
  H      1.332961    1.690456   -3.389836
  H      2.863163    1.402228   -1.389762
  H      2.765958   -0.777540   -2.702482

 Total Charge           Charge          ....    0
 Multiplicity           Mult            ....    1
 Number of Electrons    NEL             ....   64
 Basis Dimension        Dim             ....  321

ORBITAL ENERGIES
----------------

  NO   OCC          E(Eh)            E(eV)
   0   2.0000     -20.569615      -559.7277
   1   2.0000     -15.567978      -423.6262
   2   2.0000     -11.291765      -307.2645
   3   2.0000     -11.290039      -307.2176
   4   2.0000     -11.274240      -306.7877
   5   2.0000     -11.272954      -306.7527
   6   2.0000     -11.272794      -306.7483
   7   2.0000     -11.251966      -306.1816
   8   2.0000     -11.249415      -306.1122
   9   2.0000      -1.415842       -38.5270
  10   2.0000      -1.307554       -35.5804
  11   2.0000      -1.123641       -30.5758
  12   2.0000      -0.994726       -27.0679
  13   2.0000      -0.929646       -25.2969
  14   2.0000      -0.898343       -24.4452
  15   2.0000      -0.847710       -23.0674
  16   2.0000      -0.750473       -20.4214
  17   2.0000      -0.738130       -20.0855
  18   2.0000      -0.708355       -19.2753
  19   2.0000      -0.683344       -18.5947
  20   2.0000      -0.670538       -18.2463
  21   2.0000      -0.614807       -16.7297
  22   2.0000      -0.569688       -15.5020
  23   2.0000      -0.555252       -15.1092
  24   2.0000      -0.545689       -14.8490
  25   2.0000      -0.519436       -14.1346
  26   2.0000      -0.497042       -13.5252
  27   2.0000      -0.467955       -12.7337
  28   2.0000      -0.444309       -12.0903
  29   2.0000      -0.418518       -11.3884
  30   2.0000      -0.381016       -10.3680
  31   2.0000      -0.352725        -9.5981
  32   0.0000       0.142910         3.8888
  33   0.0000       0.163170         4.4401
  34   0.0000       0.163479         4.4485
  35   0.0000       0.179456         4.8832
  36   0.0000       0.187752         5.1090

MULLIKEN ATOMIC CHARGES
-----------------------
   0 O :   -0.315241
   1 C :    0.026446
   2 C :    0.011365
   3 C :   -0.078870
   4 C :    0.022656
   5 C :   -0.166042
   6 C :   -0.113594
   7 C :   -0.066727
   8 N :   -0.244358
   9 H :    0.115672
  10 H :    0.118751
  11 H :    0.125791
  12 H :    0.141954
  13 H :    0.149432
  14 H :    0.132412
  15 H :    0.140354
Sum of atomic charges:    0.0000000

LOEWDIN ATOMIC CHARGES
----------------------
   0 O :    0.176285
   1 C :   -0.243367
   2 C :   -0.241298
   3 C :   -0.201697
   4 C :   -0.164360
   5 C :   -0.144124
   6 C :   -0.170331
   7 C :   -0.171077
   8 N :    0.140871
   9 H :    0.141789
  10 H :    0.141555
  11 H :    0.155748
  12 H :    0.138727
  13 H :    0.142144
  14 H :    0.163479
  15 H :    0.135656

  Mayer bond orders larger than 0.1
B(  0-O ,  1-C ) :   0.9581 B(  0-O ,  2-C ) :   0.9423 B(  1-C ,  2-C ) :   0.9916
B(  1-C ,  6-C ) :   0.9067 B(  1-C ,  9-H ) :   0.9262 B(  2-C ,  3-C ) :   0.8809
B(  2-C , 10-H ) :   0.9322 B(  3-C ,  4-C ) :   0.9458 B(  3-C ,  8-N ) :   0.8880
B(  3-C , 11-H ) :   0.9311 B(  4-C ,  5-C ) :   0.9676 B(  4-C ,  8-N ) :   0.8361
B(  4-C , 12-H ) :   0.8955 B(  5-C ,  6-C ) :   0.8603 B(  5-C ,  7-C ) :   0.8826
B(  5-C , 13-H ) :   0.9176 B(  6-C ,  7-C ) :   0.8608 B(  6-C , 14-H ) :   0.9238
B(  7-C ,  8-N ) :   0.9304 B(  7-C , 15-H ) :   0.9230

MP2 TOTAL ENERGY:     -399.957125529 Eh
FINAL SINGLE POINT ENERGY      -399.957125528819

DIPOLE MOMENT
-------------
                                X             Y             Z
Electronic contribution:     -1.09081       0.24401       0.85988
Nuclear contribution   :      1.53417      -0.20389      -0.91663
                        -----------------------------------------
Total Dipole Moment    :      0.44336       0.04011      -0.05675
                        -----------------------------------------
Magnitude (a.u.)       :      0.44877
Magnitude (Debye)      :      1.14068

                             ****ORCA TERMINATED NORMALLY****
TOTAL RUN TIME: 0 days 0 hours 17 minutes 39 seconds 693 msec
