                         Program Version 3.0.3 - RELEASE   -
|  1> ! RI-MP2 RIJK def2-TZVP def2-TZVP/C def2-TZVP/JK TIGHTSCF
|  2> % maxcore 2000
|  3> % mp2 density relaxed end
|  4> *xyz 0 1
|  5>  C       -0.1110706993     1.5838837189    -0.0118669233
|  6>  C       -0.0316289529     0.0699097772    -0.0154399414
|  7>  C        1.2361443355    -0.6086743703    -0.6063158406
|  8>  O        2.0202947011    -0.1452381152     0.5537647269
|  9>  C        0.7516848835    -0.6370202085     1.1300480629
| 10>  C        0.9087170397    -1.8976230975     0.2354711266
| 11>  O       -0.2459001110    -2.6459018209    -0.0003911814
| 12>  C        2.0649164884    -2.7515018351     0.5249926494
| 13>  N        2.9151592335    -3.5139201229     0.7023063225
| 14>  H        0.8477006362     2.0247219308     0.2678893639
| 15>  H       -0.3912891898     1.9563589857    -1.0026239072
| 16>  H       -0.8736676370     1.9268675725     0.6948761976
| 17>  H       -0.9736892831    -0.4100490061    -0.2856398275
| 18>  H        1.6956194742    -0.5320214652    -1.5918739354
| 19>  H        0.6310834768    -0.5906293642     2.2119354684
| 20>  H       -0.0303737355    -3.3802249089    -0.5861888812
| 21> *
| 22>
| 23>                          ****END OF INPUT****

CARTESIAN COORDINATES (ANGSTROEM)
---------------------------------
  C     -0.111071    1.583884   -0.011867
  C     -0.031629    0.069910   -0.015440
  C      1.236144   -0.608674   -0.606316
  O      2.020295   -0.145238    0.553765
  C      0.751685   -0.637020    1.130048
  C      0.908717   -1.897623    0.235471
  O     -0.245900   -2.645902   -0.000391
  C      2.064916   -2.751502    0.524993
  N      2.915159   -3.513920    0.702306
  H      0.847701    2.024722    0.267889
  H     -0.391289    1.956359   -1.002624
  H     -0.873668    1.926868    0.694876
  H     -0.973689   -0.410049   -0.285640
  H      1.695619   -0.532021   -1.591874
  H      0.631083   -0.590629    2.211935
  H     -0.030374   -3.380225   -0.586189

 Total Charge           Charge          ....    0
 Multiplicity           Mult            ....    1
 Number of Electrons    NEL             ....   66
 Basis Dimension        Dim             ....  321

ORBITAL ENERGIES
----------------

  NO   OCC          E(Eh)            E(eV)
   0   2.0000     -20.606398      -560.7286
   1   2.0000     -20.579280      -559.9907
   2   2.0000     -15.580763      -423.9741
   3   2.0000     -11.359994      -309.1212
   4   2.0000     -11.329506      -308.2915
   5   2.0000     -11.329439      -308.2897
   6   2.0000     -11.280223      -306.9505
   7   2.0000     -11.265879      -306.5602
   8   2.0000     -11.230794      -305.6054
   9   2.0000      -1.443921       -39.2911
  10   2.0000      -1.407286       -38.2942
  11   2.0000      -1.224276       -33.3142
  12   2.0000      -1.103071       -30.0161
  13   2.0000      -1.024981       -27.8911
  14   2.0000      -0.924520       -25.1575
  15   2.0000      -0.920040       -25.0356
  16   2.0000      -0.775919       -21.1138
  17   2.0000      -0.768548       -20.9132
  18   2.0000      -0.732223       -19.9248
  19   2.0000      -0.695772       -18.9329
  20   2.0000      -0.649942       -17.6858
  21   2.0000      -0.597883       -16.2692
  22   2.0000      -0.591889       -16.1061
  23   2.0000      -0.568345       -15.4655
  24   2.0000      -0.567088       -15.4313
  25   2.0000      -0.554673       -15.0934
  26   2.0000      -0.537658       -14.6304
  27   2.0000      -0.509345       -13.8600
  28   2.0000      -0.498376       -13.5615
  29   2.0000      -0.472457       -12.8562
  30   2.0000      -0.469914       -12.7870
  31   2.0000      -0.446377       -12.1465
  32   2.0000      -0.435656       -11.8548
  33   0.0000       0.118217         3.2168
  34   0.0000       0.135635         3.6908
  35   0.0000       0.150848         4.1048
  36   0.0000       0.159555         4.3417
  37   0.0000       0.179808         4.8928

MULLIKEN ATOMIC CHARGES
-----------------------
   0 C :   -0.451213
   1 C :    0.001062
   2 C :   -0.060873
   3 O :   -0.313619
   4 C :   -0.041689
   5 C :    0.376747
   6 O :   -0.454479
   7 C :   -0.249387
   8 N :   -0.039588
   9 H :    0.164242
  10 H :    0.137645
  11 H :    0.139089
  12 H :    0.137363
  13 H :    0.157109
  14 H :    0.157612
  15 H :    0.339979
Sum of atomic charges:    0.0000000

LOEWDIN ATOMIC CHARGES
----------------------
   0 C :   -0.293517
   1 C :   -0.205811
   2 C :   -0.163027
   3 O :    0.162519
   4 C :   -0.153308
   5 C :   -0.324238
   6 O :    0.051318
   7 C :   -0.154398
   8 N :    0.078023
   9 H :    0.133699
  10 H :    0.128399
  11 H :    0.128715
  12 H :    0.153284
  13 H :    0.131311
  14 H :    0.134131
  15 H :    0.192901

  Mayer bond orders larger than 0.1
B(  0-C ,  1-C ) :   0.8914 B(  0-C ,  9-H ) :   0.9399 B(  0-C , 10-H ) :   0.9357
B(  0-C , 11-H ) :   0.9360 B(  1-C ,  2-C ) :   0.9230 B(  1-C ,  4-C ) :   0.9310
B(  1-C , 12-H ) :   0.9026 B(  2-C ,  3-O ) :   0.8992 B(  2-C ,  5-C ) :   0.8768
B(  2-C , 13-H ) :   0.8745 B(  3-O ,  4-C ) :   0.9029 B(  4-C ,  5-C ) :   0.8930
B(  4-C , 14-H ) :   0.8735 B(  5-C ,  6-O ) :   1.0246 B(  5-C ,  7-C ) :   0.9077
B(  6-O , 15-H ) :   0.8245 B(  7-C ,  8-N ) :   2.8671

MP2 TOTAL ENERGY:     -437.103445422 Eh
FINAL SINGLE POINT ENERGY      -437.103445422271

DIPOLE MOMENT
-------------
                                X             Y             Z
Electronic contribution:      4.54815      -7.81695       1.31397
Nuclear contribution   :     -5.86284       8.46105      -2.02881
                        -----------------------------------------
Total Dipole Moment    :     -1.31469       0.64411      -0.71484
                        -----------------------------------------
Magnitude (a.u.)       :      1.62920
Magnitude (Debye)      :      4.14109

                             ****ORCA TERMINATED NORMALLY****
TOTAL RUN TIME: 0 days 0 hours 16 minutes 2 seconds 475 msec
