                         Program Version 3.0.3 - RELEASE   -
|  1> ! RI-MP2 RIJK def2-TZVP def2-TZVP/C def2-TZVP/JK TIGHTSCF
|  2> % maxcore 2000
|  3> % mp2 density relaxed end
|  4> *xyz 0 1
|  5>  C       -0.0758953938     1.5384187959    -0.0914091945
|  6>  C        0.0252665312     0.0400919771    -0.0202635087
|  7>  C       -0.8073906349    -0.7824848316     0.9304911112
|  8>  C        0.6921355276    -0.7737390401     1.1212657696
|  9>  O        1.4083316330    -1.8118378816     0.4709690402
| 10>  C        1.1535758158    -1.6357658598    -0.8558191793
| 11>  N        0.4359455934    -0.6540031094    -1.2199028891
| 12>  C        1.3238101698    -0.2472540761     2.2904318921
| 13>  N        1.8040351049     0.2162063950     3.2353271235
| 14>  H        0.8451965322     1.9689143760    -0.4931975216
| 15>  H       -0.9028630231     1.8250359059    -0.7480001868
| 16>  H       -0.2563119715     1.9647186531     0.8987784478
| 17>  H       -1.3729268538    -0.2386488648     1.6787096492
| 18>  H       -1.2579011599    -1.7043730997     0.5780911386
| 19>  H        1.6062612991    -2.3775712300    -1.5013534623
| 20> *
| 21>
| 22>                          ****END OF INPUT****

CARTESIAN COORDINATES (ANGSTROEM)
---------------------------------
  C     -0.075895    1.538419   -0.091409
  C      0.025267    0.040092   -0.020264
  C     -0.807391   -0.782485    0.930491
  C      0.692136   -0.773739    1.121266
  O      1.408332   -1.811838    0.470969
  C      1.153576   -1.635766   -0.855819
  N      0.435946   -0.654003   -1.219903
  C      1.323810   -0.247254    2.290432
  N      1.804035    0.216206    3.235327
  H      0.845197    1.968914   -0.493198
  H     -0.902863    1.825036   -0.748000
  H     -0.256312    1.964719    0.898778
  H     -1.372927   -0.238649    1.678710
  H     -1.257901   -1.704373    0.578091
  H      1.606261   -2.377571   -1.501353

 Total Charge           Charge          ....    0
 Multiplicity           Mult            ....    1
 Number of Electrons    NEL             ....   64
 Basis Dimension        Dim             ....  315

ORBITAL ENERGIES
----------------

  NO   OCC          E(Eh)            E(eV)
   0   2.0000     -20.636879      -561.5580
   1   2.0000     -15.586657      -424.1345
   2   2.0000     -15.580414      -423.9646
   3   2.0000     -11.361311      -309.1570
   4   2.0000     -11.353605      -308.9473
   5   2.0000     -11.313402      -307.8533
   6   2.0000     -11.288615      -307.1788
   7   2.0000     -11.272122      -306.7300
   8   2.0000     -11.242749      -305.9308
   9   2.0000      -1.484455       -40.3941
  10   2.0000      -1.260880       -34.3103
  11   2.0000      -1.233203       -33.5572
  12   2.0000      -1.161919       -31.6174
  13   2.0000      -1.003844       -27.3160
  14   2.0000      -0.942917       -25.6581
  15   2.0000      -0.882699       -24.0195
  16   2.0000      -0.809442       -22.0260
  17   2.0000      -0.759323       -20.6622
  18   2.0000      -0.699645       -19.0383
  19   2.0000      -0.675510       -18.3816
  20   2.0000      -0.646446       -17.5907
  21   2.0000      -0.608381       -16.5549
  22   2.0000      -0.600990       -16.3538
  23   2.0000      -0.588075       -16.0023
  24   2.0000      -0.570219       -15.5165
  25   2.0000      -0.554351       -15.0846
  26   2.0000      -0.530807       -14.4440
  27   2.0000      -0.507569       -13.8117
  28   2.0000      -0.488008       -13.2794
  29   2.0000      -0.478313       -13.0155
  30   2.0000      -0.406346       -11.0572
  31   2.0000      -0.399890       -10.8816
  32   0.0000       0.131448         3.5769
  33   0.0000       0.132035         3.5929
  34   0.0000       0.150656         4.0996
  35   0.0000       0.155433         4.2295
  36   0.0000       0.166365         4.5270

MULLIKEN ATOMIC CHARGES
-----------------------
   0 C :   -0.397571
   1 C :    0.125518
   2 C :   -0.246235
   3 C :    0.276762
   4 O :   -0.239594
   5 C :    0.094924
   6 N :   -0.259556
   7 C :   -0.222011
   8 N :   -0.043829
   9 H :    0.146771
  10 H :    0.152477
  11 H :    0.138707
  12 H :    0.156937
  13 H :    0.156570
  14 H :    0.160130
Sum of atomic charges:   -0.0000000

LOEWDIN ATOMIC CHARGES
----------------------
   0 C :   -0.252714
   1 C :   -0.259890
   2 C :   -0.135419
   3 C :   -0.258528
   4 O :    0.292050
   5 C :   -0.310996
   6 N :    0.131455
   7 C :   -0.146020
   8 N :    0.087025
   9 H :    0.136453
  10 H :    0.137797
  11 H :    0.136228
  12 H :    0.153936
  13 H :    0.149440
  14 H :    0.139183

  Mayer bond orders larger than 0.1
B(  0-C ,  1-C ) :   0.9152 B(  0-C ,  9-H ) :   0.9310 B(  0-C , 10-H ) :   0.9353
B(  0-C , 11-H ) :   0.9256 B(  1-C ,  2-C ) :   0.8815 B(  1-C ,  3-C ) :   0.7961
B(  1-C ,  6-N ) :   0.9495 B(  2-C ,  3-C ) :   0.8497 B(  2-C , 12-H ) :   0.9194
B(  2-C , 13-H ) :   0.8902 B(  3-C ,  4-O ) :   0.9347 B(  3-C ,  7-C ) :   0.9406
B(  4-O ,  5-C ) :   1.0562 B(  5-C ,  6-N ) :   1.8037 B(  5-C , 14-H ) :   0.9204
B(  7-C ,  8-N ) :   2.8313

MP2 TOTAL ENERGY:     -416.107210872 Eh
FINAL SINGLE POINT ENERGY      -416.107210871686

DIPOLE MOMENT
-------------
                                X             Y             Z
Electronic contribution:      4.14377      -4.20089       2.38045
Nuclear contribution   :     -4.94176       3.91384      -3.14658
                        -----------------------------------------
Total Dipole Moment    :     -0.79799      -0.28705      -0.76613
                        -----------------------------------------
Magnitude (a.u.)       :      1.14287
Magnitude (Debye)      :      2.90495

                             ****ORCA TERMINATED NORMALLY****
TOTAL RUN TIME: 0 days 0 hours 17 minutes 16 seconds 993 msec
