                         Program Version 3.0.3 - RELEASE   -
|  1> ! RI-MP2 RIJK def2-TZVP def2-TZVP/C def2-TZVP/JK TIGHTSCF
|  2> % maxcore 2000
|  3> % mp2 density relaxed end
|  4> *xyz 0 1
|  5>  C       -0.4704118264     1.3323578064     0.0128134746
|  6>  C        0.0414433661    -0.1024731240    -0.0235364532
|  7>  C        1.3391756597    -0.3669446658    -0.8150723855
|  8>  O        1.7291732344    -0.0160158265    -1.8907532315
|  9>  C        1.9705037275    -1.1581211958     0.3462918023
| 10>  C        0.7670329565    -0.7156940889     1.1996749971
| 11>  C        0.8482232642    -0.1118216858     2.5713040141
| 12>  C        0.1555648876    -1.4404677972     2.3580363829
| 13>  H        0.2999432829     2.0179901907     0.3787221428
| 14>  H       -0.7586668755     1.6547588816    -0.9919189327
| 15>  H       -1.3461945607     1.4267035804     0.6633809632
| 16>  H       -0.7463730985    -0.7748785783    -0.3910876197
| 17>  H        2.0186954709    -2.2340407777     0.1428665660
| 18>  H        2.9636679180    -0.8169755314     0.6539859446
| 19>  H        1.8106761434    -0.1105076951     3.0731204764
| 20>  H        0.2314175982     0.7536383746     2.7912036046
| 21>  H       -0.9273553061    -1.4665468239     2.4327455363
| 22>  H        0.6471023678    -2.3385514430     2.7187176378
| 23> *
| 24>
| 25>                          ****END OF INPUT****

CARTESIAN COORDINATES (ANGSTROEM)
---------------------------------
  C     -0.470412    1.332358    0.012813
  C      0.041443   -0.102473   -0.023536
  C      1.339176   -0.366945   -0.815072
  O      1.729173   -0.016016   -1.890753
  C      1.970504   -1.158121    0.346292
  C      0.767033   -0.715694    1.199675
  C      0.848223   -0.111822    2.571304
  C      0.155565   -1.440468    2.358036
  H      0.299943    2.017990    0.378722
  H     -0.758667    1.654759   -0.991919
  H     -1.346195    1.426704    0.663381
  H     -0.746373   -0.774879   -0.391088
  H      2.018695   -2.234041    0.142867
  H      2.963668   -0.816976    0.653986
  H      1.810676   -0.110508    3.073120
  H      0.231418    0.753638    2.791204
  H     -0.927355   -1.466547    2.432746
  H      0.647102   -2.338551    2.718718

 Total Charge           Charge          ....    0
 Multiplicity           Mult            ....    1
 Number of Electrons    NEL             ....   60
 Basis Dimension        Dim             ....  308

ORBITAL ENERGIES
----------------

  NO   OCC          E(Eh)            E(eV)
   0   2.0000     -20.550186      -559.1990
   1   2.0000     -11.328462      -308.2631
   2   2.0000     -11.250687      -306.1468
   3   2.0000     -11.245044      -305.9932
   4   2.0000     -11.240081      -305.8581
   5   2.0000     -11.235547      -305.7348
   6   2.0000     -11.234791      -305.7142
   7   2.0000     -11.226995      -305.5021
   8   2.0000      -1.392718       -37.8978
   9   2.0000      -1.179788       -32.1037
  10   2.0000      -1.077802       -29.3285
  11   2.0000      -0.999018       -27.1847
  12   2.0000      -0.873837       -23.7783
  13   2.0000      -0.835046       -22.7228
  14   2.0000      -0.772440       -21.0192
  15   2.0000      -0.711331       -19.3563
  16   2.0000      -0.670374       -18.2418
  17   2.0000      -0.667867       -18.1736
  18   2.0000      -0.628758       -17.1094
  19   2.0000      -0.612302       -16.6616
  20   2.0000      -0.593460       -16.1489
  21   2.0000      -0.571884       -15.5618
  22   2.0000      -0.544021       -14.8036
  23   2.0000      -0.530351       -14.4316
  24   2.0000      -0.519274       -14.1302
  25   2.0000      -0.504317       -13.7232
  26   2.0000      -0.458712       -12.4822
  27   2.0000      -0.423473       -11.5233
  28   2.0000      -0.412718       -11.2306
  29   2.0000      -0.390837       -10.6352
  30   0.0000       0.119196         3.2435
  31   0.0000       0.141263         3.8440
  32   0.0000       0.152521         4.1503
  33   0.0000       0.161823         4.4034
  34   0.0000       0.170146         4.6299

MULLIKEN ATOMIC CHARGES
-----------------------
   0 C :   -0.447845
   1 C :    0.043151
   2 C :    0.068411
   3 O :   -0.251941
   4 C :   -0.176849
   5 C :   -0.022813
   6 C :   -0.273330
   7 C :   -0.280951
   8 H :    0.138614
   9 H :    0.152064
  10 H :    0.136257
  11 H :    0.120425
  12 H :    0.136123
  13 H :    0.132982
  14 H :    0.131555
  15 H :    0.132585
  16 H :    0.130404
  17 H :    0.131159
Sum of atomic charges:   -0.0000000

LOEWDIN ATOMIC CHARGES
----------------------
   0 C :   -0.286799
   1 C :   -0.188383
   2 C :   -0.281110
   3 O :    0.163344
   4 C :   -0.166997
   5 C :   -0.208889
   6 C :   -0.204396
   7 C :   -0.208616
   8 H :    0.128468
   9 H :    0.133053
  10 H :    0.125465
  11 H :    0.164563
  12 H :    0.149050
  13 H :    0.143674
  14 H :    0.133918
  15 H :    0.134472
  16 H :    0.134653
  17 H :    0.134530

  Mayer bond orders larger than 0.1
B(  0-C ,  1-C ) :   0.8721 B(  0-C ,  8-H ) :   0.9378 B(  0-C ,  9-H ) :   0.9324
B(  0-C , 10-H ) :   0.9391 B(  1-C ,  2-C ) :   0.8482 B(  1-C ,  4-C ) :  -0.1405
B(  1-C ,  5-C ) :   0.8947 B(  1-C , 11-H ) :   0.8976 B(  2-C ,  3-O ) :   2.0538
B(  2-C ,  4-C ) :   0.9052 B(  4-C ,  5-C ) :   0.9097 B(  4-C , 12-H ) :   0.8966
B(  4-C , 13-H ) :   0.8937 B(  5-C ,  6-C ) :   0.8529 B(  5-C ,  7-C ) :   0.8485
B(  6-C ,  7-C ) :   0.9302 B(  6-C , 14-H ) :   0.9251 B(  6-C , 15-H ) :   0.9221
B(  7-C , 16-H ) :   0.9258 B(  7-C , 17-H ) :   0.9261

MP2 TOTAL ENERGY:     -347.184656767 Eh
FINAL SINGLE POINT ENERGY      -347.184656767272

DIPOLE MOMENT
-------------
                                X             Y             Z
Electronic contribution:      3.12567      -1.28712      -5.58265
Nuclear contribution   :     -3.52695       1.03846       6.54027
                        -----------------------------------------
Total Dipole Moment    :     -0.40128      -0.24866       0.95762
                        -----------------------------------------
Magnitude (a.u.)       :      1.06766
Magnitude (Debye)      :      2.71377

                             ****ORCA TERMINATED NORMALLY****
TOTAL RUN TIME: 0 days 0 hours 12 minutes 57 seconds 918 msec
