                         Program Version 3.0.3 - RELEASE   -
|  1> ! RI-MP2 RIJK def2-TZVP def2-TZVP/C def2-TZVP/JK TIGHTSCF
|  2> % maxcore 2000
|  3> % mp2 density relaxed end
|  4> *xyz 0 1
|  5>  C        0.0388301315     1.5739299819     0.0180364530
|  6>  C       -0.0126066882     0.0627487915     0.0164420757
|  7>  C        0.4108571068    -0.5936189948    -1.3134801141
|  8>  O        0.0185124497    -1.9606269819    -1.3798106692
|  9>  C        0.0643674153    -2.6821230764    -0.1532424284
| 10>  C       -0.3098595018    -1.7744549056     1.0260350857
| 11>  N        0.6697497004    -0.6518965995     1.1513117785
| 12>  C       -1.2743587026    -0.7002761317     0.4826158665
| 13>  O       -2.4466248482    -0.4915877425     0.4991512720
| 14>  H        1.0170620774     1.9401092769    -0.3136078481
| 15>  H       -0.7231735095     1.9813294955    -0.6535029204
| 16>  H       -0.1443902729     1.9536162158     1.0258411793
| 17>  H       -0.0660622893    -0.1076292207    -2.1705290046
| 18>  H        1.5040279100    -0.4848141457    -1.4225273195
| 19>  H       -0.6414063365    -3.5110732366    -0.2663114907
| 20>  H        1.0676580414    -3.1054723119     0.0233592599
| 21>  H       -0.5427561961    -2.3210825262     1.9426073472
| 22>  H        1.6237563727    -0.9336907081     0.9263013574
| 23> *
| 24>
| 25>                          ****END OF INPUT****

CARTESIAN COORDINATES (ANGSTROEM)
---------------------------------
  C      0.038830    1.573930    0.018036
  C     -0.012607    0.062749    0.016442
  C      0.410857   -0.593619   -1.313480
  O      0.018512   -1.960627   -1.379811
  C      0.064367   -2.682123   -0.153242
  C     -0.309860   -1.774455    1.026035
  N      0.669750   -0.651897    1.151312
  C     -1.274359   -0.700276    0.482616
  O     -2.446625   -0.491588    0.499151
  H      1.017062    1.940109   -0.313608
  H     -0.723174    1.981329   -0.653503
  H     -0.144390    1.953616    1.025841
  H     -0.066062   -0.107629   -2.170529
  H      1.504028   -0.484814   -1.422527
  H     -0.641406   -3.511073   -0.266311
  H      1.067658   -3.105472    0.023359
  H     -0.542756   -2.321083    1.942607
  H      1.623756   -0.933691    0.926301

 Total Charge           Charge          ....    0
 Multiplicity           Mult            ....    1
 Number of Electrons    NEL             ....   68
 Basis Dimension        Dim             ....  333

ORBITAL ENERGIES
----------------

  NO   OCC          E(Eh)            E(eV)
   0   2.0000     -20.573748      -559.8401
   1   2.0000     -20.563613      -559.5644
   2   2.0000     -15.569074      -423.6560
   3   2.0000     -11.340492      -308.5905
   4   2.0000     -11.299018      -307.4619
   5   2.0000     -11.297879      -307.4309
   6   2.0000     -11.286276      -307.1152
   7   2.0000     -11.281583      -306.9875
   8   2.0000     -11.231388      -305.6216
   9   2.0000      -1.412515       -38.4365
  10   2.0000      -1.393312       -37.9140
  11   2.0000      -1.259574       -34.2748
  12   2.0000      -1.066530       -29.0218
  13   2.0000      -0.990506       -26.9530
  14   2.0000      -0.950993       -25.8778
  15   2.0000      -0.889249       -24.1977
  16   2.0000      -0.848044       -23.0764
  17   2.0000      -0.703809       -19.1516
  18   2.0000      -0.694194       -18.8900
  19   2.0000      -0.684765       -18.6334
  20   2.0000      -0.676326       -18.4038
  21   2.0000      -0.654035       -17.7972
  22   2.0000      -0.631405       -17.1814
  23   2.0000      -0.590211       -16.0605
  24   2.0000      -0.574159       -15.6236
  25   2.0000      -0.568604       -15.4725
  26   2.0000      -0.553258       -15.0549
  27   2.0000      -0.540574       -14.7098
  28   2.0000      -0.528525       -14.3819
  29   2.0000      -0.513887       -13.9836
  30   2.0000      -0.494356       -13.4521
  31   2.0000      -0.446770       -12.1572
  32   2.0000      -0.396454       -10.7881
  33   2.0000      -0.392902       -10.6914
  34   0.0000       0.127989         3.4828
  35   0.0000       0.135559         3.6887
  36   0.0000       0.153643         4.1808
  37   0.0000       0.165454         4.5022
  38   0.0000       0.190767         5.1910

MULLIKEN ATOMIC CHARGES
-----------------------
   0 C :   -0.400478
   1 C :    0.116028
   2 C :   -0.069241
   3 O :   -0.310556
   4 C :   -0.089673
   5 C :   -0.005226
   6 N :   -0.320041
   7 C :    0.080103
   8 O :   -0.232525
   9 H :    0.132789
  10 H :    0.145102
  11 H :    0.149113
  12 H :    0.123673
  13 H :    0.104892
  14 H :    0.128060
  15 H :    0.108879
  16 H :    0.141008
  17 H :    0.198093
Sum of atomic charges:   -0.0000000

LOEWDIN ATOMIC CHARGES
----------------------
   0 C :   -0.264623
   1 C :   -0.303801
   2 C :   -0.269269
   3 O :    0.155542
   4 C :   -0.292453
   5 C :   -0.238321
   6 N :    0.049769
   7 C :   -0.253166
   8 O :    0.185150
   9 H :    0.130186
  10 H :    0.136370
  11 H :    0.136184
  12 H :    0.138817
  13 H :    0.126074
  14 H :    0.136931
  15 H :    0.124484
  16 H :    0.143569
  17 H :    0.158558

  Mayer bond orders larger than 0.1
B(  0-C ,  1-C ) :   0.8800 B(  0-C ,  9-H ) :   0.9314 B(  0-C , 10-H ) :   0.9336
B(  0-C , 11-H ) :   0.9401 B(  1-C ,  2-C ) :   0.9227 B(  1-C ,  5-C ) :  -0.1028
B(  1-C ,  6-N ) :   0.9375 B(  1-C ,  7-C ) :   0.8178 B(  2-C ,  3-O ) :   0.9360
B(  2-C , 12-H ) :   0.9188 B(  2-C , 13-H ) :   0.9138 B(  3-O ,  4-C ) :   0.9280
B(  4-C ,  5-C ) :   0.9250 B(  4-C , 14-H ) :   0.9207 B(  4-C , 15-H ) :   0.9162
B(  5-C ,  6-N ) :   0.9573 B(  5-C ,  7-C ) :   0.8691 B(  5-C , 16-H ) :   0.8906
B(  6-N , 17-H ) :   0.8660 B(  7-C ,  8-O ) :   2.0914

MP2 TOTAL ENERGY:     -438.353987901 Eh
FINAL SINGLE POINT ENERGY      -438.353987901321

DIPOLE MOMENT
-------------
                                X             Y             Z
Electronic contribution:     -4.39133      -2.62758       0.89491
Nuclear contribution   :      5.49539       2.48381      -0.99486
                        -----------------------------------------
Total Dipole Moment    :      1.10406      -0.14378      -0.09995
                        -----------------------------------------
Magnitude (a.u.)       :      1.11786
Magnitude (Debye)      :      2.84138

                             ****ORCA TERMINATED NORMALLY****
TOTAL RUN TIME: 0 days 0 hours 18 minutes 13 seconds 835 msec
