                         Program Version 3.0.3 - RELEASE   -
|  1> ! RI-MP2 RIJK def2-TZVP def2-TZVP/C def2-TZVP/JK TIGHTSCF
|  2> % maxcore 2000
|  3> % mp2 density relaxed end
|  4> *xyz 0 1
|  5>  C       -0.1133106267     1.4884796244     0.1562868078
|  6>  C       -0.0582520909     0.0030210515     0.0056158528
|  7>  C        0.0043447343    -0.7261177888    -1.1284744304
|  8>  C        0.0525457495    -0.2904846997    -2.5575873065
|  9>  C        0.0456315050    -2.1792589510    -0.7891150665
| 10>  O        0.0288941768    -3.0970592035    -1.5798350843
| 11>  C        0.0878843890    -2.2868207345     0.7180793097
| 12>  C        1.2855617561    -1.6401001300     1.3977056499
| 13>  C       -0.0087193268    -0.8760336098     1.2238853361
| 14>  H        0.7375962590     1.8473687838     0.7489033411
| 15>  H       -0.1072212523     2.0080422344    -0.8039026437
| 16>  H       -1.0174427027     1.7885781438     0.7009320297
| 17>  H        0.9757725215    -0.6352921039    -3.0372697421
| 18>  H       -0.7704625884    -0.7424111717    -3.1215972204
| 19>  H       -0.0073137768     0.7947116631    -2.6675877232
| 20>  H       -0.3909013542    -3.1303922733     1.1976041416
| 21>  H        1.5338080775    -2.0092589408     2.3878834025
| 22>  H        2.1364708628    -1.3497273816     0.7903471826
| 23>  H       -0.5901443927    -0.6123244724     2.1002669134
| 24> *
| 25>
| 26>                          ****END OF INPUT****

CARTESIAN COORDINATES (ANGSTROEM)
---------------------------------
  C     -0.113311    1.488480    0.156287
  C     -0.058252    0.003021    0.005616
  C      0.004345   -0.726118   -1.128474
  C      0.052546   -0.290485   -2.557587
  C      0.045632   -2.179259   -0.789115
  O      0.028894   -3.097059   -1.579835
  C      0.087884   -2.286821    0.718079
  C      1.285562   -1.640100    1.397706
  C     -0.008719   -0.876034    1.223885
  H      0.737596    1.847369    0.748903
  H     -0.107221    2.008042   -0.803903
  H     -1.017443    1.788578    0.700932
  H      0.975773   -0.635292   -3.037270
  H     -0.770463   -0.742411   -3.121597
  H     -0.007314    0.794712   -2.667588
  H     -0.390901   -3.130392    1.197604
  H      1.533808   -2.009259    2.387883
  H      2.136471   -1.349727    0.790347
  H     -0.590144   -0.612324    2.100267

 Total Charge           Charge          ....    0
 Multiplicity           Mult            ....    1
 Number of Electrons    NEL             ....   66
 Basis Dimension        Dim             ....  339

ORBITAL ENERGIES
----------------

  NO   OCC          E(Eh)            E(eV)
   0   2.0000     -20.531417      -558.6883
   1   2.0000     -11.320458      -308.0453
   2   2.0000     -11.264089      -306.5114
   3   2.0000     -11.252568      -306.1980
   4   2.0000     -11.251353      -306.1649
   5   2.0000     -11.242712      -305.9298
   6   2.0000     -11.240100      -305.8587
   7   2.0000     -11.232755      -305.6588
   8   2.0000     -11.222219      -305.3721
   9   2.0000      -1.373799       -37.3830
  10   2.0000      -1.201208       -32.6865
  11   2.0000      -1.083935       -29.4954
  12   2.0000      -1.007128       -27.4053
  13   2.0000      -0.939113       -25.5546
  14   2.0000      -0.886529       -24.1237
  15   2.0000      -0.836559       -22.7639
  16   2.0000      -0.759070       -20.6553
  17   2.0000      -0.715274       -19.4636
  18   2.0000      -0.685188       -18.6449
  19   2.0000      -0.630572       -17.1587
  20   2.0000      -0.618981       -16.8433
  21   2.0000      -0.594387       -16.1741
  22   2.0000      -0.581106       -15.8127
  23   2.0000      -0.568022       -15.4567
  24   2.0000      -0.561466       -15.2783
  25   2.0000      -0.556823       -15.1519
  26   2.0000      -0.534372       -14.5410
  27   2.0000      -0.524244       -14.2654
  28   2.0000      -0.500429       -13.6174
  29   2.0000      -0.463958       -12.6249
  30   2.0000      -0.425828       -11.5874
  31   2.0000      -0.398196       -10.8355
  32   2.0000      -0.343237        -9.3400
  33   0.0000       0.101438         2.7603
  34   0.0000       0.132039         3.5930
  35   0.0000       0.152126         4.1396
  36   0.0000       0.161546         4.3959
  37   0.0000       0.171660         4.6711

MULLIKEN ATOMIC CHARGES
-----------------------
   0 C :   -0.438077
   1 C :    0.021497
   2 C :   -0.024914
   3 C :   -0.407010
   4 C :    0.134445
   5 O :   -0.293038
   6 C :   -0.087805
   7 C :   -0.297254
   8 C :   -0.044953
   9 H :    0.150458
  10 H :    0.137714
  11 H :    0.149567
  12 H :    0.147364
  13 H :    0.152885
  14 H :    0.126273
  15 H :    0.148033
  16 H :    0.136905
  17 H :    0.147019
  18 H :    0.140890
Sum of atomic charges:    0.0000000

LOEWDIN ATOMIC CHARGES
----------------------
   0 C :   -0.262106
   1 C :   -0.113258
   2 C :   -0.134907
   3 C :   -0.265383
   4 C :   -0.279107
   5 O :    0.140819
   6 C :   -0.148033
   7 C :   -0.168994
   8 C :   -0.156769
   9 H :    0.138175
  10 H :    0.129501
  11 H :    0.136993
  12 H :    0.137972
  13 H :    0.139545
  14 H :    0.125635
  15 H :    0.153266
  16 H :    0.136295
  17 H :    0.139811
  18 H :    0.150546

  Mayer bond orders larger than 0.1
B(  0-C ,  1-C ) :   0.8713 B(  0-C ,  9-H ) :   0.9287 B(  0-C , 10-H ) :   0.9508
B(  0-C , 11-H ) :   0.9316 B(  1-C ,  2-C ) :   1.6266 B(  1-C ,  8-C ) :   0.9401
B(  2-C ,  3-C ) :   0.8877 B(  2-C ,  4-C ) :   0.9532 B(  3-C , 12-H ) :   0.9248
B(  3-C , 13-H ) :   0.9288 B(  3-C , 14-H ) :   0.9573 B(  4-C ,  5-O ) :   2.0242
B(  4-C ,  6-C ) :   0.9643 B(  6-C ,  7-C ) :   0.8440 B(  6-C ,  8-C ) :   0.8172
B(  6-C , 15-H ) :   0.9212 B(  7-C ,  8-C ) :   0.8665 B(  7-C , 16-H ) :   0.9247
B(  7-C , 17-H ) :   0.9192 B(  8-C , 18-H ) :   0.9130

MP2 TOTAL ENERGY:     -385.238869406 Eh
FINAL SINGLE POINT ENERGY      -385.238869406016

DIPOLE MOMENT
-------------
                                X             Y             Z
Electronic contribution:     -0.86013      -6.84785      -0.46103
Nuclear contribution   :      0.91963       8.02071       1.35328
                        -----------------------------------------
Total Dipole Moment    :      0.05949       1.17286       0.89225
                        -----------------------------------------
Magnitude (a.u.)       :      1.47487
Magnitude (Debye)      :      3.74883

                             ****ORCA TERMINATED NORMALLY****
TOTAL RUN TIME: 0 days 0 hours 19 minutes 57 seconds 677 msec
