                         Program Version 3.0.3 - RELEASE   -
|  1> ! RI-MP2 RIJK def2-TZVP def2-TZVP/C def2-TZVP/JK TIGHTSCF
|  2> % maxcore 2000
|  3> % mp2 density relaxed end
|  4> *xyz 0 1
|  5>  C       -0.0151944277     1.5136391352    -0.0479290289
|  6>  C        0.0700658264     0.0128771432    -0.0677501238
|  7>  C        0.5288209052    -0.8640895284    -1.2768031228
|  8>  C       -0.7119657234    -1.6299666484    -1.7738531162
|  9>  C       -0.7911748450    -2.1312673469    -0.3081710606
| 10>  C        0.7726922842    -1.9483480363    -0.1729399599
| 11>  C        0.8172301055    -0.8773633752     0.9686254886
| 12>  O       -0.3559509272    -1.0562705597     1.7800095543
| 13>  C       -1.0862703315    -0.8788851777     0.5380060235
| 14>  H        0.9473099829     1.9729531819    -0.2985094399
| 15>  H       -0.7549833972     1.8796013159    -0.7697956646
| 16>  H       -0.3100524372     1.8689792057     0.9454750675
| 17>  H        1.3022576989    -0.4724947363    -1.9369254354
| 18>  H       -1.5614446141    -1.0605978527    -2.1691926863
| 19>  H       -0.4541143026    -2.4288692248    -2.4750628074
| 20>  H       -1.3028298960    -3.0513547101    -0.0287083544
| 21>  H        1.4388394136    -2.8025163797    -0.2657285916
| 22>  H        1.7307957943    -0.6484794898     1.5173511271
| 23>  H       -2.1145485592    -0.5430548159     0.6748749908
| 24> *
| 25>
| 26>                          ****END OF INPUT****

CARTESIAN COORDINATES (ANGSTROEM)
---------------------------------
  C     -0.015194    1.513639   -0.047929
  C      0.070066    0.012877   -0.067750
  C      0.528821   -0.864090   -1.276803
  C     -0.711966   -1.629967   -1.773853
  C     -0.791175   -2.131267   -0.308171
  C      0.772692   -1.948348   -0.172940
  C      0.817230   -0.877363    0.968625
  O     -0.355951   -1.056271    1.780010
  C     -1.086270   -0.878885    0.538006
  H      0.947310    1.972953   -0.298509
  H     -0.754983    1.879601   -0.769796
  H     -0.310052    1.868979    0.945475
  H      1.302258   -0.472495   -1.936925
  H     -1.561445   -1.060598   -2.169193
  H     -0.454114   -2.428869   -2.475063
  H     -1.302830   -3.051355   -0.028708
  H      1.438839   -2.802516   -0.265729
  H      1.730796   -0.648479    1.517351
  H     -2.114549   -0.543055    0.674875

 Total Charge           Charge          ....    0
 Multiplicity           Mult            ....    1
 Number of Electrons    NEL             ....   66
 Basis Dimension        Dim             ....  339

ORBITAL ENERGIES
----------------

  NO   OCC          E(Eh)            E(eV)
   0   2.0000     -20.543401      -559.0144
   1   2.0000     -11.280914      -306.9693
   2   2.0000     -11.278364      -306.8999
   3   2.0000     -11.238636      -305.8188
   4   2.0000     -11.233857      -305.6888
   5   2.0000     -11.232871      -305.6620
   6   2.0000     -11.232334      -305.6473
   7   2.0000     -11.226865      -305.4985
   8   2.0000     -11.220294      -305.3197
   9   2.0000      -1.389420       -37.8080
  10   2.0000      -1.187440       -32.3119
  11   2.0000      -1.025055       -27.8932
  12   2.0000      -0.970688       -26.4138
  13   2.0000      -0.932461       -25.3736
  14   2.0000      -0.878994       -23.9186
  15   2.0000      -0.829842       -22.5812
  16   2.0000      -0.735861       -20.0238
  17   2.0000      -0.715038       -19.4572
  18   2.0000      -0.673677       -18.3317
  19   2.0000      -0.653011       -17.7693
  20   2.0000      -0.634720       -17.2716
  21   2.0000      -0.610194       -16.6042
  22   2.0000      -0.562770       -15.3138
  23   2.0000      -0.558170       -15.1886
  24   2.0000      -0.549308       -14.9474
  25   2.0000      -0.531575       -14.4649
  26   2.0000      -0.487320       -13.2607
  27   2.0000      -0.472407       -12.8548
  28   2.0000      -0.458994       -12.4899
  29   2.0000      -0.432565       -11.7707
  30   2.0000      -0.417606       -11.3637
  31   2.0000      -0.394387       -10.7318
  32   2.0000      -0.388866       -10.5816
  33   0.0000       0.137491         3.7413
  34   0.0000       0.154562         4.2058
  35   0.0000       0.165936         4.5154
  36   0.0000       0.172512         4.6943
  37   0.0000       0.191100         5.2001

MULLIKEN ATOMIC CHARGES
-----------------------
   0 C :   -0.440968
   1 C :    0.088499
   2 C :   -0.121529
   3 C :   -0.272636
   4 C :   -0.082834
   5 C :   -0.111835
   6 C :   -0.054082
   7 O :   -0.321628
   8 C :    0.026835
   9 H :    0.134438
  10 H :    0.133623
  11 H :    0.151374
  12 H :    0.124466
  13 H :    0.112563
  14 H :    0.118246
  15 H :    0.132749
  16 H :    0.140618
  17 H :    0.118845
  18 H :    0.123255
Sum of atomic charges:    0.0000000

LOEWDIN ATOMIC CHARGES
----------------------
   0 C :   -0.276977
   1 C :   -0.185164
   2 C :   -0.143796
   3 C :   -0.201025
   4 C :   -0.160283
   5 C :   -0.118891
   6 C :   -0.203626
   7 O :    0.161682
   8 C :   -0.191277
   9 H :    0.127796
  10 H :    0.129143
  11 H :    0.135450
  12 H :    0.133578
  13 H :    0.125348
  14 H :    0.137824
  15 H :    0.134998
  16 H :    0.132453
  17 H :    0.129346
  18 H :    0.133422

  Mayer bond orders larger than 0.1
B(  0-C ,  1-C ) :   0.8364 B(  0-C ,  9-H ) :   0.9443 B(  0-C , 10-H ) :   0.9404
B(  0-C , 11-H ) :   0.9455 B(  1-C ,  2-C ) :   0.8472 B(  1-C ,  6-C ) :   0.9086
B(  1-C ,  8-C ) :   0.9181 B(  2-C ,  3-C ) :   0.9269 B(  2-C ,  5-C ) :   0.9278
B(  2-C , 12-H ) :   0.9115 B(  3-C ,  4-C ) :   0.9100 B(  3-C , 13-H ) :   0.9224
B(  3-C , 14-H ) :   0.9148 B(  4-C ,  5-C ) :   0.8984 B(  4-C ,  8-C ) :   0.8842
B(  4-C , 15-H ) :   0.9141 B(  5-C ,  6-C ) :   0.8760 B(  5-C , 16-H ) :   0.9073
B(  6-C ,  7-O ) :   0.9772 B(  6-C , 17-H ) :   0.9216 B(  7-O ,  8-C ) :   0.9082
B(  8-C , 18-H ) :   0.9226

MP2 TOTAL ENERGY:     -385.165263626 Eh
FINAL SINGLE POINT ENERGY      -385.165263625994

DIPOLE MOMENT
-------------
                                X             Y             Z
Electronic contribution:      0.26400      -2.86365       3.59883
Nuclear contribution   :     -0.11155       3.02018      -4.32280
                        -----------------------------------------
Total Dipole Moment    :      0.15245       0.15653      -0.72397
                        -----------------------------------------
Magnitude (a.u.)       :      0.75622
Magnitude (Debye)      :      1.92217

                             ****ORCA TERMINATED NORMALLY****
TOTAL RUN TIME: 0 days 0 hours 19 minutes 19 seconds 19 msec
