                         Program Version 3.0.3 - RELEASE   -
|  1> ! RI-MP2 RIJK def2-TZVP def2-TZVP/C def2-TZVP/JK TIGHTSCF
|  2> % maxcore 2000
|  3> % mp2 density relaxed end
|  4> *xyz 0 1
|  5>  C       -0.0421730678     1.4949452314    -0.0798329337
|  6>  C        0.0926436259    -0.0324309164    -0.0331002944
|  7>  C        0.9344503842    -0.5273024294    -1.2196465395
|  8>  C        0.6835015122    -0.5315965018     1.3100280259
|  9>  C       -0.0973833922    -0.0452851831     2.5494718318
| 10>  C        0.6974078940    -2.0523595454     1.3550311788
| 11>  O       -0.2865394069    -2.7252326303     1.1201444867
| 12>  C        1.9907079449    -2.7529706103     1.7410803046
| 13>  O        1.8254545986    -4.1351953111     1.8169483109
| 14>  H        0.9279794222     1.9835134930     0.0737538126
| 15>  H       -0.4175896897     1.8117857710    -1.0581516944
| 16>  H       -0.7344895472     1.8755616390     0.6752552964
| 17>  H       -0.9071970320    -0.4757706028    -0.1175653803
| 18>  H        1.9561944734    -0.1310423572    -1.1701279631
| 19>  H        0.9952594286    -1.6194405087    -1.2509556527
| 20>  H        0.4994160886    -0.1964649607    -2.1677724171
| 21>  H        1.7209488095    -0.1774698256     1.3915139504
| 22>  H       -0.0396246535     1.0405498462     2.6490055921
| 23>  H       -1.1489516525    -0.3375105171     2.4751549481
| 24>  H        0.3079433040    -0.4824530249     3.4678893693
| 25>  H        2.7541482698    -2.4728291179     0.9936712492
| 26>  H        2.3396032338    -2.3340530014     2.7003125785
| 27>  H        0.9010795722    -4.2869103664     1.5591697700
| 28> *
| 29>
| 30>                          ****END OF INPUT****

CARTESIAN COORDINATES (ANGSTROEM)
---------------------------------
  C     -0.042173    1.494945   -0.079833
  C      0.092644   -0.032431   -0.033100
  C      0.934450   -0.527302   -1.219647
  C      0.683502   -0.531597    1.310028
  C     -0.097383   -0.045285    2.549472
  C      0.697408   -2.052360    1.355031
  O     -0.286539   -2.725233    1.120144
  C      1.990708   -2.752971    1.741080
  O      1.825455   -4.135195    1.816948
  H      0.927979    1.983513    0.073754
  H     -0.417590    1.811786   -1.058152
  H     -0.734490    1.875562    0.675255
  H     -0.907197   -0.475771   -0.117565
  H      1.956194   -0.131042   -1.170128
  H      0.995259   -1.619441   -1.250956
  H      0.499416   -0.196465   -2.167772
  H      1.720949   -0.177470    1.391514
  H     -0.039625    1.040550    2.649006
  H     -1.148952   -0.337511    2.475155
  H      0.307943   -0.482453    3.467889
  H      2.754148   -2.472829    0.993671
  H      2.339603   -2.334053    2.700313
  H      0.901080   -4.286910    1.559170

 Total Charge           Charge          ....    0
 Multiplicity           Mult            ....    1
 Number of Electrons    NEL             ....   72
 Basis Dimension        Dim             ....  363

ORBITAL ENERGIES
----------------

  NO   OCC          E(Eh)            E(eV)
   0   2.0000     -20.559293      -559.4468
   1   2.0000     -20.554258      -559.3098
   2   2.0000     -11.338612      -308.5393
   3   2.0000     -11.292075      -307.2730
   4   2.0000     -11.252068      -306.1843
   5   2.0000     -11.241105      -305.8860
   6   2.0000     -11.233705      -305.6847
   7   2.0000     -11.222298      -305.3743
   8   2.0000     -11.221787      -305.3603
   9   2.0000      -1.412399       -38.4333
  10   2.0000      -1.358795       -36.9747
  11   2.0000      -1.117429       -30.4068
  12   2.0000      -1.029253       -28.0074
  13   2.0000      -0.977774       -26.6066
  14   2.0000      -0.938591       -25.5404
  15   2.0000      -0.884179       -24.0597
  16   2.0000      -0.799750       -21.7623
  17   2.0000      -0.749444       -20.3934
  18   2.0000      -0.716514       -19.4973
  19   2.0000      -0.666083       -18.1250
  20   2.0000      -0.655432       -17.8352
  21   2.0000      -0.624463       -16.9925
  22   2.0000      -0.613798       -16.7023
  23   2.0000      -0.598628       -16.2895
  24   2.0000      -0.593547       -16.1512
  25   2.0000      -0.555572       -15.1179
  26   2.0000      -0.551800       -15.0152
  27   2.0000      -0.543258       -14.7828
  28   2.0000      -0.539819       -14.6892
  29   2.0000      -0.519738       -14.1428
  30   2.0000      -0.512390       -13.9428
  31   2.0000      -0.489556       -13.3215
  32   2.0000      -0.473346       -12.8804
  33   2.0000      -0.464384       -12.6365
  34   2.0000      -0.452533       -12.3141
  35   2.0000      -0.417637       -11.3645
  36   0.0000       0.121423         3.3041
  37   0.0000       0.136662         3.7188
  38   0.0000       0.150707         4.1009
  39   0.0000       0.153841         4.1862
  40   0.0000       0.164540         4.4773

MULLIKEN ATOMIC CHARGES
-----------------------
   0 C :   -0.408245
   1 C :   -0.036891
   2 C :   -0.430793
   3 C :   -0.057085
   4 C :   -0.422878
   5 C :    0.163936
   6 O :   -0.327935
   7 C :   -0.023650
   8 O :   -0.485934
   9 H :    0.123436
  10 H :    0.137825
  11 H :    0.140493
  12 H :    0.109565
  13 H :    0.122919
  14 H :    0.148442
  15 H :    0.136886
  16 H :    0.100890
  17 H :    0.146513
  18 H :    0.149772
  19 H :    0.138760
  20 H :    0.120330
  21 H :    0.117974
  22 H :    0.335669
Sum of atomic charges:   -0.0000000

LOEWDIN ATOMIC CHARGES
----------------------
   0 C :   -0.291891
   1 C :   -0.279272
   2 C :   -0.290071
   3 C :   -0.232687
   4 C :   -0.275666
   5 C :   -0.310633
   6 O :    0.143188
   7 C :   -0.340158
   8 O :   -0.033364
   9 H :    0.124272
  10 H :    0.126493
  11 H :    0.122594
  12 H :    0.158964
  13 H :    0.123229
  14 H :    0.126740
  15 H :    0.125865
  16 H :    0.160041
  17 H :    0.125957
  18 H :    0.132990
  19 H :    0.127107
  20 H :    0.136898
  21 H :    0.136791
  22 H :    0.182614

  Mayer bond orders larger than 0.1
B(  0-C ,  1-C ) :   0.9008 B(  0-C ,  9-H ) :   0.9295 B(  0-C , 10-H ) :   0.9407
B(  0-C , 11-H ) :   0.9436 B(  1-C ,  2-C ) :   0.9156 B(  1-C ,  3-C ) :   0.9007
B(  1-C , 12-H ) :   0.9205 B(  2-C , 13-H ) :   0.9296 B(  2-C , 14-H ) :   0.9360
B(  2-C , 15-H ) :   0.9394 B(  3-C ,  4-C ) :   0.8672 B(  3-C ,  5-C ) :   0.8685
B(  3-C , 16-H ) :   0.9302 B(  4-C , 17-H ) :   0.9391 B(  4-C , 18-H ) :   0.9337
B(  4-C , 19-H ) :   0.9325 B(  5-C ,  6-O ) :   1.9027 B(  5-C ,  7-C ) :   0.9565
B(  7-C ,  8-O ) :   1.0140 B(  7-C , 20-H ) :   0.9017 B(  7-C , 21-H ) :   0.8995
B(  8-O , 22-H ) :   0.8032

MP2 TOTAL ENERGY:     -424.749866826 Eh
FINAL SINGLE POINT ENERGY      -424.749866825993

DIPOLE MOMENT
-------------
                                X             Y             Z
Electronic contribution:      0.11608     -10.33273       2.93122
Nuclear contribution   :      0.01602      11.54563      -2.98986
                        -----------------------------------------
Total Dipole Moment    :      0.13210       1.21290      -0.05864
                        -----------------------------------------
Magnitude (a.u.)       :      1.22148
Magnitude (Debye)      :      3.10475

                             ****ORCA TERMINATED NORMALLY****
TOTAL RUN TIME: 0 days 0 hours 20 minutes 21 seconds 213 msec
