                         Program Version 3.0.3 - RELEASE   -
|  1> ! RI-MP2 RIJK def2-TZVP def2-TZVP/C def2-TZVP/JK TIGHTSCF
|  2> % maxcore 2000
|  3> % mp2 density relaxed end
|  4> *xyz 0 1
|  5>  C       -0.0067297250     1.4127844309     0.0052141497
|  6>  C        1.4179093524     1.9619691014     0.0215010917
|  7>  O        2.1208365753     1.5671004461     1.2038002389
|  8>  C        1.9250118758     0.2461002254     1.4638995700
|  9>  C        2.6072924363    -0.5926345902     2.2871656391
| 10>  O        2.0361470913    -1.8310541921     2.2436894223
| 11>  C        0.9780052841    -1.7815176526     1.3836689877
| 12>  C        0.8678937043    -0.5247704145     0.8784856249
| 13>  O       -0.0190843487    -0.0179725785    -0.0201180404
| 14>  H       -0.5513037138     1.7717602996     0.8892289370
| 15>  H       -0.5317334963     1.7417137646    -0.8945698440
| 16>  H        1.9601542789     1.6091031731    -0.8663970293
| 17>  H        1.4053174919     3.0543418228     0.0205405450
| 18>  H        3.4568101178    -0.4711616462     2.9356133947
| 19>  H        0.4275297957    -2.6937967598     1.2365407327
| 20> *
| 21>
| 22>                          ****END OF INPUT****

CARTESIAN COORDINATES (ANGSTROEM)
---------------------------------
  C     -0.006730    1.412784    0.005214
  C      1.417909    1.961969    0.021501
  O      2.120837    1.567100    1.203800
  C      1.925012    0.246100    1.463900
  C      2.607292   -0.592635    2.287166
  O      2.036147   -1.831054    2.243689
  C      0.978005   -1.781518    1.383669
  C      0.867894   -0.524770    0.878486
  O     -0.019084   -0.017973   -0.020118
  H     -0.551304    1.771760    0.889229
  H     -0.531733    1.741714   -0.894570
  H      1.960154    1.609103   -0.866397
  H      1.405317    3.054342    0.020541
  H      3.456810   -0.471162    2.935613
  H      0.427530   -2.693797    1.236541

 Total Charge           Charge          ....    0
 Multiplicity           Mult            ....    1
 Number of Electrons    NEL             ....   66
 Basis Dimension        Dim             ....  315

ORBITAL ENERGIES
----------------

  NO   OCC          E(Eh)            E(eV)
   0   2.0000     -20.615671      -560.9809
   1   2.0000     -20.593861      -560.3874
   2   2.0000     -20.593859      -560.3874
   3   2.0000     -11.302847      -307.5661
   4   2.0000     -11.302214      -307.5489
   5   2.0000     -11.290811      -307.2386
   6   2.0000     -11.289835      -307.2120
   7   2.0000     -11.279298      -306.9253
   8   2.0000     -11.279259      -306.9242
   9   2.0000      -1.455769       -39.6135
  10   2.0000      -1.430955       -38.9383
  11   2.0000      -1.400963       -38.1221
  12   2.0000      -1.089266       -29.6404
  13   2.0000      -1.009086       -27.4586
  14   2.0000      -1.006481       -27.3877
  15   2.0000      -0.892446       -24.2847
  16   2.0000      -0.813158       -22.1272
  17   2.0000      -0.768385       -20.9088
  18   2.0000      -0.743905       -20.2427
  19   2.0000      -0.695926       -18.9371
  20   2.0000      -0.685344       -18.6491
  21   2.0000      -0.642209       -17.4754
  22   2.0000      -0.635166       -17.2838
  23   2.0000      -0.615123       -16.7383
  24   2.0000      -0.612315       -16.6619
  25   2.0000      -0.599183       -16.3046
  26   2.0000      -0.592966       -16.1354
  27   2.0000      -0.542654       -14.7664
  28   2.0000      -0.530906       -14.4467
  29   2.0000      -0.498044       -13.5525
  30   2.0000      -0.462152       -12.5758
  31   2.0000      -0.355931        -9.6854
  32   2.0000      -0.307326        -8.3628
  33   0.0000       0.141517         3.8509
  34   0.0000       0.146599         3.9892
  35   0.0000       0.174312         4.7433
  36   0.0000       0.184606         5.0234
  37   0.0000       0.187104         5.0914

MULLIKEN ATOMIC CHARGES
-----------------------
   0 C :   -0.048659
   1 C :   -0.048639
   2 O :   -0.291145
   3 C :    0.115988
   4 C :   -0.075129
   5 O :   -0.199533
   6 C :   -0.075113
   7 C :    0.115963
   8 O :   -0.291152
   9 H :    0.109616
  10 H :    0.137869
  11 H :    0.109609
  12 H :    0.137862
  13 H :    0.151231
  14 H :    0.151232
Sum of atomic charges:    0.0000000

LOEWDIN ATOMIC CHARGES
----------------------
   0 C :   -0.286738
   1 C :   -0.286734
   2 O :    0.234159
   3 C :   -0.284562
   4 C :   -0.231864
   5 O :    0.332743
   6 C :   -0.231869
   7 C :   -0.284560
   8 O :    0.234151
   9 H :    0.131743
  10 H :    0.137049
  11 H :    0.131742
  12 H :    0.137048
  13 H :    0.133846
  14 H :    0.133847

  Mayer bond orders larger than 0.1
B(  0-C ,  1-C ) :   0.9395 B(  0-C ,  8-O ) :   0.8847 B(  0-C ,  9-H ) :   0.9246
B(  0-C , 10-H ) :   0.9212 B(  1-C ,  2-O ) :   0.8847 B(  1-C , 11-H ) :   0.9246
B(  1-C , 12-H ) :   0.9212 B(  2-O ,  3-C ) :   1.0437 B(  3-C ,  4-C ) :   1.4845
B(  3-C ,  7-C ) :   1.1115 B(  4-C ,  5-O ) :   1.0346 B(  4-C , 13-H ) :   0.9317
B(  5-O ,  6-C ) :   1.0347 B(  6-C ,  7-C ) :   1.4845 B(  6-C , 14-H ) :   0.9317
B(  7-C ,  8-O ) :   1.0437

MP2 TOTAL ENERGY:     -457.023151606 Eh
FINAL SINGLE POINT ENERGY      -457.023151605729

DIPOLE MOMENT
-------------
                                X             Y             Z
Electronic contribution:      1.36020      -3.59626       2.27928
Nuclear contribution   :     -1.62017       4.28348      -2.71479
                        -----------------------------------------
Total Dipole Moment    :     -0.25996       0.68722      -0.43551
                        -----------------------------------------
Magnitude (a.u.)       :      0.85412
Magnitude (Debye)      :      2.17100

                             ****ORCA TERMINATED NORMALLY****
TOTAL RUN TIME: 0 days 0 hours 14 minutes 12 seconds 379 msec
