                         Program Version 3.0.3 - RELEASE   -
|  1> ! RI-MP2 RIJK def2-TZVP def2-TZVP/C def2-TZVP/JK TIGHTSCF
|  2> % maxcore 2000
|  3> % mp2 density relaxed end
|  4> *xyz 0 1
|  5>  C       -0.0521008945     1.4965675135    -0.0161467836
|  6>  C        0.0055723972    -0.0243409074    -0.0004955398
|  7>  C        1.3555042053    -0.7019246033    -0.2137642839
|  8>  C        0.7344168002    -0.7113518326     1.1500779284
|  9>  C       -1.1521417425    -0.6867158502    -0.5311245939
| 10>  C       -2.1425238673    -1.2094504243    -0.9837921563
| 11>  C       -3.3603013264    -1.7709530386    -1.5418031993
| 12>  N       -3.3815095003    -3.1393847126    -1.5647935314
| 13>  O       -4.2852234443    -1.0862536666    -1.9365505210
| 14>  H        0.8659548733     1.9178479585     0.4046686870
| 15>  H       -0.1650312756     1.8724357021    -1.0373643209
| 16>  H       -0.8983565641     1.8610181894     0.5736785764
| 17>  H        1.3701968025    -1.6260421069    -0.7787609615
| 18>  H        2.2008515677    -0.0468136288    -0.3939831376
| 19>  H        1.1499647606    -0.0626297528     1.9134352277
| 20>  H        0.3222065164    -1.6416983899     1.5214388823
| 21>  H       -2.5574858149    -3.6755237901    -1.3560187590
| 22>  H       -4.1541424734    -3.5871675992    -2.0303879536
| 23> *
| 24>
| 25>                          ****END OF INPUT****

CARTESIAN COORDINATES (ANGSTROEM)
---------------------------------
  C     -0.052101    1.496568   -0.016147
  C      0.005572   -0.024341   -0.000496
  C      1.355504   -0.701925   -0.213764
  C      0.734417   -0.711352    1.150078
  C     -1.152142   -0.686716   -0.531125
  C     -2.142524   -1.209450   -0.983792
  C     -3.360301   -1.770953   -1.541803
  N     -3.381510   -3.139385   -1.564794
  O     -4.285223   -1.086254   -1.936551
  H      0.865955    1.917848    0.404669
  H     -0.165031    1.872436   -1.037364
  H     -0.898357    1.861018    0.573679
  H      1.370197   -1.626042   -0.778761
  H      2.200852   -0.046814   -0.393983
  H      1.149965   -0.062630    1.913435
  H      0.322207   -1.641698    1.521439
  H     -2.557486   -3.675524   -1.356019
  H     -4.154142   -3.587168   -2.030388

 Total Charge           Charge          ....    0
 Multiplicity           Mult            ....    1
 Number of Electrons    NEL             ....   66
 Basis Dimension        Dim             ....  333

ORBITAL ENERGIES
----------------

  NO   OCC          E(Eh)            E(eV)
   0   2.0000     -20.522210      -558.4377
   1   2.0000     -15.586437      -424.1285
   2   2.0000     -11.373473      -309.4879
   3   2.0000     -11.275131      -306.8119
   4   2.0000     -11.256110      -306.2943
   5   2.0000     -11.248928      -306.0989
   6   2.0000     -11.248218      -306.0796
   7   2.0000     -11.234058      -305.6942
   8   2.0000     -11.232769      -305.6592
   9   2.0000      -1.385975       -37.7143
  10   2.0000      -1.215250       -33.0686
  11   2.0000      -1.180551       -32.1244
  12   2.0000      -1.047305       -28.4986
  13   2.0000      -0.981851       -26.7175
  14   2.0000      -0.893849       -24.3229
  15   2.0000      -0.844432       -22.9782
  16   2.0000      -0.823946       -22.4207
  17   2.0000      -0.751659       -20.4537
  18   2.0000      -0.699665       -19.0388
  19   2.0000      -0.685570       -18.6553
  20   2.0000      -0.651456       -17.7270
  21   2.0000      -0.616548       -16.7771
  22   2.0000      -0.589085       -16.0298
  23   2.0000      -0.580880       -15.8065
  24   2.0000      -0.561820       -15.2879
  25   2.0000      -0.548827       -14.9343
  26   2.0000      -0.536778       -14.6065
  27   2.0000      -0.465026       -12.6540
  28   2.0000      -0.464243       -12.6327
  29   2.0000      -0.446015       -12.1367
  30   2.0000      -0.418631       -11.3915
  31   2.0000      -0.392286       -10.6746
  32   2.0000      -0.368285       -10.0215
  33   0.0000       0.118858         3.2343
  34   0.0000       0.124592         3.3903
  35   0.0000       0.143011         3.8915
  36   0.0000       0.161668         4.3992
  37   0.0000       0.170105         4.6288

MULLIKEN ATOMIC CHARGES
-----------------------
   0 C :   -0.398756
   1 C :   -0.080889
   2 C :   -0.262517
   3 C :   -0.261637
   4 C :   -0.048103
   5 C :    0.122757
   6 C :    0.223803
   7 N :   -0.470465
   8 O :   -0.322086
   9 H :    0.128844
  10 H :    0.144476
  11 H :    0.145109
  12 H :    0.139632
  13 H :    0.138037
  14 H :    0.138197
  15 H :    0.141380
  16 H :    0.261200
  17 H :    0.261018
Sum of atomic charges:    0.0000000

LOEWDIN ATOMIC CHARGES
----------------------
   0 C :   -0.244833
   1 C :   -0.256687
   2 C :   -0.185811
   3 C :   -0.185283
   4 C :   -0.003331
   5 C :   -0.026210
   6 C :   -0.481819
   7 N :   -0.011859
   8 O :    0.102968
   9 H :    0.129136
  10 H :    0.132780
  11 H :    0.132976
  12 H :    0.137803
  13 H :    0.136856
  14 H :    0.136906
  15 H :    0.138322
  16 H :    0.173583
  17 H :    0.174503

  Mayer bond orders larger than 0.1
B(  0-C ,  1-C ) :   0.9640 B(  0-C ,  9-H ) :   0.9270 B(  0-C , 10-H ) :   0.9356
B(  0-C , 11-H ) :   0.9355 B(  1-C ,  2-C ) :   0.8339 B(  1-C ,  3-C ) :   0.8337
B(  1-C ,  4-C ) :   1.2134 B(  1-C ,  5-C ) :  -0.2388 B(  2-C ,  3-C ) :   0.9105
B(  2-C , 12-H ) :   0.9307 B(  2-C , 13-H ) :   0.9268 B(  3-C , 14-H ) :   0.9271
B(  3-C , 15-H ) :   0.9304 B(  4-C ,  5-C ) :   2.6944 B(  5-C ,  6-C ) :   0.8204
B(  5-C ,  7-N ) :  -0.1148 B(  6-C ,  7-N ) :   1.2318 B(  6-C ,  8-O ) :   2.0461
B(  7-N , 16-H ) :   0.8678 B(  7-N , 17-H ) :   0.8605

MP2 TOTAL ENERGY:     -401.242708350 Eh
FINAL SINGLE POINT ENERGY      -401.242708349978

DIPOLE MOMENT
-------------
                                X             Y             Z
Electronic contribution:     -8.70135      -3.66374      -3.89319
Nuclear contribution   :     10.07039       2.82694       4.33427
                        -----------------------------------------
Total Dipole Moment    :      1.36904      -0.83680       0.44108
                        -----------------------------------------
Magnitude (a.u.)       :      1.66404
Magnitude (Debye)      :      4.22967

                             ****ORCA TERMINATED NORMALLY****
TOTAL RUN TIME: 0 days 0 hours 15 minutes 43 seconds 467 msec
