                         Program Version 3.0.3 - RELEASE   -
|  1> ! RI-MP2 RIJK def2-TZVP def2-TZVP/C def2-TZVP/JK TIGHTSCF
|  2> % maxcore 2000
|  3> % mp2 density relaxed end
|  4> *xyz 0 1
|  5>  C       -0.0123612207     1.3440071984     0.0277413045
|  6>  O        0.0751000474    -0.0864460490    -0.0245215962
|  7>  C        0.6996315006    -0.5866575893    -1.1049249906
|  8>  O        1.1769154965     0.0919661969    -1.9807756545
|  9>  C        0.6745227129    -2.1085524186    -1.1038417603
| 10>  C       -0.7064462839    -2.5748922471    -1.6150363360
| 11>  N        1.8137106181    -2.5792997112    -1.8856049622
| 12>  H        0.9855829753     1.7889393895     0.0420311140
| 13>  H       -0.5561184090     1.7293851487    -0.8384724043
| 14>  H       -0.5469313603     1.5749153382     0.9490334816
| 15>  H        0.7832160875    -2.4389754421    -0.0640713087
| 16>  H       -0.8765624667    -2.2196668897    -2.6367323609
| 17>  H       -0.7479672916    -3.6688142081    -1.6199921652
| 18>  H       -1.5147000946    -2.2072265028    -0.9754986029
| 19>  H        1.6363218780    -3.5170528583    -2.2301741821
| 20>  H        1.9224100703    -1.9700660354    -2.6920408360
| 21> *
| 22>
| 23>                          ****END OF INPUT****

CARTESIAN COORDINATES (ANGSTROEM)
---------------------------------
  C     -0.012361    1.344007    0.027741
  O      0.075100   -0.086446   -0.024522
  C      0.699632   -0.586658   -1.104925
  O      1.176915    0.091966   -1.980776
  C      0.674523   -2.108552   -1.103842
  C     -0.706446   -2.574892   -1.615036
  N      1.813711   -2.579300   -1.885605
  H      0.985583    1.788939    0.042031
  H     -0.556118    1.729385   -0.838472
  H     -0.546931    1.574915    0.949033
  H      0.783216   -2.438975   -0.064071
  H     -0.876562   -2.219667   -2.636732
  H     -0.747967   -3.668814   -1.619992
  H     -1.514700   -2.207227   -0.975499
  H      1.636322   -3.517053   -2.230174
  H      1.922410   -1.970066   -2.692041

 Total Charge           Charge          ....    0
 Multiplicity           Mult            ....    1
 Number of Electrons    NEL             ....   56
 Basis Dimension        Dim             ....  271

ORBITAL ENERGIES
----------------

  NO   OCC          E(Eh)            E(eV)
   0   2.0000     -20.606047      -560.7191
   1   2.0000     -20.545392      -559.0685
   2   2.0000     -15.541002      -422.8922
   3   2.0000     -11.377365      -309.5938
   4   2.0000     -11.287581      -307.1507
   5   2.0000     -11.275097      -306.8110
   6   2.0000     -11.231322      -305.6198
   7   2.0000      -1.464185       -39.8425
   8   2.0000      -1.363235       -37.0955
   9   2.0000      -1.191989       -32.4357
  10   2.0000      -1.024578       -27.8802
  11   2.0000      -0.969874       -26.3916
  12   2.0000      -0.873908       -23.7803
  13   2.0000      -0.770775       -20.9739
  14   2.0000      -0.722912       -19.6714
  15   2.0000      -0.681483       -18.5441
  16   2.0000      -0.675358       -18.3774
  17   2.0000      -0.637958       -17.3597
  18   2.0000      -0.609253       -16.5786
  19   2.0000      -0.595101       -16.1935
  20   2.0000      -0.566463       -15.4142
  21   2.0000      -0.552674       -15.0390
  22   2.0000      -0.538269       -14.6470
  23   2.0000      -0.523879       -14.2555
  24   2.0000      -0.514208       -13.9923
  25   2.0000      -0.466459       -12.6930
  26   2.0000      -0.447077       -12.1656
  27   2.0000      -0.396916       -10.8006
  28   0.0000       0.131960         3.5908
  29   0.0000       0.157762         4.2929
  30   0.0000       0.166055         4.5186
  31   0.0000       0.181451         4.9375
  32   0.0000       0.187525         5.1028

MULLIKEN ATOMIC CHARGES
-----------------------
   0 C :   -0.222794
   1 O :   -0.262137
   2 C :    0.335167
   3 O :   -0.346464
   4 C :    0.054940
   5 C :   -0.430070
   6 N :   -0.535682
   7 H :    0.144228
   8 H :    0.139152
   9 H :    0.145217
  10 H :    0.107850
  11 H :    0.130883
  12 H :    0.133841
  13 H :    0.136859
  14 H :    0.220879
  15 H :    0.248132
Sum of atomic charges:    0.0000000

LOEWDIN ATOMIC CHARGES
----------------------
   0 C :   -0.307201
   1 O :    0.234580
   2 C :   -0.464368
   3 O :    0.121633
   4 C :   -0.327958
   5 C :   -0.296097
   6 N :   -0.148184
   7 H :    0.115523
   8 H :    0.113898
   9 H :    0.114943
  10 H :    0.153943
  11 H :    0.125253
  12 H :    0.122643
  13 H :    0.127190
  14 H :    0.152171
  15 H :    0.162033

  Mayer bond orders larger than 0.1
B(  0-C ,  1-O ) :   0.8375 B(  0-C ,  7-H ) :   0.9396 B(  0-C ,  8-H ) :   0.9374
B(  0-C ,  9-H ) :   0.9341 B(  1-O ,  2-C ) :   1.1388 B(  2-C ,  3-O ) :   1.8933
B(  2-C ,  4-C ) :   0.9117 B(  4-C ,  5-C ) :   0.8943 B(  4-C ,  6-N ) :   0.9770
B(  4-C , 10-H ) :   0.9221 B(  5-C , 11-H ) :   0.9307 B(  5-C , 12-H ) :   0.9357
B(  5-C , 13-H ) :   0.9283 B(  6-N , 14-H ) :   0.8942 B(  6-N , 15-H ) :   0.8665

MP2 TOTAL ENERGY:     -362.366017819 Eh
FINAL SINGLE POINT ENERGY      -362.366017819419

DIPOLE MOMENT
-------------
                                X             Y             Z
Electronic contribution:      2.60552       2.42197       0.32639
Nuclear contribution   :     -3.42622      -2.52085      -0.09114
                        -----------------------------------------
Total Dipole Moment    :     -0.82069      -0.09888       0.23524
                        -----------------------------------------
Magnitude (a.u.)       :      0.85945
Magnitude (Debye)      :      2.18455

                             ****ORCA TERMINATED NORMALLY****
TOTAL RUN TIME: 0 days 0 hours 7 minutes 42 seconds 803 msec
