                         Program Version 3.0.3 - RELEASE   -
|  1> ! RI-MP2 RIJK def2-TZVP def2-TZVP/C def2-TZVP/JK TIGHTSCF
|  2> % maxcore 2000
|  3> % mp2 density relaxed end
|  4> *xyz 0 1
|  5>  C       -0.0361406461     1.5502747317     0.0278869690
|  6>  C        1.4614686781     1.9952415057     0.0074878763
|  7>  C        2.2299302160     0.6587219545    -0.0562411525
|  8>  C        2.0154814728    -0.0066040633    -1.4190991281
|  9>  C        1.6572115765    -1.4621139449    -1.2002589891
| 10>  C        1.7571174669    -1.7297380969     0.2954848730
| 11>  C        1.3466102890    -0.3267625433     0.7605774002
| 12>  C        0.0483712669     0.0105337298    -0.0264535689
| 13>  C        0.5569893774    -0.4400112721    -1.3991695276
| 14>  H       -0.5331352285     1.8816352490     0.9455372126
| 15>  H       -0.6088036291     1.9570938527    -0.8108946365
| 16>  H        1.6979382348     2.6425220651    -0.8422813550
| 17>  H        1.7197614109     2.5509476826     0.9148810394
| 18>  H        3.2753837867     0.7228096640     0.2565711673
| 19>  H        2.5010390127     0.3451370246    -2.3205236525
| 20>  H        1.8703552439    -2.2137982061    -1.9493465924
| 21>  H        1.0663303924    -2.5085207642     0.6376011699
| 22>  H        2.7693616484    -2.0025081488     0.6143701971
| 23>  H        1.3086690541    -0.1496281953     1.8363232454
| 24>  H       -0.8542842764    -0.5041891925     0.3129643835
| 25>  H       -0.0643043174    -0.4171953922    -2.2854697711
| 26> *
| 27>
| 28>                          ****END OF INPUT****

CARTESIAN COORDINATES (ANGSTROEM)
---------------------------------
  C     -0.036141    1.550275    0.027887
  C      1.461469    1.995242    0.007488
  C      2.229930    0.658722   -0.056241
  C      2.015481   -0.006604   -1.419099
  C      1.657212   -1.462114   -1.200259
  C      1.757117   -1.729738    0.295485
  C      1.346610   -0.326763    0.760577
  C      0.048371    0.010534   -0.026454
  C      0.556989   -0.440011   -1.399170
  H     -0.533135    1.881635    0.945537
  H     -0.608804    1.957094   -0.810895
  H      1.697938    2.642522   -0.842281
  H      1.719761    2.550948    0.914881
  H      3.275384    0.722810    0.256571
  H      2.501039    0.345137   -2.320524
  H      1.870355   -2.213798   -1.949347
  H      1.066330   -2.508521    0.637601
  H      2.769362   -2.002508    0.614370
  H      1.308669   -0.149628    1.836323
  H     -0.854284   -0.504189    0.312964
  H     -0.064304   -0.417195   -2.285470

 Total Charge           Charge          ....    0
 Multiplicity           Mult            ....    1
 Number of Electrons    NEL             ....   66
 Basis Dimension        Dim             ....  351

ORBITAL ENERGIES
----------------

  NO   OCC          E(Eh)            E(eV)
   0   2.0000     -11.220302      -305.3199
   1   2.0000     -11.219103      -305.2873
   2   2.0000     -11.219038      -305.2855
   3   2.0000     -11.217423      -305.2416
   4   2.0000     -11.216855      -305.2261
   5   2.0000     -11.216818      -305.2251
   6   2.0000     -11.213944      -305.1469
   7   2.0000     -11.211870      -305.0905
   8   2.0000     -11.211336      -305.0760
   9   2.0000      -1.216207       -33.0947
  10   2.0000      -1.064670       -28.9711
  11   2.0000      -0.992405       -27.0047
  12   2.0000      -0.973019       -26.4772
  13   2.0000      -0.908888       -24.7321
  14   2.0000      -0.810473       -22.0541
  15   2.0000      -0.759095       -20.6560
  16   2.0000      -0.735601       -20.0167
  17   2.0000      -0.714104       -19.4318
  18   2.0000      -0.700395       -19.0587
  19   2.0000      -0.641868       -17.4661
  20   2.0000      -0.603676       -16.4269
  21   2.0000      -0.585243       -15.9253
  22   2.0000      -0.560692       -15.2572
  23   2.0000      -0.524681       -14.2773
  24   2.0000      -0.496491       -13.5102
  25   2.0000      -0.482472       -13.1287
  26   2.0000      -0.482417       -13.1272
  27   2.0000      -0.469132       -12.7657
  28   2.0000      -0.468293       -12.7429
  29   2.0000      -0.444097       -12.0845
  30   2.0000      -0.417630       -11.3643
  31   2.0000      -0.377525       -10.2730
  32   2.0000      -0.376863       -10.2550
  33   0.0000       0.137738         3.7480
  34   0.0000       0.159824         4.3490
  35   0.0000       0.168317         4.5802
  36   0.0000       0.169214         4.6045
  37   0.0000       0.192925         5.2498

MULLIKEN ATOMIC CHARGES
-----------------------
   0 C :   -0.257710
   1 C :   -0.257711
   2 C :   -0.020025
   3 C :   -0.181675
   4 C :   -0.157976
   5 C :   -0.204409
   6 C :   -0.110298
   7 C :   -0.020026
   8 C :   -0.181677
   9 H :    0.113303
  10 H :    0.109701
  11 H :    0.109703
  12 H :    0.113301
  13 H :    0.113125
  14 H :    0.126235
  15 H :    0.126169
  16 H :    0.110437
  17 H :    0.110433
  18 H :    0.119740
  19 H :    0.113124
  20 H :    0.126235
Sum of atomic charges:    0.0000000

LOEWDIN ATOMIC CHARGES
----------------------
   0 C :   -0.222196
   1 C :   -0.222200
   2 C :   -0.184675
   3 C :   -0.148678
   4 C :   -0.175054
   5 C :   -0.205060
   6 C :   -0.173545
   7 C :   -0.184675
   8 C :   -0.148682
   9 H :    0.132504
  10 H :    0.133173
  11 H :    0.133172
  12 H :    0.132505
  13 H :    0.144408
  14 H :    0.140983
  15 H :    0.141606
  16 H :    0.138039
  17 H :    0.138038
  18 H :    0.144946
  19 H :    0.144407
  20 H :    0.140983

  Mayer bond orders larger than 0.1
B(  0-C ,  1-C ) :   0.9763 B(  0-C ,  7-C ) :   0.9208 B(  0-C ,  9-H ) :   0.9265
B(  0-C , 10-H ) :   0.9253 B(  1-C ,  2-C ) :   0.9208 B(  1-C , 11-H ) :   0.9253
B(  1-C , 12-H ) :   0.9265 B(  2-C ,  3-C ) :   0.9082 B(  2-C ,  6-C ) :   0.9160
B(  2-C , 13-H ) :   0.9177 B(  3-C ,  4-C ) :   0.8570 B(  3-C ,  8-C ) :   0.8829
B(  3-C , 14-H ) :   0.9308 B(  4-C ,  5-C ) :   0.9715 B(  4-C ,  8-C ) :   0.8570
B(  4-C , 15-H ) :   0.9337 B(  5-C ,  6-C ) :   0.9295 B(  5-C , 16-H ) :   0.9203
B(  5-C , 17-H ) :   0.9203 B(  6-C ,  7-C ) :   0.9160 B(  6-C , 18-H ) :   0.9181
B(  7-C ,  8-C ) :   0.9082 B(  7-C , 19-H ) :   0.9177 B(  8-C , 20-H ) :   0.9308

MP2 TOTAL ENERGY:     -349.346666378 Eh
FINAL SINGLE POINT ENERGY      -349.346666378146

DIPOLE MOMENT
-------------
                                X             Y             Z
Electronic contribution:      0.47708      -1.65611      -1.09771
Nuclear contribution   :     -0.47904       1.66355       1.11611
                        -----------------------------------------
Total Dipole Moment    :     -0.00196       0.00743       0.01840
                        -----------------------------------------
Magnitude (a.u.)       :      0.01994
Magnitude (Debye)      :      0.05068

                             ****ORCA TERMINATED NORMALLY****
TOTAL RUN TIME: 0 days 0 hours 22 minutes 46 seconds 594 msec
