                         Program Version 3.0.3 - RELEASE   -
|  1> ! RI-MP2 RIJK def2-TZVP def2-TZVP/C def2-TZVP/JK TIGHTSCF
|  2> % maxcore 2000
|  3> % mp2 density relaxed end
|  4> *xyz 0 1
|  5>  C       -1.3754562288     0.1225909203    -0.3039611879
|  6>  C        0.1013211255    -0.0669689524     0.0479617097
|  7>  O        0.2479210283    -0.7532366399     1.2874725000
|  8>  C        0.9116624337    -0.7414377345    -1.0712219984
|  9>  C        0.8414882481    -0.0397566031    -2.4258716009
| 10>  C        1.3056123205     1.3994624084    -2.3455923803
| 11>  O        0.6208181365     2.3560766663    -2.6075145194
| 12>  C        2.2156287955    -1.4019691742    -0.6914455961
| 13>  C        1.0271476417    -2.2469232318    -1.0819774039
| 14>  H       -1.5035063625     0.8117423164    -1.1426387456
| 15>  H       -1.8397629270    -0.8341803805    -0.5743488412
| 16>  H       -1.9058449548     0.5364180509     0.5582014577
| 17>  H        0.5425922323     0.9221059387     0.2310199638
| 18>  H       -0.4014749523    -1.4636124178     1.3102457882
| 19>  H        1.5059423042    -0.5636844165    -3.1257989388
| 20>  H       -0.1686213939    -0.0538407739    -2.8451655151
| 21>  H        2.3584403988     1.5260589071    -2.0028497442
| 22>  H        3.0490688279    -1.3352253103    -1.3828079257
| 23>  H        2.4850956419    -1.3916823564     0.3573772717
| 24>  H        0.5404290912    -2.8065695161    -0.2911750590
| 25>  H        1.0355078733    -2.7519158807    -2.0419389843
| 26> *
| 27>
| 28>                          ****END OF INPUT****

CARTESIAN COORDINATES (ANGSTROEM)
---------------------------------
  C     -1.375456    0.122591   -0.303961
  C      0.101321   -0.066969    0.047962
  O      0.247921   -0.753237    1.287473
  C      0.911662   -0.741438   -1.071222
  C      0.841488   -0.039757   -2.425872
  C      1.305612    1.399462   -2.345592
  O      0.620818    2.356077   -2.607515
  C      2.215629   -1.401969   -0.691446
  C      1.027148   -2.246923   -1.081977
  H     -1.503506    0.811742   -1.142639
  H     -1.839763   -0.834180   -0.574349
  H     -1.905845    0.536418    0.558201
  H      0.542592    0.922106    0.231020
  H     -0.401475   -1.463612    1.310246
  H      1.505942   -0.563684   -3.125799
  H     -0.168621   -0.053841   -2.845166
  H      2.358440    1.526059   -2.002850
  H      3.049069   -1.335225   -1.382808
  H      2.485096   -1.391682    0.357377
  H      0.540429   -2.806570   -0.291175
  H      1.035508   -2.751916   -2.041939

 Total Charge           Charge          ....    0
 Multiplicity           Mult            ....    1
 Number of Electrons    NEL             ....   70
 Basis Dimension        Dim             ....  351

ORBITAL ENERGIES
----------------

  NO   OCC          E(Eh)            E(eV)
   0   2.0000     -20.561684      -559.5119
   1   2.0000     -20.559580      -559.4546
   2   2.0000     -11.333809      -308.4086
   3   2.0000     -11.291342      -307.2530
   4   2.0000     -11.253365      -306.2196
   5   2.0000     -11.247004      -306.0465
   6   2.0000     -11.235613      -305.7366
   7   2.0000     -11.231017      -305.6115
   8   2.0000     -11.222991      -305.3931
   9   2.0000      -1.397881       -38.0383
  10   2.0000      -1.370034       -37.2805
  11   2.0000      -1.166025       -31.7292
  12   2.0000      -1.033208       -28.1150
  13   2.0000      -1.005778       -27.3686
  14   2.0000      -0.880310       -23.9544
  15   2.0000      -0.837964       -22.8022
  16   2.0000      -0.808762       -22.0075
  17   2.0000      -0.758281       -20.6339
  18   2.0000      -0.702336       -19.1115
  19   2.0000      -0.670334       -18.2407
  20   2.0000      -0.655766       -17.8443
  21   2.0000      -0.647512       -17.6197
  22   2.0000      -0.630044       -17.1444
  23   2.0000      -0.610067       -16.6008
  24   2.0000      -0.572544       -15.5797
  25   2.0000      -0.570640       -15.5279
  26   2.0000      -0.540289       -14.7020
  27   2.0000      -0.530674       -14.4404
  28   2.0000      -0.521490       -14.1905
  29   2.0000      -0.517708       -14.0876
  30   2.0000      -0.492785       -13.4094
  31   2.0000      -0.459312       -12.4985
  32   2.0000      -0.440872       -11.9967
  33   2.0000      -0.413817       -11.2605
  34   2.0000      -0.400353       -10.8942
  35   0.0000       0.127060         3.4575
  36   0.0000       0.131398         3.5755
  37   0.0000       0.144850         3.9416
  38   0.0000       0.156405         4.2560
  39   0.0000       0.167351         4.5538

MULLIKEN ATOMIC CHARGES
-----------------------
   0 C :   -0.450273
   1 C :    0.098729
   2 O :   -0.477403
   3 C :    0.073301
   4 C :   -0.200414
   5 C :    0.077013
   6 O :   -0.263613
   7 C :   -0.264381
   8 C :   -0.339678
   9 H :    0.156259
  10 H :    0.127344
  11 H :    0.151850
  12 H :    0.105575
  13 H :    0.314379
  14 H :    0.135156
  15 H :    0.136100
  16 H :    0.088518
  17 H :    0.130807
  18 H :    0.149246
  19 H :    0.119228
  20 H :    0.132255
Sum of atomic charges:   -0.0000000

LOEWDIN ATOMIC CHARGES
----------------------
   0 C :   -0.296937
   1 C :   -0.326697
   2 O :   -0.008565
   3 C :   -0.240292
   4 C :   -0.219160
   5 C :   -0.289371
   6 O :    0.129964
   7 C :   -0.204688
   8 C :   -0.210867
   9 H :    0.132147
  10 H :    0.123959
  11 H :    0.128428
  12 H :    0.151220
  13 H :    0.173728
  14 H :    0.158484
  15 H :    0.149318
  16 H :    0.113088
  17 H :    0.131438
  18 H :    0.141358
  19 H :    0.130240
  20 H :    0.133203

  Mayer bond orders larger than 0.1
B(  0-C ,  1-C ) :   0.9410 B(  0-C ,  9-H ) :   0.9240 B(  0-C , 10-H ) :   0.9221
B(  0-C , 11-H ) :   0.9392 B(  1-C ,  2-O ) :   0.9214 B(  1-C ,  3-C ) :   0.9095
B(  1-C , 12-H ) :   0.9160 B(  2-O , 13-H ) :   0.8441 B(  3-C ,  4-C ) :   0.8783
B(  3-C ,  7-C ) :   0.8583 B(  3-C ,  8-C ) :   0.8345 B(  4-C ,  5-C ) :   0.8776
B(  4-C , 14-H ) :   0.9059 B(  4-C , 15-H ) :   0.9148 B(  5-C ,  6-O ) :   1.9899
B(  5-C , 16-H ) :   0.9390 B(  7-C ,  8-C ) :   0.9100 B(  7-C , 17-H ) :   0.9308
B(  7-C , 18-H ) :   0.9174 B(  8-C , 19-H ) :   0.9351 B(  8-C , 20-H ) :   0.9245

MP2 TOTAL ENERGY:     -423.517318825 Eh
FINAL SINGLE POINT ENERGY      -423.517318824758

DIPOLE MOMENT
-------------
                                X             Y             Z
Electronic contribution:      1.65892       4.34182      -1.02289
Nuclear contribution   :     -1.68929      -5.37711       0.86648
                        -----------------------------------------
Total Dipole Moment    :     -0.03036      -1.03529      -0.15641
                        -----------------------------------------
Magnitude (a.u.)       :      1.04748
Magnitude (Debye)      :      2.66248

                             ****ORCA TERMINATED NORMALLY****
TOTAL RUN TIME: 0 days 0 hours 20 minutes 42 seconds 586 msec
