                         Program Version 3.0.3 - RELEASE   -
|  1> ! RI-MP2 RIJK def2-TZVP def2-TZVP/C def2-TZVP/JK TIGHTSCF
|  2> % maxcore 2000
|  3> % mp2 density relaxed end
|  4> *xyz 0 1
|  5>  C        0.0991410882     1.3174582978    -0.2752399380
|  6>  C       -0.1010859344    -0.1178105096     0.2155015709
|  7>  O        0.1926580457    -1.0820984660    -0.8009445433
|  8>  C        1.5837174511    -1.3805928020    -0.7528372256
|  9>  C        1.9644745229    -1.3186313214     0.7310691701
| 10>  C        0.8317164264    -0.4761100778     1.3702653348
| 11>  O        0.3763617631    -1.6529135772     2.1143648253
| 12>  C        1.3848224686    -2.4316541768     1.5819171590
| 13>  N        1.6762213720    -3.6352898094     1.7668355768
| 14>  H        1.1501651652     1.5297965919    -0.4981486079
| 15>  H       -0.4810991900     1.4797212255    -1.1867393541
| 16>  H       -0.2355004473     2.0337818375     0.4820590960
| 17>  H       -1.1457720160    -0.2774438153     0.4999322783
| 18>  H        1.7292384078    -2.3707251311    -1.1906979407
| 19>  H        2.1732586256    -0.6512258515    -1.3284374425
| 20>  H        3.0040615998    -1.0606339118     0.9270565984
| 21>  H        1.0731511092     0.3424799266     2.0490260429
| 22>  H        1.0308113122    -4.0815128296     2.4207584999
| 23> *
| 24>
| 25>                          ****END OF INPUT****

CARTESIAN COORDINATES (ANGSTROEM)
---------------------------------
  C      0.099141    1.317458   -0.275240
  C     -0.101086   -0.117811    0.215502
  O      0.192658   -1.082098   -0.800945
  C      1.583717   -1.380593   -0.752837
  C      1.964475   -1.318631    0.731069
  C      0.831716   -0.476110    1.370265
  O      0.376362   -1.652914    2.114365
  C      1.384822   -2.431654    1.581917
  N      1.676221   -3.635290    1.766836
  H      1.150165    1.529797   -0.498149
  H     -0.481099    1.479721   -1.186739
  H     -0.235500    2.033782    0.482059
  H     -1.145772   -0.277444    0.499932
  H      1.729238   -2.370725   -1.190698
  H      2.173259   -0.651226   -1.328437
  H      3.004062   -1.060634    0.927057
  H      1.073151    0.342480    2.049026
  H      1.030811   -4.081513    2.420758

 Total Charge           Charge          ....    0
 Multiplicity           Mult            ....    1
 Number of Electrons    NEL             ....   68
 Basis Dimension        Dim             ....  333

ORBITAL ENERGIES
----------------

  NO   OCC          E(Eh)            E(eV)
   0   2.0000     -20.593566      -560.3794
   1   2.0000     -20.565890      -559.6263
   2   2.0000     -15.538657      -422.8284
   3   2.0000     -11.341215      -308.6102
   4   2.0000     -11.308429      -307.7180
   5   2.0000     -11.295316      -307.3612
   6   2.0000     -11.292548      -307.2859
   7   2.0000     -11.259751      -306.3934
   8   2.0000     -11.233376      -305.6757
   9   2.0000      -1.441526       -39.2259
  10   2.0000      -1.386379       -37.7253
  11   2.0000      -1.199309       -32.6349
  12   2.0000      -1.070392       -29.1268
  13   2.0000      -1.053480       -28.6666
  14   2.0000      -0.937608       -25.5136
  15   2.0000      -0.884749       -24.0752
  16   2.0000      -0.808060       -21.9884
  17   2.0000      -0.742628       -20.2079
  18   2.0000      -0.725221       -19.7343
  19   2.0000      -0.702784       -19.1237
  20   2.0000      -0.683830       -18.6080
  21   2.0000      -0.654064       -17.7980
  22   2.0000      -0.601687       -16.3727
  23   2.0000      -0.591786       -16.1033
  24   2.0000      -0.584798       -15.9132
  25   2.0000      -0.569382       -15.4937
  26   2.0000      -0.546994       -14.8845
  27   2.0000      -0.518241       -14.1021
  28   2.0000      -0.507789       -13.8177
  29   2.0000      -0.498234       -13.5576
  30   2.0000      -0.467232       -12.7140
  31   2.0000      -0.448437       -12.2026
  32   2.0000      -0.426055       -11.5935
  33   2.0000      -0.405430       -11.0323
  34   0.0000       0.122950         3.3456
  35   0.0000       0.153547         4.1782
  36   0.0000       0.166341         4.5264
  37   0.0000       0.173031         4.7084
  38   0.0000       0.185902         5.0587

MULLIKEN ATOMIC CHARGES
-----------------------
   0 C :   -0.433106
   1 C :    0.108783
   2 O :   -0.328673
   3 C :   -0.075312
   4 C :   -0.053604
   5 C :    0.039142
   6 O :   -0.276197
   7 C :    0.099608
   8 N :   -0.368623
   9 H :    0.130634
  10 H :    0.151693
  11 H :    0.134284
  12 H :    0.118813
  13 H :    0.143938
  14 H :    0.105183
  15 H :    0.142018
  16 H :    0.130189
  17 H :    0.231229
Sum of atomic charges:   -0.0000000

LOEWDIN ATOMIC CHARGES
----------------------
   0 C :   -0.289617
   1 C :   -0.316907
   2 O :    0.175065
   3 C :   -0.274408
   4 C :   -0.168489
   5 C :   -0.202663
   6 O :    0.234139
   7 C :   -0.379907
   8 N :   -0.048725
   9 H :    0.125380
  10 H :    0.131425
  11 H :    0.128296
  12 H :    0.151236
  13 H :    0.138800
  14 H :    0.122483
  15 H :    0.157256
  16 H :    0.141959
  17 H :    0.174680

  Mayer bond orders larger than 0.1
B(  0-C ,  1-C ) :   0.9038 B(  0-C ,  9-H ) :   0.9277 B(  0-C , 10-H ) :   0.9386
B(  0-C , 11-H ) :   0.9343 B(  1-C ,  2-O ) :   0.8969 B(  1-C ,  5-C ) :   0.9258
B(  1-C , 12-H ) :   0.9083 B(  2-O ,  3-C ) :   0.9338 B(  3-C ,  4-C ) :   0.9329
B(  3-C , 13-H ) :   0.9147 B(  3-C , 14-H ) :   0.9245 B(  4-C ,  5-C ) :   0.9447
B(  4-C ,  7-C ) :   0.8813 B(  4-C , 15-H ) :   0.8995 B(  5-C ,  6-O ) :   0.8632
B(  5-C , 16-H ) :   0.9185 B(  6-O ,  7-C ) :   1.0560 B(  7-C ,  8-N ) :   2.0811
B(  8-N , 17-H ) :   0.8452

MP2 TOTAL ENERGY:     -438.371840721 Eh
FINAL SINGLE POINT ENERGY      -438.371840720598

DIPOLE MOMENT
-------------
                                X             Y             Z
Electronic contribution:     -0.26789      -5.88637       3.45582
Nuclear contribution   :      0.45651       7.12187      -3.42765
                        -----------------------------------------
Total Dipole Moment    :      0.18862       1.23550       0.02817
                        -----------------------------------------
Magnitude (a.u.)       :      1.25014
Magnitude (Debye)      :      3.17760

                             ****ORCA TERMINATED NORMALLY****
TOTAL RUN TIME: 0 days 0 hours 22 minutes 4 seconds 357 msec
