                         Program Version 3.0.3 - RELEASE   -
|  1> ! RI-MP2 RIJK def2-TZVP def2-TZVP/C def2-TZVP/JK TIGHTSCF
|  2> % maxcore 2000
|  3> % mp2 density relaxed end
|  4> *xyz 0 1
|  5>  C        0.0700901523     1.4661664725     0.3071940018
|  6>  N        1.1473709961     2.1368596506    -0.4421224890
|  7>  C        2.1618782669     1.3794920045    -0.9158244381
|  8>  C        2.1235671113     0.0127339896    -1.0776250100
|  9>  C        3.3795396010    -0.2523168294    -1.6708185835
| 10>  N        4.1138167557     0.8222527432    -1.8480961692
| 11>  O        3.3009761431     1.8997093476    -1.3476064509
| 12>  C        0.9129053149    -0.6808931986    -0.6975531494
| 13>  C       -0.0623599546     0.0064535421    -0.0842712935
| 14>  H        0.2421897286     1.5487528402     1.3966767314
| 15>  H       -0.8675015850     1.9982879683     0.1045891555
| 16>  H        1.3362984313     3.1051092143    -0.2362523994
| 17>  H        3.7926105121    -1.2030210036    -1.9814954737
| 18>  H        0.7886889275    -1.7334674349    -0.9289453547
| 19>  H       -0.9879548412    -0.4760907163     0.2086956226
| 20> *
| 21>
| 22>                          ****END OF INPUT****

CARTESIAN COORDINATES (ANGSTROEM)
---------------------------------
  C      0.070090    1.466166    0.307194
  N      1.147371    2.136860   -0.442122
  C      2.161878    1.379492   -0.915824
  C      2.123567    0.012734   -1.077625
  C      3.379540   -0.252317   -1.670819
  N      4.113817    0.822253   -1.848096
  O      3.300976    1.899709   -1.347606
  C      0.912905   -0.680893   -0.697553
  C     -0.062360    0.006454   -0.084271
  H      0.242190    1.548753    1.396677
  H     -0.867502    1.998288    0.104589
  H      1.336298    3.105109   -0.236252
  H      3.792611   -1.203021   -1.981495
  H      0.788689   -1.733467   -0.928945
  H     -0.987955   -0.476091    0.208696

 Total Charge           Charge          ....    0
 Multiplicity           Mult            ....    1
 Number of Electrons    NEL             ....   64
 Basis Dimension        Dim             ....  315

ORBITAL ENERGIES
----------------

  NO   OCC          E(Eh)            E(eV)
   0   2.0000     -20.634217      -561.4856
   1   2.0000     -15.603584      -424.5951
   2   2.0000     -15.601112      -424.5279
   3   2.0000     -11.353135      -308.9345
   4   2.0000     -11.291139      -307.2475
   5   2.0000     -11.281539      -306.9863
   6   2.0000     -11.252263      -306.1897
   7   2.0000     -11.237810      -305.7964
   8   2.0000     -11.219100      -305.2872
   9   2.0000      -1.481718       -40.3196
  10   2.0000      -1.272990       -34.6398
  11   2.0000      -1.165167       -31.7058
  12   2.0000      -1.089830       -29.6558
  13   2.0000      -1.045464       -28.4485
  14   2.0000      -0.925867       -25.1941
  15   2.0000      -0.842680       -22.9305
  16   2.0000      -0.833449       -22.6793
  17   2.0000      -0.752014       -20.4633
  18   2.0000      -0.719782       -19.5863
  19   2.0000      -0.671492       -18.2722
  20   2.0000      -0.667523       -18.1642
  21   2.0000      -0.649131       -17.6637
  22   2.0000      -0.622307       -16.9338
  23   2.0000      -0.591478       -16.0949
  24   2.0000      -0.565258       -15.3815
  25   2.0000      -0.560246       -15.2451
  26   2.0000      -0.505699       -13.7608
  27   2.0000      -0.474130       -12.9017
  28   2.0000      -0.469914       -12.7870
  29   2.0000      -0.458226       -12.4690
  30   2.0000      -0.395469       -10.7613
  31   2.0000      -0.281917        -7.6714
  32   0.0000       0.122673         3.3381
  33   0.0000       0.129170         3.5149
  34   0.0000       0.148688         4.0460
  35   0.0000       0.160510         4.3677
  36   0.0000       0.166245         4.5238

MULLIKEN ATOMIC CHARGES
-----------------------
   0 C :   -0.075025
   1 N :   -0.328100
   2 C :    0.220843
   3 C :    0.033666
   4 C :   -0.113556
   5 N :   -0.131351
   6 O :   -0.128430
   7 C :   -0.251774
   8 C :   -0.122396
   9 H :    0.116501
  10 H :    0.128043
  11 H :    0.247253
  12 H :    0.141246
  13 H :    0.128425
  14 H :    0.134654
Sum of atomic charges:   -0.0000000

LOEWDIN ATOMIC CHARGES
----------------------
   0 C :   -0.243513
   1 N :    0.113514
   2 C :   -0.333145
   3 C :   -0.191184
   4 C :   -0.251892
   5 N :    0.027949
   6 O :    0.277815
   7 C :   -0.134908
   8 C :   -0.161978
   9 H :    0.130275
  10 H :    0.136784
  11 H :    0.190726
  12 H :    0.144033
  13 H :    0.150680
  14 H :    0.144845

  Mayer bond orders larger than 0.1
B(  0-C ,  1-N ) :   0.8805 B(  0-C ,  8-C ) :   0.9315 B(  0-C ,  9-H ) :   0.9214
B(  0-C , 10-H ) :   0.9237 B(  1-N ,  2-C ) :   1.1814 B(  1-N , 11-H ) :   0.8659
B(  2-C ,  3-C ) :   1.3582 B(  2-C ,  6-O ) :   1.2024 B(  3-C ,  4-C ) :   1.1964
B(  3-C ,  7-C ) :   0.9677 B(  4-C ,  5-N ) :   1.6267 B(  4-C , 12-H ) :   0.9296
B(  5-N ,  6-O ) :   0.8173 B(  7-C ,  8-C ) :   1.7767 B(  7-C , 13-H ) :   0.9278
B(  8-C , 14-H ) :   0.9201

MP2 TOTAL ENERGY:     -416.086276374 Eh
FINAL SINGLE POINT ENERGY      -416.086276373973

DIPOLE MOMENT
-------------
                                X             Y             Z
Electronic contribution:      5.35143       1.45954      -2.66819
Nuclear contribution   :     -6.71736      -1.46829       3.47212
                        -----------------------------------------
Total Dipole Moment    :     -1.36593      -0.00875       0.80392
                        -----------------------------------------
Magnitude (a.u.)       :      1.58498
Magnitude (Debye)      :      4.02869

                             ****ORCA TERMINATED NORMALLY****
TOTAL RUN TIME: 0 days 0 hours 16 minutes 1 seconds 105 msec
