                         Program Version 3.0.3 - RELEASE   -
|  1> ! RI-MP2 RIJK def2-TZVP def2-TZVP/C def2-TZVP/JK TIGHTSCF
|  2> % maxcore 2000
|  3> % mp2 density relaxed end
|  4> *xyz 0 1
|  5>  C       -0.3717408151     1.3543793505     0.0982831943
|  6>  C        0.1513151647    -0.0836575508    -0.0438648092
|  7>  O        0.9992601877    -0.1813489779    -1.1578316565
|  8>  C        0.8849698875    -0.5531462804     1.2096986056
|  9>  O        2.0436228042    -0.9163961671     1.1188608369
| 10>  C        0.2013407792    -0.5786550589     2.5742912593
| 11>  C       -1.0592683756    -1.4576297543     2.5716666604
| 12>  O        1.1024668276    -1.0293912490     3.5511682653
| 13>  H        0.4475302563     2.0410750719     0.3307148420
| 14>  H       -0.8121943614     1.6588470247    -0.8539356721
| 15>  H       -1.1369924860     1.4352568161     0.8757357429
| 16>  H       -0.7138110098    -0.7551024354    -0.1777933514
| 17>  H        1.8376365115    -0.5350106590    -0.8228380315
| 18>  H       -0.1001353544     0.4583836657     2.7998333366
| 19>  H       -1.4542292645    -1.5004618784     3.5893067251
| 20>  H       -1.8360528453    -1.0550481216     1.9150673754
| 21>  H       -0.8176068277    -2.4767961052     2.2559379902
| 22>  H        1.9355336711    -1.1997292009     3.0851749168
| 23> *
| 24>
| 25>                          ****END OF INPUT****

CARTESIAN COORDINATES (ANGSTROEM)
---------------------------------
  C     -0.371741    1.354379    0.098283
  C      0.151315   -0.083658   -0.043865
  O      0.999260   -0.181349   -1.157832
  C      0.884970   -0.553146    1.209699
  O      2.043623   -0.916396    1.118861
  C      0.201341   -0.578655    2.574291
  C     -1.059268   -1.457630    2.571667
  O      1.102467   -1.029391    3.551168
  H      0.447530    2.041075    0.330715
  H     -0.812194    1.658847   -0.853936
  H     -1.136992    1.435257    0.875736
  H     -0.713811   -0.755102   -0.177793
  H      1.837637   -0.535011   -0.822838
  H     -0.100135    0.458384    2.799833
  H     -1.454229   -1.500462    3.589307
  H     -1.836053   -1.055048    1.915067
  H     -0.817607   -2.476796    2.255938
  H      1.935534   -1.199729    3.085175

 Total Charge           Charge          ....    0
 Multiplicity           Mult            ....    1
 Number of Electrons    NEL             ....   64
 Basis Dimension        Dim             ....  308

ORBITAL ENERGIES
----------------

  NO   OCC          E(Eh)            E(eV)
   0   2.0000     -20.582360      -560.0745
   1   2.0000     -20.561110      -559.4962
   2   2.0000     -20.561106      -559.4961
   3   2.0000     -11.354951      -308.9839
   4   2.0000     -11.309614      -307.7502
   5   2.0000     -11.309592      -307.7497
   6   2.0000     -11.240135      -305.8596
   7   2.0000     -11.240133      -305.8596
   8   2.0000      -1.437899       -39.1272
   9   2.0000      -1.377373       -37.4802
  10   2.0000      -1.361994       -37.0617
  11   2.0000      -1.074800       -29.2468
  12   2.0000      -1.025229       -27.8979
  13   2.0000      -0.920981       -25.0612
  14   2.0000      -0.870736       -23.6939
  15   2.0000      -0.773737       -21.0544
  16   2.0000      -0.754300       -20.5256
  17   2.0000      -0.707491       -19.2518
  18   2.0000      -0.678003       -18.4494
  19   2.0000      -0.651251       -17.7214
  20   2.0000      -0.611681       -16.6447
  21   2.0000      -0.592885       -16.1332
  22   2.0000      -0.577796       -15.7226
  23   2.0000      -0.575625       -15.6635
  24   2.0000      -0.556583       -15.1454
  25   2.0000      -0.555172       -15.1070
  26   2.0000      -0.534504       -14.5446
  27   2.0000      -0.533499       -14.5172
  28   2.0000      -0.532977       -14.5030
  29   2.0000      -0.459628       -12.5071
  30   2.0000      -0.454129       -12.3575
  31   2.0000      -0.439719       -11.9654
  32   0.0000       0.113546         3.0898
  33   0.0000       0.124226         3.3804
  34   0.0000       0.150828         4.1042
  35   0.0000       0.174216         4.7406
  36   0.0000       0.193285         5.2596

MULLIKEN ATOMIC CHARGES
-----------------------
   0 C :   -0.390555
   1 C :    0.071756
   2 O :   -0.476314
   3 C :    0.213490
   4 O :   -0.357890
   5 C :    0.071720
   6 C :   -0.390549
   7 O :   -0.476309
   8 H :    0.134297
   9 H :    0.153400
  10 H :    0.126649
  11 H :    0.115530
  12 H :    0.337450
  13 H :    0.115527
  14 H :    0.153401
  15 H :    0.126650
  16 H :    0.134297
  17 H :    0.337448
Sum of atomic charges:    0.0000000

LOEWDIN ATOMIC CHARGES
----------------------
   0 C :   -0.283693
   1 C :   -0.358132
   2 O :   -0.004195
   3 C :   -0.278370
   4 O :    0.132522
   5 C :   -0.358126
   6 C :   -0.283695
   7 O :   -0.004193
   8 H :    0.128712
   9 H :    0.133118
  10 H :    0.123408
  11 H :    0.151834
  12 H :    0.181871
  13 H :    0.151830
  14 H :    0.133118
  15 H :    0.123408
  16 H :    0.128712
  17 H :    0.181870

  Mayer bond orders larger than 0.1
B(  0-C ,  1-C ) :   0.8675 B(  0-C ,  8-H ) :   0.9303 B(  0-C ,  9-H ) :   0.9318
B(  0-C , 10-H ) :   0.9208 B(  1-C ,  2-O ) :   1.0679 B(  1-C ,  3-C ) :   0.9299
B(  1-C , 11-H ) :   0.9233 B(  2-O , 12-H ) :   0.8041 B(  3-C ,  4-O ) :   1.8042
B(  3-C ,  5-C ) :   0.9299 B(  5-C ,  6-C ) :   0.8675 B(  5-C ,  7-O ) :   1.0679
B(  5-C , 13-H ) :   0.9233 B(  6-C , 14-H ) :   0.9318 B(  6-C , 15-H ) :   0.9208
B(  6-C , 16-H ) :   0.9303 B(  7-O , 17-H ) :   0.8041

MP2 TOTAL ENERGY:     -421.438519791 Eh
FINAL SINGLE POINT ENERGY      -421.438519791294

DIPOLE MOMENT
-------------
                                X             Y             Z
Electronic contribution:      6.58009      -2.06218      -0.51522
Nuclear contribution   :     -7.31866       2.29368       0.57312
                        -----------------------------------------
Total Dipole Moment    :     -0.73856       0.23150       0.05791
                        -----------------------------------------
Magnitude (a.u.)       :      0.77616
Magnitude (Debye)      :      1.97284

                             ****ORCA TERMINATED NORMALLY****
TOTAL RUN TIME: 0 days 0 hours 11 minutes 56 seconds 89 msec
