                         Program Version 3.0.3 - RELEASE   -
|  1> ! RI-MP2 RIJK def2-TZVP def2-TZVP/C def2-TZVP/JK TIGHTSCF
|  2> % maxcore 2000
|  3> % mp2 density relaxed end
|  4> *xyz 0 1
|  5>  C       -0.0703106443     1.5894423679     0.1240615386
|  6>  C        1.4546769011     1.3552916762     0.0384121925
|  7>  O        1.2565404674     0.1004260418     0.7772370203
|  8>  C       -0.0059842195     0.0549842373     0.0334899492
|  9>  C        0.5185393965    -0.2106052915    -1.3954149513
| 10>  O       -0.3762897047     0.2019024820    -2.4140619642
| 11>  C        0.3768109267     0.9161160021    -3.3888580754
| 12>  C        1.4322893314     1.7173656372    -2.6016348204
| 13>  C        1.7048521133     0.8108444925    -1.3857237552
| 14>  H       -0.3659007883     1.9189981224     1.1200005229
| 15>  H       -0.5887637295     2.1462225081    -0.6571937956
| 16>  H        2.1903786655     2.0242526304     0.4851022574
| 17>  H       -0.7564389879    -0.6120135304     0.4556134027
| 18>  H        0.8259110029    -1.2534538828    -1.5358916024
| 19>  H        0.8659965815     0.2159212463    -4.0851150706
| 20>  H       -0.3188276722     1.5361137598    -3.9611333689
| 21>  H        2.3289456354     1.9106204964    -3.1953642748
| 22>  H        1.0244593222     2.6850295865    -2.2935946714
| 23>  H        2.6802696323     0.3249231779    -1.4337762032
| 24> *
| 25>
| 26>                          ****END OF INPUT****

CARTESIAN COORDINATES (ANGSTROEM)
---------------------------------
  C     -0.070311    1.589442    0.124062
  C      1.454677    1.355292    0.038412
  O      1.256540    0.100426    0.777237
  C     -0.005984    0.054984    0.033490
  C      0.518539   -0.210605   -1.395415
  O     -0.376290    0.201902   -2.414062
  C      0.376811    0.916116   -3.388858
  C      1.432289    1.717366   -2.601635
  C      1.704852    0.810844   -1.385724
  H     -0.365901    1.918998    1.120001
  H     -0.588764    2.146223   -0.657194
  H      2.190379    2.024253    0.485102
  H     -0.756439   -0.612014    0.455613
  H      0.825911   -1.253454   -1.535892
  H      0.865997    0.215921   -4.085115
  H     -0.318828    1.536114   -3.961133
  H      2.328946    1.910620   -3.195364
  H      1.024459    2.685030   -2.293595
  H      2.680270    0.324923   -1.433776

 Total Charge           Charge          ....    0
 Multiplicity           Mult            ....    1
 Number of Electrons    NEL             ....   68
 Basis Dimension        Dim             ....  339

ORBITAL ENERGIES
----------------

  NO   OCC          E(Eh)            E(eV)
   0   2.0000     -20.555660      -559.3480
   1   2.0000     -20.548847      -559.1626
   2   2.0000     -11.289519      -307.2034
   3   2.0000     -11.284860      -307.0767
   4   2.0000     -11.279150      -306.9213
   5   2.0000     -11.278051      -306.8914
   6   2.0000     -11.234106      -305.6956
   7   2.0000     -11.231683      -305.6296
   8   2.0000     -11.228658      -305.5473
   9   2.0000      -1.396644       -38.0046
  10   2.0000      -1.372843       -37.3570
  11   2.0000      -1.082199       -29.4481
  12   2.0000      -1.032637       -28.0995
  13   2.0000      -0.971009       -26.4225
  14   2.0000      -0.934904       -25.4400
  15   2.0000      -0.833115       -22.6702
  16   2.0000      -0.764856       -20.8128
  17   2.0000      -0.757155       -20.6032
  18   2.0000      -0.718467       -19.5505
  19   2.0000      -0.677029       -18.4229
  20   2.0000      -0.662726       -18.0337
  21   2.0000      -0.627166       -17.0661
  22   2.0000      -0.607759       -16.5380
  23   2.0000      -0.578651       -15.7459
  24   2.0000      -0.552487       -15.0339
  25   2.0000      -0.536863       -14.6088
  26   2.0000      -0.518767       -14.1164
  27   2.0000      -0.504129       -13.7181
  28   2.0000      -0.489179       -13.3112
  29   2.0000      -0.465500       -12.6669
  30   2.0000      -0.458474       -12.4757
  31   2.0000      -0.451686       -12.2910
  32   2.0000      -0.429161       -11.6781
  33   2.0000      -0.404396       -11.0042
  34   0.0000       0.137988         3.7548
  35   0.0000       0.159080         4.3288
  36   0.0000       0.163734         4.4554
  37   0.0000       0.171132         4.6567
  38   0.0000       0.194201         5.2845

MULLIKEN ATOMIC CHARGES
-----------------------
   0 C :   -0.238481
   1 C :   -0.022699
   2 O :   -0.317212
   3 C :    0.021702
   4 C :    0.066546
   5 O :   -0.329289
   6 C :   -0.023068
   7 C :   -0.308896
   8 C :   -0.034578
   9 H :    0.125081
  10 H :    0.126909
  11 H :    0.127181
  12 H :    0.133816
  13 H :    0.095108
  14 H :    0.094237
  15 H :    0.115672
  16 H :    0.129870
  17 H :    0.122568
  18 H :    0.115534
Sum of atomic charges:   -0.0000000

LOEWDIN ATOMIC CHARGES
----------------------
   0 C :   -0.202975
   1 C :   -0.233180
   2 O :    0.153558
   3 C :   -0.233252
   4 C :   -0.258247
   5 O :    0.170786
   6 C :   -0.301706
   7 C :   -0.239846
   8 C :   -0.196188
   9 H :    0.140867
  10 H :    0.130690
  11 H :    0.130794
  12 H :    0.131841
  13 H :    0.135431
  14 H :    0.119496
  15 H :    0.125302
  16 H :    0.137016
  17 H :    0.138731
  18 H :    0.150882

  Mayer bond orders larger than 0.1
B(  0-C ,  1-C ) :   0.9588 B(  0-C ,  3-C ) :   0.9397 B(  0-C ,  9-H ) :   0.9215
B(  0-C , 10-H ) :   0.9174 B(  1-C ,  2-O ) :   0.9128 B(  1-C ,  8-C ) :   0.9291
B(  1-C , 11-H ) :   0.9154 B(  2-O ,  3-C ) :   0.9272 B(  3-C ,  4-C ) :   0.9163
B(  3-C , 12-H ) :   0.9131 B(  4-C ,  5-O ) :   0.9739 B(  4-C ,  8-C ) :   0.9410
B(  4-C , 13-H ) :   0.9273 B(  5-O ,  6-C ) :   0.9352 B(  6-C ,  7-C ) :   0.9535
B(  6-C , 14-H ) :   0.9309 B(  6-C , 15-H ) :   0.9236 B(  7-C ,  8-C ) :   0.9007
B(  7-C , 16-H ) :   0.9266 B(  7-C , 17-H ) :   0.9198 B(  8-C , 18-H ) :   0.9118

MP2 TOTAL ENERGY:     -422.308624402 Eh
FINAL SINGLE POINT ENERGY      -422.308624401799

DIPOLE MOMENT
-------------
                                X             Y             Z
Electronic contribution:     -0.69651      -2.85985       2.91586
Nuclear contribution   :      0.91952       3.46177      -3.41859
                        -----------------------------------------
Total Dipole Moment    :      0.22302       0.60192      -0.50273
                        -----------------------------------------
Magnitude (a.u.)       :      0.81534
Magnitude (Debye)      :      2.07244

                             ****ORCA TERMINATED NORMALLY****
TOTAL RUN TIME: 0 days 0 hours 18 minutes 19 seconds 750 msec
