                         Program Version 3.0.3 - RELEASE   -
|  1> ! RI-MP2 RIJK def2-TZVP def2-TZVP/C def2-TZVP/JK TIGHTSCF
|  2> % maxcore 2000
|  3> % mp2 density relaxed end
|  4> *xyz 0 1
|  5>  N       -0.6977211711    -0.2726727982    -1.3561887297
|  6>  C       -0.2937346597     0.3555513906    -0.4748499906
|  7>  C        0.2350429789     1.1567061291     0.6273528826
|  8>  C        1.5120229439     1.8666018362     0.2708680746
|  9>  C        2.2116096509     1.8561902762    -0.9067913771
| 10>  N        3.2973128518     2.6736036973    -0.6837953487
| 11>  C        3.2052847415     3.1314775872     0.5952706163
| 12>  N        2.1386019551     2.6637779501     1.2010809990
| 13>  H       -0.5281181847     1.8826741689     0.9333605149
| 14>  H        0.3953588897     0.5029014704     1.4933309450
| 15>  H        2.0415716822     1.3608826122    -1.8475533241
| 16>  H        4.0225586629     2.8886689672    -1.3472705052
| 17>  H        3.9383289186     3.7969059427     1.0258763930
| 18> *
| 19>
| 20>                          ****END OF INPUT****

CARTESIAN COORDINATES (ANGSTROEM)
---------------------------------
  N     -0.697721   -0.272673   -1.356189
  C     -0.293735    0.355551   -0.474850
  C      0.235043    1.156706    0.627353
  C      1.512023    1.866602    0.270868
  C      2.211610    1.856190   -0.906791
  N      3.297313    2.673604   -0.683795
  C      3.205285    3.131478    0.595271
  N      2.138602    2.663778    1.201081
  H     -0.528118    1.882674    0.933361
  H      0.395359    0.502901    1.493331
  H      2.041572    1.360883   -1.847553
  H      4.022559    2.888669   -1.347271
  H      3.938329    3.796906    1.025876

 Total Charge           Charge          ....    0
 Multiplicity           Mult            ....    1
 Number of Electrons    NEL             ....   56
 Basis Dimension        Dim             ....  278

ORBITAL ENERGIES
----------------

  NO   OCC          E(Eh)            E(eV)
   0   2.0000     -15.634497      -425.4363
   1   2.0000     -15.568934      -423.6522
   2   2.0000     -15.560057      -423.4107
   3   2.0000     -11.312606      -307.8317
   4   2.0000     -11.285901      -307.1050
   5   2.0000     -11.274608      -306.7977
   6   2.0000     -11.273868      -306.7775
   7   2.0000     -11.272148      -306.7307
   8   2.0000      -1.357803       -36.9477
   9   2.0000      -1.219856       -33.1940
  10   2.0000      -1.186978       -32.2993
  11   2.0000      -1.077593       -29.3228
  12   2.0000      -0.990059       -26.9409
  13   2.0000      -0.848597       -23.0915
  14   2.0000      -0.801482       -21.8094
  15   2.0000      -0.768338       -20.9075
  16   2.0000      -0.695945       -18.9376
  17   2.0000      -0.645326       -17.5602
  18   2.0000      -0.616863       -16.7857
  19   2.0000      -0.608758       -16.5652
  20   2.0000      -0.600589       -16.3428
  21   2.0000      -0.595002       -16.1908
  22   2.0000      -0.552314       -15.0292
  23   2.0000      -0.464137       -12.6298
  24   2.0000      -0.462243       -12.5783
  25   2.0000      -0.454636       -12.3713
  26   2.0000      -0.412815       -11.2333
  27   2.0000      -0.334351        -9.0981
  28   0.0000       0.117890         3.2079
  29   0.0000       0.138259         3.7622
  30   0.0000       0.145377         3.9559
  31   0.0000       0.168799         4.5933
  32   0.0000       0.171803         4.6750

MULLIKEN ATOMIC CHARGES
-----------------------
   0 N :   -0.068585
   1 C :   -0.182409
   2 C :   -0.080444
   3 C :    0.001867
   4 C :   -0.095479
   5 N :   -0.249169
   6 C :    0.057642
   7 N :   -0.306038
   8 H :    0.166715
   9 H :    0.166700
  10 H :    0.175801
  11 H :    0.256614
  12 H :    0.156786
Sum of atomic charges:   -0.0000000

LOEWDIN ATOMIC CHARGES
----------------------
   0 N :    0.054924
   1 C :   -0.181901
   2 C :   -0.204475
   3 C :   -0.265191
   4 C :   -0.207691
   5 N :    0.180172
   6 C :   -0.308589
   7 N :    0.109949
   8 H :    0.174589
   9 H :    0.174591
  10 H :    0.145008
  11 H :    0.196402
  12 H :    0.132211

  Mayer bond orders larger than 0.1
B(  0-N ,  1-C ) :   2.8616 B(  1-C ,  2-C ) :   0.9253 B(  2-C ,  3-C ) :   0.9197
B(  2-C ,  8-H ) :   0.9025 B(  2-C ,  9-H ) :   0.9024 B(  3-C ,  4-C ) :   1.5340
B(  3-C ,  7-N ) :   1.2743 B(  4-C ,  5-N ) :   1.1289 B(  4-C , 10-H ) :   0.8937
B(  5-N ,  6-C ) :   1.1719 B(  5-N , 11-H ) :   0.8670 B(  6-C ,  7-N ) :   1.5380
B(  6-C , 12-H ) :   0.9249

MP2 TOTAL ENERGY:     -357.077316774 Eh
FINAL SINGLE POINT ENERGY      -357.077316773577

DIPOLE MOMENT
-------------
                                X             Y             Z
Electronic contribution:     -0.85189      -0.90442      -0.82458
Nuclear contribution   :      2.30533       1.81898       0.68313
                        -----------------------------------------
Total Dipole Moment    :      1.45345       0.91457      -0.14145
                        -----------------------------------------
Magnitude (a.u.)       :      1.72307
Magnitude (Debye)      :      4.37969

                             ****ORCA TERMINATED NORMALLY****
TOTAL RUN TIME: 0 days 0 hours 9 minutes 26 seconds 617 msec
