                         Program Version 3.0.3 - RELEASE   -
|  1> ! RI-MP2 RIJK def2-TZVP def2-TZVP/C def2-TZVP/JK TIGHTSCF
|  2> % maxcore 2000
|  3> % mp2 density relaxed end
|  4> *xyz 0 1
|  5>  C       -0.1262916478     1.4900779443     0.0629008726
|  6>  N       -0.1534800305     0.0497009228     0.2779357631
|  7>  C       -1.4200349104    -0.6110382752    -0.0648771299
|  8>  C       -1.7686043892    -0.6386457295    -1.5626321732
|  9>  C       -1.3686531010    -2.0041584220     0.4899391877
| 10>  N       -0.9015776829    -3.0745888756    -0.0730909700
| 11>  C       -1.0281701335    -4.0642288649     0.8941470291
| 12>  C       -1.5787601534    -3.5250388407     2.0052808159
| 13>  O       -1.8041299602    -2.2001803467     1.7602539754
| 14>  H        0.8506464708     1.8769584138     0.3674940931
| 15>  H       -0.3101849810     1.8182186183    -0.9739245514
| 16>  H       -0.8818848390     1.9643414071     0.6997805750
| 17>  H        0.6008884644    -0.4017455717    -0.2298251463
| 18>  H       -2.2053740047    -0.0753756821     0.4824963543
| 19>  H       -1.7807648398     0.3735702764    -1.9752456223
| 20>  H       -1.0362042138    -1.2378937672    -2.1104794361
| 21>  H       -2.7546402525    -1.0837631064    -1.7273642494
| 22>  H       -0.7186970842    -5.0813241571     0.7139110383
| 23>  H       -1.8667483613    -3.8930062537     2.9746958741
| 24> *
| 25>
| 26>                          ****END OF INPUT****

CARTESIAN COORDINATES (ANGSTROEM)
---------------------------------
  C     -0.126292    1.490078    0.062901
  N     -0.153480    0.049701    0.277936
  C     -1.420035   -0.611038   -0.064877
  C     -1.768604   -0.638646   -1.562632
  C     -1.368653   -2.004158    0.489939
  N     -0.901578   -3.074589   -0.073091
  C     -1.028170   -4.064229    0.894147
  C     -1.578760   -3.525039    2.005281
  O     -1.804130   -2.200180    1.760254
  H      0.850646    1.876958    0.367494
  H     -0.310185    1.818219   -0.973925
  H     -0.881885    1.964341    0.699781
  H      0.600888   -0.401746   -0.229825
  H     -2.205374   -0.075376    0.482496
  H     -1.780765    0.373570   -1.975246
  H     -1.036204   -1.237894   -2.110479
  H     -2.754640   -1.083763   -1.727364
  H     -0.718697   -5.081324    0.713911
  H     -1.866748   -3.893006    2.974696

 Total Charge           Charge          ....    0
 Multiplicity           Mult            ....    1
 Number of Electrons    NEL             ....   68
 Basis Dimension        Dim             ....  339

ORBITAL ENERGIES
----------------

  NO   OCC          E(Eh)            E(eV)
   0   2.0000     -20.630264      -561.3780
   1   2.0000     -15.556108      -423.3032
   2   2.0000     -15.549228      -423.1160
   3   2.0000     -11.328603      -308.2670
   4   2.0000     -11.286447      -307.1198
   5   2.0000     -11.276508      -306.8494
   6   2.0000     -11.255890      -306.2883
   7   2.0000     -11.248090      -306.0761
   8   2.0000     -11.219214      -305.2903
   9   2.0000      -1.480186       -40.2779
  10   2.0000      -1.231027       -33.4979
  11   2.0000      -1.210534       -32.9403
  12   2.0000      -1.057545       -28.7773
  13   2.0000      -0.992762       -27.0144
  14   2.0000      -0.916474       -24.9385
  15   2.0000      -0.860052       -23.4032
  16   2.0000      -0.827377       -22.5141
  17   2.0000      -0.779142       -21.2015
  18   2.0000      -0.726957       -19.7815
  19   2.0000      -0.661858       -18.0101
  20   2.0000      -0.654976       -17.8228
  21   2.0000      -0.624782       -17.0012
  22   2.0000      -0.615505       -16.7487
  23   2.0000      -0.594495       -16.1770
  24   2.0000      -0.571913       -15.5625
  25   2.0000      -0.562291       -15.3007
  26   2.0000      -0.548666       -14.9300
  27   2.0000      -0.532959       -14.5025
  28   2.0000      -0.509640       -13.8680
  29   2.0000      -0.500587       -13.6217
  30   2.0000      -0.455118       -12.3844
  31   2.0000      -0.447916       -12.1884
  32   2.0000      -0.376427       -10.2431
  33   2.0000      -0.334969        -9.1150
  34   0.0000       0.139473         3.7952
  35   0.0000       0.145226         3.9518
  36   0.0000       0.169597         4.6150
  37   0.0000       0.174706         4.7540
  38   0.0000       0.181824         4.9477

MULLIKEN ATOMIC CHARGES
-----------------------
   0 C :   -0.308823
   1 N :   -0.333348
   2 C :   -0.029470
   3 C :   -0.393415
   4 C :    0.314074
   5 N :   -0.299423
   6 C :   -0.116251
   7 C :   -0.028551
   8 O :   -0.201487
   9 H :    0.140633
  10 H :    0.110541
  11 H :    0.129673
  12 H :    0.207968
  13 H :    0.103661
  14 H :    0.133917
  15 H :    0.142140
  16 H :    0.130231
  17 H :    0.142157
  18 H :    0.155771
Sum of atomic charges:    0.0000000

LOEWDIN ATOMIC CHARGES
----------------------
   0 C :   -0.353278
   1 N :   -0.021086
   2 C :   -0.304047
   3 C :   -0.289942
   4 C :   -0.321708
   5 N :    0.122023
   6 C :   -0.254000
   7 C :   -0.248021
   8 O :    0.358344
   9 H :    0.117581
  10 H :    0.097299
  11 H :    0.116559
  12 H :    0.172126
  13 H :    0.158637
  14 H :    0.121075
  15 H :    0.129365
  16 H :    0.128175
  17 H :    0.136528
  18 H :    0.134370

  Mayer bond orders larger than 0.1
B(  0-C ,  1-N ) :   0.9308 B(  0-C ,  9-H ) :   0.9394 B(  0-C , 10-H ) :   0.9281
B(  0-C , 11-H ) :   0.9390 B(  1-N ,  2-C ) :   0.9950 B(  1-N , 12-H ) :   0.8785
B(  2-C ,  3-C ) :   0.9408 B(  2-C ,  4-C ) :   0.8926 B(  2-C , 13-H ) :   0.9228
B(  3-C , 14-H ) :   0.9373 B(  3-C , 15-H ) :   0.9204 B(  3-C , 16-H ) :   0.9314
B(  4-C ,  5-N ) :   1.5985 B(  4-C ,  8-O ) :   1.0841 B(  5-N ,  6-C ) :   1.1954
B(  6-C ,  7-C ) :   1.5975 B(  6-C , 17-H ) :   0.9318 B(  7-C ,  8-O ) :   1.0407
B(  7-C , 18-H ) :   0.9242

MP2 TOTAL ENERGY:     -418.518388066 Eh
FINAL SINGLE POINT ENERGY      -418.518388065819

DIPOLE MOMENT
-------------
                                X             Y             Z
Electronic contribution:     -1.21210      -8.97997       5.55825
Nuclear contribution   :      1.03267       9.15850      -5.45601
                        -----------------------------------------
Total Dipole Moment    :     -0.17943       0.17852       0.10224
                        -----------------------------------------
Magnitude (a.u.)       :      0.27298
Magnitude (Debye)      :      0.69387

                             ****ORCA TERMINATED NORMALLY****
TOTAL RUN TIME: 0 days 0 hours 17 minutes 8 seconds 388 msec
