                         Program Version 3.0.3 - RELEASE   -
|  1> ! RI-MP2 RIJK def2-TZVP def2-TZVP/C def2-TZVP/JK TIGHTSCF
|  2> % maxcore 2000
|  3> % mp2 density relaxed end
|  4> *xyz 0 1
|  5>  O       -0.0912604895    -0.0420637385    -0.0025382646
|  6>  C       -0.0248998492     1.1718084231     0.0086171499
|  7>  C        1.2187779560     1.9169594166     0.0022534199
|  8>  C        1.2069956975     3.2654481422     0.0157409352
|  9>  N        2.3522908335     4.0072939399     0.0104676359
| 10>  C        3.6388799663     3.4413923859    -0.0133272902
| 11>  O        4.6271948541     4.1457774324    -0.0195341647
| 12>  N        3.6544309547     2.0809519863    -0.0287293703
| 13>  C        2.5185826241     1.1589232842    -0.0189698584
| 14>  H       -0.9440870996     1.8009366194     0.0249027198
| 15>  H        0.2761832798     3.8239225537     0.0316072377
| 16>  H        2.3373434104     5.0138387115     0.0198295601
| 17>  H        4.5850896005     1.6951071566    -0.0449725613
| 18>  H        2.5757115426     0.4940096478     0.8536543145
| 19>  H        2.5528885689     0.5045004588    -0.9005372334
| 20> *
| 21>
| 22>                          ****END OF INPUT****

CARTESIAN COORDINATES (ANGSTROEM)
---------------------------------
  O     -0.091260   -0.042064   -0.002538
  C     -0.024900    1.171808    0.008617
  C      1.218778    1.916959    0.002253
  C      1.206996    3.265448    0.015741
  N      2.352291    4.007294    0.010468
  C      3.638880    3.441392   -0.013327
  O      4.627195    4.145777   -0.019534
  N      3.654431    2.080952   -0.028729
  C      2.518583    1.158923   -0.018970
  H     -0.944087    1.800937    0.024903
  H      0.276183    3.823923    0.031607
  H      2.337343    5.013839    0.019830
  H      4.585090    1.695107   -0.044973
  H      2.575712    0.494010    0.853654
  H      2.552889    0.504500   -0.900537

 Total Charge           Charge          ....    0
 Multiplicity           Mult            ....    1
 Number of Electrons    NEL             ....   66
 Basis Dimension        Dim             ....  315

ORBITAL ENERGIES
----------------

  NO   OCC          E(Eh)            E(eV)
   0   2.0000     -20.550270      -559.2013
   1   2.0000     -20.527555      -558.5832
   2   2.0000     -15.625538      -425.1925
   3   2.0000     -15.599716      -424.4898
   4   2.0000     -11.399101      -310.1853
   5   2.0000     -11.337228      -308.5017
   6   2.0000     -11.331923      -308.3573
   7   2.0000     -11.293826      -307.3206
   8   2.0000     -11.252753      -306.2030
   9   2.0000      -1.415824       -38.5265
  10   2.0000      -1.388275       -37.7769
  11   2.0000      -1.297358       -35.3029
  12   2.0000      -1.235181       -33.6110
  13   2.0000      -1.102701       -30.0060
  14   2.0000      -0.963955       -26.2306
  15   2.0000      -0.917709       -24.9721
  16   2.0000      -0.859659       -23.3925
  17   2.0000      -0.749410       -20.3925
  18   2.0000      -0.742874       -20.2146
  19   2.0000      -0.715118       -19.4594
  20   2.0000      -0.682737       -18.5782
  21   2.0000      -0.668918       -18.2022
  22   2.0000      -0.655824       -17.8459
  23   2.0000      -0.634911       -17.2768
  24   2.0000      -0.603205       -16.4140
  25   2.0000      -0.596818       -16.2403
  26   2.0000      -0.551972       -15.0199
  27   2.0000      -0.548975       -14.9384
  28   2.0000      -0.506770       -13.7899
  29   2.0000      -0.459054       -12.4915
  30   2.0000      -0.433253       -11.7894
  31   2.0000      -0.412610       -11.2277
  32   2.0000      -0.347857        -9.4657
  33   0.0000       0.082590         2.2474
  34   0.0000       0.116596         3.1727
  35   0.0000       0.136059         3.7024
  36   0.0000       0.158123         4.3027
  37   0.0000       0.174898         4.7592

MULLIKEN ATOMIC CHARGES
-----------------------
   0 O :   -0.306273
   1 C :    0.053832
   2 C :   -0.016329
   3 C :   -0.009320
   4 N :   -0.282008
   5 C :    0.319727
   6 O :   -0.361067
   7 N :   -0.325872
   8 C :   -0.093489
   9 H :    0.071282
  10 H :    0.153220
  11 H :    0.262152
  12 H :    0.255051
  13 H :    0.139362
  14 H :    0.139732
Sum of atomic charges:    0.0000000

LOEWDIN ATOMIC CHARGES
----------------------
   0 O :    0.107547
   1 C :   -0.294831
   2 C :   -0.206404
   3 C :   -0.158179
   4 N :    0.150830
   5 C :   -0.527180
   6 O :    0.068467
   7 N :    0.120012
   8 C :   -0.220750
   9 H :    0.117035
  10 H :    0.153702
  11 H :    0.203876
  12 H :    0.197706
  13 H :    0.144008
  14 H :    0.144161

  Mayer bond orders larger than 0.1
B(  0-O ,  1-C ) :   1.9510 B(  0-O ,  2-C ) :  -0.1005 B(  1-C ,  2-C ) :   0.9215
B(  1-C ,  9-H ) :   0.9879 B(  2-C ,  3-C ) :   1.5940 B(  2-C ,  8-C ) :   0.9456
B(  2-C ,  9-H ) :  -0.1169 B(  3-C ,  4-N ) :   1.1121 B(  3-C , 10-H ) :   0.8993
B(  4-N ,  5-C ) :   0.9937 B(  4-N , 11-H ) :   0.8615 B(  5-C ,  6-O ) :   1.9850
B(  5-C ,  7-N ) :   1.1927 B(  7-N ,  8-C ) :   0.8698 B(  7-N , 12-H ) :   0.8649
B(  8-C , 13-H ) :   0.9215 B(  8-C , 14-H ) :   0.9215

MP2 TOTAL ENERGY:     -453.273743956 Eh
FINAL SINGLE POINT ENERGY      -453.273743955671

DIPOLE MOMENT
-------------
                                X             Y             Z
Electronic contribution:      0.99366       1.32220      -0.00313
Nuclear contribution   :     -1.40246      -0.70238       0.01616
                        -----------------------------------------
Total Dipole Moment    :     -0.40879       0.61982       0.01303
                        -----------------------------------------
Magnitude (a.u.)       :      0.74260
Magnitude (Debye)      :      1.88755

                             ****ORCA TERMINATED NORMALLY****
TOTAL RUN TIME: 0 days 0 hours 13 minutes 57 seconds 791 msec
