                         Program Version 3.0.3 - RELEASE   -
|  1> ! RI-MP2 RIJK def2-TZVP def2-TZVP/C def2-TZVP/JK TIGHTSCF
|  2> % maxcore 2000
|  3> % mp2 density relaxed end
|  4> *xyz 0 1
|  5>  C       -0.1041530743     1.5318593861    -0.0212914344
|  6>  C        0.0542092936     0.0268042338     0.0012088096
|  7>  C        1.1254385093    -0.7037839843    -0.8519226759
|  8>  N        1.1830776651    -1.7765426677     0.2083558567
|  9>  C        0.7350560755    -0.7144300013     1.1827917196
| 10>  C        0.0525432791    -2.6952682243    -0.0133606495
| 11>  C       -1.3093476174    -2.0115508838    -0.2710097652
| 12>  O       -2.3372629848    -2.6268451293    -0.4717044220
| 13>  N       -1.2234029086    -0.6468441950    -0.2474151146
| 14>  H        0.8561023018     2.0197979234     0.1653995823
| 15>  H       -0.4755000335     1.8727044399    -0.9941594593
| 16>  H       -0.8096931389     1.8635888161     0.7485875172
| 17>  H        0.8372927103    -1.0402827190    -1.8515017028
| 18>  H        2.0816794812    -0.1742729881    -0.8927261964
| 19>  H        1.6072710396    -0.1872082526     1.5799333280
| 20>  H        0.0980856167    -1.0604406426     2.0013038786
| 21>  H        0.2702061039    -3.3410910948    -0.8701112128
| 22>  H       -0.0610249335    -3.3501726223     0.8565160714
| 23>  H       -2.0681360750    -0.1183463942    -0.4068837705
| 24> *
| 25>
| 26>                          ****END OF INPUT****

CARTESIAN COORDINATES (ANGSTROEM)
---------------------------------
  C     -0.104153    1.531859   -0.021291
  C      0.054209    0.026804    0.001209
  C      1.125439   -0.703784   -0.851923
  N      1.183078   -1.776543    0.208356
  C      0.735056   -0.714430    1.182792
  C      0.052543   -2.695268   -0.013361
  C     -1.309348   -2.011551   -0.271010
  O     -2.337263   -2.626845   -0.471704
  N     -1.223403   -0.646844   -0.247415
  H      0.856102    2.019798    0.165400
  H     -0.475500    1.872704   -0.994159
  H     -0.809693    1.863589    0.748588
  H      0.837293   -1.040283   -1.851502
  H      2.081679   -0.174273   -0.892726
  H      1.607271   -0.187208    1.579933
  H      0.098086   -1.060441    2.001304
  H      0.270206   -3.341091   -0.870111
  H     -0.061025   -3.350173    0.856516
  H     -2.068136   -0.118346   -0.406884

 Total Charge           Charge          ....    0
 Multiplicity           Mult            ....    1
 Number of Electrons    NEL             ....   68
 Basis Dimension        Dim             ....  339

ORBITAL ENERGIES
----------------

  NO   OCC          E(Eh)            E(eV)
   0   2.0000     -20.514323      -558.2231
   1   2.0000     -15.582129      -424.0113
   2   2.0000     -15.568153      -423.6310
   3   2.0000     -11.345989      -308.7401
   4   2.0000     -11.295291      -307.3605
   5   2.0000     -11.265570      -306.5517
   6   2.0000     -11.265565      -306.5516
   7   2.0000     -11.265262      -306.5434
   8   2.0000     -11.242076      -305.9124
   9   2.0000      -1.380301       -37.5599
  10   2.0000      -1.294407       -35.2226
  11   2.0000      -1.201943       -32.7065
  12   2.0000      -1.063511       -28.9396
  13   2.0000      -0.978365       -26.6227
  14   2.0000      -0.935192       -25.4479
  15   2.0000      -0.883243       -24.0343
  16   2.0000      -0.822838       -22.3906
  17   2.0000      -0.765373       -20.8269
  18   2.0000      -0.687758       -18.7148
  19   2.0000      -0.653181       -17.7740
  20   2.0000      -0.642519       -17.4838
  21   2.0000      -0.628073       -17.0907
  22   2.0000      -0.624749       -17.0003
  23   2.0000      -0.607408       -16.5284
  24   2.0000      -0.578001       -15.7282
  25   2.0000      -0.560283       -15.2461
  26   2.0000      -0.557950       -15.1826
  27   2.0000      -0.550226       -14.9724
  28   2.0000      -0.499808       -13.6005
  29   2.0000      -0.484187       -13.1754
  30   2.0000      -0.477945       -13.0055
  31   2.0000      -0.440030       -11.9738
  32   2.0000      -0.383727       -10.4417
  33   2.0000      -0.366890        -9.9836
  34   0.0000       0.118581         3.2267
  35   0.0000       0.149756         4.0751
  36   0.0000       0.163676         4.4539
  37   0.0000       0.165542         4.5046
  38   0.0000       0.175648         4.7796

MULLIKEN ATOMIC CHARGES
-----------------------
   0 C :   -0.415841
   1 C :    0.272279
   2 C :   -0.227190
   3 N :   -0.156780
   4 C :   -0.227194
   5 C :   -0.175145
   6 C :    0.171126
   7 O :   -0.341075
   8 N :   -0.351364
   9 H :    0.139474
  10 H :    0.145823
  11 H :    0.145829
  12 H :    0.125977
  13 H :    0.123375
  14 H :    0.123378
  15 H :    0.125976
  16 H :    0.146563
  17 H :    0.146554
  18 H :    0.228236
Sum of atomic charges:    0.0000000

LOEWDIN ATOMIC CHARGES
----------------------
   0 C :   -0.274278
   1 C :   -0.321641
   2 C :   -0.203630
   3 N :    0.075812
   4 C :   -0.203626
   5 C :   -0.257413
   6 C :   -0.454275
   7 O :    0.080124
   8 N :    0.149105
   9 H :    0.133927
  10 H :    0.131254
  11 H :    0.131256
  12 H :    0.129327
  13 H :    0.134441
  14 H :    0.134442
  15 H :    0.129327
  16 H :    0.148493
  17 H :    0.148488
  18 H :    0.188868

  Mayer bond orders larger than 0.1
B(  0-C ,  1-C ) :   0.8602 B(  0-C ,  9-H ) :   0.9372 B(  0-C , 10-H ) :   0.9379
B(  0-C , 11-H ) :   0.9379 B(  1-C ,  2-C ) :   0.9177 B(  1-C ,  4-C ) :   0.9177
B(  1-C ,  8-N ) :   0.8218 B(  2-C ,  3-N ) :   0.9166 B(  2-C , 12-H ) :   0.9252
B(  2-C , 13-H ) :   0.9154 B(  3-N ,  4-C ) :   0.9166 B(  3-N ,  5-C ) :   0.9286
B(  4-C , 14-H ) :   0.9154 B(  4-C , 15-H ) :   0.9252 B(  5-C ,  6-C ) :   0.8923
B(  5-C , 16-H ) :   0.9199 B(  5-C , 17-H ) :   0.9199 B(  6-C ,  7-O ) :   1.9990
B(  6-C ,  8-N ) :   1.1912 B(  8-N , 18-H ) :   0.8603

MP2 TOTAL ENERGY:     -418.513858200 Eh
FINAL SINGLE POINT ENERGY      -418.513858199794

DIPOLE MOMENT
-------------
                                X             Y             Z
Electronic contribution:     -3.63190      -5.18932      -0.72393
Nuclear contribution   :      4.31603       6.66868       0.86299
                        -----------------------------------------
Total Dipole Moment    :      0.68413       1.47936       0.13906
                        -----------------------------------------
Magnitude (a.u.)       :      1.63581
Magnitude (Debye)      :      4.15790

                             ****ORCA TERMINATED NORMALLY****
TOTAL RUN TIME: 0 days 0 hours 19 minutes 9 seconds 27 msec
