                         Program Version 3.0.3 - RELEASE   -
|  1> ! RI-MP2 RIJK def2-TZVP def2-TZVP/C def2-TZVP/JK TIGHTSCF
|  2> % maxcore 2000
|  3> % mp2 density relaxed end
|  4> *xyz 0 1
|  5>  O        0.2944824825     1.3303482097     0.2196834501
|  6>  C        0.1250977694     0.0139022778    -0.0046136900
|  7>  C        0.0180778120    -0.7893026638    -1.1170315377
|  8>  N       -0.1611853446    -2.0715456290    -0.6891245501
|  9>  N       -0.1686948776    -2.1065021473     0.6065252674
| 10>  N        0.0038025636    -0.8260145937     1.0465240241
| 11>  C        0.0588018858    -0.5263231209     2.4693271526
| 12>  C        1.4057181364    -0.2355011320     2.9528066628
| 13>  C        2.5067777331     0.0081852339     3.3635781505
| 14>  H        0.3647894101     1.7880220956    -0.6242358207
| 15>  H        0.0537793756    -0.5283598614    -2.1620145939
| 16>  H       -0.6070968550     0.3183956615     2.6763489799
| 17>  H       -0.3505031048    -1.4085039698     2.9695162771
| 18>  H        3.4834045734     0.2180395895     3.7247447678
| 19> *
| 20>
| 21>                          ****END OF INPUT****

CARTESIAN COORDINATES (ANGSTROEM)
---------------------------------
  O      0.294482    1.330348    0.219683
  C      0.125098    0.013902   -0.004614
  C      0.018078   -0.789303   -1.117032
  N     -0.161185   -2.071546   -0.689125
  N     -0.168695   -2.106502    0.606525
  N      0.003803   -0.826015    1.046524
  C      0.058802   -0.526323    2.469327
  C      1.405718   -0.235501    2.952807
  C      2.506778    0.008185    3.363578
  H      0.364789    1.788022   -0.624236
  H      0.053779   -0.528360   -2.162015
  H     -0.607097    0.318396    2.676349
  H     -0.350503   -1.408504    2.969516
  H      3.483405    0.218040    3.724745

 Total Charge           Charge          ....    0
 Multiplicity           Mult            ....    1
 Number of Electrons    NEL             ....   64
 Basis Dimension        Dim             ....  309

ORBITAL ENERGIES
----------------

  NO   OCC          E(Eh)            E(eV)
   0   2.0000     -20.631858      -561.4214
   1   2.0000     -15.656216      -426.0273
   2   2.0000     -15.633459      -425.4081
   3   2.0000     -15.601751      -424.5452
   4   2.0000     -11.355231      -308.9916
   5   2.0000     -11.319965      -308.0319
   6   2.0000     -11.251207      -306.1609
   7   2.0000     -11.249186      -306.1059
   8   2.0000     -11.240899      -305.8804
   9   2.0000      -1.466673       -39.9102
  10   2.0000      -1.420528       -38.6545
  11   2.0000      -1.227352       -33.3979
  12   2.0000      -1.080662       -29.4063
  13   2.0000      -1.066284       -29.0151
  14   2.0000      -0.986793       -26.8520
  15   2.0000      -0.872199       -23.7337
  16   2.0000      -0.827858       -22.5272
  17   2.0000      -0.775009       -21.0891
  18   2.0000      -0.739134       -20.1129
  19   2.0000      -0.699493       -19.0342
  20   2.0000      -0.695304       -18.9202
  21   2.0000      -0.659490       -17.9456
  22   2.0000      -0.634946       -17.2778
  23   2.0000      -0.612641       -16.6708
  24   2.0000      -0.596202       -16.2235
  25   2.0000      -0.578949       -15.7540
  26   2.0000      -0.518277       -14.1030
  27   2.0000      -0.437691       -11.9102
  28   2.0000      -0.419793       -11.4231
  29   2.0000      -0.406326       -11.0567
  30   2.0000      -0.401582       -10.9276
  31   2.0000      -0.344883        -9.3847
  32   0.0000       0.110870         3.0169
  33   0.0000       0.138801         3.7770
  34   0.0000       0.151121         4.1122
  35   0.0000       0.162235         4.4146
  36   0.0000       0.166896         4.5415

MULLIKEN ATOMIC CHARGES
-----------------------
   0 O :   -0.425109
   1 C :    0.208176
   2 C :   -0.191799
   3 N :   -0.168941
   4 N :   -0.175760
   5 N :    0.113445
   6 C :   -0.223755
   7 C :   -0.046970
   8 C :   -0.141818
   9 H :    0.350319
  10 H :    0.142892
  11 H :    0.173359
  12 H :    0.187163
  13 H :    0.198799
Sum of atomic charges:   -0.0000000

LOEWDIN ATOMIC CHARGES
----------------------
   0 O :    0.090646
   1 C :   -0.376684
   2 C :   -0.286614
   3 N :    0.001176
   4 N :   -0.030583
   5 N :    0.201355
   6 C :   -0.225177
   7 C :   -0.105009
   8 C :   -0.073937
   9 H :    0.207050
  10 H :    0.135171
  11 H :    0.162988
  12 H :    0.169204
  13 H :    0.130414

  Mayer bond orders larger than 0.1
B(  0-O ,  1-C ) :   1.1091 B(  0-O ,  9-H ) :   0.8235 B(  1-C ,  2-C ) :   1.4069
B(  1-C ,  4-N ) :   0.1016 B(  1-C ,  5-N ) :   1.1881 B(  2-C ,  3-N ) :   1.3500
B(  2-C , 10-H ) :   0.9400 B(  3-N ,  4-N ) :   1.3017 B(  4-N ,  5-N ) :   0.9702
B(  5-N ,  6-C ) :   0.8429 B(  6-C ,  7-C ) :   1.0312 B(  6-C , 11-H ) :   0.9423
B(  6-C , 12-H ) :   0.9052 B(  7-C ,  8-C ) :   2.6575 B(  8-C , 13-H ) :   0.8989

MP2 TOTAL ENERGY:     -432.089890572 Eh
FINAL SINGLE POINT ENERGY      -432.089890571719

DIPOLE MOMENT
-------------
                                X             Y             Z
Electronic contribution:     -0.52324      -1.12621      -1.55692
Nuclear contribution   :      0.75003       2.91725       1.74781
                        -----------------------------------------
Total Dipole Moment    :      0.22679       1.79103       0.19090
                        -----------------------------------------
Magnitude (a.u.)       :      1.81540
Magnitude (Debye)      :      4.61438

                             ****ORCA TERMINATED NORMALLY****
TOTAL RUN TIME: 0 days 0 hours 14 minutes 13 seconds 28 msec
