                         Program Version 3.0.3 - RELEASE   -
|  1> ! RI-MP2 RIJK def2-TZVP def2-TZVP/C def2-TZVP/JK TIGHTSCF
|  2> % maxcore 2000
|  3> % mp2 density relaxed end
|  4> *xyz 0 1
|  5>  O        0.0750156899     0.0946277679     0.3294199605
|  6>  C        0.0176791969     1.2813428731     0.0995543595
|  7>  C       -1.2170857210     2.0820093323    -0.1610255384
|  8>  C       -1.3862261109     3.2953022438     0.7496216636
|  9>  C       -0.7765521826     3.4702215078    -0.6014325276
| 10>  C        0.7520952550     3.5046311812    -0.6690394563
| 11>  C        1.2038484346     2.2094780120     0.0013065840
| 12>  C        2.2223637588     2.1432484057     1.1325016882
| 13>  C        2.5623118556     1.5848949943    -0.2107108596
| 14>  H       -2.0992290970     1.5753511832    -0.5302462125
| 15>  H       -2.4066164505     3.6309543039     0.8961540722
| 16>  H       -0.7573052682     3.3736506990     1.6307083574
| 17>  H       -1.3380059757     4.0023352687    -1.3603629512
| 18>  H        1.0714531090     3.5227144537    -1.7174478647
| 19>  H        1.1624444827     4.3998900809    -0.1887630311
| 20>  H        2.6768487633     3.0799395532     1.4383378901
| 21>  H        2.0170829110     1.4434191912     1.9354191751
| 22>  H        2.5705159864     0.5054796110    -0.3186594516
| 23>  H        3.2630081026     2.1276638869    -0.8362498976
| 24> *
| 25>
| 26>                          ****END OF INPUT****

CARTESIAN COORDINATES (ANGSTROEM)
---------------------------------
  O      0.075016    0.094628    0.329420
  C      0.017679    1.281343    0.099554
  C     -1.217086    2.082009   -0.161026
  C     -1.386226    3.295302    0.749622
  C     -0.776552    3.470222   -0.601433
  C      0.752095    3.504631   -0.669039
  C      1.203848    2.209478    0.001307
  C      2.222364    2.143248    1.132502
  C      2.562312    1.584895   -0.210711
  H     -2.099229    1.575351   -0.530246
  H     -2.406616    3.630954    0.896154
  H     -0.757305    3.373651    1.630708
  H     -1.338006    4.002335   -1.360363
  H      1.071453    3.522714   -1.717448
  H      1.162444    4.399890   -0.188763
  H      2.676849    3.079940    1.438338
  H      2.017083    1.443419    1.935419
  H      2.570516    0.505480   -0.318659
  H      3.263008    2.127664   -0.836250

 Total Charge           Charge          ....    0
 Multiplicity           Mult            ....    1
 Number of Electrons    NEL             ....   66
 Basis Dimension        Dim             ....  339

ORBITAL ENERGIES
----------------

  NO   OCC          E(Eh)            E(eV)
   0   2.0000     -20.532401      -558.7150
   1   2.0000     -11.322852      -308.1105
   2   2.0000     -11.250572      -306.1436
   3   2.0000     -11.245640      -306.0094
   4   2.0000     -11.244444      -305.9769
   5   2.0000     -11.242121      -305.9137
   6   2.0000     -11.240608      -305.8725
   7   2.0000     -11.239053      -305.8302
   8   2.0000     -11.233958      -305.6915
   9   2.0000      -1.377648       -37.4877
  10   2.0000      -1.194940       -32.5160
  11   2.0000      -1.143534       -31.1172
  12   2.0000      -0.986817       -26.8527
  13   2.0000      -0.926924       -25.2229
  14   2.0000      -0.833301       -22.6753
  15   2.0000      -0.829394       -22.5690
  16   2.0000      -0.786538       -21.4028
  17   2.0000      -0.716854       -19.5066
  18   2.0000      -0.690381       -18.7862
  19   2.0000      -0.657571       -17.8934
  20   2.0000      -0.633647       -17.2424
  21   2.0000      -0.625808       -17.0291
  22   2.0000      -0.587013       -15.9734
  23   2.0000      -0.562214       -15.2986
  24   2.0000      -0.554370       -15.0852
  25   2.0000      -0.540744       -14.7144
  26   2.0000      -0.521834       -14.1998
  27   2.0000      -0.513523       -13.9737
  28   2.0000      -0.450698       -12.2641
  29   2.0000      -0.431459       -11.7406
  30   2.0000      -0.416296       -11.3280
  31   2.0000      -0.406070       -11.0497
  32   2.0000      -0.389559       -10.6005
  33   0.0000       0.134205         3.6519
  34   0.0000       0.142739         3.8841
  35   0.0000       0.151964         4.1352
  36   0.0000       0.165546         4.5047
  37   0.0000       0.177596         4.8326

MULLIKEN ATOMIC CHARGES
-----------------------
   0 O :   -0.305692
   1 C :    0.123186
   2 C :   -0.089485
   3 C :   -0.294702
   4 C :   -0.085880
   5 C :   -0.210483
   6 C :    0.074719
   7 C :   -0.294964
   8 C :   -0.285262
   9 H :    0.142310
  10 H :    0.141551
  11 H :    0.146492
  12 H :    0.134293
  13 H :    0.122759
  14 H :    0.119818
  15 H :    0.132721
  16 H :    0.144182
  17 H :    0.148137
  18 H :    0.136300
Sum of atomic charges:   -0.0000000

LOEWDIN ATOMIC CHARGES
----------------------
   0 O :    0.142550
   1 C :   -0.279196
   2 C :   -0.149314
   3 C :   -0.184163
   4 C :   -0.184323
   5 C :   -0.183971
   6 C :   -0.200753
   7 C :   -0.190253
   8 C :   -0.190514
   9 H :    0.151096
  10 H :    0.139166
  11 H :    0.140527
  12 H :    0.145919
  13 H :    0.145740
  14 H :    0.141593
  15 H :    0.134374
  16 H :    0.140896
  17 H :    0.144271
  18 H :    0.136356

  Mayer bond orders larger than 0.1
B(  0-O ,  1-C ) :   1.9906 B(  1-C ,  2-C ) :   0.9549 B(  1-C ,  6-C ) :   0.9296
B(  2-C ,  3-C ) :   0.8385 B(  2-C ,  4-C ) :   0.8251 B(  2-C ,  6-C ) :  -0.1031
B(  2-C ,  9-H ) :   0.9242 B(  3-C ,  4-C ) :   0.8991 B(  3-C , 10-H ) :   0.9302
B(  3-C , 11-H ) :   0.9188 B(  4-C ,  5-C ) :   0.9330 B(  4-C , 12-H ) :   0.9260
B(  5-C ,  6-C ) :   0.9121 B(  5-C , 13-H ) :   0.9214 B(  5-C , 14-H ) :   0.9143
B(  6-C ,  7-C ) :   0.8058 B(  6-C ,  8-C ) :   0.8183 B(  7-C ,  8-C ) :   0.9776
B(  7-C , 15-H ) :   0.9263 B(  7-C , 16-H ) :   0.9200 B(  8-C , 17-H ) :   0.9142
B(  8-C , 18-H ) :   0.9270

MP2 TOTAL ENERGY:     -385.221224331 Eh
FINAL SINGLE POINT ENERGY      -385.221224331472

DIPOLE MOMENT
-------------
                                X             Y             Z
Electronic contribution:     -2.07750      -4.36986      -0.31418
Nuclear contribution   :      2.08943       5.61114       0.10133
                        -----------------------------------------
Total Dipole Moment    :      0.01193       1.24128      -0.21285
                        -----------------------------------------
Magnitude (a.u.)       :      1.25945
Magnitude (Debye)      :      3.20128

                             ****ORCA TERMINATED NORMALLY****
TOTAL RUN TIME: 0 days 0 hours 18 minutes 55 seconds 432 msec
