                         Program Version 3.0.3 - RELEASE   -
|  1> ! RI-MP2 RIJK def2-TZVP def2-TZVP/C def2-TZVP/JK TIGHTSCF
|  2> % maxcore 2000
|  3> % mp2 density relaxed end
|  4> *xyz 0 1
|  5>  C       -0.1700546054     1.5124810666     2.3940309212
|  6>  C       -0.1928508500    -0.0141500519     2.2765755241
|  7>  C        0.9500776634    -0.5596763481     1.4087298159
|  8>  C        1.0151923322    -2.0811154756     1.3279020445
|  9>  C       -0.1818772072    -2.7945147238     0.7152801078
| 10>  C       -0.4289712153    -2.4526311833    -0.7512929024
| 11>  O       -1.5061132169    -3.2627196138    -1.2021057072
| 12>  C        2.3740475325    -2.7015636859     1.0893632763
| 13>  C        1.7320405425    -2.7912180128     2.4533000436
| 14>  H       -0.2598375446     1.9873327345     1.4103608200
| 15>  H       -0.9935006896     1.8783757163     3.0153264342
| 16>  H        0.7667142919     1.8617469676     2.8428931423
| 17>  H       -0.1301712837    -0.4635118483     3.2758377470
| 18>  H       -1.1581531122    -0.3294427882     1.8621391106
| 19>  H        0.8723447880    -0.1324321866     0.3992927043
| 20>  H        1.9035482537    -0.1924716367     1.8108440120
| 21>  H       -0.0330109315    -3.8785504799     0.7809422263
| 22>  H       -1.0954902314    -2.5773643657     1.2813920007
| 23>  H       -0.6692892269    -1.3835528068    -0.8613051967
| 24>  H        0.4864591389    -2.6424235123    -1.3345674253
| 25>  H       -1.6841812711    -3.0412906818    -2.1205929207
| 26>  H        2.4258396566    -3.6064087994     0.4923702704
| 27>  H        3.2280964851    -2.0432678773     0.9676992726
| 28>  H        2.1505662660    -2.1871575766     3.2519546463
| 29>  H        1.3547491052    -3.7547350302     2.7793741819
| 30> *
| 31>
| 32>                          ****END OF INPUT****

CARTESIAN COORDINATES (ANGSTROEM)
---------------------------------
  C     -0.170055    1.512481    2.394031
  C     -0.192851   -0.014150    2.276576
  C      0.950078   -0.559676    1.408730
  C      1.015192   -2.081115    1.327902
  C     -0.181877   -2.794515    0.715280
  C     -0.428971   -2.452631   -0.751293
  O     -1.506113   -3.262720   -1.202106
  C      2.374048   -2.701564    1.089363
  C      1.732041   -2.791218    2.453300
  H     -0.259838    1.987333    1.410361
  H     -0.993501    1.878376    3.015326
  H      0.766714    1.861747    2.842893
  H     -0.130171   -0.463512    3.275838
  H     -1.158153   -0.329443    1.862139
  H      0.872345   -0.132432    0.399293
  H      1.903548   -0.192472    1.810844
  H     -0.033011   -3.878550    0.780942
  H     -1.095490   -2.577364    1.281392
  H     -0.669289   -1.383553   -0.861305
  H      0.486459   -2.642424   -1.334567
  H     -1.684181   -3.041291   -2.120593
  H      2.425840   -3.606409    0.492370
  H      3.228096   -2.043268    0.967699
  H      2.150566   -2.187158    3.251955
  H      1.354749   -3.754735    2.779374

 Total Charge           Charge          ....    0
 Multiplicity           Mult            ....    1
 Number of Electrons    NEL             ....   72
 Basis Dimension        Dim             ....  375

ORBITAL ENERGIES
----------------

  NO   OCC          E(Eh)            E(eV)
   0   2.0000     -20.552094      -559.2509
   1   2.0000     -11.270800      -306.6940
   2   2.0000     -11.233176      -305.6702
   3   2.0000     -11.219514      -305.2985
   4   2.0000     -11.218993      -305.2843
   5   2.0000     -11.218286      -305.2651
   6   2.0000     -11.216822      -305.2252
   7   2.0000     -11.215939      -305.2012
   8   2.0000     -11.211891      -305.0911
   9   2.0000      -1.355666       -36.8895
  10   2.0000      -1.154411       -31.4131
  11   2.0000      -1.050154       -28.5761
  12   2.0000      -1.008737       -27.4491
  13   2.0000      -0.934538       -25.4301
  14   2.0000      -0.849467       -23.1152
  15   2.0000      -0.824128       -22.4257
  16   2.0000      -0.806978       -21.9590
  17   2.0000      -0.735497       -20.0139
  18   2.0000      -0.691550       -18.8180
  19   2.0000      -0.658427       -17.9167
  20   2.0000      -0.640830       -17.4379
  21   2.0000      -0.620120       -16.8743
  22   2.0000      -0.605483       -16.4760
  23   2.0000      -0.576633       -15.6910
  24   2.0000      -0.567905       -15.4535
  25   2.0000      -0.535670       -14.5763
  26   2.0000      -0.530265       -14.4293
  27   2.0000      -0.513734       -13.9794
  28   2.0000      -0.506165       -13.7735
  29   2.0000      -0.492601       -13.4044
  30   2.0000      -0.482364       -13.1258
  31   2.0000      -0.470981       -12.8160
  32   2.0000      -0.458088       -12.4652
  33   2.0000      -0.439921       -11.9709
  34   2.0000      -0.403907       -10.9909
  35   2.0000      -0.387372       -10.5409
  36   0.0000       0.130358         3.5472
  37   0.0000       0.144442         3.9305
  38   0.0000       0.159134         4.3303
  39   0.0000       0.161205         4.3866
  40   0.0000       0.170549         4.6409

MULLIKEN ATOMIC CHARGES
-----------------------
   0 C :   -0.385533
   1 C :   -0.215858
   2 C :   -0.289781
   3 C :    0.139390
   4 C :   -0.175484
   5 C :   -0.109282
   6 O :   -0.463481
   7 C :   -0.298309
   8 C :   -0.293506
   9 H :    0.120300
  10 H :    0.134322
  11 H :    0.122282
  12 H :    0.115510
  13 H :    0.112489
  14 H :    0.118624
  15 H :    0.111838
  16 H :    0.109921
  17 H :    0.126489
  18 H :    0.097788
  19 H :    0.101837
  20 H :    0.314292
  21 H :    0.127714
  22 H :    0.125297
  23 H :    0.125509
  24 H :    0.127634
Sum of atomic charges:   -0.0000000

LOEWDIN ATOMIC CHARGES
----------------------
   0 C :   -0.321517
   1 C :   -0.288674
   2 C :   -0.228084
   3 C :   -0.251989
   4 C :   -0.226133
   5 C :   -0.344307
   6 O :   -0.052321
   7 C :   -0.213055
   8 C :   -0.210738
   9 H :    0.119759
  10 H :    0.120482
  11 H :    0.119768
  12 H :    0.136984
  13 H :    0.134979
  14 H :    0.138812
  15 H :    0.144760
  16 H :    0.148353
  17 H :    0.143097
  18 H :    0.113245
  19 H :    0.116158
  20 H :    0.170953
  21 H :    0.132975
  22 H :    0.131388
  23 H :    0.132626
  24 H :    0.132482

  Mayer bond orders larger than 0.1
B(  0-C ,  1-C ) :   0.9164 B(  0-C ,  9-H ) :   0.9381 B(  0-C , 10-H ) :   0.9441
B(  0-C , 11-H ) :   0.9419 B(  1-C ,  2-C ) :   0.9245 B(  1-C , 12-H ) :   0.9358
B(  1-C , 13-H ) :   0.9324 B(  2-C ,  3-C ) :   0.9038 B(  2-C , 14-H ) :   0.9363
B(  2-C , 15-H ) :   0.9249 B(  3-C ,  4-C ) :   0.8961 B(  3-C ,  7-C ) :   0.8674
B(  3-C ,  8-C ) :   0.8616 B(  4-C ,  5-C ) :   0.9194 B(  4-C ,  6-O ) :  -0.1016
B(  4-C , 16-H ) :   0.9113 B(  4-C , 17-H ) :   0.9322 B(  5-C ,  6-O ) :   1.0228
B(  5-C , 18-H ) :   0.9352 B(  5-C , 19-H ) :   0.9297 B(  6-O , 20-H ) :   0.8497
B(  7-C ,  8-C ) :   0.9221 B(  7-C , 21-H ) :   0.9267 B(  7-C , 22-H ) :   0.9239
B(  8-C , 23-H ) :   0.9284 B(  8-C , 24-H ) :   0.9245

MP2 TOTAL ENERGY:     -388.807235571 Eh
FINAL SINGLE POINT ENERGY      -388.807235570658

DIPOLE MOMENT
-------------
                                X             Y             Z
Electronic contribution:     -1.27183      -5.54446      -3.48559
Nuclear contribution   :      1.50170       5.97931       3.15514
                        -----------------------------------------
Total Dipole Moment    :      0.22987       0.43485      -0.33045
                        -----------------------------------------
Magnitude (a.u.)       :      0.59256
Magnitude (Debye)      :      1.50617

                             ****ORCA TERMINATED NORMALLY****
TOTAL RUN TIME: 0 days 0 hours 19 minutes 30 seconds 559 msec
