                         Program Version 3.0.3 - RELEASE   -
|  1> ! RI-MP2 RIJK def2-TZVP def2-TZVP/C def2-TZVP/JK TIGHTSCF
|  2> % maxcore 2000
|  3> % mp2 density relaxed end
|  4> *xyz 0 1
|  5>  C       -0.1478379684     1.5552760243    -0.0076589228
|  6>  C        0.0060498583     0.0302340515     0.0177658020
|  7>  O       -1.2803968063    -0.5978164469     0.0054306440
|  8>  C        0.7217241092    -0.4438348552    -1.2461751724
|  9>  O        1.1367819583    -1.8121133469    -1.2115763003
| 10>  C        1.7216382209    -2.3032335090    -0.0919514331
| 11>  O        2.2577753898    -3.3807254066    -0.1176755830
| 12>  C        1.6105312005    -1.4860561716     1.1407720267
| 13>  C        0.8031628235    -0.4288298758     1.2187361448
| 14>  H        0.8228183660     2.0609493689    -0.0047363838
| 15>  H       -0.7062591632     1.8631808030    -0.8961523359
| 16>  H       -0.7042963111     1.8901057392     0.8744842089
| 17>  H       -1.6947774370    -0.4612105932     0.8644788748
| 18>  H        0.0447845769    -0.3661427042    -2.0995167223
| 19>  H        1.5983118816     0.1896540163    -1.4277863807
| 20>  H        2.1735079321    -1.8646268508     1.9859316111
| 21>  H        0.6751188288     0.1131341771     2.1540247021
| 22> *
| 23>
| 24>                          ****END OF INPUT****

CARTESIAN COORDINATES (ANGSTROEM)
---------------------------------
  C     -0.147838    1.555276   -0.007659
  C      0.006050    0.030234    0.017766
  O     -1.280397   -0.597816    0.005431
  C      0.721724   -0.443835   -1.246175
  O      1.136782   -1.812113   -1.211576
  C      1.721638   -2.303234   -0.091951
  O      2.257775   -3.380725   -0.117676
  C      1.610531   -1.486056    1.140772
  C      0.803163   -0.428830    1.218736
  H      0.822818    2.060949   -0.004736
  H     -0.706259    1.863181   -0.896152
  H     -0.704296    1.890106    0.874484
  H     -1.694777   -0.461211    0.864479
  H      0.044785   -0.366143   -2.099517
  H      1.598312    0.189654   -1.427786
  H      2.173508   -1.864627    1.985932
  H      0.675119    0.113134    2.154025

 Total Charge           Charge          ....    0
 Multiplicity           Mult            ....    1
 Number of Electrons    NEL             ....   68
 Basis Dimension        Dim             ....  327

ORBITAL ENERGIES
----------------

  NO   OCC          E(Eh)            E(eV)
   0   2.0000     -20.598214      -560.5059
   1   2.0000     -20.578804      -559.9777
   2   2.0000     -20.536546      -558.8278
   3   2.0000     -11.380253      -309.6724
   4   2.0000     -11.322414      -308.0986
   5   2.0000     -11.303466      -307.5830
   6   2.0000     -11.276266      -306.8428
   7   2.0000     -11.263071      -306.4837
   8   2.0000     -11.246554      -306.0343
   9   2.0000      -1.454718       -39.5849
  10   2.0000      -1.388118       -37.7726
  11   2.0000      -1.357631       -36.9430
  12   2.0000      -1.123100       -30.5611
  13   2.0000      -1.055792       -28.7296
  14   2.0000      -0.969062       -26.3695
  15   2.0000      -0.890893       -24.2424
  16   2.0000      -0.849826       -23.1249
  17   2.0000      -0.754088       -20.5198
  18   2.0000      -0.727025       -19.7834
  19   2.0000      -0.700780       -19.0692
  20   2.0000      -0.666891       -18.1470
  21   2.0000      -0.648136       -17.6367
  22   2.0000      -0.626951       -17.0602
  23   2.0000      -0.625336       -17.0163
  24   2.0000      -0.598513       -16.2864
  25   2.0000      -0.584091       -15.8939
  26   2.0000      -0.573151       -15.5962
  27   2.0000      -0.559247       -15.2179
  28   2.0000      -0.542603       -14.7650
  29   2.0000      -0.489619       -13.3232
  30   2.0000      -0.473599       -12.8873
  31   2.0000      -0.454480       -12.3670
  32   2.0000      -0.442151       -12.0316
  33   2.0000      -0.404124       -10.9968
  34   0.0000       0.078157         2.1268
  35   0.0000       0.113607         3.0914
  36   0.0000       0.152881         4.1601
  37   0.0000       0.165910         4.5147
  38   0.0000       0.168963         4.5977

MULLIKEN ATOMIC CHARGES
-----------------------
   0 C :   -0.432312
   1 C :    0.292577
   2 O :   -0.451286
   3 C :   -0.068075
   4 O :   -0.213718
   5 C :    0.282333
   6 O :   -0.287973
   7 C :   -0.156785
   8 C :   -0.263621
   9 H :    0.139401
  10 H :    0.152295
  11 H :    0.129306
  12 H :    0.316553
  13 H :    0.142961
  14 H :    0.119664
  15 H :    0.153362
  16 H :    0.145318
Sum of atomic charges:   -0.0000000

LOEWDIN ATOMIC CHARGES
----------------------
   0 C :   -0.267645
   1 C :   -0.404420
   2 O :    0.018982
   3 C :   -0.233590
   4 O :    0.269990
   5 C :   -0.465140
   6 O :    0.142596
   7 C :   -0.117245
   8 C :   -0.105157
   9 H :    0.131295
  10 H :    0.133735
  11 H :    0.127446
  12 H :    0.178155
  13 H :    0.144965
  14 H :    0.137725
  15 H :    0.158390
  16 H :    0.149918

  Mayer bond orders larger than 0.1
B(  0-C ,  1-C ) :   0.9113 B(  0-C ,  9-H ) :   0.9275 B(  0-C , 10-H ) :   0.9393
B(  0-C , 11-H ) :   0.9202 B(  1-C ,  2-O ) :   0.8735 B(  1-C ,  3-C ) :   0.8895
B(  1-C ,  8-C ) :   0.9034 B(  2-O , 12-H ) :   0.8386 B(  3-C ,  4-O ) :   0.8730
B(  3-C , 13-H ) :   0.9268 B(  3-C , 14-H ) :   0.9316 B(  4-O ,  5-C ) :   1.1225
B(  5-C ,  6-O ) :   1.9871 B(  5-C ,  7-C ) :   0.9822 B(  7-C ,  8-C ) :   1.7121
B(  7-C , 15-H ) :   0.9251 B(  8-C , 16-H ) :   0.9028

MP2 TOTAL ENERGY:     -458.265556907 Eh
FINAL SINGLE POINT ENERGY      -458.265556906954

DIPOLE MOMENT
-------------
                                X             Y             Z
Electronic contribution:      2.85852      -8.55424      -0.87557
Nuclear contribution   :     -3.35758      10.56055       1.77327
                        -----------------------------------------
Total Dipole Moment    :     -0.49906       2.00632       0.89770
                        -----------------------------------------
Magnitude (a.u.)       :      2.25394
Magnitude (Debye)      :      5.72906

                             ****ORCA TERMINATED NORMALLY****
TOTAL RUN TIME: 0 days 0 hours 16 minutes 31 seconds 744 msec
