                         Program Version 3.0.3 - RELEASE   -
|  1> ! RI-MP2 RIJK def2-TZVP def2-TZVP/C def2-TZVP/JK TIGHTSCF
|  2> % maxcore 2000
|  3> % mp2 density relaxed end
|  4> *xyz 0 1
|  5>  N       -0.1862377595     1.3375867686     0.1120164757
|  6>  C       -0.0286091235     0.1025838905    -0.1194564802
|  7>  C       -1.1443819125    -0.8889988681     0.1192835081
|  8>  C       -1.1785087755    -2.0116939177    -0.9022551650
|  9>  C       -0.7453852723    -1.7634791559    -2.3289102610
| 10>  C        0.1640996841    -2.4947937337    -1.3731563314
| 11>  C        1.3552577209    -1.7843637425    -0.7701257544
| 12>  O        1.1531560140    -0.3747469426    -0.6151321133
| 13>  H        0.6799668793     1.8424877457    -0.0893280373
| 14>  H       -1.0091370679    -1.3250325080     1.1194270314
| 15>  H       -2.0759047713    -0.3198717646     0.1483711603
| 16>  H       -1.9615270481    -2.7463087014    -0.7440891863
| 17>  H       -1.2241364190    -2.3443882661    -3.1089114246
| 18>  H       -0.4816710869    -0.7534606234    -2.6228755250
| 19>  H        0.3175719316    -3.5591538996    -1.5234505211
| 20>  H        1.6026074201    -2.2262796074     0.2063120977
| 21>  H        2.2414964964    -1.8686340538    -1.4061830337
| 22> *
| 23>
| 24>                          ****END OF INPUT****

CARTESIAN COORDINATES (ANGSTROEM)
---------------------------------
  N     -0.186238    1.337587    0.112016
  C     -0.028609    0.102584   -0.119456
  C     -1.144382   -0.888999    0.119284
  C     -1.178509   -2.011694   -0.902255
  C     -0.745385   -1.763479   -2.328910
  C      0.164100   -2.494794   -1.373156
  C      1.355258   -1.784364   -0.770126
  O      1.153156   -0.374747   -0.615132
  H      0.679967    1.842488   -0.089328
  H     -1.009137   -1.325033    1.119427
  H     -2.075905   -0.319872    0.148371
  H     -1.961527   -2.746309   -0.744089
  H     -1.224136   -2.344388   -3.108911
  H     -0.481671   -0.753461   -2.622876
  H      0.317572   -3.559154   -1.523451
  H      1.602607   -2.226280    0.206312
  H      2.241496   -1.868634   -1.406183

 Total Charge           Charge          ....    0
 Multiplicity           Mult            ....    1
 Number of Electrons    NEL             ....   60
 Basis Dimension        Dim             ....  302

ORBITAL ENERGIES
----------------

  NO   OCC          E(Eh)            E(eV)
   0   2.0000     -20.589453      -560.2675
   1   2.0000     -15.523403      -422.4133
   2   2.0000     -11.333454      -308.3990
   3   2.0000     -11.298338      -307.4434
   4   2.0000     -11.246076      -306.0213
   5   2.0000     -11.244807      -305.9868
   6   2.0000     -11.242567      -305.9258
   7   2.0000     -11.235334      -305.7290
   8   2.0000      -1.421146       -38.6713
   9   2.0000      -1.190469       -32.3943
  10   2.0000      -1.168651       -31.8006
  11   2.0000      -1.012043       -27.5391
  12   2.0000      -0.964612       -26.2484
  13   2.0000      -0.828346       -22.5404
  14   2.0000      -0.822407       -22.3788
  15   2.0000      -0.717329       -19.5195
  16   2.0000      -0.707167       -19.2430
  17   2.0000      -0.697658       -18.9842
  18   2.0000      -0.669501       -18.2181
  19   2.0000      -0.619910       -16.8686
  20   2.0000      -0.594873       -16.1873
  21   2.0000      -0.588396       -16.0111
  22   2.0000      -0.556476       -15.1425
  23   2.0000      -0.534518       -14.5450
  24   2.0000      -0.516641       -14.0585
  25   2.0000      -0.485839       -13.2203
  26   2.0000      -0.433010       -11.7828
  27   2.0000      -0.427888       -11.6434
  28   2.0000      -0.409139       -11.1332
  29   2.0000      -0.385591       -10.4925
  30   0.0000       0.130390         3.5481
  31   0.0000       0.157997         4.2993
  32   0.0000       0.161426         4.3926
  33   0.0000       0.169549         4.6137
  34   0.0000       0.185866         5.0577

MULLIKEN ATOMIC CHARGES
-----------------------
   0 N :   -0.366670
   1 C :    0.089510
   2 C :   -0.155718
   3 C :   -0.110819
   4 C :   -0.297505
   5 C :   -0.116679
   6 C :   -0.058449
   7 O :   -0.262926
   8 H :    0.216847
   9 H :    0.132045
  10 H :    0.142252
  11 H :    0.126893
  12 H :    0.137089
  13 H :    0.154420
  14 H :    0.127631
  15 H :    0.112537
  16 H :    0.129542
Sum of atomic charges:   -0.0000000

LOEWDIN ATOMIC CHARGES
----------------------
   0 N :   -0.062412
   1 C :   -0.410230
   2 C :   -0.202429
   3 C :   -0.204364
   4 C :   -0.197534
   5 C :   -0.219559
   6 C :   -0.263854
   7 O :    0.235478
   8 H :    0.165070
   9 H :    0.157524
  10 H :    0.159171
  11 H :    0.148362
  12 H :    0.135237
  13 H :    0.142533
  14 H :    0.150848
  15 H :    0.130535
  16 H :    0.135622

  Mayer bond orders larger than 0.1
B(  0-N ,  1-C ) :   2.0766 B(  0-N ,  8-H ) :   0.8582 B(  1-C ,  2-C ) :   0.9214
B(  1-C ,  7-O ) :   1.0665 B(  2-C ,  3-C ) :   0.9306 B(  2-C ,  9-H ) :   0.9165
B(  2-C , 10-H ) :   0.9106 B(  3-C ,  4-C ) :   0.8886 B(  3-C ,  5-C ) :   0.8598
B(  3-C , 11-H ) :   0.9281 B(  4-C ,  5-C ) :   0.8852 B(  4-C , 12-H ) :   0.9308
B(  4-C , 13-H ) :   0.9173 B(  5-C ,  6-C ) :   0.9448 B(  5-C , 14-H ) :   0.9172
B(  6-C ,  7-O ) :   0.8872 B(  6-C , 15-H ) :   0.9341 B(  6-C , 16-H ) :   0.9313

MP2 TOTAL ENERGY:     -363.245370368 Eh
FINAL SINGLE POINT ENERGY      -363.245370367717

DIPOLE MOMENT
-------------
                                X             Y             Z
Electronic contribution:      1.62282       3.04562       1.11346
Nuclear contribution   :     -1.39330      -4.33939      -1.37170
                        -----------------------------------------
Total Dipole Moment    :      0.22952      -1.29377      -0.25824
                        -----------------------------------------
Magnitude (a.u.)       :      1.33911
Magnitude (Debye)      :      3.40374

                             ****ORCA TERMINATED NORMALLY****
TOTAL RUN TIME: 0 days 0 hours 13 minutes 42 seconds 206 msec
