                         Program Version 3.0.3 - RELEASE   -
|  1> ! RI-MP2 RIJK def2-TZVP def2-TZVP/C def2-TZVP/JK TIGHTSCF
|  2> % maxcore 2000
|  3> % mp2 density relaxed end
|  4> *xyz 0 1
|  5>  C       -0.0364967117     1.5210906627     0.0626977604
|  6>  C        0.1234853762     0.0386436919     0.0178962654
|  7>  O       -0.8012771676    -0.8083783008     0.7267523499
|  8>  C        0.6121482377    -0.9569820638     0.9685616459
|  9>  C        1.2575555583    -1.8019000403    -0.1850164626
| 10>  O        2.4555706709    -2.4742550506    -0.0772861639
| 11>  C        0.2265413989    -2.2052746749    -1.2057799649
| 12>  C        0.7388509438    -0.7796909276    -1.1858482349
| 13>  O        1.4128175210    -0.1688845585    -2.2248168728
| 14>  H        0.8658468527     2.0100985314    -0.3163668404
| 15>  H       -0.8785428469     1.8428380472    -0.5608468587
| 16>  H       -0.2224172058     1.8555555793     1.0866031768
| 17>  H        0.9656866520    -0.8742899452     1.9911892965
| 18>  H        3.1662276679    -1.8268651830    -0.0063983476
| 19>  H        0.6707701355    -2.7897171225    -2.0067893108
| 20>  H       -0.7901231177    -2.4578292140    -0.9309510564
| 21>  H        0.8186871749    -0.1028710213    -2.9808350017
| 22> *
| 23>
| 24>                          ****END OF INPUT****

CARTESIAN COORDINATES (ANGSTROEM)
---------------------------------
  C     -0.036497    1.521091    0.062698
  C      0.123485    0.038644    0.017896
  O     -0.801277   -0.808378    0.726752
  C      0.612148   -0.956982    0.968562
  C      1.257556   -1.801900   -0.185016
  O      2.455571   -2.474255   -0.077286
  C      0.226541   -2.205275   -1.205780
  C      0.738851   -0.779691   -1.185848
  O      1.412818   -0.168885   -2.224817
  H      0.865847    2.010099   -0.316367
  H     -0.878543    1.842838   -0.560847
  H     -0.222417    1.855556    1.086603
  H      0.965687   -0.874290    1.991189
  H      3.166228   -1.826865   -0.006398
  H      0.670770   -2.789717   -2.006789
  H     -0.790123   -2.457829   -0.930951
  H      0.818687   -0.102871   -2.980835

 Total Charge           Charge          ....    0
 Multiplicity           Mult            ....    1
 Number of Electrons    NEL             ....   68
 Basis Dimension        Dim             ....  327

ORBITAL ENERGIES
----------------

  NO   OCC          E(Eh)            E(eV)
   0   2.0000     -20.583190      -560.0971
   1   2.0000     -20.579225      -559.9892
   2   2.0000     -20.569674      -559.7293
   3   2.0000     -11.297243      -307.4136
   4   2.0000     -11.297020      -307.4075
   5   2.0000     -11.296063      -307.3815
   6   2.0000     -11.288480      -307.1752
   7   2.0000     -11.232587      -305.6542
   8   2.0000     -11.231560      -305.6263
   9   2.0000      -1.424185       -38.7540
  10   2.0000      -1.391672       -37.8693
  11   2.0000      -1.382413       -37.6174
  12   2.0000      -1.145462       -31.1696
  13   2.0000      -1.018213       -27.7070
  14   2.0000      -0.939534       -25.5660
  15   2.0000      -0.857634       -23.3374
  16   2.0000      -0.793922       -21.6037
  17   2.0000      -0.765857       -20.8400
  18   2.0000      -0.733591       -19.9620
  19   2.0000      -0.691132       -18.8067
  20   2.0000      -0.660195       -17.9648
  21   2.0000      -0.643461       -17.5095
  22   2.0000      -0.614318       -16.7164
  23   2.0000      -0.598277       -16.2799
  24   2.0000      -0.578515       -15.7422
  25   2.0000      -0.557859       -15.1801
  26   2.0000      -0.543964       -14.8020
  27   2.0000      -0.540567       -14.7096
  28   2.0000      -0.525868       -14.3096
  29   2.0000      -0.505761       -13.7624
  30   2.0000      -0.498595       -13.5675
  31   2.0000      -0.405681       -11.0391
  32   2.0000      -0.402345       -10.9484
  33   2.0000      -0.349517        -9.5108
  34   0.0000       0.121458         3.3050
  35   0.0000       0.145669         3.9639
  36   0.0000       0.162984         4.4350
  37   0.0000       0.179507         4.8846
  38   0.0000       0.190883         5.1942

MULLIKEN ATOMIC CHARGES
-----------------------
   0 C :   -0.427591
   1 C :    0.138467
   2 O :   -0.320825
   3 C :   -0.059333
   4 C :    0.164139
   5 O :   -0.447122
   6 C :   -0.269416
   7 C :    0.130590
   8 O :   -0.457979
   9 H :    0.150552
  10 H :    0.136779
  11 H :    0.149051
  12 H :    0.142596
  13 H :    0.335011
  14 H :    0.135362
  15 H :    0.161614
  16 H :    0.338105
Sum of atomic charges:   -0.0000000

LOEWDIN ATOMIC CHARGES
----------------------
   0 C :   -0.270104
   1 C :   -0.263131
   2 O :    0.186745
   3 C :   -0.182498
   4 C :   -0.303173
   5 O :    0.042679
   6 C :   -0.169088
   7 C :   -0.286843
   8 O :    0.033388
   9 H :    0.138304
  10 H :    0.133535
  11 H :    0.136587
  12 H :    0.133965
  13 H :    0.191199
  14 H :    0.150890
  15 H :    0.137763
  16 H :    0.189782

  Mayer bond orders larger than 0.1
B(  0-C ,  1-C ) :   0.8606 B(  0-C ,  9-H ) :   0.9318 B(  0-C , 10-H ) :   0.9382
B(  0-C , 11-H ) :   0.9407 B(  1-C ,  2-O ) :   0.8825 B(  1-C ,  3-C ) :   0.9483
B(  1-C ,  7-C ) :   0.8695 B(  2-O ,  3-C ) :   0.8923 B(  3-C ,  4-C ) :   0.8401
B(  3-C , 12-H ) :   0.9331 B(  4-C ,  5-O ) :   1.0727 B(  4-C ,  6-C ) :   0.8885
B(  4-C ,  7-C ) :   0.8498 B(  5-O , 13-H ) :   0.8327 B(  6-C ,  7-C ) :   0.9215
B(  6-C , 14-H ) :   0.9222 B(  6-C , 15-H ) :   0.8869 B(  7-C ,  8-O ) :   1.0387
B(  8-O , 16-H ) :   0.8315

MP2 TOTAL ENERGY:     -458.139403580 Eh
FINAL SINGLE POINT ENERGY      -458.139403580354

DIPOLE MOMENT
-------------
                                X             Y             Z
Electronic contribution:      1.09532      -3.35576       0.39372
Nuclear contribution   :     -0.87517       4.10500      -0.73004
                        -----------------------------------------
Total Dipole Moment    :      0.22015       0.74924      -0.33631
                        -----------------------------------------
Magnitude (a.u.)       :      0.85025
Magnitude (Debye)      :      2.16117

                             ****ORCA TERMINATED NORMALLY****
TOTAL RUN TIME: 0 days 0 hours 16 minutes 0 seconds 19 msec
