                         Program Version 3.0.3 - RELEASE   -
|  1> ! RI-MP2 RIJK def2-TZVP def2-TZVP/C def2-TZVP/JK TIGHTSCF
|  2> % maxcore 2000
|  3> % mp2 density relaxed end
|  4> *xyz 0 1
|  5>  O        0.3331648771     1.1158190141     0.1359987605
|  6>  C       -0.0024505153    -0.2442084944     0.3781128965
|  7>  C       -1.4635573039    -0.5112079615     0.0761604339
|  8>  C       -1.8465536140    -0.9344639165    -1.3362481468
|  9>  C       -1.9139954764    -1.9380715729    -0.2363569057
| 10>  C       -2.4803027338     0.3303229919     0.7739644127
| 11>  O       -3.6233094668     0.4676190489     0.3870625855
| 12>  C       -2.1577752254     1.0107995020     2.1140820220
| 13>  O       -1.3663868710     0.5979535307     2.9190051920
| 14>  H        0.1644801190     1.2975132640    -0.7951089830
| 15>  H        0.6191345242    -0.9299597046    -0.2181653953
| 16>  H        0.2167353182    -0.4171907741     1.4321804419
| 17>  H       -2.7812536856    -0.5397793227    -1.7160081288
| 18>  H       -1.0383634044    -1.0132280834    -2.0559307574
| 19>  H       -1.1529504807    -2.7087953181    -0.1771815505
| 20>  H       -2.8923489386    -2.2287012809     0.1280534848
| 21>  H       -2.8317872425     1.8710885674     2.3089834978
| 22> *
| 23>
| 24>                          ****END OF INPUT****

CARTESIAN COORDINATES (ANGSTROEM)
---------------------------------
  O      0.333165    1.115819    0.135999
  C     -0.002451   -0.244208    0.378113
  C     -1.463557   -0.511208    0.076160
  C     -1.846554   -0.934464   -1.336248
  C     -1.913995   -1.938072   -0.236357
  C     -2.480303    0.330323    0.773964
  O     -3.623309    0.467619    0.387063
  C     -2.157775    1.010800    2.114082
  O     -1.366387    0.597954    2.919005
  H      0.164480    1.297513   -0.795109
  H      0.619135   -0.929960   -0.218165
  H      0.216735   -0.417191    1.432180
  H     -2.781254   -0.539779   -1.716008
  H     -1.038363   -1.013228   -2.055931
  H     -1.152950   -2.708795   -0.177182
  H     -2.892349   -2.228701    0.128053
  H     -2.831787    1.871089    2.308983

 Total Charge           Charge          ....    0
 Multiplicity           Mult            ....    1
 Number of Electrons    NEL             ....   68
 Basis Dimension        Dim             ....  327

ORBITAL ENERGIES
----------------

  NO   OCC          E(Eh)            E(eV)
   0   2.0000     -20.586363      -560.1834
   1   2.0000     -20.576925      -559.9266
   2   2.0000     -20.570336      -559.7473
   3   2.0000     -11.356251      -309.0193
   4   2.0000     -11.352617      -308.9204
   5   2.0000     -11.291514      -307.2577
   6   2.0000     -11.266478      -306.5764
   7   2.0000     -11.259605      -306.3894
   8   2.0000     -11.252884      -306.2066
   9   2.0000      -1.429902       -38.9096
  10   2.0000      -1.410595       -38.3843
  11   2.0000      -1.374793       -37.4100
  12   2.0000      -1.178032       -32.0559
  13   2.0000      -0.986756       -26.8510
  14   2.0000      -0.936804       -25.4917
  15   2.0000      -0.859319       -23.3832
  16   2.0000      -0.849543       -23.1172
  17   2.0000      -0.752974       -20.4895
  18   2.0000      -0.722049       -19.6479
  19   2.0000      -0.694450       -18.8969
  20   2.0000      -0.675853       -18.3909
  21   2.0000      -0.664396       -18.0791
  22   2.0000      -0.650848       -17.7105
  23   2.0000      -0.618211       -16.8224
  24   2.0000      -0.596051       -16.2194
  25   2.0000      -0.585083       -15.9209
  26   2.0000      -0.544963       -14.8292
  27   2.0000      -0.533753       -14.5242
  28   2.0000      -0.518747       -14.1158
  29   2.0000      -0.508008       -13.8236
  30   2.0000      -0.485624       -13.2145
  31   2.0000      -0.452121       -12.3028
  32   2.0000      -0.428928       -11.6717
  33   2.0000      -0.409819       -11.1517
  34   0.0000       0.065109         1.7717
  35   0.0000       0.126914         3.4535
  36   0.0000       0.149105         4.0574
  37   0.0000       0.168846         4.5945
  38   0.0000       0.173527         4.7219

MULLIKEN ATOMIC CHARGES
-----------------------
   0 O :   -0.469219
   1 C :    0.005017
   2 C :   -0.059864
   3 C :   -0.261733
   4 C :   -0.282078
   5 C :    0.221497
   6 O :   -0.288514
   7 C :    0.099270
   8 O :   -0.247304
   9 H :    0.315716
  10 H :    0.105096
  11 H :    0.149547
  12 H :    0.160485
  13 H :    0.143854
  14 H :    0.145469
  15 H :    0.155330
  16 H :    0.107432
Sum of atomic charges:   -0.0000000

LOEWDIN ATOMIC CHARGES
----------------------
   0 O :   -0.035798
   1 C :   -0.301725
   2 C :   -0.232708
   3 C :   -0.193597
   4 C :   -0.175037
   5 C :   -0.283356
   6 O :    0.174471
   7 C :   -0.244705
   8 O :    0.163655
   9 H :    0.175405
  10 H :    0.125257
  11 H :    0.140348
  12 H :    0.144717
  13 H :    0.136983
  14 H :    0.139610
  15 H :    0.144132
  16 H :    0.122351

  Mayer bond orders larger than 0.1
B(  0-O ,  1-C ) :   0.8835 B(  0-O ,  9-H ) :   0.8421 B(  1-C ,  2-C ) :   0.9330
B(  1-C , 10-H ) :   0.9063 B(  1-C , 11-H ) :   0.9204 B(  2-C ,  3-C ) :   0.8297
B(  2-C ,  4-C ) :   0.8093 B(  2-C ,  5-C ) :   0.9157 B(  3-C ,  4-C ) :   0.9410
B(  3-C , 12-H ) :   0.9117 B(  3-C , 13-H ) :   0.9293 B(  4-C , 14-H ) :   0.9256
B(  4-C , 15-H ) :   0.9199 B(  5-C ,  6-O ) :   1.8972 B(  5-C ,  7-C ) :   0.8620
B(  7-C ,  8-O ) :   1.9574 B(  7-C , 16-H ) :   0.9298

MP2 TOTAL ENERGY:     -458.221948962 Eh
FINAL SINGLE POINT ENERGY      -458.221948962319

DIPOLE MOMENT
-------------
                                X             Y             Z
Electronic contribution:     -2.59035       3.97946       4.45852
Nuclear contribution   :      2.78159      -4.50879      -5.40719
                        -----------------------------------------
Total Dipole Moment    :      0.19123      -0.52934      -0.94867
                        -----------------------------------------
Magnitude (a.u.)       :      1.10306
Magnitude (Debye)      :      2.80375

                             ****ORCA TERMINATED NORMALLY****
TOTAL RUN TIME: 0 days 0 hours 19 minutes 0 seconds 803 msec
