                         Program Version 3.0.3 - RELEASE   -
|  1> ! RI-MP2 RIJK def2-TZVP def2-TZVP/C def2-TZVP/JK TIGHTSCF
|  2> % maxcore 2000
|  3> % mp2 density relaxed end
|  4> *xyz 0 1
|  5>  C       -0.0201337752     1.4165851306    -0.1517667553
|  6>  C       -0.1844191878    -0.0935205089    -0.3393838698
|  7>  C       -1.5183783243    -0.6029112630     0.1885659076
|  8>  O       -1.5943615866    -1.9962774772    -0.0274502496
|  9>  C       -2.7991581449    -2.5684136166     0.4395103398
| 10>  C       -2.7363083642    -4.0585710283     0.2255753395
| 11>  C       -3.9836212448    -4.8342135603    -0.0391144050
| 12>  N       -2.9687752658    -4.6886966411    -1.0721664171
| 13>  C       -3.2787026319    -3.8647061186    -2.2315841592
| 14>  H        0.9452205443     1.7576933061    -0.5363897611
| 15>  H       -0.8027447035     1.9723119289    -0.6801815363
| 16>  H       -0.0729747969     1.6962713136     0.9063276881
| 17>  H       -0.1076671202    -0.3560185281    -1.4007408970
| 18>  H        0.6208021922    -0.6314311871     0.1738184669
| 19>  H       -1.6163158375    -0.3770579923     1.2653663095
| 20>  H       -2.3534023791    -0.0894570065    -0.3208520119
| 21>  H       -2.9300573069    -2.3632840551     1.5164603972
| 22>  H       -3.6640750020    -2.1217301818    -0.0754419859
| 23>  H       -1.9371166534    -4.5354342872     0.7910720372
| 24>  H       -4.1174401495    -5.8307798120     0.3738651347
| 25>  H       -4.9062290492    -4.2623295438    -0.1467324165
| 26>  H       -4.0251547659    -3.0758185313    -2.0481935127
| 27>  H       -2.3601259834    -3.3902375226    -2.5878967439
| 28>  H       -3.6681613035    -4.5114686775    -3.0242824094
| 29> *
| 30>
| 31>                          ****END OF INPUT****

CARTESIAN COORDINATES (ANGSTROEM)
---------------------------------
  C     -0.020134    1.416585   -0.151767
  C     -0.184419   -0.093521   -0.339384
  C     -1.518378   -0.602911    0.188566
  O     -1.594362   -1.996277   -0.027450
  C     -2.799158   -2.568414    0.439510
  C     -2.736308   -4.058571    0.225575
  C     -3.983621   -4.834214   -0.039114
  N     -2.968775   -4.688697   -1.072166
  C     -3.278703   -3.864706   -2.231584
  H      0.945221    1.757693   -0.536390
  H     -0.802745    1.972312   -0.680182
  H     -0.072975    1.696271    0.906328
  H     -0.107667   -0.356019   -1.400741
  H      0.620802   -0.631431    0.173818
  H     -1.616316   -0.377058    1.265366
  H     -2.353402   -0.089457   -0.320852
  H     -2.930057   -2.363284    1.516460
  H     -3.664075   -2.121730   -0.075442
  H     -1.937117   -4.535434    0.791072
  H     -4.117440   -5.830780    0.373865
  H     -4.906229   -4.262330   -0.146732
  H     -4.025155   -3.075819   -2.048194
  H     -2.360126   -3.390238   -2.587897
  H     -3.668161   -4.511469   -3.024282

 Total Charge           Charge          ....    0
 Multiplicity           Mult            ....    1
 Number of Electrons    NEL             ....   72
 Basis Dimension        Dim             ....  369

ORBITAL ENERGIES
----------------

  NO   OCC          E(Eh)            E(eV)
   0   2.0000     -20.554254      -559.3097
   1   2.0000     -15.552470      -423.2042
   2   2.0000     -11.279238      -306.9237
   3   2.0000     -11.273327      -306.7628
   4   2.0000     -11.253346      -306.2191
   5   2.0000     -11.250158      -306.1324
   6   2.0000     -11.239487      -305.8420
   7   2.0000     -11.219516      -305.2986
   8   2.0000     -11.217185      -305.2351
   9   2.0000      -1.377588       -37.4861
  10   2.0000      -1.267071       -34.4787
  11   2.0000      -1.058949       -28.8155
  12   2.0000      -1.002083       -27.2681
  13   2.0000      -0.960134       -26.1266
  14   2.0000      -0.893333       -24.3088
  15   2.0000      -0.830397       -22.5963
  16   2.0000      -0.808608       -22.0033
  17   2.0000      -0.775023       -21.0894
  18   2.0000      -0.691375       -18.8133
  19   2.0000      -0.666055       -18.1243
  20   2.0000      -0.656552       -17.8657
  21   2.0000      -0.640355       -17.4250
  22   2.0000      -0.606464       -16.5027
  23   2.0000      -0.591710       -16.1012
  24   2.0000      -0.579010       -15.7557
  25   2.0000      -0.550054       -14.9677
  26   2.0000      -0.543611       -14.7924
  27   2.0000      -0.534659       -14.5488
  28   2.0000      -0.506813       -13.7911
  29   2.0000      -0.496737       -13.5169
  30   2.0000      -0.479833       -13.0569
  31   2.0000      -0.469709       -12.7814
  32   2.0000      -0.451338       -12.2815
  33   2.0000      -0.444056       -12.0834
  34   2.0000      -0.420700       -11.4478
  35   2.0000      -0.364755        -9.9255
  36   0.0000       0.132947         3.6177
  37   0.0000       0.150797         4.1034
  38   0.0000       0.165502         4.5035
  39   0.0000       0.173982         4.7343
  40   0.0000       0.175588         4.7780

MULLIKEN ATOMIC CHARGES
-----------------------
   0 C :   -0.408403
   1 C :   -0.162156
   2 C :   -0.063057
   3 O :   -0.288271
   4 C :   -0.094182
   5 C :   -0.013690
   6 C :   -0.199529
   7 N :   -0.217921
   8 C :   -0.286535
   9 H :    0.138570
  10 H :    0.123118
  11 H :    0.123308
  12 H :    0.112429
  13 H :    0.113049
  14 H :    0.086730
  15 H :    0.084122
  16 H :    0.111236
  17 H :    0.099734
  18 H :    0.119312
  19 H :    0.126960
  20 H :    0.114738
  21 H :    0.098085
  22 H :    0.142617
  23 H :    0.139737
Sum of atomic charges:   -0.0000000

LOEWDIN ATOMIC CHARGES
----------------------
   0 C :   -0.319973
   1 C :   -0.294629
   2 C :   -0.333349
   3 O :    0.163530
   4 C :   -0.321103
   5 C :   -0.261131
   6 C :   -0.248187
   7 N :    0.090679
   8 C :   -0.330488
   9 H :    0.122891
  10 H :    0.120448
  11 H :    0.120575
  12 H :    0.137411
  13 H :    0.137777
  14 H :    0.117914
  15 H :    0.117508
  16 H :    0.127016
  17 H :    0.120994
  18 H :    0.144485
  19 H :    0.123683
  20 H :    0.122740
  21 H :    0.102122
  22 H :    0.121417
  23 H :    0.117670

  Mayer bond orders larger than 0.1
B(  0-C ,  1-C ) :   0.9128 B(  0-C ,  9-H ) :   0.9401 B(  0-C , 10-H ) :   0.9371
B(  0-C , 11-H ) :   0.9367 B(  1-C ,  2-C ) :   0.9537 B(  1-C , 12-H ) :   0.9314
B(  1-C , 13-H ) :   0.9297 B(  2-C ,  3-O ) :   0.9407 B(  2-C , 14-H ) :   0.9214
B(  2-C , 15-H ) :   0.9208 B(  3-O ,  4-C ) :   0.9055 B(  4-C ,  5-C ) :   0.9575
B(  4-C , 16-H ) :   0.9167 B(  4-C , 17-H ) :   0.9279 B(  5-C ,  6-C ) :   0.9244
B(  5-C ,  7-N ) :   0.9216 B(  5-C , 18-H ) :   0.9188 B(  6-C ,  7-N ) :   0.9014
B(  6-C , 19-H ) :   0.9202 B(  6-C , 20-H ) :   0.9168 B(  7-N ,  8-C ) :   0.8933
B(  8-C , 21-H ) :   0.9311 B(  8-C , 22-H ) :   0.9363 B(  8-C , 23-H ) :   0.9347

MP2 TOTAL ENERGY:     -404.811067500 Eh
FINAL SINGLE POINT ENERGY      -404.811067500144

DIPOLE MOMENT
-------------
                                X             Y             Z
Electronic contribution:     -1.11547      -7.41272       0.89869
Nuclear contribution   :      0.63065       8.09476      -0.61896
                        -----------------------------------------
Total Dipole Moment    :     -0.48481       0.68204       0.27973
                        -----------------------------------------
Magnitude (a.u.)       :      0.88231
Magnitude (Debye)      :      2.24265

                             ****ORCA TERMINATED NORMALLY****
TOTAL RUN TIME: 0 days 0 hours 16 minutes 44 seconds 469 msec
