                         Program Version 3.0.3 - RELEASE   -
|  1> ! RI-MP2 RIJK def2-TZVP def2-TZVP/C def2-TZVP/JK TIGHTSCF
|  2> % maxcore 2000
|  3> % mp2 density relaxed end
|  4> *xyz 0 1
|  5>  C       -0.2223420713    -1.2697469942    -0.3145266156
|  6>  C       -0.1053724878    -0.0857185042    -0.1396707828
|  7>  C        0.0181710466     1.3452450572     0.0503788440
|  8>  C       -0.2449953695     1.9873452232     1.4540178877
|  9>  O        0.0857338931     1.1115975252     2.5075647387
| 10>  C        1.4710808761     0.7728454626     2.3370194323
| 11>  C        2.0170360290     1.8072224267     1.3649333462
| 12>  C        1.0014409351     2.8511769195     1.1636819224
| 13>  N        1.4048839051     1.9623713743     0.0091718279
| 14>  H       -0.3244970162    -2.3161782783    -0.4642488882
| 15>  H       -0.5621976623     1.8720081518    -0.7146357918
| 16>  H       -1.2201904066     2.4312074748     1.6468895003
| 17>  H        1.9749816748     0.8439117202     3.3078811169
| 18>  H        1.5660214778    -0.2514346071     1.9619162324
| 19>  H        3.0755069811     2.0397262410     1.3690795628
| 20>  H        1.1284205251     3.9257232673     1.1696323067
| 21> *
| 22>
| 23>                          ****END OF INPUT****

CARTESIAN COORDINATES (ANGSTROEM)
---------------------------------
  C     -0.222342   -1.269747   -0.314527
  C     -0.105372   -0.085719   -0.139671
  C      0.018171    1.345245    0.050379
  C     -0.244995    1.987345    1.454018
  O      0.085734    1.111598    2.507565
  C      1.471081    0.772845    2.337019
  C      2.017036    1.807222    1.364933
  C      1.001441    2.851177    1.163682
  N      1.404884    1.962371    0.009172
  H     -0.324497   -2.316178   -0.464249
  H     -0.562198    1.872008   -0.714636
  H     -1.220190    2.431207    1.646890
  H      1.974982    0.843912    3.307881
  H      1.566021   -0.251435    1.961916
  H      3.075507    2.039726    1.369080
  H      1.128421    3.925723    1.169632

 Total Charge           Charge          ....    0
 Multiplicity           Mult            ....    1
 Number of Electrons    NEL             ....   64
 Basis Dimension        Dim             ....  321

ORBITAL ENERGIES
----------------

  NO   OCC          E(Eh)            E(eV)
   0   2.0000     -20.565906      -559.6267
   1   2.0000     -15.578933      -423.9243
   2   2.0000     -11.304143      -307.6014
   3   2.0000     -11.290791      -307.2380
   4   2.0000     -11.285541      -307.0952
   5   2.0000     -11.274486      -306.7944
   6   2.0000     -11.269971      -306.6715
   7   2.0000     -11.235953      -305.7458
   8   2.0000     -11.229134      -305.5603
   9   2.0000      -1.404820       -38.2271
  10   2.0000      -1.288732       -35.0682
  11   2.0000      -1.069966       -29.1153
  12   2.0000      -1.018342       -27.7105
  13   2.0000      -0.948095       -25.7990
  14   2.0000      -0.925771       -25.1915
  15   2.0000      -0.816704       -22.2236
  16   2.0000      -0.787743       -21.4356
  17   2.0000      -0.734724       -19.9929
  18   2.0000      -0.713051       -19.4031
  19   2.0000      -0.673097       -18.3159
  20   2.0000      -0.648403       -17.6440
  21   2.0000      -0.621687       -16.9170
  22   2.0000      -0.586150       -15.9499
  23   2.0000      -0.578515       -15.7422
  24   2.0000      -0.550031       -14.9671
  25   2.0000      -0.522381       -14.2147
  26   2.0000      -0.472542       -12.8585
  27   2.0000      -0.448680       -12.2092
  28   2.0000      -0.434645       -11.8273
  29   2.0000      -0.409044       -11.1307
  30   2.0000      -0.389010       -10.5855
  31   2.0000      -0.366764        -9.9802
  32   0.0000       0.145281         3.9533
  33   0.0000       0.153855         4.1866
  34   0.0000       0.159873         4.3504
  35   0.0000       0.165673         4.5082
  36   0.0000       0.175570         4.7775

MULLIKEN ATOMIC CHARGES
-----------------------
   0 C :   -0.129195
   1 C :   -0.047673
   2 C :   -0.105465
   3 C :    0.059754
   4 O :   -0.308042
   5 C :   -0.022986
   6 C :   -0.128663
   7 C :   -0.078758
   8 N :   -0.231538
   9 H :    0.194128
  10 H :    0.130840
  11 H :    0.133416
  12 H :    0.121352
  13 H :    0.123242
  14 H :    0.138190
  15 H :    0.151398
Sum of atomic charges:    0.0000000

LOEWDIN ATOMIC CHARGES
----------------------
   0 C :   -0.079498
   1 C :   -0.087865
   2 C :   -0.225573
   3 C :   -0.250482
   4 O :    0.181971
   5 C :   -0.263173
   6 C :   -0.231545
   7 C :   -0.175395
   8 N :    0.146730
   9 H :    0.128213
  10 H :    0.169223
  11 H :    0.139546
  12 H :    0.131290
  13 H :    0.132166
  14 H :    0.150195
  15 H :    0.134198

  Mayer bond orders larger than 0.1
B(  0-C ,  1-C ) :   2.5822 B(  0-C ,  9-H ) :   0.8909 B(  1-C ,  2-C ) :   1.1771
B(  2-C ,  3-C ) :   0.9182 B(  2-C ,  8-N ) :   0.8850 B(  2-C , 10-H ) :   0.8940
B(  3-C ,  4-O ) :   1.0226 B(  3-C ,  7-C ) :   0.9689 B(  3-C , 11-H ) :   0.9273
B(  4-O ,  5-C ) :   0.9220 B(  5-C ,  6-C ) :   0.9520 B(  5-C , 12-H ) :   0.9140
B(  5-C , 13-H ) :   0.9154 B(  6-C ,  7-C ) :   0.9035 B(  6-C ,  8-N ) :   0.9262
B(  6-C , 14-H ) :   0.9304 B(  7-C ,  8-N ) :   0.8546 B(  7-C , 15-H ) :   0.8976

MP2 TOTAL ENERGY:     -399.960890718 Eh
FINAL SINGLE POINT ENERGY      -399.960890717679

DIPOLE MOMENT
-------------
                                X             Y             Z
Electronic contribution:     -1.18553      -0.07223      -1.01648
Nuclear contribution   :      1.27456       0.27485       1.29569
                        -----------------------------------------
Total Dipole Moment    :      0.08903       0.20262       0.27921
                        -----------------------------------------
Magnitude (a.u.)       :      0.35629
Magnitude (Debye)      :      0.90561

                             ****ORCA TERMINATED NORMALLY****
TOTAL RUN TIME: 0 days 0 hours 18 minutes 13 seconds 353 msec
