                         Program Version 3.0.3 - RELEASE   -
|  1> ! RI-MP2 RIJK def2-TZVP def2-TZVP/C def2-TZVP/JK TIGHTSCF
|  2> % maxcore 2000
|  3> % mp2 density relaxed end
|  4> *xyz 0 1
|  5>  N        0.1481357973     0.7722886080     1.1451987908
|  6>  C        0.0297807350     0.0719317645     0.1136174496
|  7>  O        1.0734269103    -0.0349701739    -0.8135217591
|  8>  N        1.2298845346    -1.0065234520    -1.7815742285
|  9>  C        0.6250729544    -2.1379967473    -1.7157737288
| 10>  C       -0.3525915701    -2.6729330226    -0.7556460097
| 11>  N       -1.2203664232    -2.0124174982    -0.0964425557
| 12>  C       -1.2715637700    -0.6196195642    -0.2597337939
| 13>  O       -2.2519322193    -0.0247270964    -0.6090194295
| 14>  H        1.0906502326     1.1574666687     1.2370499119
| 15>  H        0.9429906037    -2.8133675098    -2.5082511877
| 16>  H       -0.3384300953    -3.7578751866    -0.6349615793
| 17> *
| 18>
| 19>                          ****END OF INPUT****

CARTESIAN COORDINATES (ANGSTROEM)
---------------------------------
  N      0.148136    0.772289    1.145199
  C      0.029781    0.071932    0.113617
  O      1.073427   -0.034970   -0.813522
  N      1.229885   -1.006523   -1.781574
  C      0.625073   -2.137997   -1.715774
  C     -0.352592   -2.672933   -0.755646
  N     -1.220366   -2.012417   -0.096443
  C     -1.271564   -0.619620   -0.259734
  O     -2.251932   -0.024727   -0.609019
  H      1.090650    1.157467    1.237050
  H      0.942991   -2.813368   -2.508251
  H     -0.338430   -3.757875   -0.634962

 Total Charge           Charge          ....    0
 Multiplicity           Mult            ....    1
 Number of Electrons    NEL             ....   64
 Basis Dimension        Dim             ....  297

ORBITAL ENERGIES
----------------

  NO   OCC          E(Eh)            E(eV)
   0   2.0000     -20.666916      -562.3754
   1   2.0000     -20.586740      -560.1937
   2   2.0000     -15.698645      -427.1819
   3   2.0000     -15.629329      -425.2957
   4   2.0000     -15.579989      -423.9531
   5   2.0000     -11.399186      -310.1876
   6   2.0000     -11.382123      -309.7233
   7   2.0000     -11.358132      -309.0705
   8   2.0000     -11.335406      -308.4521
   9   2.0000      -1.505357       -40.9628
  10   2.0000      -1.440895       -39.2087
  11   2.0000      -1.302970       -35.4556
  12   2.0000      -1.270769       -34.5794
  13   2.0000      -1.194376       -32.5006
  14   2.0000      -1.004415       -27.3315
  15   2.0000      -0.965878       -26.2829
  16   2.0000      -0.846346       -23.0303
  17   2.0000      -0.823327       -22.4039
  18   2.0000      -0.750937       -20.4340
  19   2.0000      -0.717571       -19.5261
  20   2.0000      -0.700387       -19.0585
  21   2.0000      -0.681236       -18.5374
  22   2.0000      -0.665943       -18.1212
  23   2.0000      -0.613134       -16.6842
  24   2.0000      -0.599097       -16.3023
  25   2.0000      -0.540186       -14.6992
  26   2.0000      -0.521860       -14.2005
  27   2.0000      -0.518103       -14.0983
  28   2.0000      -0.490110       -13.3366
  29   2.0000      -0.463793       -12.6204
  30   2.0000      -0.447684       -12.1821
  31   2.0000      -0.418156       -11.3786
  32   0.0000       0.023465         0.6385
  33   0.0000       0.102303         2.7838
  34   0.0000       0.131925         3.5899
  35   0.0000       0.152474         4.1490
  36   0.0000       0.157663         4.2902

MULLIKEN ATOMIC CHARGES
-----------------------
   0 N :   -0.338329
   1 C :    0.135707
   2 O :   -0.139947
   3 N :   -0.062960
   4 C :   -0.060957
   5 C :   -0.007673
   6 N :   -0.153727
   7 C :    0.285148
   8 O :   -0.221948
   9 H :    0.240827
  10 H :    0.165338
  11 H :    0.158521
Sum of atomic charges:   -0.0000000

LOEWDIN ATOMIC CHARGES
----------------------
   0 N :    0.005348
   1 C :   -0.361540
   2 O :    0.207948
   3 N :    0.074229
   4 C :   -0.250725
   5 C :   -0.196165
   6 N :    0.196322
   7 C :   -0.376760
   8 O :    0.207764
   9 H :    0.180236
  10 H :    0.160785
  11 H :    0.152557

  Mayer bond orders larger than 0.1
B(  0-N ,  1-C ) :   2.0200 B(  0-N ,  9-H ) :   0.8403 B(  1-C ,  2-O ) :   0.9734
B(  1-C ,  7-C ) :   0.8458 B(  2-O ,  3-N ) :   0.8317 B(  3-N ,  4-C ) :   1.7441
B(  4-C ,  5-C ) :   0.9604 B(  4-C , 10-H ) :   0.9052 B(  5-C ,  6-N ) :   1.7570
B(  5-C , 11-H ) :   0.9129 B(  6-N ,  7-C ) :   0.9936 B(  7-C ,  8-O ) :   2.0474

MP2 TOTAL ENERGY:     -467.984836490 Eh
FINAL SINGLE POINT ENERGY      -467.984836489945

DIPOLE MOMENT
-------------
                                X             Y             Z
Electronic contribution:     -1.15020       1.40751      -0.10677
Nuclear contribution   :      2.18171      -2.75412      -0.29524
                        -----------------------------------------
Total Dipole Moment    :      1.03151      -1.34661      -0.40200
                        -----------------------------------------
Magnitude (a.u.)       :      1.74327
Magnitude (Debye)      :      4.43103

                             ****ORCA TERMINATED NORMALLY****
TOTAL RUN TIME: 0 days 0 hours 14 minutes 20 seconds 277 msec
