                         Program Version 3.0.3 - RELEASE   -
|  1> ! RI-MP2 RIJK def2-TZVP def2-TZVP/C def2-TZVP/JK TIGHTSCF
|  2> % maxcore 2000
|  3> % mp2 density relaxed end
|  4> *xyz 0 1
|  5>  C       -0.1188911414    -1.2209259063    -0.2686431510
|  6>  C       -0.0012096998    -0.0346141322    -0.1189913066
|  7>  C        0.0923880324     1.4022263690     0.0895633990
|  8>  C       -0.6726410759     1.8782106393     1.4003759794
|  9>  C        0.0920863868     3.1758993553     1.6898079387
| 10>  C        1.0224602613     3.5739367046     2.8752598772
| 11>  O        2.2138203262     3.4168438215     1.9971403052
| 12>  C        1.4015113836     2.7943484828     1.0935244110
| 13>  N        1.5242872894     1.8427726608     0.2753344390
| 14>  H       -0.2067327870    -2.2693364021    -0.4126900246
| 15>  H       -0.3322784429     1.9117560166    -0.7872391942
| 16>  H       -1.7457479391     1.9970953717     1.2396343408
| 17>  H       -0.5142404813     1.1291187920     2.1812050945
| 18>  H       -0.3718176835     4.0576396281     1.2407031070
| 19>  H        0.9458669543     4.5981461204     3.2418052052
| 20>  H        1.0796824868     2.8564979984     3.6973772894
| 21> *
| 22>
| 23>                          ****END OF INPUT****

CARTESIAN COORDINATES (ANGSTROEM)
---------------------------------
  C     -0.118891   -1.220926   -0.268643
  C     -0.001210   -0.034614   -0.118991
  C      0.092388    1.402226    0.089563
  C     -0.672641    1.878211    1.400376
  C      0.092086    3.175899    1.689808
  C      1.022460    3.573937    2.875260
  O      2.213820    3.416844    1.997140
  C      1.401511    2.794348    1.093524
  N      1.524287    1.842773    0.275334
  H     -0.206733   -2.269336   -0.412690
  H     -0.332278    1.911756   -0.787239
  H     -1.745748    1.997095    1.239634
  H     -0.514240    1.129119    2.181205
  H     -0.371818    4.057640    1.240703
  H      0.945867    4.598146    3.241805
  H      1.079682    2.856498    3.697377

 Total Charge           Charge          ....    0
 Multiplicity           Mult            ....    1
 Number of Electrons    NEL             ....   64
 Basis Dimension        Dim             ....  321

ORBITAL ENERGIES
----------------

  NO   OCC          E(Eh)            E(eV)
   0   2.0000     -20.601921      -560.6068
   1   2.0000     -15.553333      -423.2277
   2   2.0000     -11.338664      -308.5407
   3   2.0000     -11.321396      -308.0708
   4   2.0000     -11.298698      -307.4532
   5   2.0000     -11.261171      -306.4320
   6   2.0000     -11.258043      -306.3469
   7   2.0000     -11.233190      -305.6706
   8   2.0000     -11.224156      -305.4248
   9   2.0000      -1.442358       -39.2486
  10   2.0000      -1.252727       -34.0884
  11   2.0000      -1.082200       -29.4482
  12   2.0000      -1.051182       -28.6041
  13   2.0000      -0.973731       -26.4966
  14   2.0000      -0.929950       -25.3052
  15   2.0000      -0.849608       -23.1190
  16   2.0000      -0.753210       -20.4959
  17   2.0000      -0.722440       -19.6586
  18   2.0000      -0.699080       -19.0229
  19   2.0000      -0.674318       -18.3491
  20   2.0000      -0.667734       -18.1700
  21   2.0000      -0.634672       -17.2703
  22   2.0000      -0.602292       -16.3892
  23   2.0000      -0.567362       -15.4387
  24   2.0000      -0.544191       -14.8082
  25   2.0000      -0.530615       -14.4388
  26   2.0000      -0.506076       -13.7710
  27   2.0000      -0.492928       -13.4133
  28   2.0000      -0.429166       -11.6782
  29   2.0000      -0.400016       -10.8850
  30   2.0000      -0.391342       -10.6490
  31   2.0000      -0.378072       -10.2879
  32   0.0000       0.124885         3.3983
  33   0.0000       0.141576         3.8525
  34   0.0000       0.152688         4.1548
  35   0.0000       0.160503         4.3675
  36   0.0000       0.168948         4.5973

MULLIKEN ATOMIC CHARGES
-----------------------
   0 C :   -0.087201
   1 C :    0.012340
   2 C :   -0.181376
   3 C :   -0.219795
   4 C :   -0.170894
   5 C :   -0.013269
   6 O :   -0.254800
   7 C :    0.150404
   8 N :   -0.195252
   9 H :    0.193194
  10 H :    0.120441
  11 H :    0.138165
  12 H :    0.130513
  13 H :    0.131893
  14 H :    0.128679
  15 H :    0.116959
Sum of atomic charges:   -0.0000000

LOEWDIN ATOMIC CHARGES
----------------------
   0 C :   -0.085887
   1 C :   -0.087806
   2 C :   -0.226870
   3 C :   -0.185359
   4 C :   -0.201010
   5 C :   -0.184496
   6 O :    0.221992
   7 C :   -0.373847
   8 N :    0.133304
   9 H :    0.127743
  10 H :    0.161119
  11 H :    0.137321
  12 H :    0.148741
  13 H :    0.161666
  14 H :    0.124901
  15 H :    0.128487

  Mayer bond orders larger than 0.1
B(  0-C ,  1-C ) :   2.5809 B(  0-C ,  2-C ) :  -0.1401 B(  0-C ,  9-H ) :   0.8880
B(  1-C ,  2-C ) :   1.1733 B(  2-C ,  3-C ) :   0.9198 B(  2-C ,  8-N ) :   0.9699
B(  2-C , 10-H ) :   0.9112 B(  3-C ,  4-C ) :   0.9272 B(  3-C , 11-H ) :   0.9176
B(  3-C , 12-H ) :   0.9141 B(  4-C ,  5-C ) :   0.9481 B(  4-C ,  7-C ) :   0.9496
B(  4-C , 13-H ) :   0.8992 B(  5-C ,  6-O ) :   0.8808 B(  5-C , 14-H ) :   0.9164
B(  5-C , 15-H ) :   0.8967 B(  6-O ,  7-C ) :   1.1071 B(  7-C ,  8-N ) :   1.8471

MP2 TOTAL ENERGY:     -399.981994728 Eh
FINAL SINGLE POINT ENERGY      -399.981994727812

DIPOLE MOMENT
-------------
                                X             Y             Z
Electronic contribution:      3.91706      -0.23044      -2.09803
Nuclear contribution   :     -5.24362       0.74308       2.85550
                        -----------------------------------------
Total Dipole Moment    :     -1.32656       0.51265       0.75747
                        -----------------------------------------
Magnitude (a.u.)       :      1.61131
Magnitude (Debye)      :      4.09563

                             ****ORCA TERMINATED NORMALLY****
TOTAL RUN TIME: 0 days 0 hours 15 minutes 53 seconds 714 msec
