                         Program Version 3.0.3 - RELEASE   -
|  1> ! RI-MP2 RIJK def2-TZVP def2-TZVP/C def2-TZVP/JK TIGHTSCF
|  2> % maxcore 2000
|  3> % mp2 density relaxed end
|  4> *xyz 0 1
|  5>  N       -0.0482746334     1.2968612019     0.3416304775
|  6>  C       -0.0732366702     0.0598655001     0.0311830603
|  7>  C       -1.2915192517    -0.7197596926    -0.0513772691
|  8>  C       -1.2000710881    -2.0124223908    -0.3869734772
|  9>  N        0.0375604395    -2.5760672291    -0.6460295967
| 10>  C        0.1709782599    -3.9353091541    -1.0024588006
| 11>  O        1.2025786480    -4.4877758026    -1.2394909974
| 12>  N        1.2159132766    -1.8380835720    -0.5701790813
| 13>  N        1.1582837260    -0.6313052251    -0.2594862767
| 14>  H        0.9214821596     1.6235892072     0.3330198964
| 15>  H       -2.2410221570    -0.2463053573     0.1577486691
| 16>  H       -2.0465791380    -2.6838046681    -0.4771346909
| 17>  H       -0.8233003813    -4.4195474375    -1.0314850834
| 18> *
| 19>
| 20>                          ****END OF INPUT****

CARTESIAN COORDINATES (ANGSTROEM)
---------------------------------
  N     -0.048275    1.296861    0.341630
  C     -0.073237    0.059866    0.031183
  C     -1.291519   -0.719760   -0.051377
  C     -1.200071   -2.012422   -0.386973
  N      0.037560   -2.576067   -0.646030
  C      0.170978   -3.935309   -1.002459
  O      1.202579   -4.487776   -1.239491
  N      1.215913   -1.838084   -0.570179
  N      1.158284   -0.631305   -0.259486
  H      0.921482    1.623589    0.333020
  H     -2.241022   -0.246305    0.157749
  H     -2.046579   -2.683805   -0.477135
  H     -0.823300   -4.419547   -1.031485

 Total Charge           Charge          ....    0
 Multiplicity           Mult            ....    1
 Number of Electrons    NEL             ....   64
 Basis Dimension        Dim             ....  303

ORBITAL ENERGIES
----------------

  NO   OCC          E(Eh)            E(eV)
   0   2.0000     -20.580791      -560.0318
   1   2.0000     -15.715754      -427.6474
   2   2.0000     -15.685902      -426.8351
   3   2.0000     -15.652292      -425.9205
   4   2.0000     -15.561379      -423.4466
   5   2.0000     -11.400474      -310.2227
   6   2.0000     -11.338733      -308.5426
   7   2.0000     -11.337244      -308.5021
   8   2.0000     -11.272243      -306.7333
   9   2.0000      -1.469696       -39.9925
  10   2.0000      -1.425890       -38.8004
  11   2.0000      -1.290792       -35.1242
  12   2.0000      -1.233470       -33.5644
  13   2.0000      -1.108633       -30.1674
  14   2.0000      -0.989259       -26.9191
  15   2.0000      -0.925537       -25.1851
  16   2.0000      -0.886620       -24.1262
  17   2.0000      -0.782006       -21.2795
  18   2.0000      -0.754698       -20.5364
  19   2.0000      -0.715777       -19.4773
  20   2.0000      -0.684409       -18.6237
  21   2.0000      -0.678438       -18.4612
  22   2.0000      -0.645202       -17.5568
  23   2.0000      -0.629154       -17.1202
  24   2.0000      -0.588492       -16.0137
  25   2.0000      -0.580161       -15.7870
  26   2.0000      -0.504508       -13.7284
  27   2.0000      -0.491654       -13.3786
  28   2.0000      -0.486748       -13.2451
  29   2.0000      -0.474177       -12.9030
  30   2.0000      -0.426380       -11.6024
  31   2.0000      -0.349783        -9.5181
  32   0.0000       0.056166         1.5284
  33   0.0000       0.085686         2.3316
  34   0.0000       0.122157         3.3241
  35   0.0000       0.138673         3.7735
  36   0.0000       0.164006         4.4628

MULLIKEN ATOMIC CHARGES
-----------------------
   0 N :   -0.340434
   1 C :    0.075284
   2 C :   -0.156343
   3 C :   -0.069046
   4 N :    0.075225
   5 C :    0.147539
   6 O :   -0.228338
   7 N :   -0.084768
   8 N :   -0.079529
   9 H :    0.231297
  10 H :    0.165620
  11 H :    0.164016
  12 H :    0.099477
Sum of atomic charges:   -0.0000000

LOEWDIN ATOMIC CHARGES
----------------------
   0 N :   -0.025183
   1 C :   -0.373122
   2 C :   -0.125316
   3 C :   -0.174393
   4 N :    0.152284
   5 C :   -0.358458
   6 O :    0.159179
   7 N :    0.062274
   8 N :    0.073826
   9 H :    0.169887
  10 H :    0.164144
  11 H :    0.153868
  12 H :    0.121012

  Mayer bond orders larger than 0.1
B(  0-N ,  1-C ) :   1.9539 B(  0-N ,  9-H ) :   0.8523 B(  1-C ,  2-C ) :   1.0452
B(  1-C ,  8-N ) :   1.0408 B(  2-C ,  3-C ) :   1.6198 B(  2-C , 10-H ) :   0.9051
B(  3-C ,  4-N ) :   1.0644 B(  3-C , 11-H ) :   0.9011 B(  4-N ,  5-C ) :   0.9389
B(  4-N ,  7-N ) :   0.8593 B(  5-C ,  6-O ) :   2.0297 B(  5-C , 12-H ) :   0.9224
B(  7-N ,  8-N ) :   1.4782

MP2 TOTAL ENERGY:     -448.153541818 Eh
FINAL SINGLE POINT ENERGY      -448.153541817695

DIPOLE MOMENT
-------------
                                X             Y             Z
Electronic contribution:      2.94817      -1.50396      -0.65769
Nuclear contribution   :     -4.49108       0.93631       0.65940
                        -----------------------------------------
Total Dipole Moment    :     -1.54291      -0.56765       0.00172
                        -----------------------------------------
Magnitude (a.u.)       :      1.64402
Magnitude (Debye)      :      4.17877

                             ****ORCA TERMINATED NORMALLY****
TOTAL RUN TIME: 0 days 0 hours 14 minutes 6 seconds 755 msec
