                         Program Version 3.0.3 - RELEASE   -
|  1> ! RI-MP2 RIJK def2-TZVP def2-TZVP/C def2-TZVP/JK TIGHTSCF
|  2> % maxcore 2000
|  3> % mp2 density relaxed end
|  4> *xyz 0 1
|  5>  N        0.2691172156     1.3528009096    -0.2251825226
|  6>  C        0.0784570620    -0.0549932357    -0.0151847378
|  7>  C        0.0513483174    -0.5513399741     1.4486945001
|  8>  O        0.7109399865    -0.4619472052     2.4305439445
|  9>  O       -1.1386692559    -1.2304764375     1.2924775736
| 10>  C       -1.2960966953    -0.7481094602    -0.0630772694
| 11>  C       -2.6038022636    -0.2502719574    -0.5632491995
| 12>  C       -1.9961913217    -1.5453191494    -1.0996791248
| 13>  H        0.3033899601     1.5803559331    -1.2122673159
| 14>  H       -0.4732078202     1.8992479750     0.1983987212
| 15>  H        0.8334464809    -0.6083663515    -0.5831609571
| 16>  H       -3.4614953345    -0.3371084713     0.0944172994
| 17>  H       -2.6035413484     0.6281401092    -1.2018280897
| 18>  H       -1.5920352476    -1.5546206275    -2.1070003211
| 19>  H       -2.4587909355    -2.4754423371    -0.7882220910
| 20> *
| 21>
| 22>                          ****END OF INPUT****

CARTESIAN COORDINATES (ANGSTROEM)
---------------------------------
  N      0.269117    1.352801   -0.225183
  C      0.078457   -0.054993   -0.015185
  C      0.051348   -0.551340    1.448695
  O      0.710940   -0.461947    2.430544
  O     -1.138669   -1.230476    1.292478
  C     -1.296097   -0.748109   -0.063077
  C     -2.603802   -0.250272   -0.563249
  C     -1.996191   -1.545319   -1.099679
  H      0.303390    1.580356   -1.212267
  H     -0.473208    1.899248    0.198399
  H      0.833446   -0.608366   -0.583161
  H     -3.461495   -0.337108    0.094417
  H     -2.603541    0.628140   -1.201828
  H     -1.592035   -1.554621   -2.107000
  H     -2.458791   -2.475442   -0.788222

 Total Charge           Charge          ....    0
 Multiplicity           Mult            ....    1
 Number of Electrons    NEL             ....   60
 Basis Dimension        Dim             ....  290

ORBITAL ENERGIES
----------------

  NO   OCC          E(Eh)            E(eV)
   0   2.0000     -20.605075      -560.6926
   1   2.0000     -20.555218      -559.3359
   2   2.0000     -15.573915      -423.7878
   3   2.0000     -11.383141      -309.7510
   4   2.0000     -11.315979      -307.9235
   5   2.0000     -11.301343      -307.5252
   6   2.0000     -11.252318      -306.1911
   7   2.0000     -11.251497      -306.1688
   8   2.0000      -1.467945       -39.9448
   9   2.0000      -1.383800       -37.6551
  10   2.0000      -1.217409       -33.1274
  11   2.0000      -1.157228       -31.4898
  12   2.0000      -0.992390       -27.0043
  13   2.0000      -0.858018       -23.3479
  14   2.0000      -0.828385       -22.5415
  15   2.0000      -0.762078       -20.7372
  16   2.0000      -0.720137       -19.5959
  17   2.0000      -0.697640       -18.9837
  18   2.0000      -0.687438       -18.7062
  19   2.0000      -0.652150       -17.7459
  20   2.0000      -0.641375       -17.4527
  21   2.0000      -0.611351       -16.6357
  22   2.0000      -0.581556       -15.8249
  23   2.0000      -0.545847       -14.8533
  24   2.0000      -0.536195       -14.5906
  25   2.0000      -0.517195       -14.0736
  26   2.0000      -0.465441       -12.6653
  27   2.0000      -0.449942       -12.2435
  28   2.0000      -0.419639       -11.4189
  29   2.0000      -0.408692       -11.1211
  30   0.0000       0.108057         2.9404
  31   0.0000       0.140882         3.8336
  32   0.0000       0.152752         4.1566
  33   0.0000       0.170961         4.6521
  34   0.0000       0.184090         5.0093

MULLIKEN ATOMIC CHARGES
-----------------------
   0 N :   -0.535010
   1 C :    0.019484
   2 C :    0.238573
   3 O :   -0.248345
   4 O :   -0.223631
   5 C :    0.124696
   6 C :   -0.274938
   7 C :   -0.274028
   8 H :    0.235002
   9 H :    0.240480
  10 H :    0.137364
  11 H :    0.149723
  12 H :    0.126139
  13 H :    0.136574
  14 H :    0.147917
Sum of atomic charges:    0.0000000

LOEWDIN ATOMIC CHARGES
----------------------
   0 N :   -0.120295
   1 C :   -0.257626
   2 C :   -0.421723
   3 O :    0.167990
   4 O :    0.275852
   5 C :   -0.281381
   6 C :   -0.205660
   7 C :   -0.200425
   8 H :    0.159961
   9 H :    0.162873
  10 H :    0.162155
  11 H :    0.143174
  12 H :    0.133904
  13 H :    0.136919
  14 H :    0.144283

  Mayer bond orders larger than 0.1
B(  0-N ,  1-C ) :   0.9749 B(  0-N ,  8-H ) :   0.8889 B(  0-N ,  9-H ) :   0.8875
B(  1-C ,  2-C ) :   0.8783 B(  1-C ,  5-C ) :   0.8925 B(  1-C , 10-H ) :   0.9010
B(  2-C ,  3-O ) :   2.0764 B(  2-C ,  4-O ) :   1.0737 B(  4-O ,  5-C ) :   0.9360
B(  5-C ,  6-C ) :   0.8594 B(  5-C ,  7-C ) :   0.8635 B(  6-C ,  7-C ) :   0.9051
B(  6-C , 11-H ) :   0.9181 B(  6-C , 12-H ) :   0.9122 B(  7-C , 13-H ) :   0.9174
B(  7-C , 14-H ) :   0.9143

MP2 TOTAL ENERGY:     -399.142846334 Eh
FINAL SINGLE POINT ENERGY      -399.142846333884

DIPOLE MOMENT
-------------
                                X             Y             Z
Electronic contribution:      3.26162      -1.59399       6.19944
Nuclear contribution   :     -4.09470       1.90211      -7.95769
                        -----------------------------------------
Total Dipole Moment    :     -0.83308       0.30812      -1.75825
                        -----------------------------------------
Magnitude (a.u.)       :      1.96988
Magnitude (Debye)      :      5.00703

                             ****ORCA TERMINATED NORMALLY****
TOTAL RUN TIME: 0 days 0 hours 11 minutes 38 seconds 783 msec
