                         Program Version 3.0.3 - RELEASE   -
|  1> ! RI-MP2 RIJK def2-TZVP def2-TZVP/C def2-TZVP/JK TIGHTSCF
|  2> % maxcore 2000
|  3> % mp2 density relaxed end
|  4> *xyz 0 1
|  5>  C       -0.1477550499     1.5767725186     0.0233609909
|  6>  C        0.0279911631     0.0671424991     0.0296969932
|  7>  C        1.1895637941    -0.6430923235    -0.7404448165
|  8>  C        2.1793378322    -0.1656052450     0.3647994729
|  9>  C        0.9152515941    -0.6580943783     1.1194913810
| 10>  C        0.9082386011    -1.8874586301     0.1503607688
| 11>  C        0.6719181201    -0.6798558368     2.5866456657
| 12>  O        1.4312426191    -0.2374740892     3.4136725550
| 13>  H        0.7828686889     2.1242670560     0.1875701869
| 14>  H       -0.5589463102     1.9010356035    -0.9391520566
| 15>  H       -0.8554269638     1.8856788876     0.8001599325
| 16>  H       -0.9424378803    -0.4209801279    -0.1182504139
| 17>  H        1.3566771759    -0.6379671433    -1.8183890534
| 18>  H        3.0786404789    -0.7702248926     0.5023342701
| 19>  H        2.4159352872     0.8963158558     0.4174849324
| 20>  H       -0.0486979281    -2.3953662792     0.0040715032
| 21>  H        1.7299871888    -2.5958774496     0.2793287878
| 22>  H       -0.2982289512    -1.1427297049     2.8866440302
| 23> *
| 24>
| 25>                          ****END OF INPUT****

CARTESIAN COORDINATES (ANGSTROEM)
---------------------------------
  C     -0.147755    1.576773    0.023361
  C      0.027991    0.067142    0.029697
  C      1.189564   -0.643092   -0.740445
  C      2.179338   -0.165605    0.364799
  C      0.915252   -0.658094    1.119491
  C      0.908239   -1.887459    0.150361
  C      0.671918   -0.679856    2.586646
  O      1.431243   -0.237474    3.413673
  H      0.782869    2.124267    0.187570
  H     -0.558946    1.901036   -0.939152
  H     -0.855427    1.885679    0.800160
  H     -0.942438   -0.420980   -0.118250
  H      1.356677   -0.637967   -1.818389
  H      3.078640   -0.770225    0.502334
  H      2.415935    0.896316    0.417485
  H     -0.048698   -2.395366    0.004072
  H      1.729987   -2.595877    0.279329
  H     -0.298229   -1.142730    2.886644

 Total Charge           Charge          ....    0
 Multiplicity           Mult            ....    1
 Number of Electrons    NEL             ....   60
 Basis Dimension        Dim             ....  308

ORBITAL ENERGIES
----------------

  NO   OCC          E(Eh)            E(eV)
   0   2.0000     -20.555435      -559.3418
   1   2.0000     -11.328175      -308.2553
   2   2.0000     -11.259674      -306.3913
   3   2.0000     -11.254206      -306.2425
   4   2.0000     -11.252855      -306.2058
   5   2.0000     -11.244831      -305.9874
   6   2.0000     -11.234560      -305.7079
   7   2.0000     -11.222323      -305.3749
   8   2.0000      -1.391825       -37.8735
   9   2.0000      -1.223176       -33.2843
  10   2.0000      -1.006264       -27.3818
  11   2.0000      -0.939091       -25.5540
  12   2.0000      -0.918648       -24.9977
  13   2.0000      -0.857955       -23.3461
  14   2.0000      -0.792628       -21.5685
  15   2.0000      -0.725180       -19.7331
  16   2.0000      -0.693329       -18.8664
  17   2.0000      -0.648051       -17.6344
  18   2.0000      -0.644926       -17.5493
  19   2.0000      -0.608947       -16.5703
  20   2.0000      -0.581088       -15.8122
  21   2.0000      -0.541788       -14.7428
  22   2.0000      -0.534605       -14.5473
  23   2.0000      -0.508949       -13.8492
  24   2.0000      -0.500298       -13.6138
  25   2.0000      -0.464463       -12.6387
  26   2.0000      -0.455183       -12.3862
  27   2.0000      -0.454432       -12.3657
  28   2.0000      -0.440301       -11.9812
  29   2.0000      -0.402195       -10.9443
  30   0.0000       0.119484         3.2513
  31   0.0000       0.139033         3.7833
  32   0.0000       0.159838         4.3494
  33   0.0000       0.165210         4.4956
  34   0.0000       0.172193         4.6856

MULLIKEN ATOMIC CHARGES
-----------------------
   0 C :   -0.415312
   1 C :   -0.063361
   2 C :   -0.131108
   3 C :   -0.212086
   4 C :    0.035993
   5 C :   -0.204786
   6 C :    0.044163
   7 O :   -0.259135
   8 H :    0.129806
   9 H :    0.138594
  10 H :    0.137448
  11 H :    0.102851
  12 H :    0.139710
  13 H :    0.117749
  14 H :    0.122439
  15 H :    0.118991
  16 H :    0.124394
  17 H :    0.073650
Sum of atomic charges:    0.0000000

LOEWDIN ATOMIC CHARGES
----------------------
   0 C :   -0.292539
   1 C :   -0.179001
   2 C :   -0.161539
   3 C :   -0.164391
   4 C :   -0.201332
   5 C :   -0.165758
   6 C :   -0.266331
   7 O :    0.138177
   8 H :    0.125369
   9 H :    0.128850
  10 H :    0.128070
  11 H :    0.147843
  12 H :    0.124624
  13 H :    0.133246
  14 H :    0.128692
  15 H :    0.130073
  16 H :    0.132034
  17 H :    0.113915

  Mayer bond orders larger than 0.1
B(  0-C ,  1-C ) :   0.9220 B(  0-C ,  8-H ) :   0.9338 B(  0-C ,  9-H ) :   0.9372
B(  0-C , 10-H ) :   0.9358 B(  1-C ,  2-C ) :   0.8855 B(  1-C ,  4-C ) :   0.8439
B(  1-C , 11-H ) :   0.9252 B(  2-C ,  3-C ) :   0.9038 B(  2-C ,  5-C ) :   0.9058
B(  2-C , 12-H ) :   0.8948 B(  3-C ,  4-C ) :   0.8520 B(  3-C , 13-H ) :   0.9264
B(  3-C , 14-H ) :   0.9301 B(  4-C ,  5-C ) :   0.8633 B(  4-C ,  6-C ) :   0.7677
B(  4-C ,  7-O ) :  -0.1261 B(  4-C , 17-H ) :  -0.1097 B(  5-C , 15-H ) :   0.9294
B(  5-C , 16-H ) :   0.9254 B(  6-C ,  7-O ) :   2.0378 B(  6-C , 17-H ) :   0.9792

MP2 TOTAL ENERGY:     -347.157641783 Eh
FINAL SINGLE POINT ENERGY      -347.157641782722

DIPOLE MOMENT
-------------
                                X             Y             Z
Electronic contribution:      1.62263      -2.00274       5.38885
Nuclear contribution   :     -2.14187       1.78448      -6.35269
                        -----------------------------------------
Total Dipole Moment    :     -0.51924      -0.21825      -0.96384
                        -----------------------------------------
Magnitude (a.u.)       :      1.11634
Magnitude (Debye)      :      2.83752

                             ****ORCA TERMINATED NORMALLY****
TOTAL RUN TIME: 0 days 0 hours 13 minutes 41 seconds 753 msec
