                         Program Version 3.0.3 - RELEASE   -
|  1> ! RI-MP2 RIJK def2-TZVP def2-TZVP/C def2-TZVP/JK TIGHTSCF
|  2> % maxcore 2000
|  3> % mp2 density relaxed end
|  4> *xyz 0 1
|  5>  C        0.1531977585     1.5206949243     0.0160353100
|  6>  O        1.1823346344     0.5518242352    -0.1667931510
|  7>  C       -0.1529601335     0.0765547230     0.0145585465
|  8>  C       -0.4369771894    -0.6714673912     1.2657737724
|  9>  C        0.4235471276    -0.6500045331     2.3648601309
| 10>  N        0.1614361527    -1.3045059322     3.4964441237
| 11>  C       -0.9789769231    -1.9972922788     3.5210476065
| 12>  N       -1.8684607707    -2.1146918593     2.5338868490
| 13>  C       -1.5828443964    -1.4512808226     1.4130708300
| 14>  H        0.1738581736     2.0541434498     0.9650354924
| 15>  H       -0.0867696174     2.1219416067    -0.8595758781
| 16>  H       -0.6104770651    -0.3358445013    -0.8855290366
| 17>  H        1.3584827378    -0.0983256242     2.3133967255
| 18>  H       -1.2039323473    -2.5291653947     4.4421213271
| 19>  H       -2.2972031016    -1.5466622115     0.5962142618
| 20> *
| 21>
| 22>                          ****END OF INPUT****

CARTESIAN COORDINATES (ANGSTROEM)
---------------------------------
  C      0.153198    1.520695    0.016035
  O      1.182335    0.551824   -0.166793
  C     -0.152960    0.076555    0.014559
  C     -0.436977   -0.671467    1.265774
  C      0.423547   -0.650005    2.364860
  N      0.161436   -1.304506    3.496444
  C     -0.978977   -1.997292    3.521048
  N     -1.868461   -2.114692    2.533887
  C     -1.582844   -1.451281    1.413071
  H      0.173858    2.054143    0.965035
  H     -0.086770    2.121942   -0.859576
  H     -0.610477   -0.335845   -0.885529
  H      1.358483   -0.098326    2.313397
  H     -1.203932   -2.529165    4.442121
  H     -2.297203   -1.546662    0.596214

 Total Charge           Charge          ....    0
 Multiplicity           Mult            ....    1
 Number of Electrons    NEL             ....   64
 Basis Dimension        Dim             ....  315

ORBITAL ENERGIES
----------------

  NO   OCC          E(Eh)            E(eV)
   0   2.0000     -20.589418      -560.2665
   1   2.0000     -15.577667      -423.8899
   2   2.0000     -15.576766      -423.8653
   3   2.0000     -11.314992      -307.8966
   4   2.0000     -11.314221      -307.8756
   5   2.0000     -11.302921      -307.5681
   6   2.0000     -11.301782      -307.5371
   7   2.0000     -11.299274      -307.4689
   8   2.0000     -11.260693      -306.4190
   9   2.0000      -1.433980       -39.0206
  10   2.0000      -1.316823       -35.8326
  11   2.0000      -1.199446       -32.6386
  12   2.0000      -1.098896       -29.9025
  13   2.0000      -0.957229       -26.0475
  14   2.0000      -0.911405       -24.8006
  15   2.0000      -0.902130       -24.5482
  16   2.0000      -0.842645       -22.9295
  17   2.0000      -0.745026       -20.2732
  18   2.0000      -0.729527       -19.8514
  19   2.0000      -0.696644       -18.9567
  20   2.0000      -0.675961       -18.3938
  21   2.0000      -0.597853       -16.2684
  22   2.0000      -0.590488       -16.0680
  23   2.0000      -0.586519       -15.9600
  24   2.0000      -0.579887       -15.7795
  25   2.0000      -0.564934       -15.3726
  26   2.0000      -0.490905       -13.3582
  27   2.0000      -0.485027       -13.1982
  28   2.0000      -0.463205       -12.6045
  29   2.0000      -0.426718       -11.6116
  30   2.0000      -0.417958       -11.3732
  31   2.0000      -0.363108        -9.8807
  32   0.0000       0.086336         2.3493
  33   0.0000       0.099807         2.7159
  34   0.0000       0.149323         4.0633
  35   0.0000       0.161009         4.3813
  36   0.0000       0.174408         4.7459

MULLIKEN ATOMIC CHARGES
-----------------------
   0 C :   -0.068482
   1 O :   -0.319477
   2 C :    0.010293
   3 C :    0.090152
   4 C :   -0.081214
   5 N :   -0.234307
   6 C :    0.088083
   7 N :   -0.238200
   8 C :   -0.097758
   9 H :    0.134029
  10 H :    0.130561
  11 H :    0.148915
  12 H :    0.162889
  13 H :    0.139596
  14 H :    0.134919
Sum of atomic charges:   -0.0000000

LOEWDIN ATOMIC CHARGES
----------------------
   0 C :   -0.248794
   1 O :    0.162704
   2 C :   -0.249014
   3 C :   -0.146878
   4 C :   -0.157723
   5 N :    0.132494
   6 C :   -0.282972
   7 N :    0.130897
   8 C :   -0.167521
   9 H :    0.125242
  10 H :    0.123106
  11 H :    0.148297
  12 H :    0.150177
  13 H :    0.135285
  14 H :    0.144699

  Mayer bond orders larger than 0.1
B(  0-C ,  1-O ) :   0.8866 B(  0-C ,  2-C ) :   0.9631 B(  0-C ,  9-H ) :   0.9086
B(  0-C , 10-H ) :   0.9246 B(  1-O ,  2-C ) :   0.9191 B(  2-C ,  3-C ) :   0.9138
B(  2-C , 11-H ) :   0.9126 B(  3-C ,  4-C ) :   1.2939 B(  3-C ,  8-C ) :   1.2740
B(  4-C ,  5-N ) :   1.4005 B(  4-C , 12-H ) :   0.9348 B(  5-N ,  6-C ) :   1.3660
B(  6-C ,  7-N ) :   1.3649 B(  6-C , 13-H ) :   0.9365 B(  7-N ,  8-C ) :   1.4090
B(  8-C , 14-H ) :   0.9582

MP2 TOTAL ENERGY:     -416.111457694 Eh
FINAL SINGLE POINT ENERGY      -416.111457693566

DIPOLE MOMENT
-------------
                                X             Y             Z
Electronic contribution:      0.27616      -2.53641       1.94382
Nuclear contribution   :     -0.70537       3.26498      -2.67840
                        -----------------------------------------
Total Dipole Moment    :     -0.42921       0.72857      -0.73458
                        -----------------------------------------
Magnitude (a.u.)       :      1.12011
Magnitude (Debye)      :      2.84708

                             ****ORCA TERMINATED NORMALLY****
TOTAL RUN TIME: 0 days 0 hours 14 minutes 20 seconds 222 msec
