                         Program Version 3.0.3 - RELEASE   -
|  1> ! RI-MP2 RIJK def2-TZVP def2-TZVP/C def2-TZVP/JK TIGHTSCF
|  2> % maxcore 2000
|  3> % mp2 density relaxed end
|  4> *xyz 0 1
|  5>  N        0.0335568761     1.3241720460     0.2108513062
|  6>  C       -0.0434114033    -0.0259913829     0.0750823783
|  7>  N       -1.1054450614    -0.7479353278     0.1101812806
|  8>  C       -0.7461893753    -2.1648554194    -0.0836877794
|  9>  C        0.7875717273    -2.2733880512     0.0096524567
| 10>  O        1.3659216771    -3.1150795465    -0.9568347228
| 11>  C        1.2092049437    -0.8185442099    -0.1480526588
| 12>  O        2.3010954245    -0.4045350301    -0.4578770525
| 13>  H        0.8929086840     1.7493544328    -0.1012779929
| 14>  H       -0.8113136439     1.8594154636     0.0889956815
| 15>  H       -1.2676716147    -2.7774137578     0.6572372623
| 16>  H       -1.0725821215    -2.4998003281    -1.0749366196
| 17>  H        1.0708879822    -2.5798273927     1.0329574682
| 18>  H        2.2634940553    -2.7891669060    -1.1073885979
| 19> *
| 20>
| 21>                          ****END OF INPUT****

CARTESIAN COORDINATES (ANGSTROEM)
---------------------------------
  N      0.033557    1.324172    0.210851
  C     -0.043411   -0.025991    0.075082
  N     -1.105445   -0.747935    0.110181
  C     -0.746189   -2.164855   -0.083688
  C      0.787572   -2.273388    0.009652
  O      1.365922   -3.115080   -0.956835
  C      1.209205   -0.818544   -0.148053
  O      2.301095   -0.404535   -0.457877
  H      0.892909    1.749354   -0.101278
  H     -0.811314    1.859415    0.088996
  H     -1.267672   -2.777414    0.657237
  H     -1.072582   -2.499800   -1.074937
  H      1.070888   -2.579827    1.032957
  H      2.263494   -2.789167   -1.107389

 Total Charge           Charge          ....    0
 Multiplicity           Mult            ....    1
 Number of Electrons    NEL             ....   60
 Basis Dimension        Dim             ....  284

ORBITAL ENERGIES
----------------

  NO   OCC          E(Eh)            E(eV)
   0   2.0000     -20.585625      -560.1633
   1   2.0000     -20.577202      -559.9341
   2   2.0000     -15.588395      -424.1818
   3   2.0000     -15.567021      -423.6002
   4   2.0000     -11.356235      -309.0189
   5   2.0000     -11.329018      -308.2783
   6   2.0000     -11.305911      -307.6495
   7   2.0000     -11.266958      -306.5895
   8   2.0000      -1.429656       -38.9029
   9   2.0000      -1.381819       -37.6012
  10   2.0000      -1.293475       -35.1972
  11   2.0000      -1.200326       -32.6625
  12   2.0000      -1.018701       -27.7203
  13   2.0000      -0.954765       -25.9805
  14   2.0000      -0.833345       -22.6765
  15   2.0000      -0.782784       -21.3006
  16   2.0000      -0.722656       -19.6645
  17   2.0000      -0.712336       -19.3836
  18   2.0000      -0.695419       -18.9233
  19   2.0000      -0.672862       -18.3095
  20   2.0000      -0.610168       -16.6035
  21   2.0000      -0.602862       -16.4047
  22   2.0000      -0.576287       -15.6816
  23   2.0000      -0.572827       -15.5874
  24   2.0000      -0.551057       -14.9950
  25   2.0000      -0.520418       -14.1613
  26   2.0000      -0.503290       -13.6952
  27   2.0000      -0.451192       -12.2776
  28   2.0000      -0.410328       -11.1656
  29   2.0000      -0.373454       -10.1622
  30   0.0000       0.074271         2.0210
  31   0.0000       0.133495         3.6326
  32   0.0000       0.150829         4.1043
  33   0.0000       0.168962         4.5977
  34   0.0000       0.182778         4.9737

MULLIKEN ATOMIC CHARGES
-----------------------
   0 N :   -0.498334
   1 C :    0.116775
   2 N :   -0.219951
   3 C :   -0.112213
   4 C :    0.120967
   5 O :   -0.471293
   6 C :    0.126767
   7 O :   -0.295772
   8 H :    0.274628
   9 H :    0.264603
  10 H :    0.127762
  11 H :    0.128310
  12 H :    0.107025
  13 H :    0.330725
Sum of atomic charges:   -0.0000000

LOEWDIN ATOMIC CHARGES
----------------------
   0 N :   -0.018290
   1 C :   -0.360884
   2 N :    0.109700
   3 C :   -0.246999
   4 C :   -0.318367
   5 O :   -0.005773
   6 C :   -0.282547
   7 O :    0.154179
   8 H :    0.181279
   9 H :    0.176840
  10 H :    0.131873
  11 H :    0.141426
  12 H :    0.152349
  13 H :    0.185217

  Mayer bond orders larger than 0.1
B(  0-N ,  1-C ) :   1.1511 B(  0-N ,  8-H ) :   0.8574 B(  0-N ,  9-H ) :   0.8613
B(  1-C ,  2-N ) :   1.7651 B(  1-C ,  6-C ) :   0.9172 B(  2-N ,  3-C ) :   0.9200
B(  3-C ,  4-C ) :   0.9119 B(  3-C , 10-H ) :   0.9265 B(  3-C , 11-H ) :   0.9064
B(  4-C ,  5-O ) :   0.9858 B(  4-C ,  6-C ) :   0.9214 B(  4-C , 12-H ) :   0.8993
B(  5-O , 13-H ) :   0.8259 B(  6-C ,  7-O ) :   1.9467

MP2 TOTAL ENERGY:     -415.225225529 Eh
FINAL SINGLE POINT ENERGY      -415.225225528674

DIPOLE MOMENT
-------------
                                X             Y             Z
Electronic contribution:      1.97635       1.29789      -0.39051
Nuclear contribution   :     -1.88592      -0.74904       0.52183
                        -----------------------------------------
Total Dipole Moment    :      0.09044       0.54885       0.13132
                        -----------------------------------------
Magnitude (a.u.)       :      0.57154
Magnitude (Debye)      :      1.45275

                             ****ORCA TERMINATED NORMALLY****
TOTAL RUN TIME: 0 days 0 hours 9 minutes 57 seconds 268 msec
