                         Program Version 3.0.3 - RELEASE   -
|  1> ! RI-MP2 RIJK def2-TZVP def2-TZVP/C def2-TZVP/JK TIGHTSCF
|  2> % maxcore 2000
|  3> % mp2 density relaxed end
|  4> *xyz 0 1
|  5>  O        0.0067120184    -0.0917688230     0.1194803178
|  6>  C       -0.0066576036     1.1129199006     0.0326281852
|  7>  C       -1.3029253226     1.9110186058     0.0070525331
|  8>  C       -1.6774456400     2.3465642479     1.4438251464
|  9>  C       -0.6573643486     3.2472500109     2.1444404377
| 10>  O        0.6015504161     2.6076366867     2.3574237846
| 11>  C        1.4927078744     2.7583382016     1.2960284728
| 12>  C        2.3707304236     1.5887321739     0.9679115357
| 13>  C        1.2464824460     1.9572482928     0.0366159099
| 14>  H       -1.1906264771     2.7969100581    -0.6296889235
| 15>  H       -2.0965228404     1.2793104696    -0.4007316727
| 16>  H       -2.6350764349     2.8801523241     1.4117272827
| 17>  H       -1.8284923232     1.4499254832     2.0551263194
| 18>  H       -0.5153960484     4.1839070733     1.5841879354
| 19>  H       -1.0322530362     3.5102801578     3.1389179754
| 20>  H        1.9009801024     3.7647474365     1.1946723956
| 21>  H        3.3933844829     1.7808612801     0.6643256070
| 22>  H        2.2229127636     0.6885974903     1.5538859259
| 23>  H        1.4668786376     2.4400280499    -0.9122902285
| 24> *
| 25>
| 26>                          ****END OF INPUT****

CARTESIAN COORDINATES (ANGSTROEM)
---------------------------------
  O      0.006712   -0.091769    0.119480
  C     -0.006658    1.112920    0.032628
  C     -1.302925    1.911019    0.007053
  C     -1.677446    2.346564    1.443825
  C     -0.657364    3.247250    2.144440
  O      0.601550    2.607637    2.357424
  C      1.492708    2.758338    1.296028
  C      2.370730    1.588732    0.967912
  C      1.246482    1.957248    0.036616
  H     -1.190626    2.796910   -0.629689
  H     -2.096523    1.279310   -0.400732
  H     -2.635076    2.880152    1.411727
  H     -1.828492    1.449925    2.055126
  H     -0.515396    4.183907    1.584188
  H     -1.032253    3.510280    3.138918
  H      1.900980    3.764747    1.194672
  H      3.393384    1.780861    0.664326
  H      2.222913    0.688597    1.553886
  H      1.466879    2.440028   -0.912290

 Total Charge           Charge          ....    0
 Multiplicity           Mult            ....    1
 Number of Electrons    NEL             ....   68
 Basis Dimension        Dim             ....  339

ORBITAL ENERGIES
----------------

  NO   OCC          E(Eh)            E(eV)
   0   2.0000     -20.568900      -559.7082
   1   2.0000     -20.543551      -559.0184
   2   2.0000     -11.329318      -308.2864
   3   2.0000     -11.295418      -307.3640
   4   2.0000     -11.286964      -307.1339
   5   2.0000     -11.243288      -305.9454
   6   2.0000     -11.240597      -305.8722
   7   2.0000     -11.239633      -305.8460
   8   2.0000     -11.233865      -305.6890
   9   2.0000      -1.395220       -37.9659
  10   2.0000      -1.384491       -37.6739
  11   2.0000      -1.149033       -31.2668
  12   2.0000      -1.080296       -29.3963
  13   2.0000      -0.963436       -26.2164
  14   2.0000      -0.901280       -24.5251
  15   2.0000      -0.830051       -22.5868
  16   2.0000      -0.807087       -21.9620
  17   2.0000      -0.733975       -19.9725
  18   2.0000      -0.696673       -18.9574
  19   2.0000      -0.692816       -18.8525
  20   2.0000      -0.657960       -17.9040
  21   2.0000      -0.631564       -17.1857
  22   2.0000      -0.616239       -16.7687
  23   2.0000      -0.606101       -16.4928
  24   2.0000      -0.570912       -15.5353
  25   2.0000      -0.549325       -14.9479
  26   2.0000      -0.540089       -14.6966
  27   2.0000      -0.517541       -14.0830
  28   2.0000      -0.514903       -14.0112
  29   2.0000      -0.479150       -13.0383
  30   2.0000      -0.471945       -12.8423
  31   2.0000      -0.428230       -11.6527
  32   2.0000      -0.407184       -11.0800
  33   2.0000      -0.399450       -10.8696
  34   0.0000       0.121179         3.2975
  35   0.0000       0.149308         4.0629
  36   0.0000       0.153454         4.1757
  37   0.0000       0.167048         4.5456
  38   0.0000       0.171935         4.6786

MULLIKEN ATOMIC CHARGES
-----------------------
   0 O :   -0.272483
   1 C :    0.179362
   2 C :   -0.199945
   3 C :   -0.223126
   4 C :   -0.080355
   5 O :   -0.299968
   6 C :   -0.000465
   7 C :   -0.280411
   8 C :   -0.104143
   9 H :    0.113626
  10 H :    0.138830
  11 H :    0.126672
  12 H :    0.128211
  13 H :    0.096494
  14 H :    0.134652
  15 H :    0.108486
  16 H :    0.136732
  17 H :    0.155521
  18 H :    0.142312
Sum of atomic charges:    0.0000000

LOEWDIN ATOMIC CHARGES
----------------------
   0 O :    0.165139
   1 C :   -0.310014
   2 C :   -0.226063
   3 C :   -0.260896
   4 C :   -0.304060
   5 O :    0.191014
   6 C :   -0.294115
   7 C :   -0.188204
   8 C :   -0.187930
   9 H :    0.144840
  10 H :    0.147643
  11 H :    0.144401
  12 H :    0.147201
  13 H :    0.123740
  14 H :    0.132269
  15 H :    0.132847
  16 H :    0.136025
  17 H :    0.150031
  18 H :    0.156132

  Mayer bond orders larger than 0.1
B(  0-O ,  1-C ) :   2.0249 B(  1-C ,  2-C ) :   0.9003 B(  1-C ,  8-C ) :   0.8802
B(  2-C ,  3-C ) :   0.9014 B(  2-C ,  9-H ) :   0.9155 B(  2-C , 10-H ) :   0.9210
B(  3-C ,  4-C ) :   0.9449 B(  3-C , 11-H ) :   0.9193 B(  3-C , 12-H ) :   0.9214
B(  4-C ,  5-O ) :   0.8988 B(  4-C , 13-H ) :   0.9330 B(  4-C , 14-H ) :   0.9316
B(  5-O ,  6-C ) :   0.9994 B(  6-C ,  7-C ) :   0.9073 B(  6-C ,  8-C ) :   0.8740
B(  6-C , 15-H ) :   0.9411 B(  7-C ,  8-C ) :   0.8879 B(  7-C , 16-H ) :   0.9240
B(  7-C , 17-H ) :   0.9149 B(  8-C , 18-H ) :   0.8973

MP2 TOTAL ENERGY:     -422.321458127 Eh
FINAL SINGLE POINT ENERGY      -422.321458126552

DIPOLE MOMENT
-------------
                                X             Y             Z
Electronic contribution:      2.06661      -3.74985      -0.42193
Nuclear contribution   :     -2.30132       5.04370       0.10465
                        -----------------------------------------
Total Dipole Moment    :     -0.23471       1.29385      -0.31728
                        -----------------------------------------
Magnitude (a.u.)       :      1.35270
Magnitude (Debye)      :      3.43830

                             ****ORCA TERMINATED NORMALLY****
TOTAL RUN TIME: 0 days 0 hours 19 minutes 19 seconds 873 msec
