                         Program Version 3.0.3 - RELEASE   -
|  1> ! RI-MP2 RIJK def2-TZVP def2-TZVP/C def2-TZVP/JK TIGHTSCF
|  2> % maxcore 2000
|  3> % mp2 density relaxed end
|  4> *xyz 0 1
|  5>  C       -0.0566386840     1.5318440114     0.0289320073
|  6>  C        0.0350453430     0.0375991614     0.0104190674
|  7>  C       -0.0756189951    -0.8639546569    -1.2167357757
|  8>  C        0.9652451214    -1.9645368403    -1.1885823899
|  9>  C        1.0379844607    -2.1453208359     0.3111847652
| 10>  C        0.7844659933    -0.8626601887     1.0143320184
| 11>  N       -0.2892087461    -1.9085940492     0.9659668657
| 12>  C       -1.0108956078    -1.0448028496    -0.0464847402
| 13>  H        0.9076286003     1.9961688110    -0.2109607011
| 14>  H       -0.7863694423     1.8881370285    -0.7053406721
| 15>  H       -0.3686056480     1.9015999072     1.0123768286
| 16>  H       -0.4556271234    -0.4427542889    -2.1394964917
| 17>  H        0.6309239813    -2.8724221547    -1.7022057063
| 18>  H        1.9290407751    -1.6580503671    -1.6097699628
| 19>  H        1.6321740064    -2.9285813673     0.7687095117
| 20>  H        1.2323232293    -0.5490506044     1.9510404955
| 21>  H       -2.0925752640    -1.0267035562    -0.0728355601
| 22> *
| 23>
| 24>                          ****END OF INPUT****

CARTESIAN COORDINATES (ANGSTROEM)
---------------------------------
  C     -0.056639    1.531844    0.028932
  C      0.035045    0.037599    0.010419
  C     -0.075619   -0.863955   -1.216736
  C      0.965245   -1.964537   -1.188582
  C      1.037984   -2.145321    0.311185
  C      0.784466   -0.862660    1.014332
  N     -0.289209   -1.908594    0.965967
  C     -1.010896   -1.044803   -0.046485
  H      0.907629    1.996169   -0.210961
  H     -0.786369    1.888137   -0.705341
  H     -0.368606    1.901600    1.012377
  H     -0.455627   -0.442754   -2.139496
  H      0.630924   -2.872422   -1.702206
  H      1.929041   -1.658050   -1.609770
  H      1.632174   -2.928581    0.768710
  H      1.232323   -0.549051    1.951040
  H     -2.092575   -1.026704   -0.072836

 Total Charge           Charge          ....    0
 Multiplicity           Mult            ....    1
 Number of Electrons    NEL             ....   58
 Basis Dimension        Dim             ....  302

ORBITAL ENERGIES
----------------

  NO   OCC          E(Eh)            E(eV)
   0   2.0000     -15.553589      -423.2347
   1   2.0000     -11.257080      -306.3207
   2   2.0000     -11.256008      -306.2916
   3   2.0000     -11.253195      -306.2150
   4   2.0000     -11.241529      -305.8976
   5   2.0000     -11.233696      -305.6844
   6   2.0000     -11.228253      -305.5363
   7   2.0000     -11.225849      -305.4709
   8   2.0000      -1.315916       -35.8079
   9   2.0000      -1.100806       -29.9545
  10   2.0000      -1.019689       -27.7472
  11   2.0000      -0.974730       -26.5238
  12   2.0000      -0.884581       -24.0707
  13   2.0000      -0.792999       -21.5786
  14   2.0000      -0.769519       -20.9397
  15   2.0000      -0.731538       -19.9062
  16   2.0000      -0.674065       -18.3422
  17   2.0000      -0.609418       -16.5831
  18   2.0000      -0.607149       -16.5214
  19   2.0000      -0.579358       -15.7651
  20   2.0000      -0.573292       -15.6001
  21   2.0000      -0.557683       -15.1753
  22   2.0000      -0.536341       -14.5946
  23   2.0000      -0.499646       -13.5961
  24   2.0000      -0.462098       -12.5743
  25   2.0000      -0.449877       -12.2418
  26   2.0000      -0.420468       -11.4415
  27   2.0000      -0.374329       -10.1860
  28   2.0000      -0.340805        -9.2738
  29   0.0000       0.138604         3.7716
  30   0.0000       0.160754         4.3743
  31   0.0000       0.175548         4.7769
  32   0.0000       0.180656         4.9159
  33   0.0000       0.195597         5.3225

MULLIKEN ATOMIC CHARGES
-----------------------
   0 C :   -0.424523
   1 C :    0.030581
   2 C :   -0.189485
   3 C :   -0.145565
   4 C :   -0.127665
   5 C :   -0.035677
   6 N :   -0.215987
   7 C :   -0.072362
   8 H :    0.136050
   9 H :    0.134417
  10 H :    0.139994
  11 H :    0.131288
  12 H :    0.117162
  13 H :    0.116716
  14 H :    0.128887
  15 H :    0.139421
  16 H :    0.136747
Sum of atomic charges:   -0.0000000

LOEWDIN ATOMIC CHARGES
----------------------
   0 C :   -0.274204
   1 C :   -0.193690
   2 C :   -0.165820
   3 C :   -0.214636
   4 C :   -0.218533
   5 C :   -0.154735
   6 N :    0.139276
   7 C :   -0.161021
   8 H :    0.129184
   9 H :    0.131685
  10 H :    0.129979
  11 H :    0.150611
  12 H :    0.143923
  13 H :    0.145159
  14 H :    0.143927
  15 H :    0.134979
  16 H :    0.133917

  Mayer bond orders larger than 0.1
B(  0-C ,  1-C ) :   0.8483 B(  0-C ,  8-H ) :   0.9399 B(  0-C ,  9-H ) :   0.9454
B(  0-C , 10-H ) :   0.9447 B(  1-C ,  2-C ) :   0.8394 B(  1-C ,  5-C ) :   0.9398
B(  1-C ,  7-C ) :   0.8912 B(  2-C ,  3-C ) :   0.9435 B(  2-C ,  7-C ) :   0.8797
B(  2-C , 11-H ) :   0.9255 B(  3-C ,  4-C ) :   0.9573 B(  3-C , 12-H ) :   0.9121
B(  3-C , 13-H ) :   0.9087 B(  4-C ,  5-C ) :   0.9283 B(  4-C ,  6-N ) :   0.9089
B(  4-C , 14-H ) :   0.9265 B(  5-C ,  6-N ) :   0.8758 B(  5-C , 15-H ) :   0.8957
B(  6-N ,  7-C ) :   0.9651 B(  7-C , 16-H ) :   0.9189

MP2 TOTAL ENERGY:     -326.082676366 Eh
FINAL SINGLE POINT ENERGY      -326.082676366033

DIPOLE MOMENT
-------------
                                X             Y             Z
Electronic contribution:     -0.66637      -3.46278       1.81863
Nuclear contribution   :      0.98461       3.95796      -2.35791
                        -----------------------------------------
Total Dipole Moment    :      0.31824       0.49518      -0.53928
                        -----------------------------------------
Magnitude (a.u.)       :      0.79831
Magnitude (Debye)      :      2.02914

                             ****ORCA TERMINATED NORMALLY****
TOTAL RUN TIME: 0 days 0 hours 14 minutes 2 seconds 971 msec
