                         Program Version 3.0.3 - RELEASE   -
|  1> ! RI-MP2 RIJK def2-TZVP def2-TZVP/C def2-TZVP/JK TIGHTSCF
|  2> % maxcore 2000
|  3> % mp2 density relaxed end
|  4> *xyz 0 1
|  5>  C        0.0236307340     1.4625570848     0.0371980340
|  6>  N       -0.0617499111     0.0157031248     0.0655819694
|  7>  C       -1.2280226935    -0.6546926546    -0.0896965434
|  8>  O       -2.3254217836    -0.1385813284    -0.2270946751
|  9>  C       -1.0896054464    -2.1911968967    -0.0889044568
| 10>  C       -1.0651803068    -2.7216411064    -1.5161012518
| 11>  O        0.1137959423    -2.6243740219     0.5584604782
| 12>  C       -2.2809621563    -2.7520750492     0.7057899003
| 13>  O       -3.0822958097    -3.5373188541     0.2857374889
| 14>  H        0.4765226123     1.8501358979     0.9559009694
| 15>  H        0.6136776640     1.8105928470    -0.8177495711
| 16>  H       -0.9928203288     1.8483537382    -0.0520502966
| 17>  H        0.7711670370    -0.5460889569     0.1541750275
| 18>  H       -0.1654730255    -2.3727102493    -2.0292924169
| 19>  H       -1.0738833416    -3.8130388385    -1.5065898657
| 20>  H       -1.9467308864    -2.3680159053    -2.0533533832
| 21>  H        0.0365510611    -2.4421499527     1.5037071192
| 22>  H       -2.3098219612    -2.3975842089     1.7642966937
| 23> *
| 24>
| 25>                          ****END OF INPUT****

CARTESIAN COORDINATES (ANGSTROEM)
---------------------------------
  C      0.023631    1.462557    0.037198
  N     -0.061750    0.015703    0.065582
  C     -1.228023   -0.654693   -0.089697
  O     -2.325422   -0.138581   -0.227095
  C     -1.089605   -2.191197   -0.088904
  C     -1.065180   -2.721641   -1.516101
  O      0.113796   -2.624374    0.558460
  C     -2.280962   -2.752075    0.705790
  O     -3.082296   -3.537319    0.285737
  H      0.476523    1.850136    0.955901
  H      0.613678    1.810593   -0.817750
  H     -0.992820    1.848354   -0.052050
  H      0.771167   -0.546089    0.154175
  H     -0.165473   -2.372710   -2.029292
  H     -1.073883   -3.813039   -1.506590
  H     -1.946731   -2.368016   -2.053353
  H      0.036551   -2.442150    1.503707
  H     -2.309822   -2.397584    1.764297

 Total Charge           Charge          ....    0
 Multiplicity           Mult            ....    1
 Number of Electrons    NEL             ....   70
 Basis Dimension        Dim             ....  333

ORBITAL ENERGIES
----------------

  NO   OCC          E(Eh)            E(eV)
   0   2.0000     -20.601026      -560.5824
   1   2.0000     -20.572267      -559.7999
   2   2.0000     -20.532240      -558.7107
   3   2.0000     -15.600166      -424.5021
   4   2.0000     -11.362747      -309.1961
   5   2.0000     -11.345925      -308.7383
   6   2.0000     -11.325613      -308.1856
   7   2.0000     -11.271708      -306.7188
   8   2.0000     -11.232170      -305.6429
   9   2.0000      -1.422720       -38.7142
  10   2.0000      -1.404004       -38.2049
  11   2.0000      -1.389190       -37.8018
  12   2.0000      -1.246041       -33.9065
  13   2.0000      -1.067028       -29.0353
  14   2.0000      -0.972676       -26.4679
  15   2.0000      -0.924876       -25.1672
  16   2.0000      -0.825174       -22.4541
  17   2.0000      -0.790046       -21.4982
  18   2.0000      -0.757321       -20.6078
  19   2.0000      -0.719371       -19.5751
  20   2.0000      -0.673121       -18.3166
  21   2.0000      -0.658491       -17.9185
  22   2.0000      -0.638368       -17.3709
  23   2.0000      -0.623254       -16.9596
  24   2.0000      -0.603346       -16.4179
  25   2.0000      -0.578026       -15.7289
  26   2.0000      -0.561370       -15.2756
  27   2.0000      -0.555916       -15.1272
  28   2.0000      -0.549759       -14.9597
  29   2.0000      -0.534866       -14.5544
  30   2.0000      -0.529702       -14.4139
  31   2.0000      -0.527807       -14.3624
  32   2.0000      -0.441578       -12.0160
  33   2.0000      -0.419198       -11.4070
  34   2.0000      -0.406975       -11.0743
  35   0.0000       0.105622         2.8741
  36   0.0000       0.129512         3.5242
  37   0.0000       0.143445         3.9033
  38   0.0000       0.161583         4.3969
  39   0.0000       0.173346         4.7170

MULLIKEN ATOMIC CHARGES
-----------------------
   0 C :   -0.292963
   1 N :   -0.315662
   2 C :    0.179719
   3 O :   -0.366445
   4 C :    0.285433
   5 C :   -0.396825
   6 O :   -0.477295
   7 C :    0.061990
   8 O :   -0.237110
   9 H :    0.137640
  10 H :    0.140679
  11 H :    0.178633
  12 H :    0.260249
  13 H :    0.132497
  14 H :    0.149428
  15 H :    0.161563
  16 H :    0.319810
  17 H :    0.078659
Sum of atomic charges:    0.0000000

LOEWDIN ATOMIC CHARGES
----------------------
   0 C :   -0.306797
   1 N :    0.095464
   2 C :   -0.444676
   3 O :    0.089389
   4 C :   -0.369279
   5 C :   -0.252070
   6 O :    0.012914
   7 C :   -0.255564
   8 O :    0.167216
   9 H :    0.116848
  10 H :    0.117840
  11 H :    0.135612
  12 H :    0.189694
  13 H :    0.130372
  14 H :    0.136372
  15 H :    0.143239
  16 H :    0.177973
  17 H :    0.115455

  Mayer bond orders larger than 0.1
B(  0-C ,  1-N ) :   0.8470 B(  0-C ,  9-H ) :   0.9335 B(  0-C , 10-H ) :   0.9345
B(  0-C , 11-H ) :   0.9272 B(  1-N ,  2-C ) :   1.2082 B(  1-N , 12-H ) :   0.8542
B(  2-C ,  3-O ) :   1.9163 B(  2-C ,  4-C ) :   0.8821 B(  4-C ,  5-C ) :   0.8812
B(  4-C ,  6-O ) :   0.8717 B(  4-C ,  7-C ) :   0.8420 B(  5-C , 13-H ) :   0.9251
B(  5-C , 14-H ) :   0.9262 B(  5-C , 15-H ) :   0.9309 B(  6-O , 16-H ) :   0.8331
B(  7-C ,  8-O ) :   2.0260 B(  7-C , 17-H ) :   0.9322

MP2 TOTAL ENERGY:     -475.510186263 Eh
FINAL SINGLE POINT ENERGY      -475.510186262659

DIPOLE MOMENT
-------------
                                X             Y             Z
Electronic contribution:     -4.18224      -3.71597       2.30714
Nuclear contribution   :      5.84387       4.39708      -1.76554
                        -----------------------------------------
Total Dipole Moment    :      1.66163       0.68111       0.54160
                        -----------------------------------------
Magnitude (a.u.)       :      1.87570
Magnitude (Debye)      :      4.76764

                             ****ORCA TERMINATED NORMALLY****
TOTAL RUN TIME: 0 days 0 hours 15 minutes 55 seconds 162 msec
