                         Program Version 3.0.3 - RELEASE   -
|  1> ! RI-MP2 RIJK def2-TZVP def2-TZVP/C def2-TZVP/JK TIGHTSCF
|  2> % maxcore 2000
|  3> % mp2 density relaxed end
|  4> *xyz 0 1
|  5>  C       -0.3322949962     1.5606308008    -0.0223662232
|  6>  N       -0.1801511501     0.1228093580     0.0286425963
|  7>  C       -1.3201657663    -0.6924138489     0.5030671951
|  8>  C       -0.3327009912    -1.5464696433     1.2992421649
|  9>  C       -0.5489404626    -2.3519117567     2.5376494969
| 10>  C       -0.1486759454    -3.0342340518     1.2481382511
| 11>  C        0.7301017781    -0.4557273279     1.0326305341
| 12>  C        2.0499066638    -0.9520481208     0.4849483297
| 13>  O        2.9682275477    -1.3183496990     1.1742603682
| 14>  H        0.6170185110     2.0254690502    -0.3085596235
| 15>  H       -1.0759694521     1.8261677645    -0.7808647729
| 16>  H       -0.6530380944     2.0008242386     0.9405084431
| 17>  H       -2.0176637794    -0.1348672077     1.1496816858
| 18>  H       -1.8909200964    -1.1807559425    -0.2956483536
| 19>  H        0.1942763454    -2.2822533245     3.3253311506
| 20>  H       -1.5680646812    -2.4742358353     2.8912559329
| 21>  H       -0.8964526933    -3.6165837651     0.7193583439
| 22>  H        0.8603529736    -3.4267391861     1.1783017140
| 23>  H        0.9111506568     0.1740365492     1.9184497095
| 24>  H        2.0820795921    -0.9994959717    -0.6272454127
| 25> *
| 26>
| 27>                          ****END OF INPUT****

CARTESIAN COORDINATES (ANGSTROEM)
---------------------------------
  C     -0.332295    1.560631   -0.022366
  N     -0.180151    0.122809    0.028643
  C     -1.320166   -0.692414    0.503067
  C     -0.332701   -1.546470    1.299242
  C     -0.548940   -2.351912    2.537649
  C     -0.148676   -3.034234    1.248138
  C      0.730102   -0.455727    1.032631
  C      2.049907   -0.952048    0.484948
  O      2.968228   -1.318350    1.174260
  H      0.617019    2.025469   -0.308560
  H     -1.075969    1.826168   -0.780865
  H     -0.653038    2.000824    0.940508
  H     -2.017664   -0.134867    1.149682
  H     -1.890920   -1.180756   -0.295648
  H      0.194276   -2.282253    3.325331
  H     -1.568065   -2.474236    2.891256
  H     -0.896453   -3.616584    0.719358
  H      0.860353   -3.426739    1.178302
  H      0.911151    0.174037    1.918450
  H      2.082080   -0.999496   -0.627245

 Total Charge           Charge          ....    0
 Multiplicity           Mult            ....    1
 Number of Electrons    NEL             ....   68
 Basis Dimension        Dim             ....  345

ORBITAL ENERGIES
----------------

  NO   OCC          E(Eh)            E(eV)
   0   2.0000     -20.555301      -559.3382
   1   2.0000     -15.559738      -423.4020
   2   2.0000     -11.325979      -308.1956
   3   2.0000     -11.271133      -306.7031
   4   2.0000     -11.262980      -306.4813
   5   2.0000     -11.253772      -306.2307
   6   2.0000     -11.253655      -306.2275
   7   2.0000     -11.234057      -305.6942
   8   2.0000     -11.233236      -305.6719
   9   2.0000      -1.393786       -37.9268
  10   2.0000      -1.267260       -34.4839
  11   2.0000      -1.143071       -31.1045
  12   2.0000      -1.006075       -27.3767
  13   2.0000      -0.968064       -26.3424
  14   2.0000      -0.844229       -22.9726
  15   2.0000      -0.836582       -22.7646
  16   2.0000      -0.811916       -22.0933
  17   2.0000      -0.739300       -20.1174
  18   2.0000      -0.681261       -18.5381
  19   2.0000      -0.669294       -18.2124
  20   2.0000      -0.662529       -18.0283
  21   2.0000      -0.644986       -17.5510
  22   2.0000      -0.607117       -16.5205
  23   2.0000      -0.587934       -15.9985
  24   2.0000      -0.582386       -15.8475
  25   2.0000      -0.547320       -14.8933
  26   2.0000      -0.530471       -14.4348
  27   2.0000      -0.517592       -14.0844
  28   2.0000      -0.506044       -13.7702
  29   2.0000      -0.471470       -12.8293
  30   2.0000      -0.435076       -11.8390
  31   2.0000      -0.423101       -11.5132
  32   2.0000      -0.409627       -11.1465
  33   2.0000      -0.366490        -9.9727
  34   0.0000       0.122099         3.3225
  35   0.0000       0.137560         3.7432
  36   0.0000       0.153519         4.1775
  37   0.0000       0.164135         4.4663
  38   0.0000       0.175134         4.7656

MULLIKEN ATOMIC CHARGES
-----------------------
   0 C :   -0.327050
   1 N :   -0.157707
   2 C :   -0.150701
   3 C :    0.028077
   4 C :   -0.282968
   5 C :   -0.288876
   6 C :    0.091872
   7 C :    0.014680
   8 O :   -0.263642
   9 H :    0.138400
  10 H :    0.141023
  11 H :    0.111094
  12 H :    0.099646
  13 H :    0.108761
  14 H :    0.139684
  15 H :    0.132066
  16 H :    0.131811
  17 H :    0.147211
  18 H :    0.096205
  19 H :    0.090414
Sum of atomic charges:    0.0000000

LOEWDIN ATOMIC CHARGES
----------------------
   0 C :   -0.336453
   1 N :    0.094362
   2 C :   -0.203549
   3 C :   -0.201424
   4 C :   -0.203679
   5 C :   -0.199678
   6 C :   -0.214149
   7 C :   -0.271642
   8 O :    0.132041
   9 H :    0.120054
  10 H :    0.120470
  11 H :    0.103063
  12 H :    0.124487
  13 H :    0.124237
  14 H :    0.139428
  15 H :    0.135626
  16 H :    0.135204
  17 H :    0.138790
  18 H :    0.149178
  19 H :    0.113633

  Mayer bond orders larger than 0.1
B(  0-C ,  1-N ) :   0.8996 B(  0-C ,  9-H ) :   0.9355 B(  0-C , 10-H ) :   0.9375
B(  0-C , 11-H ) :   0.9269 B(  1-N ,  2-C ) :   0.9505 B(  1-N ,  6-C ) :   0.9361
B(  2-C ,  3-C ) :   0.9016 B(  2-C , 12-H ) :   0.9167 B(  2-C , 13-H ) :   0.9084
B(  3-C ,  4-C ) :   0.8666 B(  3-C ,  5-C ) :   0.8725 B(  3-C ,  6-C ) :   0.8705
B(  4-C ,  5-C ) :   0.9307 B(  4-C , 14-H ) :   0.9177 B(  4-C , 15-H ) :   0.9231
B(  5-C , 16-H ) :   0.9235 B(  5-C , 17-H ) :   0.9177 B(  6-C ,  7-C ) :   0.7829
B(  6-C , 18-H ) :   0.8897 B(  6-C , 19-H ) :  -0.1010 B(  7-C ,  8-O ) :   2.0058
B(  7-C , 19-H ) :   0.9534

MP2 TOTAL ENERGY:     -402.412102950 Eh
FINAL SINGLE POINT ENERGY      -402.412102949756

DIPOLE MOMENT
-------------
                                X             Y             Z
Electronic contribution:      5.63825      -1.73535      -0.12445
Nuclear contribution   :     -6.70661       2.08063       0.04783
                        -----------------------------------------
Total Dipole Moment    :     -1.06836       0.34529      -0.07662
                        -----------------------------------------
Magnitude (a.u.)       :      1.12539
Magnitude (Debye)      :      2.86050

                             ****ORCA TERMINATED NORMALLY****
TOTAL RUN TIME: 0 days 0 hours 19 minutes 55 seconds 657 msec
