                         Program Version 3.0.3 - RELEASE   -
|  1> ! RI-MP2 RIJK def2-TZVP def2-TZVP/C def2-TZVP/JK TIGHTSCF
|  2> % maxcore 2000
|  3> % mp2 density relaxed end
|  4> *xyz 0 1
|  5>  N       -0.1924321778    -1.1685553252     0.5217341737
|  6>  C       -0.1085928746    -0.0301064919     0.3399580004
|  7>  C       -0.0269085150     1.3925331205     0.0842248968
|  8>  O        0.5962549182     2.1917525416     1.0887128419
|  9>  C        1.2769254329     2.0540752008    -0.1616907891
| 10>  C        2.5857359359     1.3255154903    -0.1751714293
| 11>  C        3.2027314750     0.9622918916    -1.5583326478
| 12>  C        4.5967372684     1.3455987074    -0.9922546406
| 13>  C        3.8803741643     2.1329771264     0.1380031748
| 14>  H       -0.9288879780     1.8164359552    -0.3538222039
| 15>  H        1.2339161457     2.9529598266    -0.7812349332
| 16>  H        2.5174267774     0.4420599450     0.4649077206
| 17>  H        3.0513155075    -0.0561217991    -1.9213599455
| 18>  H        2.8779021142     1.6613038183    -2.3364409770
| 19>  H        5.1287590383     0.4729228618    -0.6039488457
| 20>  H        5.2722990886     1.9007492700    -1.6461087560
| 21>  H        3.7620094543     3.1909625026    -0.1184580860
| 22>  H        4.2794647749     2.0644159181     1.1517368958
| 23> *
| 24>
| 25>                          ****END OF INPUT****

CARTESIAN COORDINATES (ANGSTROEM)
---------------------------------
  N     -0.192432   -1.168555    0.521734
  C     -0.108593   -0.030106    0.339958
  C     -0.026909    1.392533    0.084225
  O      0.596255    2.191753    1.088713
  C      1.276925    2.054075   -0.161691
  C      2.585736    1.325515   -0.175171
  C      3.202731    0.962292   -1.558333
  C      4.596737    1.345599   -0.992255
  C      3.880374    2.132977    0.138003
  H     -0.928888    1.816436   -0.353822
  H      1.233916    2.952960   -0.781235
  H      2.517427    0.442060    0.464908
  H      3.051316   -0.056122   -1.921360
  H      2.877902    1.661304   -2.336441
  H      5.128759    0.472923   -0.603949
  H      5.272299    1.900749   -1.646109
  H      3.762009    3.190963   -0.118458
  H      4.279465    2.064416    1.151737

 Total Charge           Charge          ....    0
 Multiplicity           Mult            ....    1
 Number of Electrons    NEL             ....   66
 Basis Dimension        Dim             ....  333

ORBITAL ENERGIES
----------------

  NO   OCC          E(Eh)            E(eV)
   0   2.0000     -20.604925      -560.6885
   1   2.0000     -15.585128      -424.0929
   2   2.0000     -11.343736      -308.6787
   3   2.0000     -11.321777      -308.0812
   4   2.0000     -11.284825      -307.0757
   5   2.0000     -11.249240      -306.1074
   6   2.0000     -11.238399      -305.8124
   7   2.0000     -11.236473      -305.7600
   8   2.0000     -11.233882      -305.6895
   9   2.0000      -1.450431       -39.4682
  10   2.0000      -1.228663       -33.4336
  11   2.0000      -1.148816       -31.2609
  12   2.0000      -1.004305       -27.3285
  13   2.0000      -0.968488       -26.3539
  14   2.0000      -0.912664       -24.8348
  15   2.0000      -0.860048       -23.4031
  16   2.0000      -0.788238       -21.4491
  17   2.0000      -0.731962       -19.9177
  18   2.0000      -0.719020       -19.5655
  19   2.0000      -0.661104       -17.9896
  20   2.0000      -0.641835       -17.4652
  21   2.0000      -0.601844       -16.3770
  22   2.0000      -0.577518       -15.7151
  23   2.0000      -0.556804       -15.1514
  24   2.0000      -0.555643       -15.1198
  25   2.0000      -0.545911       -14.8550
  26   2.0000      -0.505078       -13.7439
  27   2.0000      -0.497189       -13.5292
  28   2.0000      -0.480679       -13.0799
  29   2.0000      -0.467506       -12.7215
  30   2.0000      -0.462035       -12.5726
  31   2.0000      -0.451051       -12.2737
  32   2.0000      -0.428561       -11.6617
  33   0.0000       0.128973         3.5095
  34   0.0000       0.140300         3.8178
  35   0.0000       0.144078         3.9206
  36   0.0000       0.145627         3.9627
  37   0.0000       0.155212         4.2235

MULLIKEN ATOMIC CHARGES
-----------------------
   0 N :   -0.055098
   1 C :   -0.178279
   2 C :    0.123643
   3 O :   -0.302452
   4 C :    0.017003
   5 C :   -0.034665
   6 C :   -0.270056
   7 C :   -0.199855
   8 C :   -0.249053
   9 H :    0.156187
  10 H :    0.132287
  11 H :    0.130792
  12 H :    0.132447
  13 H :    0.112818
  14 H :    0.119537
  15 H :    0.120717
  16 H :    0.114323
  17 H :    0.129704
Sum of atomic charges:    0.0000000

LOEWDIN ATOMIC CHARGES
----------------------
   0 N :    0.079582
   1 C :   -0.168099
   2 C :   -0.257148
   3 O :    0.197692
   4 C :   -0.230723
   5 C :   -0.216868
   6 C :   -0.211075
   7 C :   -0.239972
   8 C :   -0.210187
   9 H :    0.158680
  10 H :    0.145656
  11 H :    0.164843
  12 H :    0.128287
  13 H :    0.135929
  14 H :    0.135703
  15 H :    0.123293
  16 H :    0.136695
  17 H :    0.127710

  Mayer bond orders larger than 0.1
B(  0-N ,  1-C ) :   2.8242 B(  1-C ,  2-C ) :   0.9153 B(  2-C ,  3-O ) :   0.9296
B(  2-C ,  4-C ) :   0.9542 B(  2-C ,  9-H ) :   0.9052 B(  3-O ,  4-C ) :   0.8767
B(  4-C ,  5-C ) :   0.9079 B(  4-C , 10-H ) :   0.9073 B(  5-C ,  6-C ) :   0.9174
B(  5-C ,  8-C ) :   0.9228 B(  5-C , 11-H ) :   0.9066 B(  6-C ,  7-C ) :   0.9382
B(  6-C , 12-H ) :   0.9276 B(  6-C , 13-H ) :   0.9230 B(  7-C ,  8-C ) :   0.9370
B(  7-C , 14-H ) :   0.9270 B(  7-C , 15-H ) :   0.9286 B(  8-C , 16-H ) :   0.9249
B(  8-C , 17-H ) :   0.9308

MP2 TOTAL ENERGY:     -401.229065120 Eh
FINAL SINGLE POINT ENERGY      -401.229065119881

DIPOLE MOMENT
-------------
                                X             Y             Z
Electronic contribution:     -9.91891      -2.64642       4.19843
Nuclear contribution   :     10.44858       3.71272      -5.10010
                        -----------------------------------------
Total Dipole Moment    :      0.52967       1.06629      -0.90167
                        -----------------------------------------
Magnitude (a.u.)       :      1.49350
Magnitude (Debye)      :      3.79618

                             ****ORCA TERMINATED NORMALLY****
TOTAL RUN TIME: 0 days 0 hours 16 minutes 13 seconds 969 msec
