                         Program Version 3.0.3 - RELEASE   -
|  1> ! RI-MP2 RIJK def2-TZVP def2-TZVP/C def2-TZVP/JK TIGHTSCF
|  2> % maxcore 2000
|  3> % mp2 density relaxed end
|  4> *xyz 0 1
|  5>  C        0.1131981958     1.5841231343    -0.0933152088
|  6>  C       -0.0241864552     0.0600151557    -0.0588931081
|  7>  C        0.7213653415    -0.6236605400    -1.2210716961
|  8>  C        0.6264514210    -2.1246672840    -1.1815086054
|  9>  C        1.3049473021    -2.9022926333    -0.0639970382
| 10>  O        2.2389469249    -3.8483851801    -0.5472680337
| 11>  N       -0.0360202409    -2.6792497498    -2.1237278291
| 12>  O       -0.0833764020    -4.0887947351    -1.9659053383
| 13>  H        1.1626268074     1.8894933438    -0.0177018865
| 14>  H       -0.2847698424     1.9956906325    -1.0271772295
| 15>  H       -0.4300641995     2.0492828216     0.7348053816
| 16>  H        0.3523194739    -0.3184588164     0.8998019739
| 17>  H       -1.0831862507    -0.2206301456    -0.1057870856
| 18>  H        0.3184557786    -0.2728323776    -2.1760756432
| 19>  H        1.7820276395    -0.3379976381    -1.1863161552
| 20>  H        1.8627109604    -2.2153338329     0.5783619026
| 21>  H        0.5274111708    -3.3763855131     0.5566691431
| 22>  H        1.7397181419    -4.4291928927    -1.1348782344
| 23>  H       -0.5645469870    -4.3654441393    -2.7521427591
| 24> *
| 25>
| 26>                          ****END OF INPUT****

CARTESIAN COORDINATES (ANGSTROEM)
---------------------------------
  C      0.113198    1.584123   -0.093315
  C     -0.024186    0.060015   -0.058893
  C      0.721365   -0.623661   -1.221072
  C      0.626451   -2.124667   -1.181509
  C      1.304947   -2.902293   -0.063997
  O      2.238947   -3.848385   -0.547268
  N     -0.036020   -2.679250   -2.123728
  O     -0.083376   -4.088795   -1.965905
  H      1.162627    1.889493   -0.017702
  H     -0.284770    1.995691   -1.027177
  H     -0.430064    2.049283    0.734805
  H      0.352319   -0.318459    0.899802
  H     -1.083186   -0.220630   -0.105787
  H      0.318456   -0.272832   -2.176076
  H      1.782028   -0.337998   -1.186316
  H      1.862711   -2.215334    0.578362
  H      0.527411   -3.376386    0.556669
  H      1.739718   -4.429193   -1.134878
  H     -0.564547   -4.365444   -2.752143

 Total Charge           Charge          ....    0
 Multiplicity           Mult            ....    1
 Number of Electrons    NEL             ....   64
 Basis Dimension        Dim             ....  314

ORBITAL ENERGIES
----------------

  NO   OCC          E(Eh)            E(eV)
   0   2.0000     -20.601720      -560.6013
   1   2.0000     -20.551315      -559.2297
   2   2.0000     -15.620819      -425.0641
   3   2.0000     -11.288536      -307.1767
   4   2.0000     -11.282617      -307.0156
   5   2.0000     -11.238145      -305.8055
   6   2.0000     -11.234812      -305.7148
   7   2.0000     -11.222262      -305.3733
   8   2.0000      -1.425651       -38.7939
   9   2.0000      -1.357384       -36.9363
  10   2.0000      -1.177027       -32.0285
  11   2.0000      -1.066755       -29.0279
  12   2.0000      -0.970567       -26.4105
  13   2.0000      -0.933674       -25.4066
  14   2.0000      -0.827029       -22.5046
  15   2.0000      -0.754588       -20.5334
  16   2.0000      -0.726460       -19.7680
  17   2.0000      -0.673970       -18.3396
  18   2.0000      -0.660012       -17.9598
  19   2.0000      -0.628739       -17.1089
  20   2.0000      -0.621336       -16.9074
  21   2.0000      -0.601067       -16.3559
  22   2.0000      -0.585179       -15.9235
  23   2.0000      -0.562678       -15.3112
  24   2.0000      -0.544746       -14.8233
  25   2.0000      -0.529176       -14.3996
  26   2.0000      -0.505246       -13.7485
  27   2.0000      -0.494687       -13.4611
  28   2.0000      -0.484247       -13.1770
  29   2.0000      -0.465312       -12.6618
  30   2.0000      -0.422634       -11.5005
  31   2.0000      -0.392762       -10.6876
  32   0.0000       0.130919         3.5625
  33   0.0000       0.136050         3.7021
  34   0.0000       0.150028         4.0825
  35   0.0000       0.166059         4.5187
  36   0.0000       0.172500         4.6940

MULLIKEN ATOMIC CHARGES
-----------------------
   0 C :   -0.384906
   1 C :   -0.213607
   2 C :   -0.252350
   3 C :    0.074167
   4 C :   -0.040715
   5 O :   -0.478659
   6 N :   -0.097489
   7 O :   -0.406020
   8 H :    0.124669
   9 H :    0.127423
  10 H :    0.136039
  11 H :    0.108504
  12 H :    0.122150
  13 H :    0.127533
  14 H :    0.133642
  15 H :    0.117476
  16 H :    0.120489
  17 H :    0.338486
  18 H :    0.343167
Sum of atomic charges:   -0.0000000

LOEWDIN ATOMIC CHARGES
----------------------
   0 C :   -0.318304
   1 C :   -0.286486
   2 C :   -0.234974
   3 C :   -0.284872
   4 C :   -0.322390
   5 O :   -0.042395
   6 N :    0.032155
   7 O :   -0.088108
   8 H :    0.121282
   9 H :    0.122270
  10 H :    0.122179
  11 H :    0.134755
  12 H :    0.138354
  13 H :    0.148934
  14 H :    0.149504
  15 H :    0.135144
  16 H :    0.129987
  17 H :    0.171359
  18 H :    0.171604

  Mayer bond orders larger than 0.1
B(  0-C ,  1-C ) :   0.9185 B(  0-C ,  8-H ) :   0.9384 B(  0-C ,  9-H ) :   0.9395
B(  0-C , 10-H ) :   0.9409 B(  1-C ,  2-C ) :   0.9122 B(  1-C , 11-H ) :   0.9303
B(  1-C , 12-H ) :   0.9319 B(  2-C ,  3-C ) :   0.9163 B(  2-C , 13-H ) :   0.9206
B(  2-C , 14-H ) :   0.9270 B(  3-C ,  4-C ) :   0.9271 B(  3-C ,  6-N ) :   1.8396
B(  4-C ,  5-O ) :   0.9387 B(  4-C , 15-H ) :   0.9215 B(  4-C , 16-H ) :   0.9199
B(  5-O , 17-H ) :   0.8233 B(  6-N ,  7-O ) :   0.7874 B(  7-O , 18-H ) :   0.8414

MP2 TOTAL ENERGY:     -401.509860323 Eh
FINAL SINGLE POINT ENERGY      -401.509860322632

DIPOLE MOMENT
-------------
                                X             Y             Z
Electronic contribution:      0.72964     -10.22471      -4.17600
Nuclear contribution   :     -1.31269      10.51075       4.13432
                        -----------------------------------------
Total Dipole Moment    :     -0.58305       0.28604      -0.04167
                        -----------------------------------------
Magnitude (a.u.)       :      0.65078
Magnitude (Debye)      :      1.65414

                             ****ORCA TERMINATED NORMALLY****
TOTAL RUN TIME: 0 days 0 hours 11 minutes 13 seconds 282 msec
