                         Program Version 3.0.3 - RELEASE   -
|  1> ! RI-MP2 RIJK def2-TZVP def2-TZVP/C def2-TZVP/JK TIGHTSCF
|  2> % maxcore 2000
|  3> % mp2 density relaxed end
|  4> *xyz 0 1
|  5>  O       -0.0003635810     1.4197718353    -0.0581947619
|  6>  C        0.1128355424     0.0133237089     0.0352674537
|  7>  C        0.5733663293    -0.5469951639     1.4319190212
|  8>  C       -0.7023010759    -0.5463541985     2.3814358954
|  9>  C       -1.1740728550    -1.5065247801     1.2707826491
| 10>  C        0.2765383352    -2.0497816255     1.2003688533
| 11>  O       -2.2972468054    -2.3015004500     0.8689854301
| 12>  C       -2.0899423767    -1.8105699844    -0.5036174879
| 13>  C       -1.3035860781    -0.5998258718     0.0660791218
| 14>  H        0.8818447658     1.7963238312     0.0215155933
| 15>  H        0.7722269320    -0.3792809793    -0.7520459892
| 16>  H        1.5358470080    -0.2087624679     1.8170050180
| 17>  H       -0.4573785599    -1.0025730204     3.3433126468
| 18>  H       -1.2564233177     0.3849500404     2.5144271398
| 19>  H        0.6263326039    -2.5074118881     0.2706708922
| 20>  H        0.5303538391    -2.6795571629     2.0552222653
| 21>  H       -1.5113341063    -2.5304432458    -1.0936634421
| 22>  H       -3.0409924188    -1.5969221618    -0.9967797364
| 23>  H       -2.0114415810     0.2099172547     0.2590807275
| 24> *
| 25>
| 26>                          ****END OF INPUT****

CARTESIAN COORDINATES (ANGSTROEM)
---------------------------------
  O     -0.000364    1.419772   -0.058195
  C      0.112836    0.013324    0.035267
  C      0.573366   -0.546995    1.431919
  C     -0.702301   -0.546354    2.381436
  C     -1.174073   -1.506525    1.270783
  C      0.276538   -2.049782    1.200369
  O     -2.297247   -2.301500    0.868985
  C     -2.089942   -1.810570   -0.503617
  C     -1.303586   -0.599826    0.066079
  H      0.881845    1.796324    0.021516
  H      0.772227   -0.379281   -0.752046
  H      1.535847   -0.208762    1.817005
  H     -0.457379   -1.002573    3.343313
  H     -1.256423    0.384950    2.514427
  H      0.626333   -2.507412    0.270671
  H      0.530354   -2.679557    2.055222
  H     -1.511334   -2.530443   -1.093663
  H     -3.040992   -1.596922   -0.996780
  H     -2.011442    0.209917    0.259081

 Total Charge           Charge          ....    0
 Multiplicity           Mult            ....    1
 Number of Electrons    NEL             ....   68
 Basis Dimension        Dim             ....  339

ORBITAL ENERGIES
----------------

  NO   OCC          E(Eh)            E(eV)
   0   2.0000     -20.562845      -559.5434
   1   2.0000     -20.552344      -559.2577
   2   2.0000     -11.294821      -307.3477
   3   2.0000     -11.286900      -307.1322
   4   2.0000     -11.286240      -307.1142
   5   2.0000     -11.247234      -306.0528
   6   2.0000     -11.236453      -305.7594
   7   2.0000     -11.227939      -305.5278
   8   2.0000     -11.223336      -305.4025
   9   2.0000      -1.380479       -37.5648
  10   2.0000      -1.368656       -37.2430
  11   2.0000      -1.179161       -32.0866
  12   2.0000      -1.007988       -27.4287
  13   2.0000      -0.928365       -25.2621
  14   2.0000      -0.910454       -24.7747
  15   2.0000      -0.886130       -24.1128
  16   2.0000      -0.776850       -21.1392
  17   2.0000      -0.735193       -20.0056
  18   2.0000      -0.701027       -19.0759
  19   2.0000      -0.675086       -18.3700
  20   2.0000      -0.655928       -17.8487
  21   2.0000      -0.631109       -17.1734
  22   2.0000      -0.612072       -16.6553
  23   2.0000      -0.583439       -15.8762
  24   2.0000      -0.556708       -15.1488
  25   2.0000      -0.530803       -14.4439
  26   2.0000      -0.512770       -13.9532
  27   2.0000      -0.503933       -13.7127
  28   2.0000      -0.493281       -13.4228
  29   2.0000      -0.474245       -12.9049
  30   2.0000      -0.457759       -12.4563
  31   2.0000      -0.430182       -11.7058
  32   2.0000      -0.403217       -10.9721
  33   2.0000      -0.397591       -10.8190
  34   0.0000       0.128305         3.4914
  35   0.0000       0.150032         4.0826
  36   0.0000       0.161428         4.3927
  37   0.0000       0.170052         4.6273
  38   0.0000       0.183613         4.9964

MULLIKEN ATOMIC CHARGES
-----------------------
   0 O :   -0.451310
   1 C :   -0.028780
   2 C :   -0.022027
   3 C :   -0.249994
   4 C :    0.186912
   5 C :   -0.315603
   6 O :   -0.319589
   7 C :    0.004168
   8 C :   -0.165604
   9 H :    0.316425
  10 H :    0.094840
  11 H :    0.136681
  12 H :    0.129416
  13 H :    0.123650
  14 H :    0.119617
  15 H :    0.127402
  16 H :    0.090388
  17 H :    0.117874
  18 H :    0.105535
Sum of atomic charges:    0.0000000

LOEWDIN ATOMIC CHARGES
----------------------
   0 O :   -0.014785
   1 C :   -0.295883
   2 C :   -0.176986
   3 C :   -0.168091
   4 C :   -0.308650
   5 C :   -0.176410
   6 O :    0.145776
   7 C :   -0.223117
   8 C :   -0.168468
   9 H :    0.175406
  10 H :    0.132946
  11 H :    0.132067
  12 H :    0.138045
  13 H :    0.132508
  14 H :    0.130617
  15 H :    0.141236
  16 H :    0.119143
  17 H :    0.120513
  18 H :    0.164132

  Mayer bond orders larger than 0.1
B(  0-O ,  1-C ) :   1.0900 B(  0-O ,  9-H ) :   0.8451 B(  1-C ,  2-C ) :   0.8641
B(  1-C ,  8-C ) :   0.9049 B(  1-C , 10-H ) :   0.9662 B(  2-C ,  3-C ) :   0.8839
B(  2-C ,  5-C ) :   0.8984 B(  2-C , 11-H ) :   0.9031 B(  3-C ,  4-C ) :   0.9330
B(  3-C , 12-H ) :   0.9273 B(  3-C , 13-H ) :   0.9068 B(  4-C ,  5-C ) :   0.9156
B(  4-C ,  6-O ) :   0.9735 B(  4-C ,  8-C ) :   0.8928 B(  5-C , 14-H ) :   0.9156
B(  5-C , 15-H ) :   0.9176 B(  6-O ,  7-C ) :   0.9110 B(  7-C ,  8-C ) :   0.9681
B(  7-C , 16-H ) :   0.8977 B(  7-C , 17-H ) :   0.9107 B(  8-C , 18-H ) :   0.9113

MP2 TOTAL ENERGY:     -422.260795565 Eh
FINAL SINGLE POINT ENERGY      -422.260795564942

DIPOLE MOMENT
-------------
                                X             Y             Z
Electronic contribution:     -2.13509       0.23460      -0.37666
Nuclear contribution   :      3.17537       0.00629       0.19304
                        -----------------------------------------
Total Dipole Moment    :      1.04028       0.24089      -0.18362
                        -----------------------------------------
Magnitude (a.u.)       :      1.08348
Magnitude (Debye)      :      2.75399

                             ****ORCA TERMINATED NORMALLY****
TOTAL RUN TIME: 0 days 0 hours 17 minutes 41 seconds 920 msec
