                         Program Version 3.0.3 - RELEASE   -
|  1> ! RI-MP2 RIJK def2-TZVP def2-TZVP/C def2-TZVP/JK TIGHTSCF
|  2> % maxcore 2000
|  3> % mp2 density relaxed end
|  4> *xyz 0 1
|  5>  N       -0.0378282355    -1.2078383819     0.0438254036
|  6>  C       -0.0202910854    -0.0510862148     0.0552560949
|  7>  C        0.0139967982     1.4028332710     0.0846941024
|  8>  C       -0.2055680106     1.9999857154     1.5155301684
|  9>  C        1.3291641301     2.1503922561     1.6638298795
| 10>  C        1.4723717705     2.0097414967     0.1217728231
| 11>  C        2.6180544882     1.2329103041    -0.4557356747
| 12>  C        3.0130682536     1.4128509036    -1.9019074891
| 13>  C        3.9071959257     1.9365163469    -0.8074227823
| 14>  H       -0.6382001956     1.7834936610    -0.7050758110
| 15>  H       -0.7163618542     2.9633596956     1.4499351417
| 16>  H       -0.7288465621     1.3679916810     2.2336590958
| 17>  H        1.7084427551     3.0660850100     2.1215361441
| 18>  H        1.7694732007     1.2925273812     2.1803331353
| 19>  H        1.4222186706     2.9985667394    -0.3472671510
| 20>  H        2.7174887494     0.2256314920    -0.0606269956
| 21>  H        3.3311957212     0.5377805596    -2.4567873537
| 22>  H        2.4605873445     2.1360950332    -2.4932045024
| 23>  H        3.9557034280     3.0110259417    -0.6627266773
| 24>  H        4.8409027477     1.4217563383    -0.6110249017
| 25> *
| 26>
| 27>                          ****END OF INPUT****

CARTESIAN COORDINATES (ANGSTROEM)
---------------------------------
  N     -0.037828   -1.207838    0.043825
  C     -0.020291   -0.051086    0.055256
  C      0.013997    1.402833    0.084694
  C     -0.205568    1.999986    1.515530
  C      1.329164    2.150392    1.663830
  C      1.472372    2.009741    0.121773
  C      2.618054    1.232910   -0.455736
  C      3.013068    1.412851   -1.901907
  C      3.907196    1.936516   -0.807423
  H     -0.638200    1.783494   -0.705076
  H     -0.716362    2.963360    1.449935
  H     -0.728847    1.367992    2.233659
  H      1.708443    3.066085    2.121536
  H      1.769473    1.292527    2.180333
  H      1.422219    2.998567   -0.347267
  H      2.717489    0.225631   -0.060627
  H      3.331196    0.537781   -2.456787
  H      2.460587    2.136095   -2.493205
  H      3.955703    3.011026   -0.662727
  H      4.840903    1.421756   -0.611025

 Total Charge           Charge          ....    0
 Multiplicity           Mult            ....    1
 Number of Electrons    NEL             ....   66
 Basis Dimension        Dim             ....  345

ORBITAL ENERGIES
----------------

  NO   OCC          E(Eh)            E(eV)
   0   2.0000     -15.561924      -423.4615
   1   2.0000     -11.277981      -306.8895
   2   2.0000     -11.266329      -306.5724
   3   2.0000     -11.256937      -306.3168
   4   2.0000     -11.248992      -306.1006
   5   2.0000     -11.237438      -305.7862
   6   2.0000     -11.237416      -305.7856
   7   2.0000     -11.232234      -305.6446
   8   2.0000     -11.230928      -305.6091
   9   2.0000      -1.215604       -33.0783
  10   2.0000      -1.170078       -31.8394
  11   2.0000      -1.131132       -30.7797
  12   2.0000      -0.959856       -26.1190
  13   2.0000      -0.940049       -25.5800
  14   2.0000      -0.828617       -22.5478
  15   2.0000      -0.819623       -22.3031
  16   2.0000      -0.792015       -21.5518
  17   2.0000      -0.695572       -18.9275
  18   2.0000      -0.689211       -18.7544
  19   2.0000      -0.645022       -17.5519
  20   2.0000      -0.620782       -16.8923
  21   2.0000      -0.595155       -16.1950
  22   2.0000      -0.557577       -15.1724
  23   2.0000      -0.550488       -14.9795
  24   2.0000      -0.532188       -14.4816
  25   2.0000      -0.520464       -14.1625
  26   2.0000      -0.503096       -13.6899
  27   2.0000      -0.488204       -13.2847
  28   2.0000      -0.485406       -13.2086
  29   2.0000      -0.446836       -12.1590
  30   2.0000      -0.441148       -12.0042
  31   2.0000      -0.414482       -11.2786
  32   2.0000      -0.403547       -10.9811
  33   0.0000       0.120739         3.2855
  34   0.0000       0.143510         3.9051
  35   0.0000       0.148748         4.0476
  36   0.0000       0.157137         4.2759
  37   0.0000       0.170690         4.6447

MULLIKEN ATOMIC CHARGES
-----------------------
   0 N :   -0.054971
   1 C :   -0.269887
   2 C :    0.105752
   3 C :   -0.228858
   4 C :   -0.247308
   5 C :   -0.124749
   6 C :   -0.095259
   7 C :   -0.259496
   8 C :   -0.263357
   9 H :    0.144040
  10 H :    0.126332
  11 H :    0.140673
  12 H :    0.123263
  13 H :    0.130522
  14 H :    0.110073
  15 H :    0.139374
  16 H :    0.137168
  17 H :    0.125778
  18 H :    0.126008
  19 H :    0.134903
Sum of atomic charges:    0.0000000

LOEWDIN ATOMIC CHARGES
----------------------
   0 N :    0.056003
   1 C :   -0.175413
   2 C :   -0.186338
   3 C :   -0.197222
   4 C :   -0.207690
   5 C :   -0.183222
   6 C :   -0.214038
   7 C :   -0.222394
   8 C :   -0.223339
   9 H :    0.164119
  10 H :    0.138225
  11 H :    0.133440
  12 H :    0.126583
  13 H :    0.142580
  14 H :    0.160323
  15 H :    0.156782
  16 H :    0.133940
  17 H :    0.132353
  18 H :    0.132688
  19 H :    0.132622

  Mayer bond orders larger than 0.1
B(  0-N ,  1-C ) :   2.8662 B(  1-C ,  2-C ) :   0.9429 B(  2-C ,  3-C ) :   0.8698
B(  2-C ,  5-C ) :   0.8810 B(  2-C ,  9-H ) :   0.9020 B(  3-C ,  4-C ) :   0.9410
B(  3-C , 10-H ) :   0.9268 B(  3-C , 11-H ) :   0.9233 B(  4-C ,  5-C ) :   0.9421
B(  4-C , 12-H ) :   0.9320 B(  4-C , 13-H ) :   0.9218 B(  5-C ,  6-C ) :   0.9334
B(  5-C , 14-H ) :   0.9050 B(  6-C ,  7-C ) :   0.8800 B(  6-C ,  8-C ) :   0.8719
B(  6-C , 15-H ) :   0.9093 B(  7-C ,  8-C ) :   0.9091 B(  7-C , 16-H ) :   0.9283
B(  7-C , 17-H ) :   0.9319 B(  8-C , 18-H ) :   0.9291 B(  8-C , 19-H ) :   0.9278

MP2 TOTAL ENERGY:     -365.340601431 Eh
FINAL SINGLE POINT ENERGY      -365.340601430598

DIPOLE MOMENT
-------------
                                X             Y             Z
Electronic contribution:     -4.52776      -5.24153      -0.12578
Nuclear contribution   :      4.78341       6.78899       0.21838
                        -----------------------------------------
Total Dipole Moment    :      0.25565       1.54746       0.09260
                        -----------------------------------------
Magnitude (a.u.)       :      1.57116
Magnitude (Debye)      :      3.99358

                             ****ORCA TERMINATED NORMALLY****
TOTAL RUN TIME: 0 days 0 hours 19 minutes 42 seconds 502 msec
