                         Program Version 3.0.3 - RELEASE   -
|  1> ! RI-MP2 RIJK def2-TZVP def2-TZVP/C def2-TZVP/JK TIGHTSCF
|  2> % maxcore 2000
|  3> % mp2 density relaxed end
|  4> *xyz 0 1
|  5>  C       -0.2352283175     1.5879134609     0.0534136194
|  6>  C        0.0333443006     0.0821658832    -0.0097915991
|  7>  C        0.7036677130    -0.4081220330    -1.2754898679
|  8>  C        1.7623638937    -1.1763396119    -0.9819906537
|  9>  C        2.6102815597    -1.8426795461    -1.9056482397
| 10>  N        3.3161050636    -2.4026383433    -2.6337269297
| 11>  C        1.9620733307    -1.2260003074     0.5045094933
| 12>  C        2.2719967851     0.0939251076     1.1223307537
| 13>  N        0.8907599873    -0.4073659314     1.1019007930
| 14>  H        0.6811086040     2.1700342849    -0.0766236980
| 15>  H       -0.9374344876     1.8814356838    -0.7323988731
| 16>  H       -0.6751998773     1.8456646697     1.0202502814
| 17>  H       -0.9353680145    -0.4291098612     0.0951042159
| 18>  H        0.3654597819    -0.1591605095    -2.2740740535
| 19>  H        2.2322097555    -2.1635202585     0.9804880702
| 20>  H        2.7073246500     0.1423584093     2.1160808628
| 21>  H        2.5668237218     0.8936910927     0.4481314349
| 22> *
| 23>
| 24>                          ****END OF INPUT****

CARTESIAN COORDINATES (ANGSTROEM)
---------------------------------
  C     -0.235228    1.587913    0.053414
  C      0.033344    0.082166   -0.009792
  C      0.703668   -0.408122   -1.275490
  C      1.762364   -1.176340   -0.981991
  C      2.610282   -1.842680   -1.905648
  N      3.316105   -2.402638   -2.633727
  C      1.962073   -1.226000    0.504509
  C      2.271997    0.093925    1.122331
  N      0.890760   -0.407366    1.101901
  H      0.681109    2.170034   -0.076624
  H     -0.937434    1.881436   -0.732399
  H     -0.675200    1.845665    1.020250
  H     -0.935368   -0.429110    0.095104
  H      0.365460   -0.159161   -2.274074
  H      2.232210   -2.163520    0.980488
  H      2.707325    0.142358    2.116081
  H      2.566824    0.893691    0.448131

 Total Charge           Charge          ....    0
 Multiplicity           Mult            ....    1
 Number of Electrons    NEL             ....   64
 Basis Dimension        Dim             ....  327

ORBITAL ENERGIES
----------------

  NO   OCC          E(Eh)            E(eV)
   0   2.0000     -15.580318      -423.9620
   1   2.0000     -15.577842      -423.8946
   2   2.0000     -11.288237      -307.1685
   3   2.0000     -11.287278      -307.1425
   4   2.0000     -11.286599      -307.1240
   5   2.0000     -11.281281      -306.9793
   6   2.0000     -11.276273      -306.8430
   7   2.0000     -11.273622      -306.7709
   8   2.0000     -11.238445      -305.8136
   9   2.0000      -1.311223       -35.6802
  10   2.0000      -1.223480       -33.2926
  11   2.0000      -1.109186       -30.1825
  12   2.0000      -1.063564       -28.9411
  13   2.0000      -0.940794       -25.6003
  14   2.0000      -0.883371       -24.0377
  15   2.0000      -0.843738       -22.9593
  16   2.0000      -0.792023       -21.5520
  17   2.0000      -0.750916       -20.4335
  18   2.0000      -0.668961       -18.2034
  19   2.0000      -0.641703       -17.4616
  20   2.0000      -0.614326       -16.7167
  21   2.0000      -0.592098       -16.1118
  22   2.0000      -0.572213       -15.5707
  23   2.0000      -0.558350       -15.1935
  24   2.0000      -0.550220       -14.9722
  25   2.0000      -0.526294       -14.3212
  26   2.0000      -0.518902       -14.1201
  27   2.0000      -0.491420       -13.3722
  28   2.0000      -0.472158       -12.8481
  29   2.0000      -0.461042       -12.5456
  30   2.0000      -0.417146       -11.3511
  31   2.0000      -0.359297        -9.7770
  32   0.0000       0.081205         2.2097
  33   0.0000       0.132306         3.6002
  34   0.0000       0.153172         4.1680
  35   0.0000       0.158189         4.3045
  36   0.0000       0.164866         4.4862

MULLIKEN ATOMIC CHARGES
-----------------------
   0 C :   -0.399604
   1 C :    0.080070
   2 C :   -0.232764
   3 C :    0.169825
   4 C :   -0.225919
   5 N :   -0.045242
   6 C :   -0.062963
   7 C :   -0.181332
   8 N :   -0.219670
   9 H :    0.123998
  10 H :    0.137924
  11 H :    0.151547
  12 H :    0.119569
  13 H :    0.155501
  14 H :    0.153215
  15 H :    0.137925
  16 H :    0.137922
Sum of atomic charges:    0.0000000

LOEWDIN ATOMIC CHARGES
----------------------
   0 C :   -0.282355
   1 C :   -0.275900
   2 C :   -0.059948
   3 C :   -0.149955
   4 C :   -0.148892
   5 N :    0.080204
   6 C :   -0.186952
   7 C :   -0.225605
   8 N :    0.145466
   9 H :    0.123530
  10 H :    0.129056
  11 H :    0.132264
  12 H :    0.158773
  13 H :    0.150385
  14 H :    0.148592
  15 H :    0.130221
  16 H :    0.131114

  Mayer bond orders larger than 0.1
B(  0-C ,  1-C ) :   0.9188 B(  0-C ,  9-H ) :   0.9245 B(  0-C , 10-H ) :   0.9339
B(  0-C , 11-H ) :   0.9368 B(  1-C ,  2-C ) :   0.9520 B(  1-C ,  8-N ) :   0.9224
B(  1-C , 12-H ) :   0.9056 B(  2-C ,  3-C ) :   1.6839 B(  2-C , 13-H ) :   0.9086
B(  3-C ,  4-C ) :   0.8959 B(  3-C ,  6-C ) :   0.9442 B(  4-C ,  5-N ) :   2.8480
B(  6-C ,  7-C ) :   0.9116 B(  6-C ,  8-N ) :   0.9532 B(  6-C , 14-H ) :   0.8966
B(  7-C ,  8-N ) :   0.8614 B(  7-C , 15-H ) :   0.9259 B(  7-C , 16-H ) :   0.9109

MP2 TOTAL ENERGY:     -380.185528766 Eh
FINAL SINGLE POINT ENERGY      -380.185528766016

DIPOLE MOMENT
-------------
                                X             Y             Z
Electronic contribution:      4.44267      -7.23260      -4.00465
Nuclear contribution   :     -5.25173       8.27672       4.58671
                        -----------------------------------------
Total Dipole Moment    :     -0.80906       1.04412       0.58205
                        -----------------------------------------
Magnitude (a.u.)       :      1.44345
Magnitude (Debye)      :      3.66897

                             ****ORCA TERMINATED NORMALLY****
TOTAL RUN TIME: 0 days 0 hours 18 minutes 18 seconds 325 msec
