                         Program Version 3.0.3 - RELEASE   -
|  1> ! RI-MP2 RIJK def2-TZVP def2-TZVP/C def2-TZVP/JK TIGHTSCF
|  2> % maxcore 2000
|  3> % mp2 density relaxed end
|  4> *xyz 0 1
|  5>  C        0.1041979753     1.5945913397    -0.0572835959
|  6>  C        0.1765361853     0.0656511875    -0.0504236763
|  7>  C        0.5658151145    -0.5130186743     1.3195569461
|  8>  C        0.6221799823    -2.0163494110     1.3376709046
|  9>  C        1.8193035454    -2.8006084565     0.8564706458
| 10>  C        1.3559490047    -2.9885273333     2.2788495214
| 11>  C        2.2366453126    -2.7329911784     3.4686731983
| 12>  C        0.1397768996    -3.9259385320     2.2789921058
| 13>  C       -0.6044141263    -2.9422536412     1.3191246916
| 14>  H        1.0702835731     2.0379032846     0.2097908455
| 15>  H       -0.1761352513     1.9782653423    -1.0433907276
| 16>  H       -0.6353082485     1.9598915069     0.6643200819
| 17>  H       -0.7932099076    -0.3492354802    -0.3542466059
| 18>  H        0.9007228983    -0.2759981597    -0.8005650094
| 19>  H        1.5412331263    -0.1052478160     1.6181372355
| 20>  H       -0.1540895300    -0.1622950107     2.0735261340
| 21>  H        1.7084514140    -3.5980036680     0.1227782627
| 22>  H        2.7330392403    -2.2231101622     0.7438281756
| 23>  H        2.9098356085    -1.8866758595     3.2956263118
| 24>  H        1.6458759244    -2.5121357517     4.3656711857
| 25>  H        2.8621337493    -3.6062260665     3.6935069075
| 26>  H        0.3143755160    -4.9430905275     1.9105525045
| 27>  H       -0.3439429339    -3.9921413535     3.2575133198
| 28>  H       -1.4840845213    -2.4928170276     1.7886825800
| 29>  H       -0.8991183010    -3.3358747014     0.3401387870
| 30> *
| 31>
| 32>                          ****END OF INPUT****

CARTESIAN COORDINATES (ANGSTROEM)
---------------------------------
  C      0.104198    1.594591   -0.057284
  C      0.176536    0.065651   -0.050424
  C      0.565815   -0.513019    1.319557
  C      0.622180   -2.016349    1.337671
  C      1.819304   -2.800608    0.856471
  C      1.355949   -2.988527    2.278850
  C      2.236645   -2.732991    3.468673
  C      0.139777   -3.925939    2.278992
  C     -0.604414   -2.942254    1.319125
  H      1.070284    2.037903    0.209791
  H     -0.176135    1.978265   -1.043391
  H     -0.635308    1.959892    0.664320
  H     -0.793210   -0.349235   -0.354247
  H      0.900723   -0.275998   -0.800565
  H      1.541233   -0.105248    1.618137
  H     -0.154090   -0.162295    2.073526
  H      1.708451   -3.598004    0.122778
  H      2.733039   -2.223110    0.743828
  H      2.909836   -1.886676    3.295626
  H      1.645876   -2.512136    4.365671
  H      2.862134   -3.606226    3.693507
  H      0.314376   -4.943091    1.910553
  H     -0.343943   -3.992141    3.257513
  H     -1.484085   -2.492817    1.788683
  H     -0.899118   -3.335875    0.340139

 Total Charge           Charge          ....    0
 Multiplicity           Mult            ....    1
 Number of Electrons    NEL             ....   70
 Basis Dimension        Dim             ....  375

ORBITAL ENERGIES
----------------

  NO   OCC          E(Eh)            E(eV)
   0   2.0000     -11.227882      -305.5262
   1   2.0000     -11.225493      -305.4612
   2   2.0000     -11.216999      -305.2301
   3   2.0000     -11.216970      -305.2293
   4   2.0000     -11.216462      -305.2155
   5   2.0000     -11.215141      -305.1795
   6   2.0000     -11.214353      -305.1580
   7   2.0000     -11.214115      -305.1516
   8   2.0000     -11.209855      -305.0357
   9   2.0000      -1.186901       -32.2972
  10   2.0000      -1.055294       -28.7160
  11   2.0000      -0.986409       -26.8415
  12   2.0000      -0.969058       -26.3694
  13   2.0000      -0.931619       -25.3506
  14   2.0000      -0.850632       -23.1469
  15   2.0000      -0.810227       -22.0474
  16   2.0000      -0.769597       -20.9418
  17   2.0000      -0.678702       -18.4684
  18   2.0000      -0.648059       -17.6346
  19   2.0000      -0.631865       -17.1939
  20   2.0000      -0.608672       -16.5628
  21   2.0000      -0.598918       -16.2974
  22   2.0000      -0.567414       -15.4401
  23   2.0000      -0.559959       -15.2373
  24   2.0000      -0.545469       -14.8430
  25   2.0000      -0.528916       -14.3925
  26   2.0000      -0.522249       -14.2111
  27   2.0000      -0.506528       -13.7833
  28   2.0000      -0.501441       -13.6449
  29   2.0000      -0.478821       -13.0294
  30   2.0000      -0.467625       -12.7247
  31   2.0000      -0.450893       -12.2694
  32   2.0000      -0.435517       -11.8510
  33   2.0000      -0.386078       -10.5057
  34   2.0000      -0.350147        -9.5280
  35   0.0000       0.131788         3.5861
  36   0.0000       0.147931         4.0254
  37   0.0000       0.161343         4.3904
  38   0.0000       0.171869         4.6768
  39   0.0000       0.181385         4.9357

MULLIKEN ATOMIC CHARGES
-----------------------
   0 C :   -0.388257
   1 C :   -0.192729
   2 C :   -0.291171
   3 C :    0.098374
   4 C :   -0.292511
   5 C :    0.051303
   6 C :   -0.413589
   7 C :   -0.213724
   8 C :   -0.236768
   9 H :    0.120838
  10 H :    0.133101
  11 H :    0.121206
  12 H :    0.110975
  13 H :    0.112751
  14 H :    0.107087
  15 H :    0.108420
  16 H :    0.119730
  17 H :    0.122031
  18 H :    0.126337
  19 H :    0.126555
  20 H :    0.135007
  21 H :    0.108514
  22 H :    0.106845
  23 H :    0.107670
  24 H :    0.112002
Sum of atomic charges:   -0.0000000

LOEWDIN ATOMIC CHARGES
----------------------
   0 C :   -0.322816
   1 C :   -0.286687
   2 C :   -0.234878
   3 C :   -0.193902
   4 C :   -0.172319
   5 C :   -0.215661
   6 C :   -0.277493
   7 C :   -0.192154
   8 C :   -0.192462
   9 H :    0.119593
  10 H :    0.120066
  11 H :    0.119714
  12 H :    0.135854
  13 H :    0.136014
  14 H :    0.142989
  15 H :    0.141630
  16 H :    0.130952
  17 H :    0.140545
  18 H :    0.128053
  19 H :    0.126112
  20 H :    0.128711
  21 H :    0.125373
  22 H :    0.133410
  23 H :    0.133608
  24 H :    0.125747

  Mayer bond orders larger than 0.1
B(  0-C ,  1-C ) :   0.9157 B(  0-C ,  9-H ) :   0.9402 B(  0-C , 10-H ) :   0.9443
B(  0-C , 11-H ) :   0.9396 B(  1-C ,  2-C ) :   0.9397 B(  1-C , 12-H ) :   0.9330
B(  1-C , 13-H ) :   0.9350 B(  2-C ,  3-C ) :   0.9063 B(  2-C , 14-H ) :   0.9265
B(  2-C , 15-H ) :   0.9275 B(  3-C ,  4-C ) :   0.8670 B(  3-C ,  5-C ) :   0.7965
B(  3-C ,  8-C ) :   0.9354 B(  4-C ,  5-C ) :   0.8947 B(  4-C , 16-H ) :   0.9087
B(  4-C , 17-H ) :   0.9300 B(  5-C ,  6-C ) :   0.8829 B(  5-C ,  7-C ) :   0.9487
B(  6-C , 18-H ) :   0.9377 B(  6-C , 19-H ) :   0.9407 B(  6-C , 20-H ) :   0.9396
B(  7-C ,  8-C ) :   0.9968 B(  7-C , 21-H ) :   0.9150 B(  7-C , 22-H ) :   0.9161
B(  8-C , 23-H ) :   0.9152 B(  8-C , 24-H ) :   0.9133

MP2 TOTAL ENERGY:     -351.691970269 Eh
FINAL SINGLE POINT ENERGY      -351.691970269154

DIPOLE MOMENT
-------------
                                X             Y             Z
Electronic contribution:      0.17644      -4.32616       0.71213
Nuclear contribution   :     -0.16829       4.40752      -0.63979
                        -----------------------------------------
Total Dipole Moment    :      0.00815       0.08137       0.07234
                        -----------------------------------------
Magnitude (a.u.)       :      0.10918
Magnitude (Debye)      :      0.27751

                             ****ORCA TERMINATED NORMALLY****
TOTAL RUN TIME: 0 days 0 hours 20 minutes 51 seconds 848 msec
