                         Program Version 3.0.3 - RELEASE   -
|  1> ! RI-MP2 RIJK def2-TZVP def2-TZVP/C def2-TZVP/JK TIGHTSCF
|  2> % maxcore 2000
|  3> % mp2 density relaxed end
|  4> *xyz 0 1
|  5>  O       -0.0953171460     1.4331378831    -0.0479109586
|  6>  C        0.0144864917     0.0117389531     0.0552344314
|  7>  C       -1.4146443932    -0.5209411615     0.0160806698
|  8>  O       -2.1721812128     0.0877266191     1.0331073868
|  9>  C       -2.0262681774    -0.5463014053    -1.4224906503
| 10>  C       -1.6270256912    -2.0437034469    -1.5257649357
| 11>  C       -1.4894553363    -2.0616058175     0.0222969560
| 12>  O       -0.3862369847    -2.7050391379     0.6191646291
| 13>  H        0.7367658704     1.8230584958     0.2326150140
| 14>  H        0.6150330895    -0.4018048705    -0.7656960241
| 15>  H        0.4779426474    -0.2844865215     1.0039178637
| 16>  H       -1.8893138344     1.0118764006     1.0516000017
| 17>  H       -3.1079207223    -0.4053062828    -1.3708979836
| 18>  H       -1.6056249571     0.1467144399    -2.1529573109
| 19>  H       -2.3441881445    -2.7327326111    -1.9766123504
| 20>  H       -0.6521716404    -2.1833958165    -2.0008351402
| 21>  H       -2.4353751058    -2.3555636693     0.4966904183
| 22>  H       -0.5558472529    -3.6515462507     0.6364767831
| 23> *
| 24>
| 25>                          ****END OF INPUT****

CARTESIAN COORDINATES (ANGSTROEM)
---------------------------------
  O     -0.095317    1.433138   -0.047911
  C      0.014486    0.011739    0.055234
  C     -1.414644   -0.520941    0.016081
  O     -2.172181    0.087727    1.033107
  C     -2.026268   -0.546301   -1.422491
  C     -1.627026   -2.043703   -1.525765
  C     -1.489455   -2.061606    0.022297
  O     -0.386237   -2.705039    0.619165
  H      0.736766    1.823058    0.232615
  H      0.615033   -0.401805   -0.765696
  H      0.477943   -0.284487    1.003918
  H     -1.889314    1.011876    1.051600
  H     -3.107921   -0.405306   -1.370898
  H     -1.605625    0.146714   -2.152957
  H     -2.344188   -2.732733   -1.976612
  H     -0.652172   -2.183396   -2.000835
  H     -2.435375   -2.355564    0.496690
  H     -0.555847   -3.651546    0.636477

 Total Charge           Charge          ....    0
 Multiplicity           Mult            ....    1
 Number of Electrons    NEL             ....   64
 Basis Dimension        Dim             ....  308

ORBITAL ENERGIES
----------------

  NO   OCC          E(Eh)            E(eV)
   0   2.0000     -20.566682      -559.6479
   1   2.0000     -20.559799      -559.4606
   2   2.0000     -20.543344      -559.0128
   3   2.0000     -11.278410      -306.9011
   4   2.0000     -11.277430      -306.8745
   5   2.0000     -11.275694      -306.8272
   6   2.0000     -11.221534      -305.3535
   7   2.0000     -11.216935      -305.2283
   8   2.0000      -1.381742       -37.5991
   9   2.0000      -1.365902       -37.1681
  10   2.0000      -1.344721       -36.5917
  11   2.0000      -1.117668       -30.4133
  12   2.0000      -0.962217       -26.1832
  13   2.0000      -0.890328       -24.2271
  14   2.0000      -0.853905       -23.2359
  15   2.0000      -0.738862       -20.1055
  16   2.0000      -0.716127       -19.4868
  17   2.0000      -0.711105       -19.3502
  18   2.0000      -0.677010       -18.4224
  19   2.0000      -0.649550       -17.6752
  20   2.0000      -0.620247       -16.8778
  21   2.0000      -0.594167       -16.1681
  22   2.0000      -0.589295       -16.0355
  23   2.0000      -0.558328       -15.1929
  24   2.0000      -0.533764       -14.5244
  25   2.0000      -0.517746       -14.0886
  26   2.0000      -0.507176       -13.8010
  27   2.0000      -0.484868       -13.1939
  28   2.0000      -0.461444       -12.5565
  29   2.0000      -0.435439       -11.8489
  30   2.0000      -0.426951       -11.6179
  31   2.0000      -0.408808       -11.1242
  32   0.0000       0.130639         3.5549
  33   0.0000       0.136104         3.7036
  34   0.0000       0.161389         4.3916
  35   0.0000       0.175349         4.7715
  36   0.0000       0.195431         5.3180

MULLIKEN ATOMIC CHARGES
-----------------------
   0 O :   -0.495815
   1 C :   -0.152539
   2 C :    0.322150
   3 O :   -0.483187
   4 C :   -0.276725
   5 C :   -0.242815
   6 C :    0.001454
   7 O :   -0.463507
   8 H :    0.326071
   9 H :    0.104902
  10 H :    0.133215
  11 H :    0.328958
  12 H :    0.120727
  13 H :    0.126627
  14 H :    0.123251
  15 H :    0.113516
  16 H :    0.095988
  17 H :    0.317730
Sum of atomic charges:   -0.0000000

LOEWDIN ATOMIC CHARGES
----------------------
   0 O :   -0.055433
   1 C :   -0.302962
   2 C :   -0.362781
   3 O :    0.012066
   4 C :   -0.203250
   5 C :   -0.232761
   6 C :   -0.293504
   7 O :   -0.015717
   8 H :    0.174719
   9 H :    0.126383
  10 H :    0.128047
  11 H :    0.180788
  12 H :    0.138623
  13 H :    0.130367
  14 H :    0.122878
  15 H :    0.134559
  16 H :    0.141045
  17 H :    0.176933

  Mayer bond orders larger than 0.1
B(  0-O ,  1-C ) :   0.9727 B(  0-O ,  8-H ) :   0.8449 B(  1-C ,  2-C ) :   0.9355
B(  1-C ,  9-H ) :   0.9172 B(  1-C , 10-H ) :   0.9285 B(  2-C ,  3-O ) :   1.0204
B(  2-C ,  4-C ) :   0.8814 B(  2-C ,  6-C ) :   0.8634 B(  3-O , 11-H ) :   0.8196
B(  4-C ,  5-C ) :   0.9303 B(  4-C , 12-H ) :   0.9225 B(  4-C , 13-H ) :   0.9182
B(  5-C ,  6-C ) :   0.9093 B(  5-C , 14-H ) :   0.9294 B(  5-C , 15-H ) :   0.9122
B(  6-C ,  7-O ) :   1.0823 B(  6-C , 16-H ) :   0.9557 B(  7-O , 17-H ) :   0.8436

MP2 TOTAL ENERGY:     -421.408513636 Eh
FINAL SINGLE POINT ENERGY      -421.408513635720

DIPOLE MOMENT
-------------
                                X             Y             Z
Electronic contribution:      0.15946       1.02023       3.13699
Nuclear contribution   :      0.38931      -1.30785      -3.44491
                        -----------------------------------------
Total Dipole Moment    :      0.54877      -0.28762      -0.30792
                        -----------------------------------------
Magnitude (a.u.)       :      0.69187
Magnitude (Debye)      :      1.75859

                             ****ORCA TERMINATED NORMALLY****
TOTAL RUN TIME: 0 days 0 hours 11 minutes 40 seconds 587 msec
