                         Program Version 3.0.3 - RELEASE   -
|  1> ! RI-MP2 RIJK def2-TZVP def2-TZVP/C def2-TZVP/JK TIGHTSCF
|  2> % maxcore 2000
|  3> % mp2 density relaxed end
|  4> *xyz 0 1
|  5>  O       -0.0397627238    -0.0826268786     0.3403866531
|  6>  C        0.0720338790     1.0766139656     0.0474027722
|  7>  O        1.2003896139     1.7774194883    -0.0303289449
|  8>  C        2.4149044640     1.0417007417     0.2908818179
|  9>  C        3.5649106507     1.9966643763     0.2012216926
| 10>  C        4.8858906583     1.4770689904    -0.2386639968
| 11>  N        4.1181015546     2.3819179598    -1.1029517213
| 12>  C       -1.0757662395     1.9304674067    -0.2858952020
| 13>  N       -2.0138661691     2.5540720554    -0.5396028419
| 14>  H        2.3046947218     0.6206613501     1.2948313727
| 15>  H        2.5152512772     0.2124509940    -0.4172130245
| 16>  H        3.5340714576     2.8110648130     0.9209932799
| 17>  H        5.7941292377     1.8985082085     0.1808095303
| 18>  H        4.9575869433     0.4254990121    -0.5064231409
| 19>  H        3.6635536344     1.8614882468    -1.8498928563
| 20> *
| 21>
| 22>                          ****END OF INPUT****

CARTESIAN COORDINATES (ANGSTROEM)
---------------------------------
  O     -0.039763   -0.082627    0.340387
  C      0.072034    1.076614    0.047403
  O      1.200390    1.777419   -0.030329
  C      2.414904    1.041701    0.290882
  C      3.564911    1.996664    0.201222
  C      4.885891    1.477069   -0.238664
  N      4.118102    2.381918   -1.102952
  C     -1.075766    1.930467   -0.285895
  N     -2.013866    2.554072   -0.539603
  H      2.304695    0.620661    1.294831
  H      2.515251    0.212451   -0.417213
  H      3.534071    2.811065    0.920993
  H      5.794129    1.898508    0.180810
  H      4.957587    0.425499   -0.506423
  H      3.663554    1.861488   -1.849893

 Total Charge           Charge          ....    0
 Multiplicity           Mult            ....    1
 Number of Electrons    NEL             ....   66
 Basis Dimension        Dim             ....  315

ORBITAL ENERGIES
----------------

  NO   OCC          E(Eh)            E(eV)
   0   2.0000     -20.650245      -561.9217
   1   2.0000     -20.599437      -560.5392
   2   2.0000     -15.617789      -424.9816
   3   2.0000     -15.580903      -423.9779
   4   2.0000     -11.453836      -311.6747
   5   2.0000     -11.329663      -308.2958
   6   2.0000     -11.307493      -307.6925
   7   2.0000     -11.287550      -307.1499
   8   2.0000     -11.280247      -306.9511
   9   2.0000      -1.513778       -41.1920
  10   2.0000      -1.415793       -38.5257
  11   2.0000      -1.287586       -35.0370
  12   2.0000      -1.253241       -34.1024
  13   2.0000      -1.057816       -28.7846
  14   2.0000      -0.943815       -25.6825
  15   2.0000      -0.900732       -24.5102
  16   2.0000      -0.836755       -22.7693
  17   2.0000      -0.795508       -21.6469
  18   2.0000      -0.734451       -19.9854
  19   2.0000      -0.723941       -19.6994
  20   2.0000      -0.698577       -19.0093
  21   2.0000      -0.667314       -18.1585
  22   2.0000      -0.613719       -16.7001
  23   2.0000      -0.602249       -16.3880
  24   2.0000      -0.591768       -16.1028
  25   2.0000      -0.548067       -14.9137
  26   2.0000      -0.531681       -14.4678
  27   2.0000      -0.515846       -14.0369
  28   2.0000      -0.500938       -13.6312
  29   2.0000      -0.498718       -13.5708
  30   2.0000      -0.498561       -13.5665
  31   2.0000      -0.493280       -13.4228
  32   2.0000      -0.416193       -11.3252
  33   0.0000       0.071370         1.9421
  34   0.0000       0.121708         3.3118
  35   0.0000       0.145524         3.9599
  36   0.0000       0.148950         4.0531
  37   0.0000       0.164297         4.4708

MULLIKEN ATOMIC CHARGES
-----------------------
   0 O :   -0.278081
   1 C :    0.417161
   2 O :   -0.200626
   3 C :   -0.150295
   4 C :   -0.001358
   5 C :   -0.199403
   6 N :   -0.348568
   7 C :   -0.125136
   8 N :   -0.038168
   9 H :    0.149822
  10 H :    0.141996
  11 H :    0.139439
  12 H :    0.135308
  13 H :    0.134241
  14 H :    0.223669
Sum of atomic charges:   -0.0000000

LOEWDIN ATOMIC CHARGES
----------------------
   0 O :    0.174604
   1 C :   -0.495255
   2 O :    0.284868
   3 C :   -0.251532
   4 C :   -0.285259
   5 C :   -0.257042
   6 N :   -0.004453
   7 C :   -0.123606
   8 N :    0.107005
   9 H :    0.142491
  10 H :    0.139185
  11 H :    0.148543
  12 H :    0.128920
  13 H :    0.123666
  14 H :    0.167865

  Mayer bond orders larger than 0.1
B(  0-O ,  1-C ) :   1.9185 B(  1-C ,  2-O ) :   1.1765 B(  1-C ,  7-C ) :   0.9015
B(  2-O ,  3-C ) :   0.8057 B(  3-C ,  4-C ) :   0.9469 B(  3-C ,  9-H ) :   0.9251
B(  3-C , 10-H ) :   0.9258 B(  4-C ,  5-C ) :   0.9344 B(  4-C ,  6-N ) :   0.9292
B(  4-C , 11-H ) :   0.9100 B(  5-C ,  6-N ) :   0.9314 B(  5-C , 12-H ) :   0.9180
B(  5-C , 13-H ) :   0.9183 B(  6-N , 14-H ) :   0.8708 B(  7-C ,  8-N ) :   2.7956

MP2 TOTAL ENERGY:     -453.200880720 Eh
FINAL SINGLE POINT ENERGY      -453.200880719530

DIPOLE MOMENT
-------------
                                X             Y             Z
Electronic contribution:    -11.31732       0.60589      -0.12785
Nuclear contribution   :     12.87357      -1.34606       0.46226
                        -----------------------------------------
Total Dipole Moment    :      1.55625      -0.74017       0.33442
                        -----------------------------------------
Magnitude (a.u.)       :      1.75545
Magnitude (Debye)      :      4.46200

                             ****ORCA TERMINATED NORMALLY****
TOTAL RUN TIME: 0 days 0 hours 12 minutes 45 seconds 121 msec
