                         Program Version 3.0.3 - RELEASE   -
|  1> ! RI-MP2 RIJK def2-TZVP def2-TZVP/C def2-TZVP/JK TIGHTSCF
|  2> % maxcore 2000
|  3> % mp2 density relaxed end
|  4> *xyz 0 1
|  5>  C       -0.0002043119     1.4800178250     0.0762297906
|  6>  C       -0.0206928996    -0.0285233787    -0.0194713672
|  7>  C        0.7523960692    -0.6651106640    -1.2095286933
|  8>  C        1.1095904145    -2.0720412306    -0.6397737143
|  9>  C        0.4625537058    -1.9918793331     0.7650188308
| 10>  O        0.6592752301    -0.6150315121     1.1096792406
| 11>  C       -1.0543003296    -2.0908494576     0.5868506551
| 12>  C       -1.8917758844    -1.1334322127     1.3940955393
| 13>  C       -1.3928579228    -0.7199642677     0.0336346348
| 14>  H        1.0286796172     1.8483981194     0.1296573569
| 15>  H       -0.4789306507     1.9236036025    -0.8024394808
| 16>  H       -0.5378240099     1.8188074031     0.9662872149
| 17>  H        0.1443822335    -0.7125246618    -2.1170819539
| 18>  H        1.6503927511    -0.0835996015    -1.4351624505
| 19>  H        0.7077879359    -2.8942550864    -1.2380651508
| 20>  H        2.1908323078    -2.2083895758    -0.5598581907
| 21>  H        0.9090371634    -2.6261512265     1.5323096581
| 22>  H       -1.4839152920    -3.0018954421     0.1871351649
| 23>  H       -2.9488164397    -1.3647958267     1.4672694769
| 24>  H       -1.4594221833    -0.6738733815     2.2754444002
| 25>  H       -2.0838766345    -0.5806580514    -0.7896467816
| 26> *
| 27>
| 28>                          ****END OF INPUT****

CARTESIAN COORDINATES (ANGSTROEM)
---------------------------------
  C     -0.000204    1.480018    0.076230
  C     -0.020693   -0.028523   -0.019471
  C      0.752396   -0.665111   -1.209529
  C      1.109590   -2.072041   -0.639774
  C      0.462554   -1.991879    0.765019
  O      0.659275   -0.615032    1.109679
  C     -1.054300   -2.090849    0.586851
  C     -1.891776   -1.133432    1.394096
  C     -1.392858   -0.719964    0.033635
  H      1.028680    1.848398    0.129657
  H     -0.478931    1.923604   -0.802439
  H     -0.537824    1.818807    0.966287
  H      0.144382   -0.712525   -2.117082
  H      1.650393   -0.083600   -1.435162
  H      0.707788   -2.894255   -1.238065
  H      2.190832   -2.208390   -0.559858
  H      0.909037   -2.626151    1.532310
  H     -1.483915   -3.001895    0.187135
  H     -2.948816   -1.364796    1.467269
  H     -1.459422   -0.673873    2.275444
  H     -2.083877   -0.580658   -0.789647

 Total Charge           Charge          ....    0
 Multiplicity           Mult            ....    1
 Number of Electrons    NEL             ....   68
 Basis Dimension        Dim             ....  351

ORBITAL ENERGIES
----------------

  NO   OCC          E(Eh)            E(eV)
   0   2.0000     -20.544701      -559.0497
   1   2.0000     -11.281800      -306.9934
   2   2.0000     -11.275769      -306.8293
   3   2.0000     -11.226371      -305.4851
   4   2.0000     -11.225438      -305.4597
   5   2.0000     -11.221857      -305.3623
   6   2.0000     -11.220059      -305.3133
   7   2.0000     -11.219254      -305.2914
   8   2.0000     -11.212351      -305.1036
   9   2.0000      -1.386636       -37.7323
  10   2.0000      -1.140359       -31.0308
  11   2.0000      -1.048455       -28.5299
  12   2.0000      -1.031799       -28.0767
  13   2.0000      -0.918278       -24.9876
  14   2.0000      -0.855936       -23.2912
  15   2.0000      -0.816021       -22.2050
  16   2.0000      -0.764278       -20.7971
  17   2.0000      -0.741887       -20.1878
  18   2.0000      -0.688113       -18.7245
  19   2.0000      -0.669842       -18.2273
  20   2.0000      -0.636804       -17.3283
  21   2.0000      -0.585523       -15.9329
  22   2.0000      -0.577600       -15.7173
  23   2.0000      -0.560164       -15.2428
  24   2.0000      -0.539693       -14.6858
  25   2.0000      -0.527285       -14.3482
  26   2.0000      -0.509051       -13.8520
  27   2.0000      -0.492481       -13.4011
  28   2.0000      -0.482401       -13.1268
  29   2.0000      -0.474463       -12.9108
  30   2.0000      -0.472550       -12.8587
  31   2.0000      -0.422067       -11.4850
  32   2.0000      -0.400628       -10.9016
  33   2.0000      -0.387508       -10.5446
  34   0.0000       0.138808         3.7771
  35   0.0000       0.152659         4.1541
  36   0.0000       0.167305         4.5526
  37   0.0000       0.173026         4.7083
  38   0.0000       0.196500         5.3471

MULLIKEN ATOMIC CHARGES
-----------------------
   0 C :   -0.414239
   1 C :    0.248205
   2 C :   -0.259315
   3 C :   -0.241065
   4 C :    0.091511
   5 O :   -0.327051
   6 C :   -0.155879
   7 C :   -0.305749
   8 C :   -0.156298
   9 H :    0.136607
  10 H :    0.129662
  11 H :    0.141521
  12 H :    0.113148
  13 H :    0.116153
  14 H :    0.104701
  15 H :    0.118524
  16 H :    0.125982
  17 H :    0.126423
  18 H :    0.131310
  19 H :    0.148406
  20 H :    0.127443
Sum of atomic charges:   -0.0000000

LOEWDIN ATOMIC CHARGES
----------------------
   0 C :   -0.263466
   1 C :   -0.338028
   2 C :   -0.202726
   3 C :   -0.224917
   4 C :   -0.272740
   5 O :    0.216887
   6 C :   -0.184089
   7 C :   -0.202862
   8 C :   -0.163614
   9 H :    0.129981
  10 H :    0.130984
  11 H :    0.131621
  12 H :    0.135893
  13 H :    0.135858
  14 H :    0.134397
  15 H :    0.133929
  16 H :    0.138797
  17 H :    0.143160
  18 H :    0.136590
  19 H :    0.139714
  20 H :    0.144631

  Mayer bond orders larger than 0.1
B(  0-C ,  1-C ) :   0.8398 B(  0-C ,  9-H ) :   0.9409 B(  0-C , 10-H ) :   0.9416
B(  0-C , 11-H ) :   0.9472 B(  1-C ,  2-C ) :   0.9409 B(  1-C ,  5-O ) :   0.9201
B(  1-C ,  8-C ) :   0.9236 B(  2-C ,  3-C ) :   0.9890 B(  2-C , 12-H ) :   0.9148
B(  2-C , 13-H ) :   0.9221 B(  3-C ,  4-C ) :   0.9471 B(  3-C , 14-H ) :   0.9138
B(  3-C , 15-H ) :   0.9250 B(  4-C ,  5-O ) :   0.9335 B(  4-C ,  6-C ) :   0.9140
B(  4-C , 16-H ) :   0.9112 B(  6-C ,  7-C ) :   0.9077 B(  6-C ,  8-C ) :   0.8621
B(  6-C , 17-H ) :   0.9239 B(  7-C ,  8-C ) :   0.9033 B(  7-C , 18-H ) :   0.9312
B(  7-C , 19-H ) :   0.9050 B(  8-C , 20-H ) :   0.9210

MP2 TOTAL ENERGY:     -386.431028506 Eh
FINAL SINGLE POINT ENERGY      -386.431028505948

DIPOLE MOMENT
-------------
                                X             Y             Z
Electronic contribution:      0.46490      -1.73035       2.48572
Nuclear contribution   :     -0.72819       1.51459      -2.99667
                        -----------------------------------------
Total Dipole Moment    :     -0.26329      -0.21576      -0.51095
                        -----------------------------------------
Magnitude (a.u.)       :      0.61395
Magnitude (Debye)      :      1.56055

                             ****ORCA TERMINATED NORMALLY****
TOTAL RUN TIME: 0 days 0 hours 21 minutes 22 seconds 535 msec
