                         Program Version 3.0.3 - RELEASE   -
|  1> ! RI-MP2 RIJK def2-TZVP def2-TZVP/C def2-TZVP/JK TIGHTSCF
|  2> % maxcore 2000
|  3> % mp2 density relaxed end
|  4> *xyz 0 1
|  5>  C        0.0697608873     1.4967438891     0.1118210471
|  6>  C        0.0085103264     0.0076256582     0.0246776676
|  7>  C       -0.0263010056    -0.7409027012    -1.0994694420
|  8>  C       -0.0511466788    -0.2543934965    -2.4288953590
|  9>  C       -0.0842841151     0.1255660910    -3.5730070041
| 10>  C       -0.0009471592    -2.2090095675    -0.7872953415
| 11>  C        1.2537235812    -2.6947626364    -0.0922341895
| 12>  C        0.0532651018    -2.2940059564     0.7265122402
| 13>  C       -0.0090994806    -0.8668424740     1.2636459518
| 14>  H        0.9857610160     1.8264784650     0.6191322740
| 15>  H        0.0428194366     1.9547238509    -0.8795163978
| 16>  H       -0.7689968164     1.8909707571     0.7005257548
| 17>  H       -0.1086139314     0.4676017621    -4.5775900172
| 18>  H       -0.5738392124    -2.8951652354    -1.3999448747
| 19>  H        1.4788746342    -3.7548644389    -0.1468531808
| 20>  H        2.1234710295    -2.0451781466    -0.1069709072
| 21>  H       -0.4826711138    -3.0727425185     1.2556214378
| 22>  H        0.8249382668    -0.6300059853     1.9384489079
| 23>  H       -0.9263894067    -0.6925923968     1.8444910026
| 24> *
| 25>
| 26>                          ****END OF INPUT****

CARTESIAN COORDINATES (ANGSTROEM)
---------------------------------
  C      0.069761    1.496744    0.111821
  C      0.008510    0.007626    0.024678
  C     -0.026301   -0.740903   -1.099469
  C     -0.051147   -0.254393   -2.428895
  C     -0.084284    0.125566   -3.573007
  C     -0.000947   -2.209010   -0.787295
  C      1.253724   -2.694763   -0.092234
  C      0.053265   -2.294006    0.726512
  C     -0.009099   -0.866842    1.263646
  H      0.985761    1.826478    0.619132
  H      0.042819    1.954724   -0.879516
  H     -0.768997    1.890971    0.700526
  H     -0.108614    0.467602   -4.577590
  H     -0.573839   -2.895165   -1.399945
  H      1.478875   -3.754864   -0.146853
  H      2.123471   -2.045178   -0.106971
  H     -0.482671   -3.072743    1.255621
  H      0.824938   -0.630006    1.938449
  H     -0.926389   -0.692592    1.844491

 Total Charge           Charge          ....    0
 Multiplicity           Mult            ....    1
 Number of Electrons    NEL             ....   64
 Basis Dimension        Dim             ....  339

ORBITAL ENERGIES
----------------

  NO   OCC          E(Eh)            E(eV)
   0   2.0000     -11.244940      -305.9904
   1   2.0000     -11.242451      -305.9226
   2   2.0000     -11.234277      -305.7002
   3   2.0000     -11.232960      -305.6644
   4   2.0000     -11.232452      -305.6506
   5   2.0000     -11.232027      -305.6390
   6   2.0000     -11.226112      -305.4780
   7   2.0000     -11.224027      -305.4213
   8   2.0000     -11.221126      -305.3424
   9   2.0000      -1.189067       -32.3562
  10   2.0000      -1.077829       -29.3292
  11   2.0000      -1.031650       -28.0726
  12   2.0000      -0.960105       -26.1258
  13   2.0000      -0.948253       -25.8033
  14   2.0000      -0.816679       -22.2230
  15   2.0000      -0.784449       -21.3460
  16   2.0000      -0.771422       -20.9914
  17   2.0000      -0.695770       -18.9329
  18   2.0000      -0.685093       -18.6423
  19   2.0000      -0.628135       -17.0924
  20   2.0000      -0.593843       -16.1593
  21   2.0000      -0.590614       -16.0714
  22   2.0000      -0.564485       -15.3604
  23   2.0000      -0.549299       -14.9472
  24   2.0000      -0.530172       -14.4267
  25   2.0000      -0.508775       -13.8445
  26   2.0000      -0.477944       -13.0055
  27   2.0000      -0.469267       -12.7694
  28   2.0000      -0.415138       -11.2965
  29   2.0000      -0.406236       -11.0542
  30   2.0000      -0.381505       -10.3813
  31   2.0000      -0.307297        -8.3620
  32   0.0000       0.115947         3.1551
  33   0.0000       0.138664         3.7732
  34   0.0000       0.160337         4.3630
  35   0.0000       0.163758         4.4561
  36   0.0000       0.178114         4.8467

MULLIKEN ATOMIC CHARGES
-----------------------
   0 C :   -0.437239
   1 C :   -0.066677
   2 C :   -0.147343
   3 C :    0.078832
   4 C :   -0.148009
   5 C :   -0.119684
   6 C :   -0.277690
   7 C :   -0.104463
   8 C :   -0.175149
   9 H :    0.140374
  10 H :    0.153315
  11 H :    0.138686
  12 H :    0.188710
  13 H :    0.135275
  14 H :    0.130418
  15 H :    0.133834
  16 H :    0.130556
  17 H :    0.124625
  18 H :    0.121630
Sum of atomic charges:   -0.0000000

LOEWDIN ATOMIC CHARGES
----------------------
   0 C :   -0.267682
   1 C :   -0.127510
   2 C :   -0.123053
   3 C :   -0.068483
   4 C :   -0.085650
   5 C :   -0.142880
   6 C :   -0.194586
   7 C :   -0.182450
   8 C :   -0.192287
   9 H :    0.133091
  10 H :    0.137197
  11 H :    0.133055
  12 H :    0.126571
  13 H :    0.147686
  14 H :    0.134016
  15 H :    0.137432
  16 H :    0.143456
  17 H :    0.145968
  18 H :    0.146109

  Mayer bond orders larger than 0.1
B(  0-C ,  1-C ) :   0.8838 B(  0-C ,  9-H ) :   0.9321 B(  0-C , 10-H ) :   0.9447
B(  0-C , 11-H ) :   0.9335 B(  1-C ,  2-C ) :   1.6535 B(  1-C ,  8-C ) :   0.9939
B(  2-C ,  3-C ) :   1.1540 B(  2-C ,  4-C ) :  -0.1443 B(  2-C ,  5-C ) :   0.9341
B(  3-C ,  4-C ) :   2.5888 B(  4-C , 12-H ) :   0.8785 B(  5-C ,  6-C ) :   0.8685
B(  5-C ,  7-C ) :   0.8789 B(  5-C , 13-H ) :   0.9220 B(  6-C ,  7-C ) :   0.8944
B(  6-C , 14-H ) :   0.9262 B(  6-C , 15-H ) :   0.9237 B(  7-C ,  8-C ) :   0.9364
B(  7-C , 16-H ) :   0.9286 B(  8-C , 17-H ) :   0.9097 B(  8-C , 18-H ) :   0.8995

MP2 TOTAL ENERGY:     -348.070462789 Eh
FINAL SINGLE POINT ENERGY      -348.070462788978

DIPOLE MOMENT
-------------
                                X             Y             Z
Electronic contribution:     -1.07585      -1.12945      -4.60416
Nuclear contribution   :      1.07015       1.11969       4.93616
                        -----------------------------------------
Total Dipole Moment    :     -0.00569      -0.00976       0.33201
                        -----------------------------------------
Magnitude (a.u.)       :      0.33220
Magnitude (Debye)      :      0.84438

                             ****ORCA TERMINATED NORMALLY****
TOTAL RUN TIME: 0 days 0 hours 20 minutes 48 seconds 3 msec
