                         Program Version 3.0.3 - RELEASE   -
|  1> ! RI-MP2 RIJK def2-TZVP def2-TZVP/C def2-TZVP/JK TIGHTSCF
|  2> % maxcore 2000
|  3> % mp2 density relaxed end
|  4> *xyz 0 1
|  5>  O       -0.2910501486     0.5894702948     1.1704337611
|  6>  C        0.5545570317     0.7357988199     0.3267960423
|  7>  C        1.2473358503     2.0622613809     0.0166055208
|  8>  C        1.4975907438     2.9380445814     1.2660743541
|  9>  C        2.9767120652     2.7241804973     1.5504000527
| 10>  C        3.4678161374     1.2898986265     1.6496080825
| 11>  C        3.5252263884     2.0301845696     0.3388426053
| 12>  O        2.5050111551     1.8161746385    -0.6092339493
| 13>  H        0.8946632572    -0.0977078541    -0.3273169787
| 14>  H        0.6068069167     2.5669923270    -0.7205288062
| 15>  H        1.3107884126     3.9922819345     1.0443265387
| 16>  H        0.8292612388     2.6342447740     2.0760618918
| 17>  H        3.5243459068     3.5068473682     2.0611186201
| 18>  H        4.4086449769     1.1253403801     2.1642571699
| 19>  H        2.7494061377     0.4871724321     1.7818663953
| 20>  H        4.4696001500     2.2693240291    -0.1345963304
| 21> *
| 22>
| 23>                          ****END OF INPUT****

CARTESIAN COORDINATES (ANGSTROEM)
---------------------------------
  O     -0.291050    0.589470    1.170434
  C      0.554557    0.735799    0.326796
  C      1.247336    2.062261    0.016606
  C      1.497591    2.938045    1.266074
  C      2.976712    2.724180    1.550400
  C      3.467816    1.289899    1.649608
  C      3.525226    2.030185    0.338843
  O      2.505011    1.816175   -0.609234
  H      0.894663   -0.097708   -0.327317
  H      0.606807    2.566992   -0.720529
  H      1.310788    3.992282    1.044327
  H      0.829261    2.634245    2.076062
  H      3.524346    3.506847    2.061119
  H      4.408645    1.125340    2.164257
  H      2.749406    0.487172    1.781866
  H      4.469600    2.269324   -0.134596

 Total Charge           Charge          ....    0
 Multiplicity           Mult            ....    1
 Number of Electrons    NEL             ....   60
 Basis Dimension        Dim             ....  296

ORBITAL ENERGIES
----------------

  NO   OCC          E(Eh)            E(eV)
   0   2.0000     -20.574860      -559.8704
   1   2.0000     -20.564030      -559.5757
   2   2.0000     -11.334424      -308.4254
   3   2.0000     -11.301474      -307.5287
   4   2.0000     -11.291896      -307.2681
   5   2.0000     -11.243160      -305.9419
   6   2.0000     -11.241059      -305.8848
   7   2.0000     -11.236959      -305.7732
   8   2.0000      -1.411026       -38.3960
   9   2.0000      -1.396566       -38.0025
  10   2.0000      -1.145956       -31.1830
  11   2.0000      -1.049269       -28.5521
  12   2.0000      -0.930101       -25.3093
  13   2.0000      -0.824753       -22.4427
  14   2.0000      -0.801537       -21.8109
  15   2.0000      -0.780453       -21.2372
  16   2.0000      -0.725875       -19.7521
  17   2.0000      -0.685722       -18.6595
  18   2.0000      -0.659080       -17.9345
  19   2.0000      -0.625023       -17.0077
  20   2.0000      -0.608968       -16.5709
  21   2.0000      -0.581110       -15.8128
  22   2.0000      -0.568017       -15.4565
  23   2.0000      -0.539858       -14.6903
  24   2.0000      -0.531346       -14.4587
  25   2.0000      -0.517756       -14.0889
  26   2.0000      -0.482221       -13.1219
  27   2.0000      -0.427157       -11.6235
  28   2.0000      -0.418298       -11.3825
  29   2.0000      -0.390383       -10.6228
  30   0.0000       0.123466         3.3597
  31   0.0000       0.145259         3.9527
  32   0.0000       0.165455         4.5023
  33   0.0000       0.170895         4.6503
  34   0.0000       0.178087         4.8460

MULLIKEN ATOMIC CHARGES
-----------------------
   0 O :   -0.264489
   1 C :    0.037535
   2 C :    0.148299
   3 C :   -0.250900
   4 C :   -0.139997
   5 C :   -0.285207
   6 C :    0.031355
   7 O :   -0.322289
   8 H :    0.101248
   9 H :    0.126594
  10 H :    0.127051
  11 H :    0.149259
  12 H :    0.133018
  13 H :    0.134267
  14 H :    0.144622
  15 H :    0.129636
Sum of atomic charges:   -0.0000000

LOEWDIN ATOMIC CHARGES
----------------------
   0 O :    0.137757
   1 C :   -0.280245
   2 C :   -0.294497
   3 C :   -0.207421
   4 C :   -0.206984
   5 C :   -0.206024
   6 C :   -0.272926
   7 O :    0.202281
   8 H :    0.116457
   9 H :    0.158082
  10 H :    0.143996
  11 H :    0.149659
  12 H :    0.145252
  13 H :    0.137787
  14 H :    0.138540
  15 H :    0.138285

  Mayer bond orders larger than 0.1
B(  0-O ,  1-C ) :   1.9830 B(  1-C ,  2-C ) :   0.8560 B(  1-C ,  8-H ) :   0.9340
B(  2-C ,  3-C ) :   0.9220 B(  2-C ,  7-O ) :   0.8900 B(  2-C ,  9-H ) :   0.8907
B(  3-C ,  4-C ) :   0.9608 B(  3-C , 10-H ) :   0.9249 B(  3-C , 11-H ) :   0.9174
B(  4-C ,  5-C ) :   0.8752 B(  4-C ,  6-C ) :   0.8926 B(  4-C , 12-H ) :   0.9259
B(  5-C ,  6-C ) :   0.8676 B(  5-C , 13-H ) :   0.9226 B(  5-C , 14-H ) :   0.9097
B(  6-C ,  7-O ) :   0.9620 B(  6-C , 15-H ) :   0.9405

MP2 TOTAL ENERGY:     -383.092368333 Eh
FINAL SINGLE POINT ENERGY      -383.092368332971

DIPOLE MOMENT
-------------
                                X             Y             Z
Electronic contribution:     -2.65828      -1.75546      -2.17594
Nuclear contribution   :      3.30095       2.28956       2.16533
                        -----------------------------------------
Total Dipole Moment    :      0.64267       0.53410      -0.01061
                        -----------------------------------------
Magnitude (a.u.)       :      0.83570
Magnitude (Debye)      :      2.12419

                             ****ORCA TERMINATED NORMALLY****
TOTAL RUN TIME: 0 days 0 hours 13 minutes 35 seconds 370 msec
