                         Program Version 3.0.3 - RELEASE   -
|  1> ! RI-MP2 RIJK def2-TZVP def2-TZVP/C def2-TZVP/JK TIGHTSCF
|  2> % maxcore 2000
|  3> % mp2 density relaxed end
|  4> *xyz 0 1
|  5>  C       -0.5210339009     0.2770019095     0.0835611823
|  6>  O        0.2114921375     0.2888456819     1.2913513075
|  7>  C        1.4445136338    -0.3792546119     1.2044866876
|  8>  C        1.3255782413    -1.8886153094     1.0690514768
|  9>  N        1.9954164031    -2.5257099191     0.2082109771
| 10>  O        0.4450432839    -2.3679477159     2.0051562009
| 11>  C        0.1159075006    -3.7423295326     1.9694908974
| 12>  C        1.1853610302    -4.6123302330     2.4849780468
| 13>  N        2.0140835117    -5.3077358896     2.8894979446
| 14>  H       -0.8112176893    -0.7408148021    -0.2165719925
| 15>  H       -1.4259298101     0.8640803675     0.2545086128
| 16>  H        0.0506783206     0.7286658554    -0.7409559061
| 17>  H        2.0523818843    -0.0294021587     0.3601571157
| 18>  H        1.9764348109    -0.1596360323     2.1367779676
| 19>  H        1.9050073891    -3.5394254951     0.2596391116
| 20>  H       -0.7674515087    -3.8544935341     2.6028637989
| 21>  H       -0.1467451579    -4.0628805405     0.9531176711
| 22> *
| 23>
| 24>                          ****END OF INPUT****

CARTESIAN COORDINATES (ANGSTROEM)
---------------------------------
  C     -0.521034    0.277002    0.083561
  O      0.211492    0.288846    1.291351
  C      1.444514   -0.379255    1.204487
  C      1.325578   -1.888615    1.069051
  N      1.995416   -2.525710    0.208211
  O      0.445043   -2.367948    2.005156
  C      0.115908   -3.742330    1.969491
  C      1.185361   -4.612330    2.484978
  N      2.014084   -5.307736    2.889498
  H     -0.811218   -0.740815   -0.216572
  H     -1.425930    0.864080    0.254509
  H      0.050678    0.728666   -0.740956
  H      2.052382   -0.029402    0.360157
  H      1.976435   -0.159636    2.136778
  H      1.905007   -3.539425    0.259639
  H     -0.767452   -3.854494    2.602864
  H     -0.146745   -4.062881    0.953118

 Total Charge           Charge          ....    0
 Multiplicity           Mult            ....    1
 Number of Electrons    NEL             ....   68
 Basis Dimension        Dim             ....  327

ORBITAL ENERGIES
----------------

  NO   OCC          E(Eh)            E(eV)
   0   2.0000     -20.632446      -561.4374
   1   2.0000     -20.572739      -559.8127
   2   2.0000     -15.596820      -424.4110
   3   2.0000     -15.563465      -423.5034
   4   2.0000     -11.365201      -309.2629
   5   2.0000     -11.361265      -309.1557
   6   2.0000     -11.298836      -307.4570
   7   2.0000     -11.294311      -307.3338
   8   2.0000     -11.282218      -307.0048
   9   2.0000      -1.464838       -39.8603
  10   2.0000      -1.391980       -37.8777
  11   2.0000      -1.241348       -33.7788
  12   2.0000      -1.222665       -33.2704
  13   2.0000      -1.059343       -28.8262
  14   2.0000      -0.996808       -27.1245
  15   2.0000      -0.913145       -24.8479
  16   2.0000      -0.821596       -22.3568
  17   2.0000      -0.759763       -20.6742
  18   2.0000      -0.744340       -20.2545
  19   2.0000      -0.716569       -19.4988
  20   2.0000      -0.677174       -18.4268
  21   2.0000      -0.659758       -17.9529
  22   2.0000      -0.649852       -17.6834
  23   2.0000      -0.608209       -16.5502
  24   2.0000      -0.589694       -16.0464
  25   2.0000      -0.570409       -15.5216
  26   2.0000      -0.563653       -15.3378
  27   2.0000      -0.539439       -14.6789
  28   2.0000      -0.502275       -13.6676
  29   2.0000      -0.492366       -13.3979
  30   2.0000      -0.484995       -13.1974
  31   2.0000      -0.462880       -12.5956
  32   2.0000      -0.438240       -11.9251
  33   2.0000      -0.437367       -11.9014
  34   0.0000       0.112713         3.0671
  35   0.0000       0.134734         3.6663
  36   0.0000       0.150457         4.0942
  37   0.0000       0.151057         4.1105
  38   0.0000       0.161706         4.4002

MULLIKEN ATOMIC CHARGES
-----------------------
   0 C :   -0.220386
   1 O :   -0.301293
   2 C :   -0.008215
   3 C :    0.156974
   4 N :   -0.358554
   5 O :   -0.219065
   6 C :   -0.065836
   7 C :   -0.159852
   8 N :   -0.045282
   9 H :    0.108575
  10 H :    0.142822
  11 H :    0.122657
  12 H :    0.128671
  13 H :    0.135700
  14 H :    0.222597
  15 H :    0.178555
  16 H :    0.181932
Sum of atomic charges:   -0.0000000

LOEWDIN ATOMIC CHARGES
----------------------
   0 C :   -0.349909
   1 O :    0.142462
   2 C :   -0.289399
   3 C :   -0.409820
   4 N :   -0.029466
   5 O :    0.262549
   6 C :   -0.292786
   7 C :   -0.197300
   8 N :    0.081538
   9 H :    0.102108
  10 H :    0.115277
  11 H :    0.105567
  12 H :    0.137266
  13 H :    0.145324
  14 H :    0.163325
  15 H :    0.161549
  16 H :    0.151714

  Mayer bond orders larger than 0.1
B(  0-C ,  1-O ) :   0.9109 B(  0-C ,  9-H ) :   0.9307 B(  0-C , 10-H ) :   0.9386
B(  0-C , 11-H ) :   0.9371 B(  1-O ,  2-C ) :   0.9631 B(  2-C ,  3-C ) :   0.8760
B(  2-C , 12-H ) :   0.9554 B(  2-C , 13-H ) :   0.9121 B(  3-C ,  4-N ) :   1.9566
B(  3-C ,  5-O ) :   1.0542 B(  4-N , 14-H ) :   0.8624 B(  5-O ,  6-C ) :   0.9065
B(  6-C ,  7-C ) :   0.8843 B(  6-C , 15-H ) :   0.9044 B(  6-C , 16-H ) :   0.9364
B(  7-C ,  8-N ) :   2.8248

MP2 TOTAL ENERGY:     -454.392871054 Eh
FINAL SINGLE POINT ENERGY      -454.392871053588

DIPOLE MOMENT
-------------
                                X             Y             Z
Electronic contribution:      2.66929      -5.98339       4.93553
Nuclear contribution   :     -3.91586       6.17923      -5.48410
                        -----------------------------------------
Total Dipole Moment    :     -1.24657       0.19583      -0.54857
                        -----------------------------------------
Magnitude (a.u.)       :      1.37594
Magnitude (Debye)      :      3.49736

                             ****ORCA TERMINATED NORMALLY****
TOTAL RUN TIME: 0 days 0 hours 13 minutes 48 seconds 766 msec
