                         Program Version 3.0.3 - RELEASE   -
|  1> ! RI-MP2 RIJK def2-TZVP def2-TZVP/C def2-TZVP/JK TIGHTSCF
|  2> % maxcore 2000
|  3> % mp2 density relaxed end
|  4> *xyz 0 1
|  5>  C       -0.2394561276     1.4617647696     0.0419517383
|  6>  C        0.0413764978    -0.0538756470    -0.0576206306
|  7>  C        0.8173325067    -0.4500397142    -1.3215018359
|  8>  O        0.2168533627     0.2089594219    -2.4240594657
|  9>  C        2.2972284809    -0.1155797869    -1.1468495355
| 10>  C        2.8314099470    -0.8851349392     0.0520501185
| 11>  O        2.0697373860    -0.6866878238     1.2521957943
| 12>  C        0.7250456882    -0.4918984377     1.2402219858
| 13>  O        0.1214383497    -0.5836434832     2.2742272944
| 14>  H        0.6831003117     2.0468816343     0.1044296555
| 15>  H       -0.7957237593     1.7934734598    -0.8352603124
| 16>  H       -0.8263042323     1.6599218972     0.9410712827
| 17>  H       -0.9257625170    -0.5645748936    -0.0623423313
| 18>  H        0.7297749788    -1.5432870544    -1.4459323013
| 19>  H        0.6521838820    -0.0915709186    -3.2279970721
| 20>  H        2.8712602209    -0.4063991983    -2.0350038703
| 21>  H        2.4274064131     0.9626816313    -1.0098641844
| 22>  H        2.8462778437    -1.9620559522    -0.1630998841
| 23>  H        3.8502945369    -0.5824487847     0.3044404341
| 24> *
| 25>
| 26>                          ****END OF INPUT****

CARTESIAN COORDINATES (ANGSTROEM)
---------------------------------
  C     -0.239456    1.461765    0.041952
  C      0.041376   -0.053876   -0.057621
  C      0.817333   -0.450040   -1.321502
  O      0.216853    0.208959   -2.424059
  C      2.297228   -0.115580   -1.146850
  C      2.831410   -0.885135    0.052050
  O      2.069737   -0.686688    1.252196
  C      0.725046   -0.491898    1.240222
  O      0.121438   -0.583643    2.274227
  H      0.683100    2.046882    0.104430
  H     -0.795724    1.793473   -0.835260
  H     -0.826304    1.659922    0.941071
  H     -0.925763   -0.564575   -0.062342
  H      0.729775   -1.543287   -1.445932
  H      0.652184   -0.091571   -3.227997
  H      2.871260   -0.406399   -2.035004
  H      2.427406    0.962682   -1.009864
  H      2.846278   -1.962056   -0.163100
  H      3.850295   -0.582449    0.304440

 Total Charge           Charge          ....    0
 Multiplicity           Mult            ....    1
 Number of Electrons    NEL             ....   70
 Basis Dimension        Dim             ....  339

ORBITAL ENERGIES
----------------

  NO   OCC          E(Eh)            E(eV)
   0   2.0000     -20.597490      -560.4862
   1   2.0000     -20.576441      -559.9134
   2   2.0000     -20.531683      -558.6955
   3   2.0000     -11.375665      -309.5476
   4   2.0000     -11.306990      -307.6788
   5   2.0000     -11.305162      -307.6291
   6   2.0000     -11.254389      -306.2475
   7   2.0000     -11.248562      -306.0889
   8   2.0000     -11.224529      -305.4350
   9   2.0000      -1.451278       -39.4913
  10   2.0000      -1.384809       -37.6826
  11   2.0000      -1.356517       -36.9127
  12   2.0000      -1.105603       -30.0850
  13   2.0000      -1.052749       -28.6468
  14   2.0000      -0.948849       -25.8195
  15   2.0000      -0.883400       -24.0385
  16   2.0000      -0.851613       -23.1736
  17   2.0000      -0.748010       -20.3544
  18   2.0000      -0.725113       -19.7313
  19   2.0000      -0.695905       -18.9365
  20   2.0000      -0.675820       -18.3900
  21   2.0000      -0.663462       -18.0537
  22   2.0000      -0.632757       -17.2182
  23   2.0000      -0.622825       -16.9479
  24   2.0000      -0.595787       -16.2122
  25   2.0000      -0.581258       -15.8168
  26   2.0000      -0.560105       -15.2412
  27   2.0000      -0.550543       -14.9810
  28   2.0000      -0.523423       -14.2431
  29   2.0000      -0.512515       -13.9463
  30   2.0000      -0.503366       -13.6973
  31   2.0000      -0.478528       -13.0214
  32   2.0000      -0.456504       -12.4221
  33   2.0000      -0.443582       -12.0705
  34   2.0000      -0.432047       -11.7566
  35   0.0000       0.113887         3.0990
  36   0.0000       0.138637         3.7725
  37   0.0000       0.146457         3.9853
  38   0.0000       0.159896         4.3510
  39   0.0000       0.174115         4.7379

MULLIKEN ATOMIC CHARGES
-----------------------
   0 C :   -0.441214
   1 C :   -0.027891
   2 C :    0.086640
   3 O :   -0.459575
   4 C :   -0.301305
   5 C :   -0.080859
   6 O :   -0.211837
   7 C :    0.225284
   8 O :   -0.287857
   9 H :    0.121382
  10 H :    0.159741
  11 H :    0.159512
  12 H :    0.122054
  13 H :    0.097277
  14 H :    0.316351
  15 H :    0.124806
  16 H :    0.139651
  17 H :    0.116405
  18 H :    0.141435
Sum of atomic charges:   -0.0000000

LOEWDIN ATOMIC CHARGES
----------------------
   0 C :   -0.271912
   1 C :   -0.224699
   2 C :   -0.337526
   3 O :   -0.005698
   4 C :   -0.257694
   5 C :   -0.280469
   6 O :    0.256594
   7 C :   -0.449183
   8 O :    0.140792
   9 H :    0.122932
  10 H :    0.131337
  11 H :    0.133233
  12 H :    0.171007
  13 H :    0.140776
  14 H :    0.176253
  15 H :    0.143732
  16 H :    0.145715
  17 H :    0.129782
  18 H :    0.135026

  Mayer bond orders larger than 0.1
B(  0-C ,  1-C ) :   0.9057 B(  0-C ,  9-H ) :   0.9270 B(  0-C , 10-H ) :   0.9297
B(  0-C , 11-H ) :   0.9341 B(  1-C ,  2-C ) :   0.8760 B(  1-C ,  7-C ) :   0.9079
B(  1-C , 12-H ) :   0.9097 B(  2-C ,  3-O ) :   0.9858 B(  2-C ,  4-C ) :   0.8887
B(  2-C , 13-H ) :   0.9387 B(  3-O , 14-H ) :   0.8435 B(  4-C ,  5-C ) :   0.9400
B(  4-C , 15-H ) :   0.9191 B(  4-C , 16-H ) :   0.9276 B(  5-C ,  6-O ) :   0.8644
B(  5-C , 17-H ) :   0.9293 B(  5-C , 18-H ) :   0.9310 B(  6-O ,  7-C ) :   1.1169
B(  7-C ,  8-O ) :   2.0219

MP2 TOTAL ENERGY:     -459.474833710 Eh
FINAL SINGLE POINT ENERGY      -459.474833709702

DIPOLE MOMENT
-------------
                                X             Y             Z
Electronic contribution:     -0.64801      -2.99303       4.87817
Nuclear contribution   :      1.57436       2.81507      -6.65217
                        -----------------------------------------
Total Dipole Moment    :      0.92635      -0.17796      -1.77400
                        -----------------------------------------
Magnitude (a.u.)       :      2.00919
Magnitude (Debye)      :      5.10696

                             ****ORCA TERMINATED NORMALLY****
TOTAL RUN TIME: 0 days 0 hours 18 minutes 23 seconds 553 msec
