                         Program Version 3.0.3 - RELEASE   -
|  1> ! RI-MP2 RIJK def2-TZVP def2-TZVP/C def2-TZVP/JK TIGHTSCF
|  2> % maxcore 2000
|  3> % mp2 density relaxed end
|  4> *xyz 0 1
|  5>  C       -0.0572920198     1.5139344309     0.0389498474
|  6>  C        0.0102125600    -0.0134862029    -0.0288897189
|  7>  C        0.7385559214    -0.5104695048    -1.2704438272
|  8>  O        0.7512377424    -1.9207577041    -1.2585739944
|  9>  C        1.4005458963    -2.4897311311    -2.3754096388
| 10>  C        1.3082496787    -4.0145108132    -2.2939547804
| 11>  C       -0.1570356362    -4.4698652668    -2.2981022504
| 12>  C        2.1370590792    -4.6480920732    -3.4255674560
| 13>  C        2.2612510129    -6.1729954353    -3.3447678079
| 14>  H        0.9441892454     1.9580184417     0.0592212114
| 15>  H       -0.5855721006     1.9294570851    -0.8263863316
| 16>  H       -0.5842048445     1.8448887140     0.9385129732
| 17>  H        0.5197250571    -0.4119350665     0.8559792900
| 18>  H       -0.9996929377    -0.4395991793    -0.0253889606
| 19>  H        0.2381825328    -0.1388855077    -2.1824616952
| 20>  H        1.7706171232    -0.1171199125    -1.2918550373
| 21>  H        0.9342550964    -2.1317956005    -3.3116059799
| 22>  H        2.4577888439    -2.1731948681    -2.4015679808
| 23>  H        1.7575042141    -4.3062687545    -1.3339403668
| 24>  H       -0.2486069544    -5.5430026062    -2.1094381622
| 25>  H       -0.7203646096    -3.9384117003    -1.5280188839
| 26>  H       -0.6268416100    -4.2586830798    -3.2671455846
| 27>  H        1.6954707889    -4.3695717997    -4.3927525309
| 28>  H        3.1437028345    -4.2099454901    -3.4143664797
| 29>  H        2.6956941946    -6.4835130266    -2.3877800669
| 30>  H        1.2902356475    -6.6669460027    -3.4443732000
| 31>  H        2.9071288135    -6.5546867859    -4.1417135176
| 32> *
| 33>
| 34>                          ****END OF INPUT****

CARTESIAN COORDINATES (ANGSTROEM)
---------------------------------
  C     -0.057292    1.513934    0.038950
  C      0.010213   -0.013486   -0.028890
  C      0.738556   -0.510470   -1.270444
  O      0.751238   -1.920758   -1.258574
  C      1.400546   -2.489731   -2.375410
  C      1.308250   -4.014511   -2.293955
  C     -0.157036   -4.469865   -2.298102
  C      2.137059   -4.648092   -3.425567
  C      2.261251   -6.172995   -3.344768
  H      0.944189    1.958018    0.059221
  H     -0.585572    1.929457   -0.826386
  H     -0.584205    1.844889    0.938513
  H      0.519725   -0.411935    0.855979
  H     -0.999693   -0.439599   -0.025389
  H      0.238183   -0.138886   -2.182462
  H      1.770617   -0.117120   -1.291855
  H      0.934255   -2.131796   -3.311606
  H      2.457789   -2.173195   -2.401568
  H      1.757504   -4.306269   -1.333940
  H     -0.248607   -5.543003   -2.109438
  H     -0.720365   -3.938412   -1.528019
  H     -0.626842   -4.258683   -3.267146
  H      1.695471   -4.369572   -4.392753
  H      3.143703   -4.209945   -3.414366
  H      2.695694   -6.483513   -2.387780
  H      1.290236   -6.666946   -3.444373
  H      2.907129   -6.554687   -4.141714

 Total Charge           Charge          ....    0
 Multiplicity           Mult            ....    1
 Number of Electrons    NEL             ....   74
 Basis Dimension        Dim             ....  387

ORBITAL ENERGIES
----------------

  NO   OCC          E(Eh)            E(eV)
   0   2.0000     -20.547437      -559.1242
   1   2.0000     -11.268723      -306.6375
   2   2.0000     -11.266542      -306.5782
   3   2.0000     -11.220265      -305.3189
   4   2.0000     -11.217773      -305.2511
   5   2.0000     -11.216640      -305.2203
   6   2.0000     -11.214807      -305.1704
   7   2.0000     -11.210791      -305.0611
   8   2.0000     -11.202174      -304.8267
   9   2.0000      -1.371171       -37.3115
  10   2.0000      -1.088582       -29.6218
  11   2.0000      -1.048913       -28.5424
  12   2.0000      -0.986132       -26.8340
  13   2.0000      -0.932874       -25.3848
  14   2.0000      -0.893231       -24.3061
  15   2.0000      -0.838089       -22.8056
  16   2.0000      -0.805899       -21.9296
  17   2.0000      -0.761807       -20.7298
  18   2.0000      -0.674961       -18.3666
  19   2.0000      -0.655621       -17.8404
  20   2.0000      -0.631436       -17.1822
  21   2.0000      -0.621813       -16.9204
  22   2.0000      -0.600191       -16.3320
  23   2.0000      -0.580477       -15.7956
  24   2.0000      -0.565143       -15.3783
  25   2.0000      -0.545363       -14.8401
  26   2.0000      -0.534786       -14.5523
  27   2.0000      -0.518903       -14.1201
  28   2.0000      -0.511195       -13.9103
  29   2.0000      -0.501399       -13.6438
  30   2.0000      -0.497559       -13.5393
  31   2.0000      -0.474764       -12.9190
  32   2.0000      -0.466272       -12.6879
  33   2.0000      -0.456530       -12.4228
  34   2.0000      -0.451438       -12.2843
  35   2.0000      -0.446207       -12.1419
  36   2.0000      -0.415188       -11.2978
  37   0.0000       0.135468         3.6863
  38   0.0000       0.144124         3.9218
  39   0.0000       0.161054         4.3825
  40   0.0000       0.172390         4.6910
  41   0.0000       0.175776         4.7831

MULLIKEN ATOMIC CHARGES
-----------------------
   0 C :   -0.406691
   1 C :   -0.163763
   2 C :   -0.062404
   3 O :   -0.290455
   4 C :   -0.071031
   5 C :   -0.004928
   6 C :   -0.429905
   7 C :   -0.208830
   8 C :   -0.404022
   9 H :    0.122892
  10 H :    0.123063
  11 H :    0.137411
  12 H :    0.111136
  13 H :    0.111201
  14 H :    0.084578
  15 H :    0.084826
  16 H :    0.088664
  17 H :    0.096089
  18 H :    0.082178
  19 H :    0.132294
  20 H :    0.153118
  21 H :    0.112320
  22 H :    0.104425
  23 H :    0.109226
  24 H :    0.123827
  25 H :    0.130561
  26 H :    0.134219
Sum of atomic charges:    0.0000000

LOEWDIN ATOMIC CHARGES
----------------------
   0 C :   -0.320416
   1 C :   -0.295374
   2 C :   -0.334159
   3 O :    0.164079
   4 C :   -0.310008
   5 C :   -0.288990
   6 C :   -0.294736
   7 C :   -0.273908
   8 C :   -0.318689
   9 H :    0.120415
  10 H :    0.120414
  11 H :    0.122418
  12 H :    0.136989
  13 H :    0.136902
  14 H :    0.117160
  15 H :    0.117448
  16 H :    0.120481
  17 H :    0.120492
  18 H :    0.153798
  19 H :    0.120589
  20 H :    0.127884
  21 H :    0.122281
  22 H :    0.136389
  23 H :    0.136653
  24 H :    0.121325
  25 H :    0.119750
  26 H :    0.120813

  Mayer bond orders larger than 0.1
B(  0-C ,  1-C ) :   0.9146 B(  0-C ,  9-H ) :   0.9370 B(  0-C , 10-H ) :   0.9370
B(  0-C , 11-H ) :   0.9404 B(  1-C ,  2-C ) :   0.9532 B(  1-C , 12-H ) :   0.9304
B(  1-C , 13-H ) :   0.9309 B(  2-C ,  3-O ) :   0.9386 B(  2-C , 14-H ) :   0.9212
B(  2-C , 15-H ) :   0.9212 B(  3-O ,  4-C ) :   0.9370 B(  4-C ,  5-C ) :   0.9481
B(  4-C , 16-H ) :   0.9193 B(  4-C , 17-H ) :   0.9251 B(  5-C ,  6-C ) :   0.9109
B(  5-C ,  7-C ) :   0.9190 B(  5-C , 18-H ) :   0.9208 B(  6-C , 19-H ) :   0.9408
B(  6-C , 20-H ) :   0.9349 B(  6-C , 21-H ) :   0.9291 B(  7-C ,  8-C ) :   0.9168
B(  7-C , 22-H ) :   0.9236 B(  7-C , 23-H ) :   0.9343 B(  8-C , 24-H ) :   0.9382
B(  8-C , 25-H ) :   0.9430 B(  8-C , 26-H ) :   0.9429

MP2 TOTAL ENERGY:     -390.018585908 Eh
FINAL SINGLE POINT ENERGY      -390.018585908195

DIPOLE MOMENT
-------------
                                X             Y             Z
Electronic contribution:      0.23482       0.99064       1.41147
Nuclear contribution   :     -0.06738      -0.75537      -1.64108
                        -----------------------------------------
Total Dipole Moment    :      0.16745       0.23527      -0.22962
                        -----------------------------------------
Magnitude (a.u.)       :      0.36894
Magnitude (Debye)      :      0.93776

                             ****ORCA TERMINATED NORMALLY****
TOTAL RUN TIME: 0 days 0 hours 18 minutes 22 seconds 296 msec
