                         Program Version 3.0.3 - RELEASE   -
|  1> ! RI-MP2 RIJK def2-TZVP def2-TZVP/C def2-TZVP/JK TIGHTSCF
|  2> % maxcore 2000
|  3> % mp2 density relaxed end
|  4> *xyz 0 1
|  5>  C        0.1439547675     1.5665102096    -0.0957701278
|  6>  C       -0.0023055414     0.0813866092     0.0210240504
|  7>  C       -0.3277138668    -0.7976529643    -0.9629896705
|  8>  O       -0.3666477750    -2.0746567806    -0.4879651658
|  9>  C       -0.0610290387    -2.0133507067     0.8361362136
| 10>  C       -0.0311874954    -3.3091161177     1.5861147945
| 11>  C       -1.3380981695    -3.9575574512     1.6999317283
| 12>  C       -2.4102393687    -4.4908753635     1.7924412390
| 13>  C        0.1715441946    -0.7253770323     1.2008915542
| 14>  H        1.1528554183     1.8940437830     0.1799339299
| 15>  H       -0.0470014804     1.9027769220    -1.1186472726
| 16>  H       -0.5557240675     2.0921174827     0.5639748042
| 17>  H       -0.5513384971    -0.6810850126    -2.0109888054
| 18>  H        0.6726143059    -4.0000528297     1.1021550693
| 19>  H        0.3707576303    -3.1099141917     2.5858257291
| 20>  H       -3.3598541254    -4.9590761512     1.8710326853
| 21>  H        0.4321231293    -0.3807683850     2.1903982942
| 22> *
| 23>
| 24>                          ****END OF INPUT****

CARTESIAN COORDINATES (ANGSTROEM)
---------------------------------
  C      0.143955    1.566510   -0.095770
  C     -0.002306    0.081387    0.021024
  C     -0.327714   -0.797653   -0.962990
  O     -0.366648   -2.074657   -0.487965
  C     -0.061029   -2.013351    0.836136
  C     -0.031187   -3.309116    1.586115
  C     -1.338098   -3.957557    1.699932
  C     -2.410239   -4.490875    1.792441
  C      0.171544   -0.725377    1.200892
  H      1.152855    1.894044    0.179934
  H     -0.047001    1.902777   -1.118647
  H     -0.555724    2.092117    0.563975
  H     -0.551338   -0.681085   -2.010989
  H      0.672614   -4.000053    1.102155
  H      0.370758   -3.109914    2.585826
  H     -3.359854   -4.959076    1.871033
  H      0.432123   -0.380768    2.190398

 Total Charge           Charge          ....    0
 Multiplicity           Mult            ....    1
 Number of Electrons    NEL             ....   64
 Basis Dimension        Dim             ....  327

ORBITAL ENERGIES
----------------

  NO   OCC          E(Eh)            E(eV)
   0   2.0000     -20.614672      -560.9538
   1   2.0000     -11.295766      -307.3734
   2   2.0000     -11.275616      -306.8251
   3   2.0000     -11.270562      -306.6876
   4   2.0000     -11.236005      -305.7472
   5   2.0000     -11.233303      -305.6737
   6   2.0000     -11.229166      -305.5611
   7   2.0000     -11.223734      -305.4133
   8   2.0000     -11.221902      -305.3635
   9   2.0000      -1.454253       -39.5722
  10   2.0000      -1.099597       -29.9215
  11   2.0000      -1.089962       -29.6594
  12   2.0000      -1.014638       -27.6097
  13   2.0000      -0.963687       -26.2233
  14   2.0000      -0.928995       -25.2792
  15   2.0000      -0.792097       -21.5540
  16   2.0000      -0.760687       -20.6994
  17   2.0000      -0.721886       -19.6435
  18   2.0000      -0.700989       -19.0749
  19   2.0000      -0.656146       -17.8546
  20   2.0000      -0.623817       -16.9749
  21   2.0000      -0.603695       -16.4274
  22   2.0000      -0.591626       -16.0990
  23   2.0000      -0.575783       -15.6678
  24   2.0000      -0.567518       -15.4429
  25   2.0000      -0.560396       -15.2492
  26   2.0000      -0.540373       -14.7043
  27   2.0000      -0.506654       -13.7868
  28   2.0000      -0.391759       -10.6603
  29   2.0000      -0.388634       -10.5753
  30   2.0000      -0.384074       -10.4512
  31   2.0000      -0.310061        -8.4372
  32   0.0000       0.134753         3.6668
  33   0.0000       0.145037         3.9467
  34   0.0000       0.152098         4.1388
  35   0.0000       0.169140         4.6025
  36   0.0000       0.175703         4.7811

MULLIKEN ATOMIC CHARGES
-----------------------
   0 C :   -0.425128
   1 C :    0.099630
   2 C :   -0.075356
   3 O :   -0.219334
   4 C :    0.271701
   5 C :   -0.381634
   6 C :   -0.015352
   7 C :   -0.151069
   8 C :   -0.316292
   9 H :    0.142917
  10 H :    0.136963
  11 H :    0.144336
  12 H :    0.141577
  13 H :    0.159108
  14 H :    0.161461
  15 H :    0.190345
  16 H :    0.136128
Sum of atomic charges:    0.0000000

LOEWDIN ATOMIC CHARGES
----------------------
   0 C :   -0.270510
   1 C :   -0.212879
   2 C :   -0.220518
   3 O :    0.361404
   4 C :   -0.242395
   5 C :   -0.215097
   6 C :   -0.101627
   7 C :   -0.099859
   8 C :   -0.137919
   9 H :    0.130928
  10 H :    0.131734
  11 H :    0.131338
  12 H :    0.133640
  13 H :    0.168531
  14 H :    0.170782
  15 H :    0.126623
  16 H :    0.145823

  Mayer bond orders larger than 0.1
B(  0-C ,  1-C ) :   0.8502 B(  0-C ,  9-H ) :   0.9364 B(  0-C , 10-H ) :   0.9535
B(  0-C , 11-H ) :   0.9369 B(  1-C ,  2-C ) :   1.5402 B(  1-C ,  8-C ) :   1.1704
B(  2-C ,  3-O ) :   1.0484 B(  2-C , 12-H ) :   0.9366 B(  3-O ,  4-C ) :   1.0322
B(  4-C ,  5-C ) :   0.9176 B(  4-C ,  8-C ) :   1.5029 B(  5-C ,  6-C ) :   1.0680
B(  5-C , 13-H ) :   0.9200 B(  5-C , 14-H ) :   0.9404 B(  6-C ,  7-C ) :   2.6330
B(  7-C , 15-H ) :   0.9038 B(  8-C , 16-H ) :   0.9179

MP2 TOTAL ENERGY:     -383.994310951 Eh
FINAL SINGLE POINT ENERGY      -383.994310950932

DIPOLE MOMENT
-------------
                                X             Y             Z
Electronic contribution:     -1.37573      -5.59686      -0.48264
Nuclear contribution   :      1.60980       5.96807       0.60605
                        -----------------------------------------
Total Dipole Moment    :      0.23407       0.37121       0.12341
                        -----------------------------------------
Magnitude (a.u.)       :      0.45587
Magnitude (Debye)      :      1.15872

                             ****ORCA TERMINATED NORMALLY****
TOTAL RUN TIME: 0 days 0 hours 14 minutes 31 seconds 706 msec
