                         Program Version 3.0.3 - RELEASE   -
|  1> ! RI-MP2 RIJK def2-TZVP def2-TZVP/C def2-TZVP/JK TIGHTSCF
|  2> % maxcore 2000
|  3> % mp2 density relaxed end
|  4> *xyz 0 1
|  5>  C       -0.0542061014     1.3386098513    -0.0527217227
|  6>  O       -0.0052546492    -0.0780872217    -0.0207488020
|  7>  C        0.6303210188    -0.5971767663     1.0471507500
|  8>  C        1.2463188035    -0.0352031288     2.1197187599
|  9>  O        1.7397790925    -1.0006239818     2.9291465115
| 10>  N        1.4463446107    -2.2492764519     2.3835101053
| 11>  C        0.7924398304    -2.0031726409     1.2746348148
| 12>  O        0.3296227346    -2.9434334698     0.4505376453
| 13>  C        0.5896391762    -4.2928522578     0.8468842787
| 14>  H        0.9567962101     1.7670916489    -0.0802995962
| 15>  H       -0.5915792133     1.6134596364    -0.9609225540
| 16>  H       -0.5864892129     1.7341294928     0.8229032317
| 17>  H        1.4117171797     0.9801289793     2.4380918947
| 18>  H        1.6665014068    -4.4737171006     0.9194590395
| 19>  H        0.1311328903    -4.5058037297     1.8174729258
| 20>  H        0.1491492732    -4.9196681093     0.0713914477
| 21> *
| 22>
| 23>                          ****END OF INPUT****

CARTESIAN COORDINATES (ANGSTROEM)
---------------------------------
  C     -0.054206    1.338610   -0.052722
  O     -0.005255   -0.078087   -0.020749
  C      0.630321   -0.597177    1.047151
  C      1.246319   -0.035203    2.119719
  O      1.739779   -1.000624    2.929147
  N      1.446345   -2.249276    2.383510
  C      0.792440   -2.003173    1.274635
  O      0.329623   -2.943433    0.450538
  C      0.589639   -4.292852    0.846884
  H      0.956796    1.767092   -0.080300
  H     -0.591579    1.613460   -0.960923
  H     -0.586489    1.734129    0.822903
  H      1.411717    0.980129    2.438092
  H      1.666501   -4.473717    0.919459
  H      0.131133   -4.505804    1.817473
  H      0.149149   -4.919668    0.071391

 Total Charge           Charge          ....    0
 Multiplicity           Mult            ....    1
 Number of Electrons    NEL             ....   68
 Basis Dimension        Dim             ....  321

ORBITAL ENERGIES
----------------

  NO   OCC          E(Eh)            E(eV)
   0   2.0000     -20.633580      -561.4682
   1   2.0000     -20.604190      -560.6685
   2   2.0000     -20.600117      -560.5577
   3   2.0000     -15.607859      -424.7114
   4   2.0000     -11.338929      -308.5480
   5   2.0000     -11.305127      -307.6282
   6   2.0000     -11.302991      -307.5700
   7   2.0000     -11.296935      -307.4052
   8   2.0000     -11.286075      -307.1097
   9   2.0000      -1.487695       -40.4822
  10   2.0000      -1.434073       -39.0231
  11   2.0000      -1.422978       -38.7212
  12   2.0000      -1.148143       -31.2426
  13   2.0000      -1.069781       -29.1102
  14   2.0000      -0.967702       -26.3325
  15   2.0000      -0.962781       -26.1986
  16   2.0000      -0.822774       -22.3888
  17   2.0000      -0.800476       -21.7821
  18   2.0000      -0.750745       -20.4288
  19   2.0000      -0.691710       -18.8224
  20   2.0000      -0.691575       -18.8187
  21   2.0000      -0.670767       -18.2525
  22   2.0000      -0.661124       -17.9901
  23   2.0000      -0.632633       -17.2148
  24   2.0000      -0.626591       -17.0504
  25   2.0000      -0.602926       -16.4064
  26   2.0000      -0.565106       -15.3773
  27   2.0000      -0.532063       -14.4782
  28   2.0000      -0.525645       -14.3035
  29   2.0000      -0.519562       -14.1380
  30   2.0000      -0.505377       -13.7520
  31   2.0000      -0.470649       -12.8070
  32   2.0000      -0.383417       -10.4333
  33   2.0000      -0.346759        -9.4358
  34   0.0000       0.133774         3.6402
  35   0.0000       0.134027         3.6471
  36   0.0000       0.159633         4.3438
  37   0.0000       0.174404         4.7458
  38   0.0000       0.197746         5.3810

MULLIKEN ATOMIC CHARGES
-----------------------
   0 C :   -0.244437
   1 O :   -0.276085
   2 C :    0.153487
   3 C :   -0.075930
   4 O :   -0.125577
   5 N :   -0.162739
   6 C :    0.206747
   7 O :   -0.266659
   8 C :   -0.220070
   9 H :    0.132866
  10 H :    0.154394
  11 H :    0.132877
  12 H :    0.164212
  13 H :    0.139535
  14 H :    0.139524
  15 H :    0.147855
Sum of atomic charges:    0.0000000

LOEWDIN ATOMIC CHARGES
----------------------
   0 C :   -0.319161
   1 O :    0.238954
   2 C :   -0.294294
   3 C :   -0.273283
   4 O :    0.252774
   5 N :    0.023387
   6 C :   -0.388599
   7 O :    0.246853
   8 C :   -0.307384
   9 H :    0.110613
  10 H :    0.119062
  11 H :    0.110621
  12 H :    0.137211
  13 H :    0.113878
  14 H :    0.113875
  15 H :    0.115493

  Mayer bond orders larger than 0.1
B(  0-C ,  1-O ) :   0.8732 B(  0-C ,  9-H ) :   0.9337 B(  0-C , 10-H ) :   0.9384
B(  0-C , 11-H ) :   0.9337 B(  1-O ,  2-C ) :   1.0949 B(  2-C ,  3-C ) :   1.4933
B(  2-C ,  6-C ) :   1.1353 B(  3-C ,  4-O ) :   1.0749 B(  3-C ,  5-N ) :   0.1069
B(  3-C , 12-H ) :   0.9217 B(  4-O ,  5-N ) :   0.8562 B(  5-N ,  6-C ) :   1.5530
B(  6-C ,  7-O ) :   1.1505 B(  7-O ,  8-C ) :   0.8434 B(  8-C , 13-H ) :   0.9355
B(  8-C , 14-H ) :   0.9355 B(  8-C , 15-H ) :   0.9346

MP2 TOTAL ENERGY:     -474.224118011 Eh
FINAL SINGLE POINT ENERGY      -474.224118011079

DIPOLE MOMENT
-------------
                                X             Y             Z
Electronic contribution:      1.59605      -0.67162       2.70112
Nuclear contribution   :     -1.88363       1.36286      -3.16773
                        -----------------------------------------
Total Dipole Moment    :     -0.28758       0.69125      -0.46661
                        -----------------------------------------
Magnitude (a.u.)       :      0.88219
Magnitude (Debye)      :      2.24234

                             ****ORCA TERMINATED NORMALLY****
TOTAL RUN TIME: 0 days 0 hours 16 minutes 0 seconds 617 msec
