                         Program Version 3.0.3 - RELEASE   -
|  1> ! RI-MP2 RIJK def2-TZVP def2-TZVP/C def2-TZVP/JK TIGHTSCF
|  2> % maxcore 2000
|  3> % mp2 density relaxed end
|  4> *xyz 0 1
|  5>  N       -0.0749479864     1.3286232642    -0.1270076345
|  6>  C       -0.0796175722    -0.0414567334    -0.0394362898
|  7>  N       -1.1210852215    -0.7904122800    -0.0684051194
|  8>  C       -0.6346145602    -2.1739809985    -0.0628376915
|  9>  C       -1.1494446186    -2.9264944206    -1.3001121819
| 10>  O       -2.5575057446    -2.9059765066    -1.3380577174
| 11>  C        0.8957937770    -2.0895715400    -0.0164666084
| 12>  O        1.7259729688    -2.9622682663    -0.0389119533
| 13>  N        1.1396621408    -0.7167213756     0.0354989951
| 14>  H        0.6362719847     1.8080630736     0.4056787169
| 15>  H       -0.9958839768     1.7273225235    -0.0086704210
| 16>  H       -1.0004892928    -2.6966851990     0.8299328132
| 17>  H       -0.7097410459    -2.4724942248    -2.2033178221
| 18>  H       -0.8294771007    -3.9715192069    -1.2581811103
| 19>  H       -2.8100705230    -1.9856521418    -1.1885602132
| 20>  H        2.0567425215    -0.3119703880    -0.0683449223
| 21> *
| 22>
| 23>                          ****END OF INPUT****

CARTESIAN COORDINATES (ANGSTROEM)
---------------------------------
  N     -0.074948    1.328623   -0.127008
  C     -0.079618   -0.041457   -0.039436
  N     -1.121085   -0.790412   -0.068405
  C     -0.634615   -2.173981   -0.062838
  C     -1.149445   -2.926494   -1.300112
  O     -2.557506   -2.905977   -1.338058
  C      0.895794   -2.089572   -0.016467
  O      1.725973   -2.962268   -0.038912
  N      1.139662   -0.716721    0.035499
  H      0.636272    1.808063    0.405679
  H     -0.995884    1.727323   -0.008670
  H     -1.000489   -2.696685    0.829933
  H     -0.709741   -2.472494   -2.203318
  H     -0.829477   -3.971519   -1.258181
  H     -2.810071   -1.985652   -1.188560
  H      2.056743   -0.311970   -0.068345

 Total Charge           Charge          ....    0
 Multiplicity           Mult            ....    1
 Number of Electrons    NEL             ....   68
 Basis Dimension        Dim             ....  321

ORBITAL ENERGIES
----------------

  NO   OCC          E(Eh)            E(eV)
   0   2.0000     -20.549440      -559.1787
   1   2.0000     -20.549158      -559.1710
   2   2.0000     -15.623884      -425.1475
   3   2.0000     -15.607700      -424.7071
   4   2.0000     -15.545941      -423.0266
   5   2.0000     -11.376856      -309.5800
   6   2.0000     -11.372450      -309.4601
   7   2.0000     -11.279398      -306.9280
   8   2.0000     -11.274880      -306.8051
   9   2.0000      -1.416254       -38.5382
  10   2.0000      -1.360641       -37.0249
  11   2.0000      -1.346954       -36.6525
  12   2.0000      -1.231599       -33.5135
  13   2.0000      -1.186259       -32.2797
  14   2.0000      -1.017900       -27.6985
  15   2.0000      -0.899612       -24.4797
  16   2.0000      -0.837006       -22.7761
  17   2.0000      -0.822438       -22.3797
  18   2.0000      -0.757404       -20.6100
  19   2.0000      -0.705033       -19.1849
  20   2.0000      -0.699469       -19.0335
  21   2.0000      -0.677062       -18.4238
  22   2.0000      -0.640383       -17.4257
  23   2.0000      -0.633445       -17.2369
  24   2.0000      -0.618758       -16.8373
  25   2.0000      -0.580332       -15.7916
  26   2.0000      -0.555264       -15.1095
  27   2.0000      -0.548957       -14.9379
  28   2.0000      -0.518384       -14.1059
  29   2.0000      -0.478485       -13.0202
  30   2.0000      -0.455011       -12.3815
  31   2.0000      -0.448467       -12.2034
  32   2.0000      -0.418488       -11.3876
  33   2.0000      -0.372313       -10.1312
  34   0.0000       0.104389         2.8406
  35   0.0000       0.137367         3.7380
  36   0.0000       0.148111         4.0303
  37   0.0000       0.168421         4.5830
  38   0.0000       0.180821         4.9204

MULLIKEN ATOMIC CHARGES
-----------------------
   0 N :   -0.504878
   1 C :    0.302959
   2 N :   -0.363495
   3 C :    0.048730
   4 C :   -0.011128
   5 O :   -0.473655
   6 C :    0.162946
   7 O :   -0.302995
   8 N :   -0.317715
   9 H :    0.258744
  10 H :    0.274065
  11 H :    0.128957
  12 H :    0.090613
  13 H :    0.124219
  14 H :    0.329681
  15 H :    0.252954
Sum of atomic charges:   -0.0000000

LOEWDIN ATOMIC CHARGES
----------------------
   0 N :   -0.045985
   1 C :   -0.432009
   2 N :    0.060370
   3 C :   -0.260333
   4 C :   -0.320254
   5 O :   -0.038682
   6 C :   -0.388536
   7 O :    0.120430
   8 N :    0.158884
   9 H :    0.173023
  10 H :    0.183422
  11 H :    0.164736
  12 H :    0.120357
  13 H :    0.135093
  14 H :    0.178592
  15 H :    0.190892

  Mayer bond orders larger than 0.1
B(  0-N ,  1-C ) :   1.0971 B(  0-N ,  9-H ) :   0.8676 B(  0-N , 10-H ) :   0.8636
B(  1-C ,  2-N ) :   1.7852 B(  1-C ,  8-N ) :   1.0317 B(  2-N ,  3-C ) :   0.8978
B(  3-C ,  4-C ) :   0.9340 B(  3-C ,  6-C ) :   0.8769 B(  3-C , 11-H ) :   0.8907
B(  4-C ,  5-O ) :   0.9442 B(  4-C , 12-H ) :   0.9047 B(  4-C , 13-H ) :   0.9266
B(  5-O , 14-H ) :   0.8271 B(  6-C ,  7-O ) :   2.0409 B(  6-C ,  8-N ) :   1.0730
B(  8-N , 15-H ) :   0.8542

MP2 TOTAL ENERGY:     -470.514470211 Eh
FINAL SINGLE POINT ENERGY      -470.514470211190

DIPOLE MOMENT
-------------
                                X             Y             Z
Electronic contribution:      2.55677      -0.26848       1.48140
Nuclear contribution   :     -1.93358       2.29146      -1.00064
                        -----------------------------------------
Total Dipole Moment    :      0.62319       2.02298       0.48076
                        -----------------------------------------
Magnitude (a.u.)       :      2.17070
Magnitude (Debye)      :      5.51747

                             ****ORCA TERMINATED NORMALLY****
TOTAL RUN TIME: 0 days 0 hours 23 minutes 55 seconds 924 msec
