                         Program Version 3.0.3 - RELEASE   -
|  1> ! RI-MP2 RIJK def2-TZVP def2-TZVP/C def2-TZVP/JK TIGHTSCF
|  2> % maxcore 2000
|  3> % mp2 density relaxed end
|  4> *xyz 0 1
|  5>  C        0.0740510033     1.4836338474     0.0133428576
|  6>  C        0.0329023975     0.0287323368    -0.0238007788
|  7>  C        0.0111554608    -1.1750356496    -0.0472425307
|  8>  C       -0.0402489197    -2.6423223302    -0.0796825308
|  9>  C       -1.4913349140    -3.1535273908     0.0108872091
| 10>  N        0.6648899203    -3.1855822544    -1.2430924805
| 11>  C        0.2208050698    -2.8316451892    -2.5818010336
| 12>  C        1.7775066984    -3.9594891183    -1.0829545371
| 13>  O        2.4389724821    -4.4417270787    -1.9777340863
| 14>  H        0.8827974088     1.8717921916    -0.6151543301
| 15>  H       -0.8649789319     1.9194760003    -0.3445107175
| 16>  H        0.2429548774     1.8476734172     1.0325872195
| 17>  H        0.5005707652    -3.0233551717     0.7960094741
| 18>  H       -1.5038042308    -4.2471465960     0.0092440191
| 19>  H       -1.9538364404    -2.7937120983     0.9334246538
| 20>  H       -2.0902172295    -2.7913415577    -0.8281509054
| 21>  H        0.1147184639    -1.7458596654    -2.6690784259
| 22>  H        0.9764202068    -3.1891031357    -3.2811312714
| 23>  H       -0.7389035681    -3.3009743622    -2.8254906767
| 24>  H        2.0192329499    -4.1107962052    -0.0120286886
| 25> *
| 26>
| 27>                          ****END OF INPUT****

CARTESIAN COORDINATES (ANGSTROEM)
---------------------------------
  C      0.074051    1.483634    0.013343
  C      0.032902    0.028732   -0.023801
  C      0.011155   -1.175036   -0.047243
  C     -0.040249   -2.642322   -0.079683
  C     -1.491335   -3.153527    0.010887
  N      0.664890   -3.185582   -1.243092
  C      0.220805   -2.831645   -2.581801
  C      1.777507   -3.959489   -1.082955
  O      2.438972   -4.441727   -1.977734
  H      0.882797    1.871792   -0.615154
  H     -0.864979    1.919476   -0.344511
  H      0.242955    1.847673    1.032587
  H      0.500571   -3.023355    0.796009
  H     -1.503804   -4.247147    0.009244
  H     -1.953836   -2.793712    0.933425
  H     -2.090217   -2.791342   -0.828151
  H      0.114718   -1.745860   -2.669078
  H      0.976420   -3.189103   -3.281131
  H     -0.738904   -3.300974   -2.825491
  H      2.019233   -4.110796   -0.012029

 Total Charge           Charge          ....    0
 Multiplicity           Mult            ....    1
 Number of Electrons    NEL             ....   68
 Basis Dimension        Dim             ....  345

ORBITAL ENERGIES
----------------

  NO   OCC          E(Eh)            E(eV)
   0   2.0000     -20.517827      -558.3184
   1   2.0000     -15.590834      -424.2482
   2   2.0000     -11.344234      -308.6923
   3   2.0000     -11.308862      -307.7298
   4   2.0000     -11.255397      -306.2749
   5   2.0000     -11.253791      -306.2312
   6   2.0000     -11.237907      -305.7990
   7   2.0000     -11.235756      -305.7405
   8   2.0000     -11.227240      -305.5087
   9   2.0000      -1.379954       -37.5505
  10   2.0000      -1.257523       -34.2189
  11   2.0000      -1.082803       -29.4646
  12   2.0000      -1.040630       -28.3170
  13   2.0000      -0.965078       -26.2611
  14   2.0000      -0.960377       -26.1332
  15   2.0000      -0.881746       -23.9935
  16   2.0000      -0.783541       -21.3212
  17   2.0000      -0.722927       -19.6718
  18   2.0000      -0.692367       -18.8403
  19   2.0000      -0.641903       -17.4671
  20   2.0000      -0.637290       -17.3415
  21   2.0000      -0.614734       -16.7278
  22   2.0000      -0.597864       -16.2687
  23   2.0000      -0.595971       -16.2172
  24   2.0000      -0.590392       -16.0654
  25   2.0000      -0.563747       -15.3403
  26   2.0000      -0.558830       -15.2065
  27   2.0000      -0.539500       -14.6806
  28   2.0000      -0.529270       -14.4022
  29   2.0000      -0.524403       -14.2697
  30   2.0000      -0.429142       -11.6775
  31   2.0000      -0.391172       -10.6443
  32   2.0000      -0.381253       -10.3744
  33   2.0000      -0.375586       -10.2202
  34   0.0000       0.122265         3.3270
  35   0.0000       0.138435         3.7670
  36   0.0000       0.154949         4.2164
  37   0.0000       0.163027         4.4362
  38   0.0000       0.174568         4.7502

MULLIKEN ATOMIC CHARGES
-----------------------
   0 C :   -0.491031
   1 C :    0.027033
   2 C :   -0.028632
   3 C :   -0.082948
   4 C :   -0.386869
   5 N :   -0.059474
   6 C :   -0.349678
   7 C :    0.143929
   8 O :   -0.363188
   9 H :    0.167880
  10 H :    0.164331
  11 H :    0.165891
  12 H :    0.127914
  13 H :    0.144332
  14 H :    0.140956
  15 H :    0.139004
  16 H :    0.149726
  17 H :    0.181190
  18 H :    0.136708
  19 H :    0.072926
Sum of atomic charges:   -0.0000000

LOEWDIN ATOMIC CHARGES
----------------------
   0 C :   -0.291929
   1 C :   -0.094168
   2 C :   -0.066707
   3 C :   -0.280268
   4 C :   -0.269070
   5 N :    0.175718
   6 C :   -0.281775
   7 C :   -0.419521
   8 O :    0.055139
   9 H :    0.143332
  10 H :    0.141512
  11 H :    0.143021
  12 H :    0.167408
  13 H :    0.127196
  14 H :    0.131292
  15 H :    0.127621
  16 H :    0.124340
  17 H :    0.135998
  18 H :    0.117485
  19 H :    0.113376

  Mayer bond orders larger than 0.1
B(  0-C ,  1-C ) :   0.8510 B(  0-C ,  9-H ) :   0.9467 B(  0-C , 10-H ) :   0.9476
B(  0-C , 11-H ) :   0.9485 B(  1-C ,  2-C ) :   2.7189 B(  2-C ,  3-C ) :   0.9936
B(  3-C ,  4-C ) :   0.9352 B(  3-C ,  5-N ) :   0.9114 B(  3-C , 12-H ) :   0.9509
B(  4-C , 13-H ) :   0.9372 B(  4-C , 14-H ) :   0.9330 B(  4-C , 15-H ) :   0.9262
B(  5-N ,  6-C ) :   0.8635 B(  5-N ,  7-C ) :   1.1412 B(  6-C , 16-H ) :   0.9285
B(  6-C , 17-H ) :   0.9177 B(  6-C , 18-H ) :   0.9315 B(  7-C ,  8-O ) :   1.8946
B(  7-C , 19-H ) :   0.9255

MP2 TOTAL ENERGY:     -402.446801355 Eh
FINAL SINGLE POINT ENERGY      -402.446801355105

DIPOLE MOMENT
-------------
                                X             Y             Z
Electronic contribution:      5.43266      -3.82498      -0.41575
Nuclear contribution   :     -6.59803       4.90272       1.10599
                        -----------------------------------------
Total Dipole Moment    :     -1.16536       1.07775       0.69024
                        -----------------------------------------
Magnitude (a.u.)       :      1.73091
Magnitude (Debye)      :      4.39962

                             ****ORCA TERMINATED NORMALLY****
TOTAL RUN TIME: 0 days 0 hours 17 minutes 7 seconds 758 msec
