                         Program Version 3.0.3 - RELEASE   -
|  1> ! RI-MP2 RIJK def2-TZVP def2-TZVP/C def2-TZVP/JK TIGHTSCF
|  2> % maxcore 2000
|  3> % mp2 density relaxed end
|  4> *xyz 0 1
|  5>  C        0.0568119706     1.4812086584     0.1104036860
|  6>  C       -0.0824035524    -0.0096363692    -0.0554862300
|  7>  C       -1.2858718272    -0.6209758028     0.0210481084
|  8>  C       -1.5296867723    -2.0590784232    -0.1578919817
|  9>  N       -2.5424048366    -2.4700291284    -0.8130014849
| 10>  N       -0.6859006574    -2.9445638783     0.5500326889
| 11>  C        0.5884836243    -2.8648495779     0.4942991131
| 12>  C        1.4047719414    -1.8558170272    -0.1894881413
| 13>  N        1.1212065317    -0.6219038885    -0.3968516433
| 14>  H        0.4622478113     1.9258718844    -0.8039843505
| 15>  H       -0.8992893778     1.9520046098     0.3460557273
| 16>  H        0.7664623140     1.7080000532     0.9138433167
| 17>  H       -2.1761936860    -0.0143629438     0.1554901164
| 18>  H       -2.5911916132    -3.4912372038    -0.7625128259
| 19>  H        1.1547005951    -3.6349949400     1.0270203284
| 20>  H        2.4059568345    -2.1810566228    -0.4836719775
| 21> *
| 22>
| 23>                          ****END OF INPUT****

CARTESIAN COORDINATES (ANGSTROEM)
---------------------------------
  C      0.056812    1.481209    0.110404
  C     -0.082404   -0.009636   -0.055486
  C     -1.285872   -0.620976    0.021048
  C     -1.529687   -2.059078   -0.157892
  N     -2.542405   -2.470029   -0.813001
  N     -0.685901   -2.944564    0.550033
  C      0.588484   -2.864850    0.494299
  C      1.404772   -1.855817   -0.189488
  N      1.121207   -0.621904   -0.396852
  H      0.462248    1.925872   -0.803984
  H     -0.899289    1.952005    0.346056
  H      0.766462    1.708000    0.913843
  H     -2.176194   -0.014363    0.155490
  H     -2.591192   -3.491237   -0.762513
  H      1.154701   -3.634995    1.027020
  H      2.405957   -2.181057   -0.483672

 Total Charge           Charge          ....    0
 Multiplicity           Mult            ....    1
 Number of Electrons    NEL             ....   64
 Basis Dimension        Dim             ....  321

ORBITAL ENERGIES
----------------

  NO   OCC          E(Eh)            E(eV)
   0   2.0000     -15.600120      -424.5008
   1   2.0000     -15.599031      -424.4712
   2   2.0000     -15.542324      -422.9281
   3   2.0000     -11.320690      -308.0516
   4   2.0000     -11.317946      -307.9770
   5   2.0000     -11.314952      -307.8955
   6   2.0000     -11.294349      -307.3349
   7   2.0000     -11.247665      -306.0645
   8   2.0000     -11.232878      -305.6621
   9   2.0000      -1.306303       -35.5463
  10   2.0000      -1.258773       -34.2530
  11   2.0000      -1.185933       -32.2709
  12   2.0000      -1.084800       -29.5189
  13   2.0000      -0.975994       -26.5582
  14   2.0000      -0.957021       -26.0419
  15   2.0000      -0.880007       -23.9462
  16   2.0000      -0.776735       -21.1360
  17   2.0000      -0.768185       -20.9034
  18   2.0000      -0.705373       -19.1942
  19   2.0000      -0.652479       -17.7549
  20   2.0000      -0.642752       -17.4902
  21   2.0000      -0.625851       -17.0303
  22   2.0000      -0.597649       -16.2628
  23   2.0000      -0.560454       -15.2507
  24   2.0000      -0.553503       -15.0616
  25   2.0000      -0.545313       -14.8387
  26   2.0000      -0.491507       -13.3746
  27   2.0000      -0.464868       -12.6497
  28   2.0000      -0.446167       -12.1408
  29   2.0000      -0.419870       -11.4252
  30   2.0000      -0.417017       -11.3476
  31   2.0000      -0.340365        -9.2618
  32   0.0000       0.043403         1.1811
  33   0.0000       0.092069         2.5053
  34   0.0000       0.146281         3.9805
  35   0.0000       0.153968         4.1897
  36   0.0000       0.179126         4.8743

MULLIKEN ATOMIC CHARGES
-----------------------
   0 C :   -0.398435
   1 C :    0.175632
   2 C :   -0.151525
   3 C :    0.114547
   4 N :   -0.342335
   5 N :   -0.204787
   6 C :   -0.019603
   7 C :   -0.018882
   8 N :   -0.228494
   9 H :    0.149162
  10 H :    0.135519
  11 H :    0.141425
  12 H :    0.148006
  13 H :    0.218542
  14 H :    0.142131
  15 H :    0.139098
Sum of atomic charges:    0.0000000

LOEWDIN ATOMIC CHARGES
----------------------
   0 C :   -0.261483
   1 C :   -0.234422
   2 C :   -0.082828
   3 C :   -0.366040
   4 N :   -0.023691
   5 N :    0.177271
   6 C :   -0.208059
   7 C :   -0.205835
   8 N :    0.185316
   9 H :    0.136575
  10 H :    0.129330
  11 H :    0.134416
  12 H :    0.163249
  13 H :    0.166156
  14 H :    0.145809
  15 H :    0.144237

  Mayer bond orders larger than 0.1
B(  0-C ,  1-C ) :   0.9081 B(  0-C ,  9-H ) :   0.9246 B(  0-C , 10-H ) :   0.9490
B(  0-C , 11-H ) :   0.9222 B(  1-C ,  2-C ) :   1.6074 B(  1-C ,  8-N ) :   1.0283
B(  2-C ,  3-C ) :   0.9510 B(  2-C , 12-H ) :   0.9092 B(  3-C ,  4-N ) :   1.9967
B(  3-C ,  5-N ) :   0.9903 B(  4-N , 13-H ) :   0.8544 B(  5-N ,  6-C ) :   1.7507
B(  6-C ,  7-C ) :   0.9838 B(  6-C , 14-H ) :   0.9116 B(  7-C ,  8-N ) :   1.7278
B(  7-C , 15-H ) :   0.9184

MP2 TOTAL ENERGY:     -396.226617602 Eh
FINAL SINGLE POINT ENERGY      -396.226617601601

DIPOLE MOMENT
-------------
                                X             Y             Z
Electronic contribution:     -0.45978      -5.08577      -0.26032
Nuclear contribution   :      1.37087       5.13213       0.69966
                        -----------------------------------------
Total Dipole Moment    :      0.91108       0.04636       0.43934
                        -----------------------------------------
Magnitude (a.u.)       :      1.01254
Magnitude (Debye)      :      2.57367

                             ****ORCA TERMINATED NORMALLY****
TOTAL RUN TIME: 0 days 0 hours 17 minutes 0 seconds 378 msec
