                         Program Version 3.0.3 - RELEASE   -
|  1> ! RI-MP2 RIJK def2-TZVP def2-TZVP/C def2-TZVP/JK TIGHTSCF
|  2> % maxcore 2000
|  3> % mp2 density relaxed end
|  4> *xyz 0 1
|  5>  O       -0.3369192832     1.3279135901    -0.0394654448
|  6>  C       -0.0382676054    -0.0674132598    -0.0141724274
|  7>  C        0.7235298749    -0.4725824398    -1.1990761143
|  8>  C        1.3908356621    -0.7741205576    -2.1529891155
|  9>  C        0.6794231629    -0.4896775498     1.2764491610
| 10>  C        1.9923842002     0.2331104985     1.6876051048
| 11>  C        1.4930493195     0.2090220510     3.1581001199
| 12>  C        0.0564000656    -0.0525497011     2.6301878255
| 13>  H        0.4563023764     1.7893267738    -0.3313001129
| 14>  H       -1.0186605644    -0.5615882361    -0.0339247833
| 15>  H        1.9621760348    -1.0493308509    -3.0050472277
| 16>  H        0.8318245811    -1.5734484808     1.2443138470
| 17>  H        2.9384608420    -0.2586182654     1.4530080642
| 18>  H        2.0240954941     1.2561829718     1.2996698353
| 19>  H        1.8888904849    -0.6514774122     3.7050724485
| 20>  H        1.6543525603     1.1061251478     3.7600962735
| 21>  H       -0.5060604568     0.8766691812     2.5093340224
| 22>  H       -0.5617712289    -0.7797279506     3.1621217940
| 23> *
| 24>
| 25>                          ****END OF INPUT****

CARTESIAN COORDINATES (ANGSTROEM)
---------------------------------
  O     -0.336919    1.327914   -0.039465
  C     -0.038268   -0.067413   -0.014172
  C      0.723530   -0.472582   -1.199076
  C      1.390836   -0.774121   -2.152989
  C      0.679423   -0.489678    1.276449
  C      1.992384    0.233110    1.687605
  C      1.493049    0.209022    3.158100
  C      0.056400   -0.052550    2.630188
  H      0.456302    1.789327   -0.331300
  H     -1.018661   -0.561588   -0.033925
  H      1.962176   -1.049331   -3.005047
  H      0.831825   -1.573448    1.244314
  H      2.938461   -0.258618    1.453008
  H      2.024095    1.256183    1.299670
  H      1.888890   -0.651477    3.705072
  H      1.654353    1.106125    3.760096
  H     -0.506060    0.876669    2.509334
  H     -0.561771   -0.779728    3.162122

 Total Charge           Charge          ....    0
 Multiplicity           Mult            ....    1
 Number of Electrons    NEL             ....   60
 Basis Dimension        Dim             ....  308

ORBITAL ENERGIES
----------------

  NO   OCC          E(Eh)            E(eV)
   0   2.0000     -20.564062      -559.5766
   1   2.0000     -11.308409      -307.7175
   2   2.0000     -11.238824      -305.8240
   3   2.0000     -11.234019      -305.6932
   4   2.0000     -11.232587      -305.6542
   5   2.0000     -11.223215      -305.3992
   6   2.0000     -11.221596      -305.3552
   7   2.0000     -11.218431      -305.2690
   8   2.0000      -1.371350       -37.3163
   9   2.0000      -1.133871       -30.8542
  10   2.0000      -1.053615       -28.6703
  11   2.0000      -0.971352       -26.4318
  12   2.0000      -0.899629       -24.4802
  13   2.0000      -0.861416       -23.4403
  14   2.0000      -0.751322       -20.4445
  15   2.0000      -0.749111       -20.3844
  16   2.0000      -0.695379       -18.9222
  17   2.0000      -0.668665       -18.1953
  18   2.0000      -0.650633       -17.7046
  19   2.0000      -0.620404       -16.8821
  20   2.0000      -0.568607       -15.4726
  21   2.0000      -0.550426       -14.9779
  22   2.0000      -0.535140       -14.5619
  23   2.0000      -0.486417       -13.2361
  24   2.0000      -0.481063       -13.0904
  25   2.0000      -0.457467       -12.4483
  26   2.0000      -0.443231       -12.0609
  27   2.0000      -0.439048       -11.9471
  28   2.0000      -0.401340       -10.9210
  29   2.0000      -0.388366       -10.5680
  30   0.0000       0.131360         3.5745
  31   0.0000       0.149290         4.0624
  32   0.0000       0.154428         4.2022
  33   0.0000       0.162278         4.4158
  34   0.0000       0.171159         4.6575

MULLIKEN ATOMIC CHARGES
-----------------------
   0 O :   -0.467940
   1 C :   -0.049986
   2 C :   -0.065836
   3 C :   -0.138458
   4 C :    0.017824
   5 C :   -0.261754
   6 C :   -0.202254
   7 C :   -0.258982
   8 H :    0.321806
   9 H :    0.120617
  10 H :    0.193566
  11 H :    0.105232
  12 H :    0.122320
  13 H :    0.084935
  14 H :    0.112480
  15 H :    0.115584
  16 H :    0.133542
  17 H :    0.117304
Sum of atomic charges:    0.0000000

LOEWDIN ATOMIC CHARGES
----------------------
   0 O :   -0.004072
   1 C :   -0.321213
   2 C :   -0.091001
   3 C :   -0.089255
   4 C :   -0.211826
   5 C :   -0.220579
   6 C :   -0.241635
   7 C :   -0.219530
   8 H :    0.176552
   9 H :    0.164376
  10 H :    0.128128
  11 H :    0.157443
  12 H :    0.124593
  13 H :    0.130238
  14 H :    0.132619
  15 H :    0.122176
  16 H :    0.140573
  17 H :    0.122414

  Mayer bond orders larger than 0.1
B(  0-O ,  1-C ) :   0.9074 B(  0-O ,  8-H ) :   0.8397 B(  1-C ,  2-C ) :   1.1416
B(  1-C ,  4-C ) :   0.8945 B(  1-C ,  9-H ) :   0.9170 B(  2-C ,  3-C ) :   2.5732
B(  3-C , 10-H ) :   0.8989 B(  4-C ,  5-C ) :   0.9119 B(  4-C ,  7-C ) :   0.9156
B(  4-C , 11-H ) :   0.9075 B(  5-C ,  6-C ) :   0.9386 B(  5-C , 12-H ) :   0.9285
B(  5-C , 13-H ) :   0.9185 B(  6-C ,  7-C ) :   0.9310 B(  6-C , 14-H ) :   0.9299
B(  6-C , 15-H ) :   0.9276 B(  7-C , 16-H ) :   0.9215 B(  7-C , 17-H ) :   0.9306

MP2 TOTAL ENERGY:     -347.142489673 Eh
FINAL SINGLE POINT ENERGY      -347.142489673372

DIPOLE MOMENT
-------------
                                X             Y             Z
Electronic contribution:     -1.71542      -0.02015      -6.24595
Nuclear contribution   :      2.24314      -0.21235       6.26387
                        -----------------------------------------
Total Dipole Moment    :      0.52772      -0.23250       0.01792
                        -----------------------------------------
Magnitude (a.u.)       :      0.57695
Magnitude (Debye)      :      1.46648

                             ****ORCA TERMINATED NORMALLY****
TOTAL RUN TIME: 0 days 0 hours 13 minutes 38 seconds 56 msec
