                         Program Version 3.0.3 - RELEASE   -
|  1> ! RI-MP2 RIJK def2-TZVP def2-TZVP/C def2-TZVP/JK TIGHTSCF
|  2> % maxcore 2000
|  3> % mp2 density relaxed end
|  4> *xyz 0 1
|  5>  C        0.0072635538     1.4457031796     0.2544020846
|  6>  N       -0.0351278638    -0.0089793408     0.3160567066
|  7>  C       -1.0651813671    -0.6124082211    -0.0355364907
|  8>  O       -2.2843101572    -0.1649430125    -0.5082809832
|  9>  C       -2.7980690243    -1.5283344304    -0.6662769458
| 10>  C       -3.1641719560    -1.8430142796    -2.0964529027
| 11>  C       -1.4576990364    -2.0878771538    -0.0853854101
| 12>  C       -0.6621124680    -2.9633753000    -0.9268753448
| 13>  N       -0.0487835033    -3.6652457231    -1.6098587477
| 14>  H        0.8429711691     1.7467142378    -0.3856173919
| 15>  H       -0.9132037702     1.9053547929    -0.1229905230
| 16>  H        0.2135334088     1.8364508486     1.2562848493
| 17>  H       -3.6421980782    -1.6773457621     0.0126221608
| 18>  H       -2.3092119887    -1.7053526110    -2.7632737116
| 19>  H       -3.5040671053    -2.8799180210    -2.1796627153
| 20>  H       -3.9750396814    -1.1861608394    -2.4233066612
| 21>  H       -1.5624455916    -2.5263814541     0.9100881067
| 22> *
| 23>
| 24>                          ****END OF INPUT****

CARTESIAN COORDINATES (ANGSTROEM)
---------------------------------
  C      0.007264    1.445703    0.254402
  N     -0.035128   -0.008979    0.316057
  C     -1.065181   -0.612408   -0.035536
  O     -2.284310   -0.164943   -0.508281
  C     -2.798069   -1.528334   -0.666277
  C     -3.164172   -1.843014   -2.096453
  C     -1.457699   -2.087877   -0.085385
  C     -0.662112   -2.963375   -0.926875
  N     -0.048784   -3.665246   -1.609859
  H      0.842971    1.746714   -0.385617
  H     -0.913204    1.905355   -0.122991
  H      0.213533    1.836451    1.256285
  H     -3.642198   -1.677346    0.012622
  H     -2.309212   -1.705353   -2.763274
  H     -3.504067   -2.879918   -2.179663
  H     -3.975040   -1.186161   -2.423307
  H     -1.562446   -2.526381    0.910088

 Total Charge           Charge          ....    0
 Multiplicity           Mult            ....    1
 Number of Electrons    NEL             ....   66
 Basis Dimension        Dim             ....  327

ORBITAL ENERGIES
----------------

  NO   OCC          E(Eh)            E(eV)
   0   2.0000     -20.608764      -560.7930
   1   2.0000     -15.583531      -424.0494
   2   2.0000     -15.561578      -423.4521
   3   2.0000     -11.358043      -309.0681
   4   2.0000     -11.336034      -308.4692
   5   2.0000     -11.309858      -307.7569
   6   2.0000     -11.286944      -307.1334
   7   2.0000     -11.254568      -306.2524
   8   2.0000     -11.245917      -306.0170
   9   2.0000      -1.453439       -39.5501
  10   2.0000      -1.237397       -33.6713
  11   2.0000      -1.230603       -33.4864
  12   2.0000      -1.099022       -29.9059
  13   2.0000      -1.029432       -28.0123
  14   2.0000      -0.950137       -25.8545
  15   2.0000      -0.861617       -23.4458
  16   2.0000      -0.807364       -21.9695
  17   2.0000      -0.731302       -19.8997
  18   2.0000      -0.699163       -19.0252
  19   2.0000      -0.680423       -18.5152
  20   2.0000      -0.635257       -17.2862
  21   2.0000      -0.611890       -16.6504
  22   2.0000      -0.596045       -16.2192
  23   2.0000      -0.588254       -16.0072
  24   2.0000      -0.569392       -15.4939
  25   2.0000      -0.556869       -15.1532
  26   2.0000      -0.542548       -14.7635
  27   2.0000      -0.532034       -14.4774
  28   2.0000      -0.524360       -14.2686
  29   2.0000      -0.470552       -12.8044
  30   2.0000      -0.464500       -12.6397
  31   2.0000      -0.425649       -11.5825
  32   2.0000      -0.403173       -10.9709
  33   0.0000       0.113948         3.1007
  34   0.0000       0.143339         3.9004
  35   0.0000       0.152524         4.1504
  36   0.0000       0.155690         4.2365
  37   0.0000       0.167906         4.5690

MULLIKEN ATOMIC CHARGES
-----------------------
   0 C :   -0.272886
   1 N :   -0.235165
   2 C :    0.140213
   3 O :   -0.280685
   4 C :    0.088593
   5 C :   -0.396119
   6 C :    0.075048
   7 C :   -0.225964
   8 N :   -0.045679
   9 H :    0.145480
  10 H :    0.132152
  11 H :    0.142454
  12 H :    0.117497
  13 H :    0.152772
  14 H :    0.145307
  15 H :    0.150795
  16 H :    0.166187
Sum of atomic charges:    0.0000000

LOEWDIN ATOMIC CHARGES
----------------------
   0 C :   -0.317877
   1 N :    0.094550
   2 C :   -0.342282
   3 O :    0.234658
   4 C :   -0.233180
   5 C :   -0.282314
   6 C :   -0.161147
   7 C :   -0.162479
   8 N :    0.077286
   9 H :    0.122769
  10 H :    0.111818
  11 H :    0.121832
  12 H :    0.142957
  13 H :    0.137295
  14 H :    0.137970
  15 H :    0.134882
  16 H :    0.183261

  Mayer bond orders larger than 0.1
B(  0-C ,  1-N ) :   0.8430 B(  0-C ,  9-H ) :   0.9328 B(  0-C , 10-H ) :   0.9299
B(  0-C , 11-H ) :   0.9341 B(  1-N ,  2-C ) :   2.0104 B(  2-C ,  3-O ) :   1.0470
B(  2-C ,  6-C ) :   0.8519 B(  3-O ,  4-C ) :   0.8813 B(  4-C ,  5-C ) :   0.9385
B(  4-C ,  6-C ) :   0.9107 B(  4-C , 12-H ) :   0.9171 B(  5-C , 13-H ) :   0.9258
B(  5-C , 14-H ) :   0.9221 B(  5-C , 15-H ) :   0.9305 B(  6-C ,  7-C ) :   0.9287
B(  6-C , 16-H ) :   0.8884 B(  7-C ,  8-N ) :   2.8398

MP2 TOTAL ENERGY:     -417.304111817 Eh
FINAL SINGLE POINT ENERGY      -417.304111816903

DIPOLE MOMENT
-------------
                                X             Y             Z
Electronic contribution:      2.70180      -4.31825       1.29638
Nuclear contribution   :     -4.10946       4.85466      -0.82613
                        -----------------------------------------
Total Dipole Moment    :     -1.40766       0.53641       0.47025
                        -----------------------------------------
Magnitude (a.u.)       :      1.57809
Magnitude (Debye)      :      4.01119

                             ****ORCA TERMINATED NORMALLY****
TOTAL RUN TIME: 0 days 0 hours 15 minutes 27 seconds 141 msec
