                         Program Version 3.0.3 - RELEASE   -
|  1> ! RI-MP2 RIJK def2-TZVP def2-TZVP/C def2-TZVP/JK TIGHTSCF
|  2> % maxcore 2000
|  3> % mp2 density relaxed end
|  4> *xyz 0 1
|  5>  O        0.0333065309    -0.0882923800    -0.1714396041
|  6>  C        0.0374206202     1.1151284560    -0.0078483734
|  7>  N       -1.1670500469     1.8026150469     0.0663845231
|  8>  C       -1.4942972581     3.1606448315     0.1430314109
|  9>  N       -0.8548880912     4.2050960913    -0.1641241446
| 10>  C        0.4627956178     4.1937499934    -0.7669785973
| 11>  C        1.5281033532     3.3038906641    -0.1457209700
| 12>  N        1.3622857994     2.8928157131     1.2403480610
| 13>  C        1.3169503162     1.8637041866     0.1747310254
| 14>  H       -1.9496551816     1.1626197609     0.1099925795
| 15>  H       -2.5150458740     3.2850706913     0.5109453422
| 16>  H        0.3724387228     3.9255882987    -1.8313885599
| 17>  H        0.8346181398     5.2247155528    -0.7449578555
| 18>  H        2.5347084634     3.5463327817    -0.4872980388
| 19>  H        2.2522805965     2.8445593584     1.7278224584
| 20>  H        2.1637927515     1.1934760432     0.0654237132
| 21> *
| 22>
| 23>                          ****END OF INPUT****

CARTESIAN COORDINATES (ANGSTROEM)
---------------------------------
  O      0.033307   -0.088292   -0.171440
  C      0.037421    1.115128   -0.007848
  N     -1.167050    1.802615    0.066385
  C     -1.494297    3.160645    0.143031
  N     -0.854888    4.205096   -0.164124
  C      0.462796    4.193750   -0.766979
  C      1.528103    3.303891   -0.145721
  N      1.362286    2.892816    1.240348
  C      1.316950    1.863704    0.174731
  H     -1.949655    1.162620    0.109993
  H     -2.515046    3.285071    0.510945
  H      0.372439    3.925588   -1.831389
  H      0.834618    5.224716   -0.744958
  H      2.534708    3.546333   -0.487298
  H      2.252281    2.844559    1.727822
  H      2.163793    1.193476    0.065424

 Total Charge           Charge          ....    0
 Multiplicity           Mult            ....    1
 Number of Electrons    NEL             ....   66
 Basis Dimension        Dim             ....  321

ORBITAL ENERGIES
----------------

  NO   OCC          E(Eh)            E(eV)
   0   2.0000     -20.540337      -558.9310
   1   2.0000     -15.609897      -424.7669
   2   2.0000     -15.585353      -424.0990
   3   2.0000     -15.550997      -423.1642
   4   2.0000     -11.372111      -309.4509
   5   2.0000     -11.327915      -308.2482
   6   2.0000     -11.289629      -307.2064
   7   2.0000     -11.284398      -307.0641
   8   2.0000     -11.268709      -306.6372
   9   2.0000      -1.406597       -38.2755
  10   2.0000      -1.301937       -35.4275
  11   2.0000      -1.271704       -34.6048
  12   2.0000      -1.197181       -32.5769
  13   2.0000      -1.007264       -27.4090
  14   2.0000      -0.958878       -26.0924
  15   2.0000      -0.896995       -24.4085
  16   2.0000      -0.818379       -22.2692
  17   2.0000      -0.769538       -20.9402
  18   2.0000      -0.743119       -20.2213
  19   2.0000      -0.706498       -19.2248
  20   2.0000      -0.662149       -18.0180
  21   2.0000      -0.639716       -17.4076
  22   2.0000      -0.634456       -17.2644
  23   2.0000      -0.600132       -16.3304
  24   2.0000      -0.580037       -15.7836
  25   2.0000      -0.568071       -15.4580
  26   2.0000      -0.510196       -13.8831
  27   2.0000      -0.499316       -13.5871
  28   2.0000      -0.477052       -12.9812
  29   2.0000      -0.452483       -12.3127
  30   2.0000      -0.432065       -11.7571
  31   2.0000      -0.395755       -10.7690
  32   2.0000      -0.376985       -10.2583
  33   0.0000       0.119838         3.2610
  34   0.0000       0.126550         3.4436
  35   0.0000       0.139917         3.8073
  36   0.0000       0.151202         4.1144
  37   0.0000       0.180072         4.9000

MULLIKEN ATOMIC CHARGES
-----------------------
   0 O :   -0.319678
   1 C :    0.199735
   2 N :   -0.269377
   3 C :    0.059332
   4 N :   -0.253148
   5 C :   -0.108900
   6 C :   -0.041068
   7 N :   -0.380853
   8 C :   -0.038749
   9 H :    0.248557
  10 H :    0.136576
  11 H :    0.125350
  12 H :    0.134499
  13 H :    0.129491
  14 H :    0.228971
  15 H :    0.149263
Sum of atomic charges:   -0.0000000

LOEWDIN ATOMIC CHARGES
----------------------
   0 O :    0.112464
   1 C :   -0.413060
   2 N :    0.141177
   3 C :   -0.310260
   4 N :    0.091585
   5 C :   -0.280054
   6 C :   -0.258911
   7 N :    0.030715
   8 C :   -0.214215
   9 H :    0.204686
  10 H :    0.138648
  11 H :    0.144792
  12 H :    0.141249
  13 H :    0.144863
  14 H :    0.172892
  15 H :    0.153429

  Mayer bond orders larger than 0.1
B(  0-O ,  1-C ) :   1.9758 B(  1-C ,  2-N ) :   1.1157 B(  1-C ,  8-C ) :   0.9488
B(  2-N ,  3-C ) :   1.0021 B(  2-N ,  9-H ) :   0.8520 B(  3-C ,  4-N ) :   1.8845
B(  3-C , 10-H ) :   0.9191 B(  4-N ,  5-C ) :   0.9200 B(  5-C ,  6-C ) :   0.9024
B(  5-C , 11-H ) :   0.9226 B(  5-C , 12-H ) :   0.9328 B(  6-C ,  7-N ) :   0.9384
B(  6-C ,  8-C ) :   0.8455 B(  6-C , 13-H ) :   0.9207 B(  7-N ,  8-C ) :   0.8412
B(  7-N , 14-H ) :   0.8637 B(  8-C , 15-H ) :   0.9305

MP2 TOTAL ENERGY:     -433.350346866 Eh
FINAL SINGLE POINT ENERGY      -433.350346865840

DIPOLE MOMENT
-------------
                                X             Y             Z
Electronic contribution:     -2.00765      -3.30201       0.76215
Nuclear contribution   :      2.55214       3.65739      -0.88857
                        -----------------------------------------
Total Dipole Moment    :      0.54449       0.35538      -0.12641
                        -----------------------------------------
Magnitude (a.u.)       :      0.66238
Magnitude (Debye)      :      1.68364

                             ****ORCA TERMINATED NORMALLY****
TOTAL RUN TIME: 0 days 0 hours 16 minutes 44 seconds 209 msec
