                         Program Version 3.0.3 - RELEASE   -
|  1> ! RI-MP2 RIJK def2-TZVP def2-TZVP/C def2-TZVP/JK TIGHTSCF
|  2> % maxcore 2000
|  3> % mp2 density relaxed end
|  4> *xyz 0 1
|  5>  C       -0.1561469065     1.3259833158    -0.1861413536
|  6>  O        0.0225562252    -0.0674768012    -0.1179637020
|  7>  C        0.7064009715    -0.5875084905    -1.2422593610
|  8>  C        0.8465338461    -2.0877612016    -1.0226568974
|  9>  C       -0.5161865053    -2.8412816918    -1.0479086059
| 10>  C       -0.2186232707    -3.3337196041    -2.4905957825
| 11>  C        1.2765979098    -2.9330715744    -2.2600822352
| 12>  C        2.0183892049    -2.3549969434    -3.4291339859
| 13>  O        2.5547417065    -1.2753090463    -3.4735249976
| 14>  H        0.8056630923     1.8604851003    -0.2372683122
| 15>  H       -0.7547775603     1.6204932788    -1.0633521343
| 16>  H       -0.6839720467     1.6346695880     0.7198530730
| 17>  H        0.1393332111    -0.3722990672    -2.1646832595
| 18>  H        1.6906187688    -0.1144167370    -1.3574537362
| 19>  H        1.4496512040    -2.2486085702    -0.1257750402
| 20>  H       -0.5461667655    -3.6662203930    -0.3319701656
| 21>  H       -1.4023732023    -2.2212953494    -0.9045253723
| 22>  H       -0.4218361275    -4.3807218314    -2.7233651095
| 23>  H       -0.6964627702    -2.7103623577    -3.2515988599
| 24>  H        1.8381244261    -3.8217965257    -1.9422467330
| 25>  H        2.0352162088    -3.0323560580    -4.3170852190
| 26> *
| 27>
| 28>                          ****END OF INPUT****

CARTESIAN COORDINATES (ANGSTROEM)
---------------------------------
  C     -0.156147    1.325983   -0.186141
  O      0.022556   -0.067477   -0.117964
  C      0.706401   -0.587508   -1.242259
  C      0.846534   -2.087761   -1.022657
  C     -0.516187   -2.841282   -1.047909
  C     -0.218623   -3.333720   -2.490596
  C      1.276598   -2.933072   -2.260082
  C      2.018389   -2.354997   -3.429134
  O      2.554742   -1.275309   -3.473525
  H      0.805663    1.860485   -0.237268
  H     -0.754778    1.620493   -1.063352
  H     -0.683972    1.634670    0.719853
  H      0.139333   -0.372299   -2.164683
  H      1.690619   -0.114417   -1.357454
  H      1.449651   -2.248609   -0.125775
  H     -0.546167   -3.666220   -0.331970
  H     -1.402373   -2.221295   -0.904525
  H     -0.421836   -4.380722   -2.723365
  H     -0.696463   -2.710362   -3.251599
  H      1.838124   -3.821797   -1.942247
  H      2.035216   -3.032356   -4.317085

 Total Charge           Charge          ....    0
 Multiplicity           Mult            ....    1
 Number of Electrons    NEL             ....   70
 Basis Dimension        Dim             ....  351

ORBITAL ENERGIES
----------------

  NO   OCC          E(Eh)            E(eV)
   0   2.0000     -20.556785      -559.3785
   1   2.0000     -20.549967      -559.1930
   2   2.0000     -11.332438      -308.3713
   3   2.0000     -11.267431      -306.6024
   4   2.0000     -11.266279      -306.5710
   5   2.0000     -11.247568      -306.0619
   6   2.0000     -11.238406      -305.8126
   7   2.0000     -11.233755      -305.6860
   8   2.0000     -11.225582      -305.4636
   9   2.0000      -1.395777       -37.9810
  10   2.0000      -1.371139       -37.3106
  11   2.0000      -1.147110       -31.2145
  12   2.0000      -0.993278       -27.0285
  13   2.0000      -0.956153       -26.0183
  14   2.0000      -0.903318       -24.5805
  15   2.0000      -0.849874       -23.1263
  16   2.0000      -0.810502       -22.0549
  17   2.0000      -0.736504       -20.0413
  18   2.0000      -0.691657       -18.8209
  19   2.0000      -0.674766       -18.3613
  20   2.0000      -0.655154       -17.8277
  21   2.0000      -0.644951       -17.5500
  22   2.0000      -0.633665       -17.2429
  23   2.0000      -0.606687       -16.5088
  24   2.0000      -0.578568       -15.7436
  25   2.0000      -0.548552       -14.9268
  26   2.0000      -0.535623       -14.5750
  27   2.0000      -0.524382       -14.2692
  28   2.0000      -0.493478       -13.4282
  29   2.0000      -0.484926       -13.1955
  30   2.0000      -0.476919       -12.9776
  31   2.0000      -0.452045       -12.3008
  32   2.0000      -0.444400       -12.0928
  33   2.0000      -0.420355       -11.4384
  34   2.0000      -0.403947       -10.9920
  35   0.0000       0.124768         3.3951
  36   0.0000       0.137875         3.7518
  37   0.0000       0.147961         4.0262
  38   0.0000       0.165672         4.5082
  39   0.0000       0.168145         4.5755

MULLIKEN ATOMIC CHARGES
-----------------------
   0 C :   -0.212786
   1 O :   -0.307186
   2 C :   -0.128115
   3 C :    0.002907
   4 C :   -0.218575
   5 C :   -0.297715
   6 C :   -0.025497
   7 C :    0.067212
   8 O :   -0.276015
   9 H :    0.113455
  10 H :    0.108547
  11 H :    0.136371
  12 H :    0.090607
  13 H :    0.125873
  14 H :    0.111787
  15 H :    0.121642
  16 H :    0.129395
  17 H :    0.125936
  18 H :    0.126251
  19 H :    0.124881
  20 H :    0.081024
Sum of atomic charges:   -0.0000000

LOEWDIN ATOMIC CHARGES
----------------------
   0 C :   -0.364041
   1 O :    0.136529
   2 C :   -0.309505
   3 C :   -0.200111
   4 C :   -0.212722
   5 C :   -0.209186
   6 C :   -0.213787
   7 C :   -0.283258
   8 O :    0.133438
   9 H :    0.102187
  10 H :    0.100506
  11 H :    0.112352
  12 H :    0.123279
  13 H :    0.127353
  14 H :    0.146221
  15 H :    0.134944
  16 H :    0.131980
  17 H :    0.124894
  18 H :    0.135779
  19 H :    0.168224
  20 H :    0.114925

  Mayer bond orders larger than 0.1
B(  0-C ,  1-O ) :   0.9229 B(  0-C ,  9-H ) :   0.9379 B(  0-C , 10-H ) :   0.9367
B(  0-C , 11-H ) :   0.9391 B(  1-O ,  2-C ) :   0.9357 B(  2-C ,  3-C ) :   0.9636
B(  2-C , 12-H ) :   0.9175 B(  2-C , 13-H ) :   0.9245 B(  3-C ,  4-C ) :   0.9021
B(  3-C ,  6-C ) :   0.8801 B(  3-C , 14-H ) :   0.9178 B(  4-C ,  5-C ) :   0.9381
B(  4-C , 15-H ) :   0.9293 B(  4-C , 16-H ) :   0.9255 B(  5-C ,  6-C ) :   0.9201
B(  5-C , 17-H ) :   0.9243 B(  5-C , 18-H ) :   0.9218 B(  6-C ,  7-C ) :   0.8489
B(  6-C , 19-H ) :   0.9004 B(  7-C ,  8-O ) :   1.9808 B(  7-C , 20-H ) :   0.9476

MP2 TOTAL ENERGY:     -423.497212523 Eh
FINAL SINGLE POINT ENERGY      -423.497212523367

DIPOLE MOMENT
-------------
                                X             Y             Z
Electronic contribution:      4.44864      -1.17464      -2.37876
Nuclear contribution   :     -4.84586       0.60058       2.32681
                        -----------------------------------------
Total Dipole Moment    :     -0.39722      -0.57406      -0.05195
                        -----------------------------------------
Magnitude (a.u.)       :      0.70002
Magnitude (Debye)      :      1.77932

                             ****ORCA TERMINATED NORMALLY****
TOTAL RUN TIME: 0 days 0 hours 19 minutes 28 seconds 641 msec
