                         Program Version 3.0.3 - RELEASE   -
|  1> ! RI-MP2 RIJK def2-TZVP def2-TZVP/C def2-TZVP/JK TIGHTSCF
|  2> % maxcore 2000
|  3> % mp2 density relaxed end
|  4> *xyz 0 1
|  5>  C        0.1220139667     1.5528466441    -0.3640021163
|  6>  C        0.0371828940     0.0685795376    -0.0788925761
|  7>  C        1.2724900143    -0.8006387037    -0.0892062794
|  8>  C        0.5320998050    -0.5593874784     1.2072578016
|  9>  C        1.1555227181     0.2291200604     2.3363193782
| 10>  C        0.1326625427     0.8788934108     3.3130397305
| 11>  C        0.8353697100     0.8162432534     4.6479914619
| 12>  C        1.8965857381     0.0118883912     4.6150416901
| 13>  C        2.0938025886    -0.6093349987     3.2531962882
| 14>  H        1.0475882280     1.9919382360     0.0193417521
| 15>  H        0.0966960250     1.7415100674    -1.4431721492
| 16>  H       -0.7156166085     2.0974298620     0.0868278153
| 17>  H       -0.8560036015    -0.3971155511    -0.4888318798
| 18>  H        1.2269830395    -1.7820122732    -0.5490111898
| 19>  H        2.2283538426    -0.2993762128    -0.2140252460
| 20>  H       -0.0671315868    -1.3974675701     1.5603841721
| 21>  H        1.7628819081     1.0388326187     1.9170775103
| 22>  H       -0.1378174443     1.8970286187     3.0106703337
| 23>  H       -0.8086495025     0.3095056838     3.3421926357
| 24>  H        0.4745840564     1.3422209371     5.5254842672
| 25>  H        2.5336760381    -0.2195269936     5.4620111714
| 26>  H        1.7992385897    -1.6696593247     3.2646586269
| 27>  H        3.1346285085    -0.5876610947     2.9108949814
| 28> *
| 29>
| 30>                          ****END OF INPUT****

CARTESIAN COORDINATES (ANGSTROEM)
---------------------------------
  C      0.122014    1.552847   -0.364002
  C      0.037183    0.068580   -0.078893
  C      1.272490   -0.800639   -0.089206
  C      0.532100   -0.559387    1.207258
  C      1.155523    0.229120    2.336319
  C      0.132663    0.878893    3.313040
  C      0.835370    0.816243    4.647991
  C      1.896586    0.011888    4.615042
  C      2.093803   -0.609335    3.253196
  H      1.047588    1.991938    0.019342
  H      0.096696    1.741510   -1.443172
  H     -0.715617    2.097430    0.086828
  H     -0.856004   -0.397116   -0.488832
  H      1.226983   -1.782012   -0.549011
  H      2.228354   -0.299376   -0.214025
  H     -0.067132   -1.397468    1.560384
  H      1.762882    1.038833    1.917078
  H     -0.137817    1.897029    3.010670
  H     -0.808650    0.309506    3.342193
  H      0.474584    1.342221    5.525484
  H      2.533676   -0.219527    5.462011
  H      1.799239   -1.669659    3.264659
  H      3.134629   -0.587661    2.910895

 Total Charge           Charge          ....    0
 Multiplicity           Mult            ....    1
 Number of Electrons    NEL             ....   68
 Basis Dimension        Dim             ....  363

ORBITAL ENERGIES
----------------

  NO   OCC          E(Eh)            E(eV)
   0   2.0000     -11.225941      -305.4734
   1   2.0000     -11.224898      -305.4450
   2   2.0000     -11.222698      -305.3851
   3   2.0000     -11.218581      -305.2731
   4   2.0000     -11.217991      -305.2571
   5   2.0000     -11.217711      -305.2494
   6   2.0000     -11.216607      -305.2194
   7   2.0000     -11.216045      -305.2041
   8   2.0000     -11.214427      -305.1601
   9   2.0000      -1.153007       -31.3749
  10   2.0000      -1.115494       -30.3541
  11   2.0000      -0.978620       -26.6296
  12   2.0000      -0.953712       -25.9518
  13   2.0000      -0.948382       -25.8068
  14   2.0000      -0.822150       -22.3718
  15   2.0000      -0.788836       -21.4653
  16   2.0000      -0.739909       -20.1339
  17   2.0000      -0.721826       -19.6419
  18   2.0000      -0.677895       -18.4464
  19   2.0000      -0.649765       -17.6810
  20   2.0000      -0.624085       -16.9822
  21   2.0000      -0.565864       -15.3979
  22   2.0000      -0.555050       -15.1037
  23   2.0000      -0.546650       -14.8751
  24   2.0000      -0.542645       -14.7661
  25   2.0000      -0.529168       -14.3994
  26   2.0000      -0.496739       -13.5170
  27   2.0000      -0.491370       -13.3709
  28   2.0000      -0.488846       -13.3022
  29   2.0000      -0.486752       -13.2452
  30   2.0000      -0.460350       -12.5268
  31   2.0000      -0.395841       -10.7714
  32   2.0000      -0.384181       -10.4541
  33   2.0000      -0.339605        -9.2411
  34   0.0000       0.138711         3.7745
  35   0.0000       0.152838         4.1589
  36   0.0000       0.161147         4.3850
  37   0.0000       0.164677         4.4811
  38   0.0000       0.168143         4.5754

MULLIKEN ATOMIC CHARGES
-----------------------
   0 C :   -0.407656
   1 C :   -0.056078
   2 C :   -0.289520
   3 C :   -0.113240
   4 C :   -0.087206
   5 C :   -0.179752
   6 C :   -0.172309
   7 C :   -0.171975
   8 C :   -0.166035
   9 H :    0.124142
  10 H :    0.136496
  11 H :    0.128012
  12 H :    0.112929
  13 H :    0.129961
  14 H :    0.118247
  15 H :    0.113590
  16 H :    0.083492
  17 H :    0.118841
  18 H :    0.108907
  19 H :    0.121959
  20 H :    0.121894
  21 H :    0.107833
  22 H :    0.117466
Sum of atomic charges:   -0.0000000

LOEWDIN ATOMIC CHARGES
----------------------
   0 C :   -0.297307
   1 C :   -0.233358
   2 C :   -0.210263
   3 C :   -0.199173
   4 C :   -0.209585
   5 C :   -0.216158
   6 C :   -0.166011
   7 C :   -0.166210
   8 C :   -0.214930
   9 H :    0.123540
  10 H :    0.125619
  11 H :    0.123969
  12 H :    0.146227
  13 H :    0.128946
  14 H :    0.134567
  15 H :    0.149633
  16 H :    0.155616
  17 H :    0.135581
  18 H :    0.142389
  19 H :    0.134327
  20 H :    0.134408
  21 H :    0.142407
  22 H :    0.135766

  Mayer bond orders larger than 0.1
B(  0-C ,  1-C ) :   0.9086 B(  0-C ,  9-H ) :   0.9375 B(  0-C , 10-H ) :   0.9375
B(  0-C , 11-H ) :   0.9398 B(  1-C ,  2-C ) :   0.9058 B(  1-C ,  3-C ) :   0.8773
B(  1-C , 12-H ) :   0.9299 B(  2-C ,  3-C ) :   0.8747 B(  2-C , 13-H ) :   0.9280
B(  2-C , 14-H ) :   0.9232 B(  3-C ,  4-C ) :   0.9205 B(  3-C , 15-H ) :   0.9182
B(  4-C ,  5-C ) :   0.9378 B(  4-C ,  8-C ) :   0.9442 B(  4-C , 16-H ) :   0.9240
B(  5-C ,  6-C ) :   0.9403 B(  5-C , 17-H ) :   0.9245 B(  5-C , 18-H ) :   0.9045
B(  6-C ,  7-C ) :   1.7996 B(  6-C , 19-H ) :   0.9320 B(  7-C ,  8-C ) :   0.9453
B(  7-C , 20-H ) :   0.9323 B(  8-C , 21-H ) :   0.9057 B(  8-C , 22-H ) :   0.9236

MP2 TOTAL ENERGY:     -350.501779880 Eh
FINAL SINGLE POINT ENERGY      -350.501779879515

DIPOLE MOMENT
-------------
                                X             Y             Z
Electronic contribution:      0.64524      -1.33337       3.97893
Nuclear contribution   :     -0.70200       1.32368      -4.06899
                        -----------------------------------------
Total Dipole Moment    :     -0.05676      -0.00969      -0.09006
                        -----------------------------------------
Magnitude (a.u.)       :      0.10689
Magnitude (Debye)      :      0.27170

                             ****ORCA TERMINATED NORMALLY****
TOTAL RUN TIME: 0 days 0 hours 19 minutes 8 seconds 175 msec
