                         Program Version 3.0.3 - RELEASE   -
|  1> ! RI-MP2 RIJK def2-TZVP def2-TZVP/C def2-TZVP/JK TIGHTSCF
|  2> % maxcore 2000
|  3> % mp2 density relaxed end
|  4> *xyz 0 1
|  5>  C        0.1756288372     1.2622660551    -0.0606380973
|  6>  N       -0.1421715033    -0.1639094396     0.0387408174
|  7>  C        0.5661620570    -0.7763505185     1.1600633988
|  8>  C       -1.5713669400    -0.4754742559     0.0253889869
|  9>  C       -2.3972615669     0.4945600322     0.7825529070
| 10>  N       -3.0141969518     1.2711094828     1.3764612817
| 11>  C       -2.1442457637    -0.6891840320    -1.3809816586
| 12>  C       -1.5227937176    -0.1567384729    -2.6156497642
| 13>  N       -1.4363715290    -1.5944564346    -2.2892794633
| 14>  H        1.2347282349     1.3738534480    -0.3110329999
| 15>  H       -0.4161306014     1.7304827762    -0.8483678120
| 16>  H       -0.0208447250     1.8065885694     0.8769304908
| 17>  H        0.2674797597    -0.3629707372     2.1387524508
| 18>  H        0.3935787724    -1.8562349164     1.1703009353
| 19>  H        1.6399257658    -0.6070270566     1.0373058589
| 20>  H       -1.6931919607    -1.4364877382     0.5419605519
| 21>  H       -3.2228931074    -0.8299118459    -1.3689261444
| 22>  H       -2.1556951537     0.0870909254    -3.4638710172
| 23>  H       -0.6142591297     0.4286068713    -2.5384465401
| 24>  H       -0.5076616668    -1.7559499124    -1.8986320424
| 25> *
| 26>
| 27>                          ****END OF INPUT****

CARTESIAN COORDINATES (ANGSTROEM)
---------------------------------
  C      0.175629    1.262266   -0.060638
  N     -0.142172   -0.163909    0.038741
  C      0.566162   -0.776351    1.160063
  C     -1.571367   -0.475474    0.025389
  C     -2.397262    0.494560    0.782553
  N     -3.014197    1.271109    1.376461
  C     -2.144246   -0.689184   -1.380982
  C     -1.522794   -0.156738   -2.615650
  N     -1.436372   -1.594456   -2.289279
  H      1.234728    1.373853   -0.311033
  H     -0.416131    1.730483   -0.848368
  H     -0.020845    1.806589    0.876930
  H      0.267480   -0.362971    2.138752
  H      0.393579   -1.856235    1.170301
  H      1.639926   -0.607027    1.037306
  H     -1.693192   -1.436488    0.541961
  H     -3.222893   -0.829912   -1.368926
  H     -2.155695    0.087091   -3.463871
  H     -0.614259    0.428607   -2.538447
  H     -0.507662   -1.755950   -1.898632

 Total Charge           Charge          ....    0
 Multiplicity           Mult            ....    1
 Number of Electrons    NEL             ....   68
 Basis Dimension        Dim             ....  345

ORBITAL ENERGIES
----------------

  NO   OCC          E(Eh)            E(eV)
   0   2.0000     -15.584843      -424.0851
   1   2.0000     -15.577279      -423.8793
   2   2.0000     -15.565897      -423.5696
   3   2.0000     -11.323184      -308.1195
   4   2.0000     -11.280537      -306.9590
   5   2.0000     -11.276762      -306.8563
   6   2.0000     -11.267782      -306.6119
   7   2.0000     -11.265485      -306.5494
   8   2.0000     -11.263149      -306.4859
   9   2.0000      -1.287900       -35.0455
  10   2.0000      -1.252395       -34.0794
  11   2.0000      -1.218631       -33.1606
  12   2.0000      -1.040008       -28.3001
  13   2.0000      -0.976134       -26.5620
  14   2.0000      -0.901401       -24.5284
  15   2.0000      -0.869744       -23.6669
  16   2.0000      -0.824343       -22.4315
  17   2.0000      -0.734686       -19.9918
  18   2.0000      -0.699403       -19.0317
  19   2.0000      -0.683316       -18.5940
  20   2.0000      -0.639722       -17.4077
  21   2.0000      -0.628587       -17.1047
  22   2.0000      -0.600178       -16.3317
  23   2.0000      -0.576456       -15.6862
  24   2.0000      -0.562618       -15.3096
  25   2.0000      -0.557849       -15.1798
  26   2.0000      -0.535901       -14.5826
  27   2.0000      -0.524938       -14.2843
  28   2.0000      -0.500652       -13.6234
  29   2.0000      -0.491302       -13.3690
  30   2.0000      -0.468564       -12.7503
  31   2.0000      -0.458543       -12.4776
  32   2.0000      -0.403507       -10.9800
  33   2.0000      -0.392266       -10.6741
  34   0.0000       0.120577         3.2811
  35   0.0000       0.147584         4.0160
  36   0.0000       0.151049         4.1102
  37   0.0000       0.166593         4.5332
  38   0.0000       0.175244         4.7686

MULLIKEN ATOMIC CHARGES
-----------------------
   0 C :   -0.338517
   1 N :   -0.211086
   2 C :   -0.330430
   3 C :    0.120789
   4 C :   -0.234404
   5 N :   -0.043486
   6 C :   -0.046169
   7 C :   -0.180807
   8 N :   -0.354031
   9 H :    0.147451
  10 H :    0.146150
  11 H :    0.142470
  12 H :    0.133354
  13 H :    0.140249
  14 H :    0.142145
  15 H :    0.138899
  16 H :    0.137101
  17 H :    0.130990
  18 H :    0.135157
  19 H :    0.224174
Sum of atomic charges:    0.0000000

LOEWDIN ATOMIC CHARGES
----------------------
   0 C :   -0.316072
   1 N :    0.067318
   2 C :   -0.319992
   3 C :   -0.271260
   4 C :   -0.169899
   5 N :    0.067285
   6 C :   -0.253162
   7 C :   -0.258997
   8 N :   -0.010413
   9 H :    0.121172
  10 H :    0.122839
  11 H :    0.115350
  12 H :    0.111734
  13 H :    0.119349
  14 H :    0.122454
  15 H :    0.181165
  16 H :    0.151395
  17 H :    0.126795
  18 H :    0.124750
  19 H :    0.168189

  Mayer bond orders larger than 0.1
B(  0-C ,  1-N ) :   0.8942 B(  0-C ,  9-H ) :   0.9337 B(  0-C , 10-H ) :   0.9313
B(  0-C , 11-H ) :   0.9259 B(  1-N ,  2-C ) :   0.9016 B(  1-N ,  3-C ) :   0.8444
B(  2-C , 12-H ) :   0.9257 B(  2-C , 13-H ) :   0.9356 B(  2-C , 14-H ) :   0.9360
B(  3-C ,  4-C ) :   0.8974 B(  3-C ,  6-C ) :   0.9276 B(  3-C , 15-H ) :   0.9181
B(  4-C ,  5-N ) :   2.8678 B(  6-C ,  7-C ) :   0.9496 B(  6-C ,  8-N ) :   0.9352
B(  6-C , 16-H ) :   0.9092 B(  7-C ,  8-N ) :   0.9176 B(  7-C , 17-H ) :   0.9222
B(  7-C , 18-H ) :   0.9154 B(  8-N , 19-H ) :   0.8691

MP2 TOTAL ENERGY:     -398.602536704 Eh
FINAL SINGLE POINT ENERGY      -398.602536703662

DIPOLE MOMENT
-------------
                                X             Y             Z
Electronic contribution:     -6.57921       0.06985       0.80909
Nuclear contribution   :      7.76848      -0.31666      -0.90910
                        -----------------------------------------
Total Dipole Moment    :      1.18927      -0.24681      -0.10002
                        -----------------------------------------
Magnitude (a.u.)       :      1.21872
Magnitude (Debye)      :      3.09774

                             ****ORCA TERMINATED NORMALLY****
TOTAL RUN TIME: 0 days 0 hours 22 minutes 6 seconds 695 msec
