                         Program Version 3.0.3 - RELEASE   -
|  1> ! RI-MP2 RIJK def2-TZVP def2-TZVP/C def2-TZVP/JK TIGHTSCF
|  2> % maxcore 2000
|  3> % mp2 density relaxed end
|  4> *xyz 0 1
|  5>  C        0.0546108465     1.5211667423    -0.0689209977
|  6>  C        0.0236524483     0.0064207664    -0.0357490539
|  7>  C        1.3376508906    -0.7451665332    -0.1626111514
|  8>  C        0.6327482054    -0.7013254102     1.1625726289
|  9>  C       -1.1703784869    -0.6147313145    -0.6502351248
| 10>  C       -2.2621046155    -0.0262210127    -1.2496372515
| 11>  N       -3.0362858184    -1.0744422574    -1.6267204748
| 12>  N       -2.4767702674    -2.2468561587    -1.2909886957
| 13>  N       -1.3501328935    -1.9711997920    -0.7013110420
| 14>  H        0.9663246653     1.8988226749     0.4023360985
| 15>  H        0.0317269569     1.8998207366    -1.0976848658
| 16>  H       -0.7989779522     1.9510017993     0.4685815372
| 17>  H        1.3174313773    -1.6802689454    -0.7096425966
| 18>  H        2.2377493225    -0.1531492718    -0.2919333453
| 19>  H        1.0452229674    -0.0788919551     1.9498701378
| 20>  H        0.1424574908    -1.6070072822     1.4993215742
| 21>  H       -2.5411946954     0.9968430038    -1.4317102644
| 22>  H       -3.9256107718    -1.0688881501    -2.0997312828
| 23> *
| 24>
| 25>                          ****END OF INPUT****

CARTESIAN COORDINATES (ANGSTROEM)
---------------------------------
  C      0.054611    1.521167   -0.068921
  C      0.023652    0.006421   -0.035749
  C      1.337651   -0.745167   -0.162611
  C      0.632748   -0.701325    1.162573
  C     -1.170378   -0.614731   -0.650235
  C     -2.262105   -0.026221   -1.249637
  N     -3.036286   -1.074442   -1.626720
  N     -2.476770   -2.246856   -1.290989
  N     -1.350133   -1.971200   -0.701311
  H      0.966325    1.898823    0.402336
  H      0.031727    1.899821   -1.097685
  H     -0.798978    1.951002    0.468582
  H      1.317431   -1.680269   -0.709643
  H      2.237749   -0.153149   -0.291933
  H      1.045223   -0.078892    1.949870
  H      0.142457   -1.607007    1.499322
  H     -2.541195    0.996843   -1.431710
  H     -3.925611   -1.068888   -2.099731

 Total Charge           Charge          ....    0
 Multiplicity           Mult            ....    1
 Number of Electrons    NEL             ....   66
 Basis Dimension        Dim             ....  333

ORBITAL ENERGIES
----------------

  NO   OCC          E(Eh)            E(eV)
   0   2.0000     -15.654909      -425.9917
   1   2.0000     -15.640007      -425.5862
   2   2.0000     -15.589275      -424.2058
   3   2.0000     -11.277634      -306.8800
   4   2.0000     -11.258854      -306.3690
   5   2.0000     -11.245902      -306.0166
   6   2.0000     -11.225124      -305.4512
   7   2.0000     -11.222164      -305.3706
   8   2.0000     -11.221484      -305.3521
   9   2.0000      -1.434470       -39.0339
  10   2.0000      -1.201058       -32.6824
  11   2.0000      -1.157452       -31.4959
  12   2.0000      -1.073555       -29.2129
  13   2.0000      -0.971886       -26.4464
  14   2.0000      -0.872217       -23.7342
  15   2.0000      -0.851009       -23.1571
  16   2.0000      -0.820700       -22.3324
  17   2.0000      -0.779654       -21.2155
  18   2.0000      -0.723071       -19.6758
  19   2.0000      -0.661283       -17.9944
  20   2.0000      -0.639627       -17.4051
  21   2.0000      -0.637334       -17.3427
  22   2.0000      -0.604399       -16.4465
  23   2.0000      -0.575443       -15.6586
  24   2.0000      -0.551748       -15.0138
  25   2.0000      -0.531363       -14.4591
  26   2.0000      -0.514058       -13.9882
  27   2.0000      -0.499762       -13.5992
  28   2.0000      -0.440715       -11.9925
  29   2.0000      -0.439204       -11.9514
  30   2.0000      -0.418125       -11.3778
  31   2.0000      -0.404374       -11.0036
  32   2.0000      -0.329954        -8.9785
  33   0.0000       0.125075         3.4035
  34   0.0000       0.138734         3.7751
  35   0.0000       0.141355         3.8465
  36   0.0000       0.169421         4.6102
  37   0.0000       0.189930         5.1682

MULLIKEN ATOMIC CHARGES
-----------------------
   0 C :   -0.426608
   1 C :    0.141157
   2 C :   -0.282177
   3 C :   -0.282184
   4 C :    0.031290
   5 C :   -0.211939
   6 N :   -0.056481
   7 N :   -0.168478
   8 N :   -0.139589
   9 H :    0.136309
  10 H :    0.134961
  11 H :    0.135021
  12 H :    0.152375
  13 H :    0.127899
  14 H :    0.127879
  15 H :    0.152366
  16 H :    0.167926
  17 H :    0.260271
Sum of atomic charges:   -0.0000000

LOEWDIN ATOMIC CHARGES
----------------------
   0 C :   -0.260563
   1 C :   -0.244288
   2 C :   -0.195069
   3 C :   -0.195059
   4 C :   -0.239682
   5 C :   -0.227338
   6 N :    0.119727
   7 N :   -0.055661
   8 N :    0.032746
   9 H :    0.131237
  10 H :    0.127382
  11 H :    0.127399
  12 H :    0.141086
  13 H :    0.132164
  14 H :    0.132161
  15 H :    0.141059
  16 H :    0.142497
  17 H :    0.190201

  Mayer bond orders larger than 0.1
B(  0-C ,  1-C ) :   0.9081 B(  0-C ,  9-H ) :   0.9301 B(  0-C , 10-H ) :   0.9395
B(  0-C , 11-H ) :   0.9395 B(  1-C ,  2-C ) :   0.8364 B(  1-C ,  3-C ) :   0.8362
B(  1-C ,  4-C ) :   0.9877 B(  2-C ,  3-C ) :   0.9147 B(  2-C , 12-H ) :   0.9208
B(  2-C , 13-H ) :   0.9284 B(  3-C , 14-H ) :   0.9285 B(  3-C , 15-H ) :   0.9208
B(  4-C ,  5-C ) :   1.4121 B(  4-C ,  8-N ) :   1.3589 B(  5-C ,  6-N ) :   1.2154
B(  5-C ,  7-N ) :   0.1501 B(  5-C , 16-H ) :   0.8903 B(  6-N ,  7-N ) :   1.0646
B(  6-N , 17-H ) :   0.8640 B(  7-N ,  8-N ) :   1.2911

MP2 TOTAL ENERGY:     -397.433259111 Eh
FINAL SINGLE POINT ENERGY      -397.433259110678

DIPOLE MOMENT
-------------
                                X             Y             Z
Electronic contribution:     -6.97540      -5.92118      -3.51577
Nuclear contribution   :      6.38254       7.40050       3.15224
                        -----------------------------------------
Total Dipole Moment    :     -0.59286       1.47932      -0.36353
                        -----------------------------------------
Magnitude (a.u.)       :      1.63464
Magnitude (Debye)      :      4.15492

                             ****ORCA TERMINATED NORMALLY****
TOTAL RUN TIME: 0 days 0 hours 17 minutes 44 seconds 467 msec
