                         Program Version 3.0.3 - RELEASE   -
|  1> ! RI-MP2 RIJK def2-TZVP def2-TZVP/C def2-TZVP/JK TIGHTSCF
|  2> % maxcore 2000
|  3> % mp2 density relaxed end
|  4> *xyz 0 1
|  5>  C       -0.0816142003     1.6515528596    -0.0422379164
|  6>  C        0.0830590698     0.1415175797     0.0610042002
|  7>  C        1.1197619210    -0.6224110028    -0.8160033944
|  8>  O        2.3537719993     0.0686133873    -0.9074363310
|  9>  C        2.8903198618     0.4223082148     0.3704964078
| 10>  C        2.2709505731    -0.4787950866     1.4221688754
| 11>  O        2.4661919677    -1.8384525203     0.9270288047
| 12>  C        1.1751606349    -1.7310739029     0.3270747315
| 13>  C        0.7077993718    -0.6017535362     1.2660400942
| 14>  H        0.8695414071     2.1848797118    -0.0110963975
| 15>  H       -0.5710759426     1.9177950738    -0.9852779569
| 16>  H       -0.7095430113     2.0292896634     0.7723023208
| 17>  H       -0.8957922894    -0.3306326618    -0.1001783216
| 18>  H        0.8493132231    -0.9112499496    -1.8325479868
| 19>  H        3.9715015171     0.2518690148     0.3262187609
| 20>  H        2.7175674881     1.4838513230     0.5954855937
| 21>  H        2.6817553798    -0.3335603482     2.4243040749
| 22>  H        0.6718664936    -2.6830641664     0.1508139625
| 23>  H        0.1536947253    -0.7616799834     2.1914413280
| 24> *
| 25>
| 26>                          ****END OF INPUT****

CARTESIAN COORDINATES (ANGSTROEM)
---------------------------------
  C     -0.081614    1.651553   -0.042238
  C      0.083059    0.141518    0.061004
  C      1.119762   -0.622411   -0.816003
  O      2.353772    0.068613   -0.907436
  C      2.890320    0.422308    0.370496
  C      2.270951   -0.478795    1.422169
  O      2.466192   -1.838453    0.927029
  C      1.175161   -1.731074    0.327075
  C      0.707799   -0.601754    1.266040
  H      0.869541    2.184880   -0.011096
  H     -0.571076    1.917795   -0.985278
  H     -0.709543    2.029290    0.772302
  H     -0.895792   -0.330633   -0.100178
  H      0.849313   -0.911250   -1.832548
  H      3.971502    0.251869    0.326219
  H      2.717567    1.483851    0.595486
  H      2.681755   -0.333560    2.424304
  H      0.671866   -2.683064    0.150814
  H      0.153695   -0.761680    2.191441

 Total Charge           Charge          ....    0
 Multiplicity           Mult            ....    1
 Number of Electrons    NEL             ....   68
 Basis Dimension        Dim             ....  339

ORBITAL ENERGIES
----------------

  NO   OCC          E(Eh)            E(eV)
   0   2.0000     -20.556133      -559.3608
   1   2.0000     -20.550715      -559.2134
   2   2.0000     -11.293191      -307.3033
   3   2.0000     -11.285920      -307.1055
   4   2.0000     -11.284820      -307.0756
   5   2.0000     -11.276946      -306.8613
   6   2.0000     -11.239819      -305.8510
   7   2.0000     -11.238633      -305.8187
   8   2.0000     -11.219516      -305.2985
   9   2.0000      -1.410180       -38.3730
  10   2.0000      -1.354297       -36.8523
  11   2.0000      -1.123176       -30.5632
  12   2.0000      -1.020388       -27.7662
  13   2.0000      -0.985117       -26.8064
  14   2.0000      -0.868563       -23.6348
  15   2.0000      -0.863656       -23.5013
  16   2.0000      -0.824683       -22.4408
  17   2.0000      -0.731490       -19.9048
  18   2.0000      -0.692824       -18.8527
  19   2.0000      -0.672555       -18.3012
  20   2.0000      -0.649425       -17.6718
  21   2.0000      -0.628815       -17.1109
  22   2.0000      -0.588139       -16.0041
  23   2.0000      -0.571232       -15.5440
  24   2.0000      -0.569790       -15.5048
  25   2.0000      -0.557481       -15.1698
  26   2.0000      -0.541411       -14.7325
  27   2.0000      -0.522302       -14.2126
  28   2.0000      -0.507515       -13.8102
  29   2.0000      -0.497209       -13.5297
  30   2.0000      -0.438891       -11.9428
  31   2.0000      -0.427722       -11.6389
  32   2.0000      -0.409862       -11.1529
  33   2.0000      -0.378707       -10.3051
  34   0.0000       0.131203         3.5702
  35   0.0000       0.155875         4.2416
  36   0.0000       0.165251         4.4967
  37   0.0000       0.177086         4.8188
  38   0.0000       0.180529         4.9125

MULLIKEN ATOMIC CHARGES
-----------------------
   0 C :   -0.403356
   1 C :   -0.119828
   2 C :    0.120093
   3 O :   -0.321304
   4 C :   -0.078705
   5 C :    0.047103
   6 O :   -0.321745
   7 C :   -0.037321
   8 C :   -0.087339
   9 H :    0.129658
  10 H :    0.133817
  11 H :    0.133285
  12 H :    0.102363
  13 H :    0.124712
  14 H :    0.121099
  15 H :    0.093242
  16 H :    0.124054
  17 H :    0.115694
  18 H :    0.124479
Sum of atomic charges:   -0.0000000

LOEWDIN ATOMIC CHARGES
----------------------
   0 C :   -0.295761
   1 C :   -0.231326
   2 C :   -0.242131
   3 O :    0.180527
   4 C :   -0.284647
   5 C :   -0.236674
   6 O :    0.165293
   7 C :   -0.229055
   8 C :   -0.154445
   9 H :    0.123205
  10 H :    0.128075
  11 H :    0.126147
  12 H :    0.161722
  13 H :    0.132534
  14 H :    0.134332
  15 H :    0.120210
  16 H :    0.137940
  17 H :    0.129049
  18 H :    0.135004

  Mayer bond orders larger than 0.1
B(  0-C ,  1-C ) :   0.8878 B(  0-C ,  9-H ) :   0.9366 B(  0-C , 10-H ) :   0.9347
B(  0-C , 11-H ) :   0.9376 B(  1-C ,  2-C ) :   0.8787 B(  1-C ,  8-C ) :   0.9330
B(  1-C , 12-H ) :   0.9211 B(  2-C ,  3-O ) :   0.9280 B(  2-C ,  7-C ) :   0.8634
B(  2-C , 13-H ) :   0.9219 B(  3-O ,  4-C ) :   0.9393 B(  4-C ,  5-C ) :   0.9714
B(  4-C , 14-H ) :   0.9100 B(  4-C , 15-H ) :   0.9253 B(  5-C ,  6-O ) :   0.8758
B(  5-C ,  8-C ) :   0.9074 B(  5-C , 16-H ) :   0.9080 B(  6-O ,  7-C ) :   0.9745
B(  7-C ,  8-C ) :   0.9398 B(  7-C , 17-H ) :   0.9236 B(  8-C , 18-H ) :   0.9213

MP2 TOTAL ENERGY:     -422.276879620 Eh
FINAL SINGLE POINT ENERGY      -422.276879619666

DIPOLE MOMENT
-------------
                                X             Y             Z
Electronic contribution:      3.84107      -5.22047      -0.26709
Nuclear contribution   :     -4.59372       5.63550       0.70505
                        -----------------------------------------
Total Dipole Moment    :     -0.75265       0.41503       0.43796
                        -----------------------------------------
Magnitude (a.u.)       :      0.96465
Magnitude (Debye)      :      2.45193

                             ****ORCA TERMINATED NORMALLY****
TOTAL RUN TIME: 0 days 0 hours 18 minutes 13 seconds 177 msec
