                         Program Version 3.0.3 - RELEASE   -
|  1> ! RI-MP2 RIJK def2-TZVP def2-TZVP/C def2-TZVP/JK TIGHTSCF
|  2> % maxcore 2000
|  3> % mp2 density relaxed end
|  4> *xyz 0 1
|  5>  C       -0.2303082146     1.5575358062     0.0166587346
|  6>  C        0.0165487663     0.0517196786    -0.0296051260
|  7>  C        0.8921588672    -0.4843521336    -1.1847467752
|  8>  C        1.2834480443    -1.8832845610    -0.6816501604
|  9>  C        1.9541552394    -1.3188773655     0.5912930634
| 10>  C        2.8964274092    -0.2810698947    -0.0683698311
| 11>  O        2.1420369026     0.2267263036    -1.1827323176
| 12>  C        0.8169326472    -0.4797401406     1.1824175981
| 13>  O        0.6041611813    -0.2430930943     2.3426159509
| 14>  H        0.7070418813     2.1016672064    -0.1250784831
| 15>  H       -0.9249746061     1.8681023242    -0.7695776828
| 16>  H       -0.6547699684     1.8365468436     0.9847152734
| 17>  H       -0.9452046890    -0.4810093372    -0.0390611804
| 18>  H        0.4576103438    -0.4072408534    -2.1816054341
| 19>  H        0.4289112544    -2.5329790220    -0.4771004360
| 20>  H        1.9827060180    -2.3927110681    -1.3487762154
| 21>  H        2.4363687286    -1.9969371472     1.2927327760
| 22>  H        3.1695916668     0.5400624068     0.6033758823
| 23>  H        3.8162049076    -0.7585129118    -0.4299494867
| 24> *
| 25>
| 26>                          ****END OF INPUT****

CARTESIAN COORDINATES (ANGSTROEM)
---------------------------------
  C     -0.230308    1.557536    0.016659
  C      0.016549    0.051720   -0.029605
  C      0.892159   -0.484352   -1.184747
  C      1.283448   -1.883285   -0.681650
  C      1.954155   -1.318877    0.591293
  C      2.896427   -0.281070   -0.068370
  O      2.142037    0.226726   -1.182732
  C      0.816933   -0.479740    1.182418
  O      0.604161   -0.243093    2.342616
  H      0.707042    2.101667   -0.125078
  H     -0.924975    1.868102   -0.769578
  H     -0.654770    1.836547    0.984715
  H     -0.945205   -0.481009   -0.039061
  H      0.457610   -0.407241   -2.181605
  H      0.428911   -2.532979   -0.477100
  H      1.982706   -2.392711   -1.348776
  H      2.436369   -1.996937    1.292733
  H      3.169592    0.540062    0.603376
  H      3.816205   -0.758513   -0.429949

 Total Charge           Charge          ....    0
 Multiplicity           Mult            ....    1
 Number of Electrons    NEL             ....   68
 Basis Dimension        Dim             ....  339

ORBITAL ENERGIES
----------------

  NO   OCC          E(Eh)            E(eV)
   0   2.0000     -20.562973      -559.5469
   1   2.0000     -20.549280      -559.1743
   2   2.0000     -11.330210      -308.3107
   3   2.0000     -11.294409      -307.3365
   4   2.0000     -11.291983      -307.2705
   5   2.0000     -11.251915      -306.1802
   6   2.0000     -11.244767      -305.9857
   7   2.0000     -11.244062      -305.9665
   8   2.0000     -11.220002      -305.3118
   9   2.0000      -1.398072       -38.0435
  10   2.0000      -1.384864       -37.6841
  11   2.0000      -1.130694       -30.7678
  12   2.0000      -1.051224       -28.6053
  13   2.0000      -0.989344       -26.9214
  14   2.0000      -0.898924       -24.4610
  15   2.0000      -0.846123       -23.0242
  16   2.0000      -0.809004       -22.0141
  17   2.0000      -0.723101       -19.6766
  18   2.0000      -0.706545       -19.2261
  19   2.0000      -0.687936       -18.7197
  20   2.0000      -0.650135       -17.6911
  21   2.0000      -0.618732       -16.8366
  22   2.0000      -0.599405       -16.3106
  23   2.0000      -0.580420       -15.7940
  24   2.0000      -0.572048       -15.5662
  25   2.0000      -0.548214       -14.9177
  26   2.0000      -0.536872       -14.6090
  27   2.0000      -0.517838       -14.0911
  28   2.0000      -0.515263       -14.0210
  29   2.0000      -0.512344       -13.9416
  30   2.0000      -0.503212       -13.6931
  31   2.0000      -0.458289       -12.4707
  32   2.0000      -0.419418       -11.4129
  33   2.0000      -0.392210       -10.6726
  34   0.0000       0.123203         3.3525
  35   0.0000       0.144573         3.9340
  36   0.0000       0.154075         4.1926
  37   0.0000       0.167149         4.5484
  38   0.0000       0.174359         4.7446

MULLIKEN ATOMIC CHARGES
-----------------------
   0 C :   -0.428273
   1 C :   -0.088170
   2 C :    0.115690
   3 C :   -0.309579
   4 C :    0.024788
   5 C :   -0.110642
   6 O :   -0.334997
   7 C :    0.054709
   8 O :   -0.259741
   9 H :    0.147010
  10 H :    0.130787
  11 H :    0.153148
  12 H :    0.118353
  13 H :    0.132129
  14 H :    0.136379
  15 H :    0.132191
  16 H :    0.143478
  17 H :    0.126855
  18 H :    0.115884
Sum of atomic charges:   -0.0000000

LOEWDIN ATOMIC CHARGES
----------------------
   0 C :   -0.283965
   1 C :   -0.223900
   2 C :   -0.266332
   3 C :   -0.202212
   4 C :   -0.204990
   5 C :   -0.255693
   6 O :    0.159031
   7 C :   -0.274176
   8 O :    0.160118
   9 H :    0.130840
  10 H :    0.124587
  11 H :    0.132161
  12 H :    0.168350
  13 H :    0.141048
  14 H :    0.143783
  15 H :    0.142866
  16 H :    0.152209
  17 H :    0.129594
  18 H :    0.126680

  Mayer bond orders larger than 0.1
B(  0-C ,  1-C ) :   0.8928 B(  0-C ,  9-H ) :   0.9314 B(  0-C , 10-H ) :   0.9373
B(  0-C , 11-H ) :   0.9342 B(  1-C ,  2-C ) :   0.8841 B(  1-C ,  4-C ) :  -0.1176
B(  1-C ,  7-C ) :   0.9050 B(  1-C , 12-H ) :   0.8947 B(  2-C ,  3-C ) :   0.9153
B(  2-C ,  6-O ) :   0.8965 B(  2-C , 13-H ) :   0.9102 B(  3-C ,  4-C ) :   0.9038
B(  3-C , 14-H ) :   0.9235 B(  3-C , 15-H ) :   0.9108 B(  4-C ,  5-C ) :   0.8919
B(  4-C ,  7-C ) :   0.8559 B(  4-C , 16-H ) :   0.9023 B(  5-C ,  6-O ) :   0.9306
B(  5-C , 17-H ) :   0.9258 B(  5-C , 18-H ) :   0.9193 B(  7-C ,  8-O ) :   2.0557

MP2 TOTAL ENERGY:     -422.355703005 Eh
FINAL SINGLE POINT ENERGY      -422.355703005155

DIPOLE MOMENT
-------------
                                X             Y             Z
Electronic contribution:      1.05341      -1.26352       2.66663
Nuclear contribution   :     -1.03491       0.64390      -3.36041
                        -----------------------------------------
Total Dipole Moment    :      0.01849      -0.61962      -0.69377
                        -----------------------------------------
Magnitude (a.u.)       :      0.93037
Magnitude (Debye)      :      2.36482

                             ****ORCA TERMINATED NORMALLY****
TOTAL RUN TIME: 0 days 0 hours 19 minutes 38 seconds 814 msec
