                         Program Version 3.0.3 - RELEASE   -
|  1> ! RI-MP2 RIJK def2-TZVP def2-TZVP/C def2-TZVP/JK TIGHTSCF
|  2> % maxcore 2000
|  3> % mp2 density relaxed end
|  4> *xyz 0 1
|  5>  C        0.2126758559     1.5039054879     0.0076490068
|  6>  C       -0.0566974594    -0.0051311827     0.0025902201
|  7>  C       -1.5417964972    -0.4607053324     0.0144893936
|  8>  C       -2.2463142519     0.0523221916     1.2843425089
|  9>  C       -2.2705976572     0.0657198726    -1.2360235903
| 10>  C       -1.5051465602    -2.0110970059     0.0058643128
| 11>  C       -2.8758685504    -2.7226796818     0.0151341543
| 12>  C       -2.7296364663    -4.1767398779     0.0058001705
| 13>  N       -2.5960884451    -5.3247210877    -0.0017762864
| 14>  H        1.2912086645     1.6896326449    -0.0016360030
| 15>  H       -0.2089057613     2.0024381854    -0.8702337864
| 16>  H       -0.1921382071     1.9935268315     0.8983448762
| 17>  H        0.4255251426    -0.4446774695    -0.8803945729
| 18>  H        0.4422999833    -0.4535703320     0.8716731606
| 19>  H       -2.2433045024     1.1451377331     1.3246629985
| 20>  H       -3.2949004827    -0.2597392531     1.3243646308
| 21>  H       -1.7511391067    -0.3166563965     2.1897020979
| 22>  H       -1.7928793922    -0.2934082754    -2.1546260288
| 23>  H       -3.3197406418    -0.2461771062    -1.2592476940
| 24>  H       -2.2684178037     1.1589067344    -1.2646706343
| 25>  H       -0.9520807324    -2.3483960245    -0.8782893034
| 26>  H       -0.9353206583    -2.3577840116     0.8756275993
| 27>  H       -3.4567265591    -2.4463080000     0.9012194820
| 28>  H       -3.4736038308    -2.4367033640    -0.8565706727
| 29> *
| 30>
| 31>                          ****END OF INPUT****

CARTESIAN COORDINATES (ANGSTROEM)
---------------------------------
  C      0.212676    1.503905    0.007649
  C     -0.056697   -0.005131    0.002590
  C     -1.541796   -0.460705    0.014489
  C     -2.246314    0.052322    1.284343
  C     -2.270598    0.065720   -1.236024
  C     -1.505147   -2.011097    0.005864
  C     -2.875869   -2.722680    0.015134
  C     -2.729636   -4.176740    0.005800
  N     -2.596088   -5.324721   -0.001776
  H      1.291209    1.689633   -0.001636
  H     -0.208906    2.002438   -0.870234
  H     -0.192138    1.993527    0.898345
  H      0.425525   -0.444677   -0.880395
  H      0.442300   -0.453570    0.871673
  H     -2.243305    1.145138    1.324663
  H     -3.294900   -0.259739    1.324365
  H     -1.751139   -0.316656    2.189702
  H     -1.792879   -0.293408   -2.154626
  H     -3.319741   -0.246177   -1.259248
  H     -2.268418    1.158907   -1.264671
  H     -0.952081   -2.348396   -0.878289
  H     -0.935321   -2.357784    0.875628
  H     -3.456727   -2.446308    0.901219
  H     -3.473604   -2.436703   -0.856571

 Total Charge           Charge          ....    0
 Multiplicity           Mult            ....    1
 Number of Electrons    NEL             ....   70
 Basis Dimension        Dim             ....  369

ORBITAL ENERGIES
----------------

  NO   OCC          E(Eh)            E(eV)
   0   2.0000     -15.563540      -423.5055
   1   2.0000     -11.278585      -306.9059
   2   2.0000     -11.268797      -306.6396
   3   2.0000     -11.252120      -306.1858
   4   2.0000     -11.246088      -306.0216
   5   2.0000     -11.229953      -305.5826
   6   2.0000     -11.225169      -305.4524
   7   2.0000     -11.225152      -305.4519
   8   2.0000     -11.221302      -305.3472
   9   2.0000      -1.214191       -33.0398
  10   2.0000      -1.133793       -30.8521
  11   2.0000      -1.058826       -28.8121
  12   2.0000      -0.999641       -27.2016
  13   2.0000      -0.945716       -25.7342
  14   2.0000      -0.921873       -25.0854
  15   2.0000      -0.851155       -23.1611
  16   2.0000      -0.742546       -20.2057
  17   2.0000      -0.700608       -19.0645
  18   2.0000      -0.663582       -18.0570
  19   2.0000      -0.630865       -17.1667
  20   2.0000      -0.625349       -17.0166
  21   2.0000      -0.613312       -16.6891
  22   2.0000      -0.579320       -15.7641
  23   2.0000      -0.569611       -15.4999
  24   2.0000      -0.552311       -15.0291
  25   2.0000      -0.543292       -14.7837
  26   2.0000      -0.537983       -14.6392
  27   2.0000      -0.522779       -14.2255
  28   2.0000      -0.518083       -14.0977
  29   2.0000      -0.498783       -13.5726
  30   2.0000      -0.475565       -12.9408
  31   2.0000      -0.467108       -12.7107
  32   2.0000      -0.460070       -12.5191
  33   2.0000      -0.452311       -12.3080
  34   2.0000      -0.438935       -11.9440
  35   0.0000       0.113663         3.0929
  36   0.0000       0.146541         3.9876
  37   0.0000       0.155216         4.2236
  38   0.0000       0.158938         4.3249
  39   0.0000       0.174974         4.7613

MULLIKEN ATOMIC CHARGES
-----------------------
   0 C :   -0.429010
   1 C :   -0.193967
   2 C :    0.166613
   3 C :   -0.467688
   4 C :   -0.467713
   5 C :   -0.281879
   6 C :   -0.140064
   7 C :   -0.188543
   8 N :   -0.056603
   9 H :    0.142413
  10 H :    0.131649
  11 H :    0.131629
  12 H :    0.115420
  13 H :    0.115420
  14 H :    0.142558
  15 H :    0.134258
  16 H :    0.138214
  17 H :    0.138218
  18 H :    0.134255
  19 H :    0.142572
  20 H :    0.138345
  21 H :    0.138348
  22 H :    0.157783
  23 H :    0.157776
Sum of atomic charges:   -0.0000000

LOEWDIN ATOMIC CHARGES
----------------------
   0 C :   -0.316855
   1 C :   -0.252135
   2 C :   -0.326706
   3 C :   -0.269472
   4 C :   -0.269474
   5 C :   -0.209675
   6 C :   -0.243225
   7 C :   -0.194619
   8 N :    0.051880
   9 H :    0.124757
  10 H :    0.120393
  11 H :    0.120389
  12 H :    0.141348
  13 H :    0.141347
  14 H :    0.127048
  15 H :    0.123012
  16 H :    0.128674
  17 H :    0.128677
  18 H :    0.123009
  19 H :    0.127052
  20 H :    0.149459
  21 H :    0.149458
  22 H :    0.162828
  23 H :    0.162829

  Mayer bond orders larger than 0.1
B(  0-C ,  1-C ) :   0.9133 B(  0-C ,  9-H ) :   0.9411 B(  0-C , 10-H ) :   0.9406
B(  0-C , 11-H ) :   0.9406 B(  1-C ,  2-C ) :   0.9030 B(  1-C , 12-H ) :   0.9287
B(  1-C , 13-H ) :   0.9287 B(  2-C ,  3-C ) :   0.8947 B(  2-C ,  4-C ) :   0.8947
B(  2-C ,  5-C ) :   0.8782 B(  3-C , 14-H ) :   0.9370 B(  3-C , 15-H ) :   0.9375
B(  3-C , 16-H ) :   0.9330 B(  4-C , 17-H ) :   0.9330 B(  4-C , 18-H ) :   0.9375
B(  4-C , 19-H ) :   0.9371 B(  5-C ,  6-C ) :   0.9090 B(  5-C , 20-H ) :   0.9305
B(  5-C , 21-H ) :   0.9305 B(  6-C ,  7-C ) :   0.9568 B(  6-C , 22-H ) :   0.9055
B(  6-C , 23-H ) :   0.9055 B(  7-C ,  8-N ) :   2.8930

MP2 TOTAL ENERGY:     -367.784606939 Eh
FINAL SINGLE POINT ENERGY      -367.784606939397

DIPOLE MOMENT
-------------
                                X             Y             Z
Electronic contribution:     -3.69554     -14.11789      -0.04020
Nuclear contribution   :      3.72364      15.84711       0.04936
                        -----------------------------------------
Total Dipole Moment    :      0.02809       1.72922       0.00916
                        -----------------------------------------
Magnitude (a.u.)       :      1.72947
Magnitude (Debye)      :      4.39596

                             ****ORCA TERMINATED NORMALLY****
TOTAL RUN TIME: 0 days 0 hours 23 minutes 16 seconds 795 msec
