                         Program Version 3.0.3 - RELEASE   -
|  1> ! RI-MP2 RIJK def2-TZVP def2-TZVP/C def2-TZVP/JK TIGHTSCF
|  2> % maxcore 2000
|  3> % mp2 density relaxed end
|  4> *xyz 0 1
|  5>  C        0.9672210727     0.1066160257     0.6008577744
|  6>  C       -0.2577911401     0.5032683459    -0.1928402829
|  7>  O       -0.2604417333     1.3883120436    -1.0233135394
|  8>  C       -1.5082847569    -0.2437678347     0.0753227835
|  9>  O       -1.6629820797    -1.0465664054     1.2522569516
| 10>  C       -1.7958267153    -1.6986362860     0.0062350921
| 11>  C       -3.2016652433    -1.3914257173    -0.6178311723
| 12>  N       -3.9363164049    -0.5339240744     0.3411790185
| 13>  C       -2.9141643578     0.0575665463    -0.5481109235
| 14>  H        1.8344953548     0.6465287025     0.2196473062
| 15>  H        0.8135317226     0.3460049953     1.6584301485
| 16>  H        1.1401194080    -0.9729539227     0.5488245813
| 17>  H       -1.1415263414    -2.5334989452    -0.2163791721
| 18>  H       -3.6949804959    -1.9755188823    -1.3820998740
| 19>  H       -4.8416902545    -0.3353023244    -0.0860126796
| 20>  H       -3.1132942450     0.8540992732    -1.2496387123
| 21> *
| 22>
| 23>                          ****END OF INPUT****

CARTESIAN COORDINATES (ANGSTROEM)
---------------------------------
  C      0.967221    0.106616    0.600858
  C     -0.257791    0.503268   -0.192840
  O     -0.260442    1.388312   -1.023314
  C     -1.508285   -0.243768    0.075323
  O     -1.662982   -1.046566    1.252257
  C     -1.795827   -1.698636    0.006235
  C     -3.201665   -1.391426   -0.617831
  N     -3.936316   -0.533924    0.341179
  C     -2.914164    0.057567   -0.548111
  H      1.834495    0.646529    0.219647
  H      0.813532    0.346005    1.658430
  H      1.140119   -0.972954    0.548825
  H     -1.141526   -2.533499   -0.216379
  H     -3.694980   -1.975519   -1.382100
  H     -4.841690   -0.335302   -0.086013
  H     -3.113294    0.854099   -1.249639

 Total Charge           Charge          ....    0
 Multiplicity           Mult            ....    1
 Number of Electrons    NEL             ....   66
 Basis Dimension        Dim             ....  321

ORBITAL ENERGIES
----------------

  NO   OCC          E(Eh)            E(eV)
   0   2.0000     -20.594892      -560.4155
   1   2.0000     -20.554290      -559.3107
   2   2.0000     -15.578696      -423.9179
   3   2.0000     -11.344753      -308.7064
   4   2.0000     -11.316839      -307.9468
   5   2.0000     -11.307930      -307.7044
   6   2.0000     -11.283325      -307.0349
   7   2.0000     -11.281608      -306.9882
   8   2.0000     -11.238578      -305.8173
   9   2.0000      -1.452193       -39.5162
  10   2.0000      -1.395661       -37.9779
  11   2.0000      -1.278898       -34.8006
  12   2.0000      -1.035308       -28.1722
  13   2.0000      -1.010319       -27.4922
  14   2.0000      -0.928163       -25.2566
  15   2.0000      -0.859946       -23.4003
  16   2.0000      -0.805660       -21.9231
  17   2.0000      -0.766530       -20.8584
  18   2.0000      -0.714748       -19.4493
  19   2.0000      -0.675895       -18.3921
  20   2.0000      -0.661763       -18.0075
  21   2.0000      -0.626590       -17.0504
  22   2.0000      -0.605455       -16.4753
  23   2.0000      -0.598271       -16.2798
  24   2.0000      -0.569924       -15.5084
  25   2.0000      -0.564036       -15.3482
  26   2.0000      -0.516000       -14.0411
  27   2.0000      -0.511887       -13.9292
  28   2.0000      -0.498042       -13.5524
  29   2.0000      -0.484085       -13.1726
  30   2.0000      -0.430689       -11.7196
  31   2.0000      -0.417886       -11.3713
  32   2.0000      -0.361986        -9.8502
  33   0.0000       0.117446         3.1959
  34   0.0000       0.133635         3.6364
  35   0.0000       0.140122         3.8129
  36   0.0000       0.165167         4.4944
  37   0.0000       0.176987         4.8161

MULLIKEN ATOMIC CHARGES
-----------------------
   0 C :   -0.396339
   1 C :    0.158671
   2 O :   -0.292518
   3 C :    0.232717
   4 O :   -0.282786
   5 C :   -0.019337
   6 C :   -0.047959
   7 N :   -0.339786
   8 C :   -0.161195
   9 H :    0.154449
  10 H :    0.159163
  11 H :    0.140535
  12 H :    0.150627
  13 H :    0.155284
  14 H :    0.224918
  15 H :    0.163557
Sum of atomic charges:   -0.0000000

LOEWDIN ATOMIC CHARGES
----------------------
   0 C :   -0.266891
   1 C :   -0.329998
   2 O :    0.152609
   3 C :   -0.222127
   4 O :    0.242029
   5 C :   -0.194797
   6 C :   -0.216713
   7 N :    0.018387
   8 C :   -0.187552
   9 H :    0.134506
  10 H :    0.145366
  11 H :    0.137653
  12 H :    0.135129
  13 H :    0.133066
  14 H :    0.178167
  15 H :    0.141165

  Mayer bond orders larger than 0.1
B(  0-C ,  1-C ) :   0.9591 B(  0-C ,  9-H ) :   0.9364 B(  0-C , 10-H ) :   0.9034
B(  0-C , 11-H ) :   0.9151 B(  1-C ,  2-O ) :   1.9961 B(  1-C ,  3-C ) :   0.8732
B(  3-C ,  4-O ) :   0.8770 B(  3-C ,  5-C ) :   0.9242 B(  3-C ,  8-C ) :   0.8446
B(  4-O ,  5-C ) :   0.9515 B(  5-C ,  6-C ) :   0.8703 B(  5-C , 12-H ) :   0.9109
B(  6-C ,  7-N ) :   0.9588 B(  6-C ,  8-C ) :   0.9625 B(  6-C , 13-H ) :   0.9091
B(  7-N ,  8-C ) :   1.0035 B(  7-N , 14-H ) :   0.8634 B(  8-C , 15-H ) :   0.9263

MP2 TOTAL ENERGY:     -437.069614771 Eh
FINAL SINGLE POINT ENERGY      -437.069614770643

DIPOLE MOMENT
-------------
                                X             Y             Z
Electronic contribution:     -2.19944       0.90772      -0.11705
Nuclear contribution   :      2.03536      -1.71590      -0.46040
                        -----------------------------------------
Total Dipole Moment    :     -0.16408      -0.80818      -0.57745
                        -----------------------------------------
Magnitude (a.u.)       :      1.00674
Magnitude (Debye)      :      2.55893

                             ****ORCA TERMINATED NORMALLY****
TOTAL RUN TIME: 0 days 0 hours 17 minutes 13 seconds 471 msec
