                         Program Version 3.0.3 - RELEASE   -
|  1> ! RI-MP2 RIJK def2-TZVP def2-TZVP/C def2-TZVP/JK TIGHTSCF
|  2> % maxcore 2000
|  3> % mp2 density relaxed end
|  4> *xyz 0 1
|  5>  O       -0.0845783214     1.4457683565     0.0214300224
|  6>  C        0.0248667747     0.0336822012    -0.0062908439
|  7>  C        0.7556825958    -0.5093068246     1.2270913860
|  8>  C        0.7191959794    -2.0241577954     1.3237586495
|  9>  O        1.5730827255    -2.6892723615     1.8615214961
| 10>  N       -0.4000479281    -2.6249240842     0.7529860236
| 11>  C       -1.4576073904    -2.0297094277     0.0653522500
| 12>  O       -2.3528997220    -2.7034444298    -0.3867185900
| 13>  C       -1.3969517049    -0.5182225720    -0.0450357613
| 14>  H        0.8000803060     1.8213714202    -0.0365945279
| 15>  H        0.5596965549    -0.2928996516    -0.9127820935
| 16>  H        1.8058322548    -0.2076536032     1.2551656842
| 17>  H        0.2739497301    -0.0987767132     2.1240963286
| 18>  H       -0.4429987784    -3.6345963086     0.8302382896
| 19>  H       -1.9580332038    -0.0926953602     0.7974171323
| 20>  H       -1.9191679423    -0.2272580159    -0.9576970657
| 21> *
| 22>
| 23>                          ****END OF INPUT****

CARTESIAN COORDINATES (ANGSTROEM)
---------------------------------
  O     -0.084578    1.445768    0.021430
  C      0.024867    0.033682   -0.006291
  C      0.755683   -0.509307    1.227091
  C      0.719196   -2.024158    1.323759
  O      1.573083   -2.689272    1.861521
  N     -0.400048   -2.624924    0.752986
  C     -1.457607   -2.029709    0.065352
  O     -2.352900   -2.703444   -0.386719
  C     -1.396952   -0.518223   -0.045036
  H      0.800080    1.821371   -0.036595
  H      0.559697   -0.292900   -0.912782
  H      1.805832   -0.207654    1.255166
  H      0.273950   -0.098777    2.124096
  H     -0.442999   -3.634596    0.830238
  H     -1.958033   -0.092695    0.797417
  H     -1.919168   -0.227258   -0.957697

 Total Charge           Charge          ....    0
 Multiplicity           Mult            ....    1
 Number of Electrons    NEL             ....   68
 Basis Dimension        Dim             ....  321

ORBITAL ENERGIES
----------------

  NO   OCC          E(Eh)            E(eV)
   0   2.0000     -20.589321      -560.2639
   1   2.0000     -20.554012      -559.3031
   2   2.0000     -20.551933      -559.2465
   3   2.0000     -15.622667      -425.1144
   4   2.0000     -11.385745      -309.8219
   5   2.0000     -11.383572      -309.7628
   6   2.0000     -11.323708      -308.1338
   7   2.0000     -11.266688      -306.5822
   8   2.0000     -11.262068      -306.4564
   9   2.0000      -1.427370       -38.8407
  10   2.0000      -1.408595       -38.3298
  11   2.0000      -1.397482       -38.0274
  12   2.0000      -1.259618       -34.2759
  13   2.0000      -1.102778       -30.0081
  14   2.0000      -1.025716       -27.9112
  15   2.0000      -0.885679       -24.1006
  16   2.0000      -0.874893       -23.8070
  17   2.0000      -0.787514       -21.4293
  18   2.0000      -0.741699       -20.1827
  19   2.0000      -0.714155       -19.4331
  20   2.0000      -0.689919       -18.7736
  21   2.0000      -0.655439       -17.8354
  22   2.0000      -0.638695       -17.3798
  23   2.0000      -0.636448       -17.3186
  24   2.0000      -0.621764       -16.9190
  25   2.0000      -0.606627       -16.5072
  26   2.0000      -0.583953       -15.8902
  27   2.0000      -0.556142       -15.1334
  28   2.0000      -0.525881       -14.3099
  29   2.0000      -0.513135       -13.9631
  30   2.0000      -0.486939       -13.2503
  31   2.0000      -0.466964       -12.7067
  32   2.0000      -0.439434       -11.9576
  33   2.0000      -0.433950       -11.8084
  34   0.0000       0.110757         3.0139
  35   0.0000       0.124506         3.3880
  36   0.0000       0.136357         3.7105
  37   0.0000       0.156887         4.2691
  38   0.0000       0.166203         4.5226

MULLIKEN ATOMIC CHARGES
-----------------------
   0 O :   -0.445961
   1 C :    0.041734
   2 C :   -0.232830
   3 C :    0.195653
   4 O :   -0.299183
   5 N :   -0.253412
   6 C :    0.201471
   7 O :   -0.299208
   8 C :   -0.190290
   9 H :    0.320616
  10 H :    0.103489
  11 H :    0.146121
  12 H :    0.149370
  13 H :    0.255723
  14 H :    0.145965
  15 H :    0.160741
Sum of atomic charges:   -0.0000000

LOEWDIN ATOMIC CHARGES
----------------------
   0 O :   -0.006257
   1 C :   -0.349598
   2 C :   -0.211219
   3 C :   -0.416390
   4 O :    0.124151
   5 N :    0.172233
   6 C :   -0.412985
   7 O :    0.126205
   8 C :   -0.197834
   9 H :    0.179117
  10 H :    0.141474
  11 H :    0.154126
  12 H :    0.163377
  13 H :    0.207181
  14 H :    0.165504
  15 H :    0.160914

  Mayer bond orders larger than 0.1
B(  0-O ,  1-C ) :   0.9962 B(  0-O ,  9-H ) :   0.8425 B(  1-C ,  2-C ) :   0.8864
B(  1-C ,  8-C ) :   0.8731 B(  1-C , 10-H ) :   0.9406 B(  2-C ,  3-C ) :   0.9265
B(  2-C , 11-H ) :   0.9158 B(  2-C , 12-H ) :   0.8977 B(  3-C ,  4-O ) :   2.0139
B(  3-C ,  5-N ) :   1.0562 B(  5-N ,  6-C ) :   1.0422 B(  5-N , 13-H ) :   0.8398
B(  6-C ,  7-O ) :   2.0142 B(  6-C ,  8-C ) :   0.9288 B(  8-C , 14-H ) :   0.9010
B(  8-C , 15-H ) :   0.9181

MP2 TOTAL ENERGY:     -474.358902550 Eh
FINAL SINGLE POINT ENERGY      -474.358902549577

DIPOLE MOMENT
-------------
                                X             Y             Z
Electronic contribution:     -0.47057      -4.78207       0.44986
Nuclear contribution   :      1.03421       5.73253      -0.57186
                        -----------------------------------------
Total Dipole Moment    :      0.56365       0.95045      -0.12200
                        -----------------------------------------
Magnitude (a.u.)       :      1.11173
Magnitude (Debye)      :      2.82580

                             ****ORCA TERMINATED NORMALLY****
TOTAL RUN TIME: 0 days 0 hours 14 minutes 24 seconds 902 msec
