                         Program Version 3.0.3 - RELEASE   -
|  1> ! RI-MP2 RIJK def2-TZVP def2-TZVP/C def2-TZVP/JK TIGHTSCF
|  2> % maxcore 2000
|  3> % mp2 density relaxed end
|  4> *xyz 0 1
|  5>  C       -0.2408661618     1.5929338181    -0.0206565224
|  6>  N       -0.0187036859     0.1530596449    -0.0452705912
|  7>  C        1.3108737551    -0.3316342246    -0.3813180456
|  8>  C        0.7702604821    -0.5001326545     0.9995542707
|  9>  C        1.3773100214     0.2464355605     2.1523631241
| 10>  C        0.6105890025     0.2539650472     3.4914050384
| 11>  C        1.8053681535    -0.5546906295     3.9964779241
| 12>  O        2.1723805937    -1.0533110916     5.0096507957
| 13>  O        2.4505569628    -0.5471188378     2.7837543555
| 14>  H        0.6449564768     2.1950196707     0.2353208504
| 15>  H       -0.5750579732     1.9044240977    -1.0150175812
| 16>  H       -1.0386223898     1.8278656831     0.6911955534
| 17>  H        1.3606443691    -1.1784764519    -1.0600675990
| 18>  H        2.1053357970     0.4037119846    -0.5109710308
| 19>  H        0.3825184228    -1.4775739276     1.2868243154
| 20>  H        1.7817324541     1.2158609131     1.8578976197
| 21>  H        0.4811803529     1.2218208219     3.9778144482
| 22>  H       -0.3349702932    -0.2917419245     3.4994348446
| 23> *
| 24>
| 25>                          ****END OF INPUT****

CARTESIAN COORDINATES (ANGSTROEM)
---------------------------------
  C     -0.240866    1.592934   -0.020657
  N     -0.018704    0.153060   -0.045271
  C      1.310874   -0.331634   -0.381318
  C      0.770260   -0.500133    0.999554
  C      1.377310    0.246436    2.152363
  C      0.610589    0.253965    3.491405
  C      1.805368   -0.554691    3.996478
  O      2.172381   -1.053311    5.009651
  O      2.450557   -0.547119    2.783754
  H      0.644956    2.195020    0.235321
  H     -0.575058    1.904424   -1.015018
  H     -1.038622    1.827866    0.691196
  H      1.360644   -1.178476   -1.060068
  H      2.105336    0.403712   -0.510971
  H      0.382518   -1.477574    1.286824
  H      1.781732    1.215861    1.857898
  H      0.481180    1.221821    3.977814
  H     -0.334970   -0.291742    3.499435

 Total Charge           Charge          ....    0
 Multiplicity           Mult            ....    1
 Number of Electrons    NEL             ....   68
 Basis Dimension        Dim             ....  333

ORBITAL ENERGIES
----------------

  NO   OCC          E(Eh)            E(eV)
   0   2.0000     -20.605169      -560.6952
   1   2.0000     -20.555394      -559.3407
   2   2.0000     -15.578325      -423.9078
   3   2.0000     -11.388094      -309.8858
   4   2.0000     -11.322853      -308.1105
   5   2.0000     -11.279138      -306.9210
   6   2.0000     -11.269581      -306.6609
   7   2.0000     -11.268583      -306.6337
   8   2.0000     -11.264972      -306.5355
   9   2.0000      -1.466926       -39.9171
  10   2.0000      -1.383173       -37.6380
  11   2.0000      -1.291750       -35.1503
  12   2.0000      -1.064650       -28.9706
  13   2.0000      -1.016620       -27.6636
  14   2.0000      -0.949662       -25.8416
  15   2.0000      -0.850567       -23.1451
  16   2.0000      -0.810012       -22.0416
  17   2.0000      -0.760848       -20.7037
  18   2.0000      -0.720737       -19.6122
  19   2.0000      -0.699128       -19.0242
  20   2.0000      -0.683752       -18.6058
  21   2.0000      -0.668264       -18.1844
  22   2.0000      -0.627303       -17.0698
  23   2.0000      -0.609073       -16.5737
  24   2.0000      -0.579240       -15.7619
  25   2.0000      -0.573295       -15.6002
  26   2.0000      -0.564781       -15.3685
  27   2.0000      -0.543013       -14.7761
  28   2.0000      -0.532684       -14.4951
  29   2.0000      -0.480606       -13.0779
  30   2.0000      -0.472832       -12.8664
  31   2.0000      -0.459972       -12.5165
  32   2.0000      -0.446873       -12.1600
  33   2.0000      -0.385183       -10.4814
  34   0.0000       0.123030         3.3478
  35   0.0000       0.141841         3.8597
  36   0.0000       0.154562         4.2058
  37   0.0000       0.165270         4.4972
  38   0.0000       0.166584         4.5330

MULLIKEN ATOMIC CHARGES
-----------------------
   0 C :   -0.295889
   1 N :   -0.213063
   2 C :   -0.183642
   3 C :   -0.081818
   4 C :    0.091833
   5 C :   -0.287549
   6 C :    0.248556
   7 O :   -0.257718
   8 O :   -0.237910
   9 H :    0.107169
  10 H :    0.150601
  11 H :    0.137316
  12 H :    0.136499
  13 H :    0.124231
  14 H :    0.134102
  15 H :    0.122573
  16 H :    0.149895
  17 H :    0.154815
Sum of atomic charges:    0.0000000

LOEWDIN ATOMIC CHARGES
----------------------
   0 C :   -0.329368
   1 N :    0.095675
   2 C :   -0.234960
   3 C :   -0.247621
   4 C :   -0.236722
   5 C :   -0.190853
   6 C :   -0.460171
   7 O :    0.156325
   8 O :    0.252904
   9 H :    0.103630
  10 H :    0.122610
  11 H :    0.119375
  12 H :    0.128225
  13 H :    0.127327
  14 H :    0.150647
  15 H :    0.143271
  16 H :    0.147863
  17 H :    0.151845

  Mayer bond orders larger than 0.1
B(  0-C ,  1-N ) :   0.8806 B(  0-C ,  9-H ) :   0.9277 B(  0-C , 10-H ) :   0.9360
B(  0-C , 11-H ) :   0.9368 B(  1-N ,  2-C ) :   0.8971 B(  1-N ,  3-C ) :   0.9292
B(  2-C ,  3-C ) :   0.9282 B(  2-C , 12-H ) :   0.9196 B(  2-C , 13-H ) :   0.9190
B(  3-C ,  4-C ) :   0.9306 B(  3-C , 14-H ) :   0.9017 B(  4-C ,  5-C ) :   0.8944
B(  4-C ,  8-O ) :   0.8886 B(  4-C , 15-H ) :   0.9144 B(  5-C ,  6-C ) :   0.9403
B(  5-C , 16-H ) :   0.9046 B(  5-C , 17-H ) :   0.9018 B(  6-C ,  7-O ) :   2.0594
B(  6-C ,  8-O ) :   1.0895

MP2 TOTAL ENERGY:     -438.347970097 Eh
FINAL SINGLE POINT ENERGY      -438.347970097369

DIPOLE MOMENT
-------------
                                X             Y             Z
Electronic contribution:      4.49292      -4.95042       7.64069
Nuclear contribution   :     -5.17149       6.04530      -8.55184
                        -----------------------------------------
Total Dipole Moment    :     -0.67857       1.09488      -0.91116
                        -----------------------------------------
Magnitude (a.u.)       :      1.57779
Magnitude (Debye)      :      4.01043

                             ****ORCA TERMINATED NORMALLY****
TOTAL RUN TIME: 0 days 0 hours 16 minutes 42 seconds 968 msec
