                         Program Version 3.0.3 - RELEASE   -
|  1> ! RI-MP2 RIJK def2-TZVP def2-TZVP/C def2-TZVP/JK TIGHTSCF
|  2> % maxcore 2000
|  3> % mp2 density relaxed end
|  4> *xyz 0 1
|  5>  C        0.2189792334     1.4299072138     0.2497434804
|  6>  C       -0.0022999439    -0.0709112488     0.0038689199
|  7>  O        0.5350124515    -0.7204962689     1.1645421796
|  8>  C       -1.4403268870    -0.3722308112    -0.0942403275
|  9>  C       -2.6079884951    -0.6539641786    -0.1543689937
| 10>  C        0.7214726188    -0.5427924706    -1.2810785041
| 11>  C        0.2180487529     0.0695631997    -2.5761818322
| 12>  C        2.1956892026    -0.8373143700    -1.1684413733
| 13>  C        1.2089609016    -1.9692271136    -1.3395537837
| 14>  H        1.2913898619     1.6232380562     0.3371287556
| 15>  H       -0.1870519955     2.0316903890    -0.5650369453
| 16>  H       -0.2701971272     1.7226165998     1.1808690849
| 17>  H        0.0920461029    -1.5699059398     1.2566836057
| 18>  H       -3.6416217225    -0.8930090256    -0.2075532675
| 19>  H        0.3784935391     1.1523701110    -2.6067263212
| 20>  H        0.7471445429    -0.3620146441    -3.4310422804
| 21>  H       -0.8515875009    -0.1181225202    -2.7134602926
| 22>  H        2.8306199306    -0.5691761126    -2.0061805942
| 23>  H        2.6556161427    -0.7385935766    -0.1926067144
| 24>  H        1.0512098866    -2.6165927209    -0.4846766424
| 25>  H        1.1560993944    -2.4785291478    -2.2957352039
| 26> *
| 27>
| 28>                          ****END OF INPUT****

CARTESIAN COORDINATES (ANGSTROEM)
---------------------------------
  C      0.218979    1.429907    0.249743
  C     -0.002300   -0.070911    0.003869
  O      0.535012   -0.720496    1.164542
  C     -1.440327   -0.372231   -0.094240
  C     -2.607988   -0.653964   -0.154369
  C      0.721473   -0.542792   -1.281079
  C      0.218049    0.069563   -2.576182
  C      2.195689   -0.837314   -1.168441
  C      1.208961   -1.969227   -1.339554
  H      1.291390    1.623238    0.337129
  H     -0.187052    2.031690   -0.565037
  H     -0.270197    1.722617    1.180869
  H      0.092046   -1.569906    1.256684
  H     -3.641622   -0.893009   -0.207553
  H      0.378494    1.152370   -2.606726
  H      0.747145   -0.362015   -3.431042
  H     -0.851588   -0.118123   -2.713460
  H      2.830620   -0.569176   -2.006181
  H      2.655616   -0.738594   -0.192607
  H      1.051210   -2.616593   -0.484677
  H      1.156099   -2.478529   -2.295735

 Total Charge           Charge          ....    0
 Multiplicity           Mult            ....    1
 Number of Electrons    NEL             ....   68
 Basis Dimension        Dim             ....  351

ORBITAL ENERGIES
----------------

  NO   OCC          E(Eh)            E(eV)
   0   2.0000     -20.562461      -559.5330
   1   2.0000     -11.318272      -307.9858
   2   2.0000     -11.242282      -305.9180
   3   2.0000     -11.236900      -305.7716
   4   2.0000     -11.230895      -305.6082
   5   2.0000     -11.223139      -305.3971
   6   2.0000     -11.220033      -305.3126
   7   2.0000     -11.218575      -305.2730
   8   2.0000     -11.217972      -305.2565
   9   2.0000      -1.373164       -37.3657
  10   2.0000      -1.154495       -31.4154
  11   2.0000      -1.063442       -28.9377
  12   2.0000      -1.001249       -27.2454
  13   2.0000      -0.959511       -26.1096
  14   2.0000      -0.877145       -23.8683
  15   2.0000      -0.823895       -22.4193
  16   2.0000      -0.768218       -20.9043
  17   2.0000      -0.734924       -19.9983
  18   2.0000      -0.698640       -19.0110
  19   2.0000      -0.680378       -18.5140
  20   2.0000      -0.629874       -17.1397
  21   2.0000      -0.592714       -16.1286
  22   2.0000      -0.580938       -15.8081
  23   2.0000      -0.553267       -15.0552
  24   2.0000      -0.549209       -14.9447
  25   2.0000      -0.542391       -14.7592
  26   2.0000      -0.526061       -14.3148
  27   2.0000      -0.515155       -14.0181
  28   2.0000      -0.509532       -13.8651
  29   2.0000      -0.460924       -12.5424
  30   2.0000      -0.419317       -11.4102
  31   2.0000      -0.401460       -10.9243
  32   2.0000      -0.398597       -10.8464
  33   2.0000      -0.388642       -10.5755
  34   0.0000       0.133312         3.6276
  35   0.0000       0.150384         4.0922
  36   0.0000       0.161135         4.3847
  37   0.0000       0.167519         4.5584
  38   0.0000       0.174279         4.7424

MULLIKEN ATOMIC CHARGES
-----------------------
   0 C :   -0.411019
   1 C :    0.186091
   2 O :   -0.464172
   3 C :   -0.112979
   4 C :   -0.151631
   5 C :    0.129690
   6 C :   -0.458586
   7 C :   -0.256982
   8 C :   -0.324600
   9 H :    0.144244
  10 H :    0.133118
  11 H :    0.142119
  12 H :    0.321420
  13 H :    0.192496
  14 H :    0.135679
  15 H :    0.131242
  16 H :    0.152370
  17 H :    0.130101
  18 H :    0.141594
  19 H :    0.109534
  20 H :    0.130272
Sum of atomic charges:   -0.0000000

LOEWDIN ATOMIC CHARGES
----------------------
   0 C :   -0.241865
   1 C :   -0.347413
   2 O :    0.030315
   3 C :   -0.068440
   4 C :   -0.087485
   5 C :   -0.236044
   6 C :   -0.258701
   7 C :   -0.204896
   8 C :   -0.208542
   9 H :    0.132837
  10 H :    0.129199
  11 H :    0.132220
  12 H :    0.178185
  13 H :    0.128163
  14 H :    0.125774
  15 H :    0.130392
  16 H :    0.132929
  17 H :    0.132154
  18 H :    0.139574
  19 H :    0.128982
  20 H :    0.132661

  Mayer bond orders larger than 0.1
B(  0-C ,  1-C ) :   0.8633 B(  0-C ,  9-H ) :   0.9374 B(  0-C , 10-H ) :   0.9310
B(  0-C , 11-H ) :   0.9374 B(  1-C ,  2-O ) :   0.9270 B(  1-C ,  3-C ) :   1.2129
B(  1-C ,  5-C ) :   0.8745 B(  2-O , 12-H ) :   0.8418 B(  3-C ,  4-C ) :   2.5572
B(  4-C , 13-H ) :   0.8879 B(  5-C ,  6-C ) :   0.9026 B(  5-C ,  7-C ) :   0.8567
B(  5-C ,  8-C ) :   0.8521 B(  6-C , 14-H ) :   0.9386 B(  6-C , 15-H ) :   0.9296
B(  6-C , 16-H ) :   0.9366 B(  7-C ,  8-C ) :   0.9123 B(  7-C , 17-H ) :   0.9293
B(  7-C , 18-H ) :   0.9136 B(  8-C , 19-H ) :   0.9256 B(  8-C , 20-H ) :   0.9258

MP2 TOTAL ENERGY:     -386.367660558 Eh
FINAL SINGLE POINT ENERGY      -386.367660558198

DIPOLE MOMENT
-------------
                                X             Y             Z
Electronic contribution:     -3.43218      -2.02351       4.29597
Nuclear contribution   :      3.11894       1.86462      -4.66946
                        -----------------------------------------
Total Dipole Moment    :     -0.31325      -0.15889      -0.37349
                        -----------------------------------------
Magnitude (a.u.)       :      0.51271
Magnitude (Debye)      :      1.30320

                             ****ORCA TERMINATED NORMALLY****
TOTAL RUN TIME: 0 days 0 hours 24 minutes 45 seconds 892 msec
