                         Program Version 3.0.3 - RELEASE   -
|  1> ! RI-MP2 RIJK def2-TZVP def2-TZVP/C def2-TZVP/JK TIGHTSCF
|  2> % maxcore 2000
|  3> % mp2 density relaxed end
|  4> *xyz 0 1
|  5>  C        0.7400629173     1.4763241862    -0.0240505935
|  6>  C        0.0193655058     0.1130887289     0.0090717105
|  7>  C        0.3020833928    -0.7260376196    -1.2748668047
|  8>  C        1.2511193487    -1.8837632898    -0.9674943066
|  9>  C        0.7084301091    -2.8055340626     0.1444986184
| 10>  C        1.4110341894    -1.7688637565     1.0487911782
| 11>  O        2.2845828532    -1.3986267644    -0.0525240953
| 12>  C        0.4453879797    -0.6177231930     1.2942745632
| 13>  O        0.0480290819    -0.3058885897     2.3905231812
| 14>  H        1.8195739983     1.3320694828    -0.1237702478
| 15>  H        0.3910150756     2.0692583057    -0.8753653144
| 16>  H        0.5430290377     2.0369740002     0.8933784909
| 17>  H       -1.0536155303     0.3026886099     0.1122386758
| 18>  H       -0.6267042031    -1.1226418166    -1.7007320264
| 19>  H        0.7521879475    -0.0840321144    -2.0388121984
| 20>  H        1.6774786441    -2.3410008373    -1.8639350506
| 21>  H       -0.3726572573    -2.9350489056     0.2363020896
| 22>  H        1.2122628899    -3.7726811155     0.1738730328
| 23>  H        1.9397847195    -2.0790481285     1.9513419772
| 24> *
| 25>
| 26>                          ****END OF INPUT****

CARTESIAN COORDINATES (ANGSTROEM)
---------------------------------
  C      0.740063    1.476324   -0.024051
  C      0.019366    0.113089    0.009072
  C      0.302083   -0.726038   -1.274867
  C      1.251119   -1.883763   -0.967494
  C      0.708430   -2.805534    0.144499
  C      1.411034   -1.768864    1.048791
  O      2.284583   -1.398627   -0.052524
  C      0.445388   -0.617723    1.294275
  O      0.048029   -0.305889    2.390523
  H      1.819574    1.332069   -0.123770
  H      0.391015    2.069258   -0.875365
  H      0.543029    2.036974    0.893378
  H     -1.053616    0.302689    0.112239
  H     -0.626704   -1.122642   -1.700732
  H      0.752188   -0.084032   -2.038812
  H      1.677479   -2.341001   -1.863935
  H     -0.372657   -2.935049    0.236302
  H      1.212263   -3.772681    0.173873
  H      1.939785   -2.079048    1.951342

 Total Charge           Charge          ....    0
 Multiplicity           Mult            ....    1
 Number of Electrons    NEL             ....   68
 Basis Dimension        Dim             ....  339

ORBITAL ENERGIES
----------------

  NO   OCC          E(Eh)            E(eV)
   0   2.0000     -20.564757      -559.5955
   1   2.0000     -20.549668      -559.1849
   2   2.0000     -11.329250      -308.2846
   3   2.0000     -11.301124      -307.5192
   4   2.0000     -11.299348      -307.4709
   5   2.0000     -11.248910      -306.0984
   6   2.0000     -11.247769      -306.0674
   7   2.0000     -11.240300      -305.8641
   8   2.0000     -11.223338      -305.4026
   9   2.0000      -1.405567       -38.2474
  10   2.0000      -1.385807       -37.7097
  11   2.0000      -1.099041       -29.9064
  12   2.0000      -1.033484       -28.1225
  13   2.0000      -1.001337       -27.2478
  14   2.0000      -0.926495       -25.2112
  15   2.0000      -0.843883       -22.9632
  16   2.0000      -0.808118       -21.9900
  17   2.0000      -0.720667       -19.6104
  18   2.0000      -0.710494       -19.3335
  19   2.0000      -0.656588       -17.8667
  20   2.0000      -0.645349       -17.5608
  21   2.0000      -0.637120       -17.3369
  22   2.0000      -0.594430       -16.1752
  23   2.0000      -0.583803       -15.8861
  24   2.0000      -0.572435       -15.5768
  25   2.0000      -0.562827       -15.3153
  26   2.0000      -0.549035       -14.9400
  27   2.0000      -0.517612       -14.0849
  28   2.0000      -0.506720       -13.7886
  29   2.0000      -0.489036       -13.3073
  30   2.0000      -0.468351       -12.7445
  31   2.0000      -0.462629       -12.5888
  32   2.0000      -0.455420       -12.3926
  33   2.0000      -0.385653       -10.4942
  34   0.0000       0.125801         3.4232
  35   0.0000       0.131047         3.5660
  36   0.0000       0.161367         4.3910
  37   0.0000       0.164537         4.4773
  38   0.0000       0.174511         4.7487

MULLIKEN ATOMIC CHARGES
-----------------------
   0 C :   -0.462703
   1 C :   -0.006921
   2 C :   -0.265320
   3 C :    0.101574
   4 C :   -0.308361
   5 C :    0.147256
   6 O :   -0.343503
   7 C :    0.075737
   8 O :   -0.267464
   9 H :    0.151302
  10 H :    0.134316
  11 H :    0.149528
  12 H :    0.110769
  13 H :    0.123827
  14 H :    0.126677
  15 H :    0.123393
  16 H :    0.133114
  17 H :    0.136034
  18 H :    0.140745
Sum of atomic charges:   -0.0000000

LOEWDIN ATOMIC CHARGES
----------------------
   0 C :   -0.283507
   1 C :   -0.225937
   2 C :   -0.216686
   3 C :   -0.263457
   4 C :   -0.191911
   5 C :   -0.238226
   6 O :    0.160039
   7 C :   -0.287116
   8 O :    0.161793
   9 H :    0.129884
  10 H :    0.123609
  11 H :    0.129399
  12 H :    0.160814
  13 H :    0.142600
  14 H :    0.145742
  15 H :    0.134346
  16 H :    0.135379
  17 H :    0.141415
  18 H :    0.141818

  Mayer bond orders larger than 0.1
B(  0-C ,  1-C ) :   0.8636 B(  0-C ,  9-H ) :   0.9344 B(  0-C , 10-H ) :   0.9358
B(  0-C , 11-H ) :   0.9366 B(  1-C ,  2-C ) :   0.8944 B(  1-C ,  7-C ) :   0.8950
B(  1-C , 12-H ) :   0.9195 B(  2-C ,  3-C ) :   0.9457 B(  2-C , 13-H ) :   0.9173
B(  2-C , 14-H ) :   0.9154 B(  3-C ,  4-C ) :   0.9323 B(  3-C ,  6-O ) :   0.9024
B(  3-C , 15-H ) :   0.9206 B(  4-C ,  5-C ) :   0.9030 B(  4-C , 16-H ) :   0.9216
B(  4-C , 17-H ) :   0.9189 B(  5-C ,  6-O ) :   0.9023 B(  5-C ,  7-C ) :   0.8908
B(  5-C , 18-H ) :   0.9094 B(  7-C ,  8-O ) :   2.0257

MP2 TOTAL ENERGY:     -422.329601168 Eh
FINAL SINGLE POINT ENERGY      -422.329601167812

DIPOLE MOMENT
-------------
                                X             Y             Z
Electronic contribution:      1.37637      -2.40733       4.73171
Nuclear contribution   :     -1.69846       1.88584      -5.75438
                        -----------------------------------------
Total Dipole Moment    :     -0.32209      -0.52149      -1.02266
                        -----------------------------------------
Magnitude (a.u.)       :      1.19228
Magnitude (Debye)      :      3.03054

                             ****ORCA TERMINATED NORMALLY****
TOTAL RUN TIME: 0 days 0 hours 19 minutes 24 seconds 257 msec
