                         Program Version 3.0.3 - RELEASE   -
|  1> ! RI-MP2 RIJK def2-TZVP def2-TZVP/C def2-TZVP/JK TIGHTSCF
|  2> % maxcore 2000
|  3> % mp2 density relaxed end
|  4> *xyz 0 1
|  5>  O        0.4734856407     1.2140555888    -0.3239193364
|  6>  C        0.1033462696    -0.1006098788    -0.0143057792
|  7>  C        0.1895217387    -0.4788385404     1.5398448389
|  8>  C       -1.3390335680    -0.1235961240     1.6213741645
|  9>  C       -2.7631962183    -0.8106978093     1.6011829725
| 10>  C       -2.9353774827    -0.0649973818     0.1859094680
| 11>  C       -1.4247445245    -0.4196918509     0.1432822246
| 12>  O       -1.4651815614    -1.8752829391     0.0928431456
| 13>  C       -2.4185372586    -2.2103399472     1.1179862037
| 14>  H        0.0315765037     1.8142644560     0.2864891692
| 15>  H        0.6385530635    -0.7462631330    -0.7122891175
| 16>  H        0.4406183438    -1.5267411508     1.6943099689
| 17>  H        0.8568661438     0.1553306392     2.1288183820
| 18>  H       -1.4645461950     0.9413659689     1.8335128457
| 19>  H       -3.4913778537    -0.7010809620     2.4051697813
| 20>  H       -3.6063937843    -0.5215473167    -0.5462529237
| 21>  H       -3.1413008448     0.9994434337     0.3024405674
| 22>  H       -1.9506294880    -2.8375028212     1.8865299523
| 23>  H       -3.2696854945    -2.7509487413     0.6872255422
| 24> *
| 25>
| 26>                          ****END OF INPUT****

CARTESIAN COORDINATES (ANGSTROEM)
---------------------------------
  O      0.473486    1.214056   -0.323919
  C      0.103346   -0.100610   -0.014306
  C      0.189522   -0.478839    1.539845
  C     -1.339034   -0.123596    1.621374
  C     -2.763196   -0.810698    1.601183
  C     -2.935377   -0.064997    0.185909
  C     -1.424745   -0.419692    0.143282
  O     -1.465182   -1.875283    0.092843
  C     -2.418537   -2.210340    1.117986
  H      0.031577    1.814264    0.286489
  H      0.638553   -0.746263   -0.712289
  H      0.440618   -1.526741    1.694310
  H      0.856866    0.155331    2.128818
  H     -1.464546    0.941366    1.833513
  H     -3.491378   -0.701081    2.405170
  H     -3.606394   -0.521547   -0.546253
  H     -3.141301    0.999443    0.302441
  H     -1.950629   -2.837503    1.886530
  H     -3.269685   -2.750949    0.687226

 Total Charge           Charge          ....    0
 Multiplicity           Mult            ....    1
 Number of Electrons    NEL             ....   68
 Basis Dimension        Dim             ....  339

ORBITAL ENERGIES
----------------

  NO   OCC          E(Eh)            E(eV)
   0   2.0000     -20.563838      -559.5705
   1   2.0000     -20.549456      -559.1791
   2   2.0000     -11.296481      -307.3929
   3   2.0000     -11.281492      -306.9850
   4   2.0000     -11.275170      -306.8130
   5   2.0000     -11.258857      -306.3691
   6   2.0000     -11.246231      -306.0255
   7   2.0000     -11.236816      -305.7693
   8   2.0000     -11.229126      -305.5600
   9   2.0000      -1.389251       -37.8035
  10   2.0000      -1.369512       -37.2663
  11   2.0000      -1.141674       -31.0665
  12   2.0000      -1.055001       -28.7080
  13   2.0000      -0.959932       -26.1211
  14   2.0000      -0.880063       -23.9477
  15   2.0000      -0.846853       -23.0440
  16   2.0000      -0.789960       -21.4959
  17   2.0000      -0.754381       -20.5277
  18   2.0000      -0.710722       -19.3397
  19   2.0000      -0.666166       -18.1273
  20   2.0000      -0.637880       -17.3576
  21   2.0000      -0.618535       -16.8312
  22   2.0000      -0.609363       -16.5816
  23   2.0000      -0.585546       -15.9335
  24   2.0000      -0.571605       -15.5542
  25   2.0000      -0.540844       -14.7171
  26   2.0000      -0.525278       -14.2935
  27   2.0000      -0.510859       -13.9012
  28   2.0000      -0.485481       -13.2106
  29   2.0000      -0.471520       -12.8307
  30   2.0000      -0.448154       -12.1949
  31   2.0000      -0.443243       -12.0612
  32   2.0000      -0.407304       -11.0833
  33   2.0000      -0.363402        -9.8887
  34   0.0000       0.126872         3.4524
  35   0.0000       0.148578         4.0430
  36   0.0000       0.161442         4.3931
  37   0.0000       0.168907         4.5962
  38   0.0000       0.188162         5.1202

MULLIKEN ATOMIC CHARGES
-----------------------
   0 O :   -0.443833
   1 C :    0.059313
   2 C :   -0.231826
   3 C :   -0.203167
   4 C :   -0.087587
   5 C :   -0.231197
   6 C :    0.125480
   7 O :   -0.324993
   8 C :   -0.073377
   9 H :    0.314530
  10 H :    0.124928
  11 H :    0.128670
  12 H :    0.124965
  13 H :    0.107898
  14 H :    0.136449
  15 H :    0.125068
  16 H :    0.126280
  17 H :    0.110182
  18 H :    0.112218
Sum of atomic charges:   -0.0000000

LOEWDIN ATOMIC CHARGES
----------------------
   0 O :   -0.000168
   1 C :   -0.271366
   2 C :   -0.200177
   3 C :   -0.173650
   4 C :   -0.189296
   5 C :   -0.172697
   6 C :   -0.274976
   7 O :    0.179228
   8 C :   -0.277007
   9 H :    0.175696
  10 H :    0.137847
  11 H :    0.138434
  12 H :    0.126234
  13 H :    0.152338
  14 H :    0.134357
  15 H :    0.129229
  16 H :    0.137314
  17 H :    0.123968
  18 H :    0.124693

  Mayer bond orders larger than 0.1
B(  0-O ,  1-C ) :   0.9648 B(  0-O ,  9-H ) :   0.8388 B(  1-C ,  2-C ) :   0.9452
B(  1-C ,  6-C ) :   0.8541 B(  1-C , 10-H ) :   0.9228 B(  2-C ,  3-C ) :   0.8942
B(  2-C , 11-H ) :   0.8957 B(  2-C , 12-H ) :   0.9271 B(  3-C ,  4-C ) :   0.8579
B(  3-C ,  6-C ) :   0.8491 B(  3-C , 13-H ) :   0.9507 B(  4-C ,  5-C ) :   0.9049
B(  4-C ,  8-C ) :   0.9538 B(  4-C , 14-H ) :   0.9048 B(  5-C ,  6-C ) :   0.9481
B(  5-C , 15-H ) :   0.9154 B(  5-C , 16-H ) :   0.9228 B(  6-C ,  7-O ) :   0.9083
B(  7-O ,  8-C ) :   0.9190 B(  8-C , 17-H ) :   0.9320 B(  8-C , 18-H ) :   0.9162

MP2 TOTAL ENERGY:     -422.228540577 Eh
FINAL SINGLE POINT ENERGY      -422.228540577171

DIPOLE MOMENT
-------------
                                X             Y             Z
Electronic contribution:      1.56117       0.16846      -2.45744
Nuclear contribution   :     -2.25074       0.08587       3.32158
                        -----------------------------------------
Total Dipole Moment    :     -0.68957       0.25433       0.86414
                        -----------------------------------------
Magnitude (a.u.)       :      1.13443
Magnitude (Debye)      :      2.88349

                             ****ORCA TERMINATED NORMALLY****
TOTAL RUN TIME: 0 days 0 hours 19 minutes 34 seconds 981 msec
