                         Program Version 3.0.3 - RELEASE   -
|  1> ! RI-MP2 RIJK def2-TZVP def2-TZVP/C def2-TZVP/JK TIGHTSCF
|  2> % maxcore 2000
|  3> % mp2 density relaxed end
|  4> *xyz 0 1
|  5>  N       -0.0104874572     1.2531162426    -0.0565336312
|  6>  C       -0.0262514476    -0.1009831468    -0.0098574861
|  7>  N       -1.0394995677    -0.9027034277     0.0253057398
|  8>  C       -0.3034271380    -2.2202113977     0.0134528043
|  9>  C        0.8076862057    -2.0125735632    -1.0524621626
| 10>  C        1.2531836678    -0.9322848837    -0.0118905084
| 11>  O        2.4858114466    -0.2857769898     0.0317613652
| 12>  C        0.8094088047    -1.9845898698     1.0855204717
| 13>  O        0.4632617255    -1.5903532146     2.3702853143
| 14>  H        0.8478058423     1.6958932642     0.2336428476
| 15>  H       -0.8666894330     1.7417525660     0.1568674725
| 16>  H       -0.9601805938    -3.0859806657     0.0195648711
| 17>  H        1.5145255038    -2.8425131846    -1.1383363280
| 18>  H        0.4808052180    -1.6570879571    -2.0315025018
| 19>  H        2.7521834780    -0.0720385439    -0.8688136227
| 20>  H        1.5378090351    -2.7952190212     1.1670729670
| 21>  H       -0.3436774201    -1.0636359270     2.2848205672
| 22> *
| 23>
| 24>                          ****END OF INPUT****

CARTESIAN COORDINATES (ANGSTROEM)
---------------------------------
  N     -0.010487    1.253116   -0.056534
  C     -0.026251   -0.100983   -0.009857
  N     -1.039500   -0.902703    0.025306
  C     -0.303427   -2.220211    0.013453
  C      0.807686   -2.012574   -1.052462
  C      1.253184   -0.932285   -0.011891
  O      2.485811   -0.285777    0.031761
  C      0.809409   -1.984590    1.085520
  O      0.463262   -1.590353    2.370285
  H      0.847806    1.695893    0.233643
  H     -0.866689    1.741753    0.156867
  H     -0.960181   -3.085981    0.019565
  H      1.514526   -2.842513   -1.138336
  H      0.480805   -1.657088   -2.031503
  H      2.752183   -0.072039   -0.868814
  H      1.537809   -2.795219    1.167073
  H     -0.343677   -1.063636    2.284821

 Total Charge           Charge          ....    0
 Multiplicity           Mult            ....    1
 Number of Electrons    NEL             ....   68
 Basis Dimension        Dim             ....  327

ORBITAL ENERGIES
----------------

  NO   OCC          E(Eh)            E(eV)
   0   2.0000     -20.585154      -560.1505
   1   2.0000     -20.557959      -559.4105
   2   2.0000     -15.588685      -424.1897
   3   2.0000     -15.528103      -422.5412
   4   2.0000     -11.315528      -307.9112
   5   2.0000     -11.308909      -307.7311
   6   2.0000     -11.291902      -307.2683
   7   2.0000     -11.263786      -306.5032
   8   2.0000     -11.242626      -305.9274
   9   2.0000      -1.399770       -38.0897
  10   2.0000      -1.372904       -37.3586
  11   2.0000      -1.288321       -35.0570
  12   2.0000      -1.207484       -32.8573
  13   2.0000      -1.071308       -29.1518
  14   2.0000      -0.924703       -25.1625
  15   2.0000      -0.899575       -24.4787
  16   2.0000      -0.804520       -21.8921
  17   2.0000      -0.773111       -21.0374
  18   2.0000      -0.740629       -20.1535
  19   2.0000      -0.724982       -19.7278
  20   2.0000      -0.676718       -18.4144
  21   2.0000      -0.648018       -17.6335
  22   2.0000      -0.628366       -17.0987
  23   2.0000      -0.596798       -16.2397
  24   2.0000      -0.582285       -15.8448
  25   2.0000      -0.559939       -15.2367
  26   2.0000      -0.547444       -14.8967
  27   2.0000      -0.531258       -14.4563
  28   2.0000      -0.517847       -14.0913
  29   2.0000      -0.478762       -13.0278
  30   2.0000      -0.471664       -12.8346
  31   2.0000      -0.426811       -11.6141
  32   2.0000      -0.386597       -10.5198
  33   2.0000      -0.352330        -9.5874
  34   0.0000       0.119067         3.2400
  35   0.0000       0.144147         3.9225
  36   0.0000       0.156274         4.2524
  37   0.0000       0.171334         4.6622
  38   0.0000       0.183281         4.9873

MULLIKEN ATOMIC CHARGES
-----------------------
   0 N :   -0.508102
   1 C :   -0.022295
   2 N :   -0.238104
   3 C :   -0.009725
   4 C :   -0.286058
   5 C :    0.239309
   6 O :   -0.475416
   7 C :    0.035944
   8 O :   -0.455569
   9 H :    0.274335
  10 H :    0.262615
  11 H :    0.133546
  12 H :    0.134166
  13 H :    0.133220
  14 H :    0.334492
  15 H :    0.115380
  16 H :    0.332262
Sum of atomic charges:    0.0000000

LOEWDIN ATOMIC CHARGES
----------------------
   0 N :   -0.017844
   1 C :   -0.365417
   2 N :    0.064309
   3 C :   -0.216502
   4 C :   -0.181279
   5 C :   -0.314943
   6 O :    0.021119
   7 C :   -0.278367
   8 O :    0.008795
   9 H :    0.178980
  10 H :    0.176819
  11 H :    0.130656
  12 H :    0.139206
  13 H :    0.134612
  14 H :    0.187233
  15 H :    0.148154
  16 H :    0.184470

  Mayer bond orders larger than 0.1
B(  0-N ,  1-C ) :   1.1479 B(  0-N ,  9-H ) :   0.8562 B(  0-N , 10-H ) :   0.8624
B(  1-C ,  2-N ) :   1.8244 B(  1-C ,  5-C ) :   0.8352 B(  2-N ,  3-C ) :   0.9267
B(  3-C ,  4-C ) :   0.9094 B(  3-C ,  7-C ) :   0.9198 B(  3-C , 11-H ) :   0.9251
B(  4-C ,  5-C ) :   0.8939 B(  4-C , 12-H ) :   0.9282 B(  4-C , 13-H ) :   0.9092
B(  5-C ,  6-O ) :   0.9692 B(  5-C ,  7-C ) :   0.8071 B(  6-O , 14-H ) :   0.8315
B(  7-C ,  8-O ) :   1.0156 B(  7-C , 15-H ) :   0.9548 B(  8-O , 16-H ) :   0.8156

MP2 TOTAL ENERGY:     -454.403842864 Eh
FINAL SINGLE POINT ENERGY      -454.403842863621

DIPOLE MOMENT
-------------
                                X             Y             Z
Electronic contribution:     -0.24204       1.11113       1.55943
Nuclear contribution   :      0.68934      -0.51808      -2.37495
                        -----------------------------------------
Total Dipole Moment    :      0.44729       0.59305      -0.81552
                        -----------------------------------------
Magnitude (a.u.)       :      1.10311
Magnitude (Debye)      :      2.80387

                             ****ORCA TERMINATED NORMALLY****
TOTAL RUN TIME: 0 days 0 hours 18 minutes 27 seconds 427 msec
