                         Program Version 3.0.3 - RELEASE   -
|  1> ! RI-MP2 RIJK def2-TZVP def2-TZVP/C def2-TZVP/JK TIGHTSCF
|  2> % maxcore 2000
|  3> % mp2 density relaxed end
|  4> *xyz 0 1
|  5>  C       -0.1157026963     1.5361539866     0.0441612038
|  6>  C        0.1454146323     0.0407915329    -0.0084314944
|  7>  O        0.4068126287    -0.4184731679     1.3073473318
|  8>  C        0.6234764694    -1.8048626293     1.3842644245
|  9>  C        2.0104980979    -2.4160494257     1.0320069149
| 10>  N        2.1013588354    -3.0891226316     2.3767419570
| 11>  C        2.1095000588    -2.0245632245     3.4008945261
| 12>  C        2.8506722718    -0.7100287927     3.2914824947
| 13>  C        0.8080678388    -2.3652007793     2.7835304522
| 14>  H        0.7560401118     2.0661422864     0.4384719081
| 15>  H       -0.3314108386     1.9209596827    -0.9570611304
| 16>  H       -0.9695319716     1.7527854382     0.6922931955
| 17>  H       -0.7273390614    -0.4912901083    -0.4228752123
| 18>  H        0.9997972850    -0.1790828814    -0.6689039950
| 19>  H       -0.1770155236    -2.3368707359     0.8500308504
| 20>  H        1.9782447694    -3.1708642852     0.2440769226
| 21>  H        2.8186256066    -1.7101710727     0.8207008708
| 22>  H        2.2325041077    -2.4943380273     4.3762559022
| 23>  H        2.5538801846    -0.1269588778     2.4209826567
| 24>  H        2.6357364719    -0.1041534773     4.1777991251
| 25>  H        3.9329330165    -0.8811774641     3.2623576714
| 26>  H        0.0245734649    -2.8715383758     3.3390984943
| 27> *
| 28>
| 29>                          ****END OF INPUT****

CARTESIAN COORDINATES (ANGSTROEM)
---------------------------------
  C     -0.115703    1.536154    0.044161
  C      0.145415    0.040792   -0.008431
  O      0.406813   -0.418473    1.307347
  C      0.623476   -1.804863    1.384264
  C      2.010498   -2.416049    1.032007
  N      2.101359   -3.089123    2.376742
  C      2.109500   -2.024563    3.400895
  C      2.850672   -0.710029    3.291482
  C      0.808068   -2.365201    2.783530
  H      0.756040    2.066142    0.438472
  H     -0.331411    1.920960   -0.957061
  H     -0.969532    1.752785    0.692293
  H     -0.727339   -0.491290   -0.422875
  H      0.999797   -0.179083   -0.668904
  H     -0.177016   -2.336871    0.850031
  H      1.978245   -3.170864    0.244077
  H      2.818626   -1.710171    0.820701
  H      2.232504   -2.494338    4.376256
  H      2.553880   -0.126959    2.420983
  H      2.635736   -0.104153    4.177799
  H      3.932933   -0.881177    3.262358
  H      0.024573   -2.871538    3.339098

 Total Charge           Charge          ....    0
 Multiplicity           Mult            ....    1
 Number of Electrons    NEL             ....   70
 Basis Dimension        Dim             ....  357

ORBITAL ENERGIES
----------------

  NO   OCC          E(Eh)            E(eV)
   0   2.0000     -20.558430      -559.4233
   1   2.0000     -15.556535      -423.3148
   2   2.0000     -11.287032      -307.1358
   3   2.0000     -11.280270      -306.9518
   4   2.0000     -11.259137      -306.3767
   5   2.0000     -11.254737      -306.2570
   6   2.0000     -11.250214      -306.1339
   7   2.0000     -11.218849      -305.2804
   8   2.0000     -11.214476      -305.1614
   9   2.0000      -1.383637       -37.6507
  10   2.0000      -1.279263       -34.8105
  11   2.0000      -1.035998       -28.1910
  12   2.0000      -1.008315       -27.4377
  13   2.0000      -0.953676       -25.9508
  14   2.0000      -0.924049       -25.1446
  15   2.0000      -0.839003       -22.8304
  16   2.0000      -0.772425       -21.0188
  17   2.0000      -0.753430       -20.5019
  18   2.0000      -0.705491       -19.1974
  19   2.0000      -0.664292       -18.0763
  20   2.0000      -0.652813       -17.7639
  21   2.0000      -0.619594       -16.8600
  22   2.0000      -0.593364       -16.1463
  23   2.0000      -0.572939       -15.5905
  24   2.0000      -0.568199       -15.4615
  25   2.0000      -0.546793       -14.8790
  26   2.0000      -0.541149       -14.7254
  27   2.0000      -0.534321       -14.5396
  28   2.0000      -0.506134       -13.7726
  29   2.0000      -0.492853       -13.4112
  30   2.0000      -0.468682       -12.7535
  31   2.0000      -0.445906       -12.1337
  32   2.0000      -0.427226       -11.6254
  33   2.0000      -0.408900       -11.1267
  34   2.0000      -0.366565        -9.9747
  35   0.0000       0.133187         3.6242
  36   0.0000       0.154909         4.2153
  37   0.0000       0.157310         4.2806
  38   0.0000       0.169750         4.6191
  39   0.0000       0.189491         5.1563

MULLIKEN ATOMIC CHARGES
-----------------------
   0 C :   -0.364483
   1 C :   -0.058620
   2 O :   -0.301258
   3 C :    0.051589
   4 C :   -0.182157
   5 N :   -0.233535
   6 C :   -0.000972
   7 C :   -0.396675
   8 C :   -0.082611
   9 H :    0.130247
  10 H :    0.124624
  11 H :    0.131336
  12 H :    0.095498
  13 H :    0.096888
  14 H :    0.087396
  15 H :    0.125659
  16 H :    0.119918
  17 H :    0.112464
  18 H :    0.149200
  19 H :    0.133229
  20 H :    0.131558
  21 H :    0.130706
Sum of atomic charges:   -0.0000000

LOEWDIN ATOMIC CHARGES
----------------------
   0 C :   -0.316447
   1 C :   -0.349197
   2 O :    0.179660
   3 C :   -0.313400
   4 C :   -0.235289
   5 N :    0.110833
   6 C :   -0.272480
   7 C :   -0.297260
   8 C :   -0.175734
   9 H :    0.123731
  10 H :    0.124823
  11 H :    0.124810
  12 H :    0.117523
  13 H :    0.117481
  14 H :    0.138785
  15 H :    0.126809
  16 H :    0.124675
  17 H :    0.152589
  18 H :    0.126906
  19 H :    0.131895
  20 H :    0.126740
  21 H :    0.132547

  Mayer bond orders larger than 0.1
B(  0-C ,  1-C ) :   0.9541 B(  0-C ,  9-H ) :   0.9367 B(  0-C , 10-H ) :   0.9335
B(  0-C , 11-H ) :   0.9351 B(  1-C ,  2-O ) :   0.9037 B(  1-C , 12-H ) :   0.9208
B(  1-C , 13-H ) :   0.9249 B(  2-O ,  3-C ) :   0.9583 B(  3-C ,  4-C ) :   0.9748
B(  3-C ,  8-C ) :   0.9218 B(  3-C , 14-H ) :   0.9251 B(  4-C ,  5-N ) :   0.9408
B(  4-C , 15-H ) :   0.9166 B(  4-C , 16-H ) :   0.9277 B(  5-N ,  6-C ) :   0.9084
B(  5-N ,  8-C ) :   0.8588 B(  6-C ,  7-C ) :   0.8779 B(  6-C ,  8-C ) :   0.9522
B(  6-C , 17-H ) :   0.9336 B(  7-C , 18-H ) :   0.9327 B(  7-C , 19-H ) :   0.9296
B(  7-C , 20-H ) :   0.9349 B(  8-C , 21-H ) :   0.9015

MP2 TOTAL ENERGY:     -403.601363397 Eh
FINAL SINGLE POINT ENERGY      -403.601363397211

DIPOLE MOMENT
-------------
                                X             Y             Z
Electronic contribution:     -0.32611      -5.96043       2.84145
Nuclear contribution   :      0.06951       6.45184      -3.30863
                        -----------------------------------------
Total Dipole Moment    :     -0.25660       0.49141      -0.46719
                        -----------------------------------------
Magnitude (a.u.)       :      0.72497
Magnitude (Debye)      :      1.84273

                             ****ORCA TERMINATED NORMALLY****
TOTAL RUN TIME: 0 days 0 hours 18 minutes 50 seconds 839 msec
