                         Program Version 3.0.3 - RELEASE   -
|  1> ! RI-MP2 RIJK def2-TZVP def2-TZVP/C def2-TZVP/JK TIGHTSCF
|  2> % maxcore 2000
|  3> % mp2 density relaxed end
|  4> *xyz 0 1
|  5>  C       -0.3745314859     1.4864205665     0.0446779689
|  6>  C        0.0688127007     0.0352011427     0.0041545809
|  7>  C        1.0757965909    -0.4804014510    -1.0539852195
|  8>  O        2.0279866043     0.5139274238    -1.4084308317
|  9>  C        2.7581079876     0.8395042640    -0.2188310808
| 10>  C        2.3753564957    -0.2263256224     0.7898476730
| 11>  N        0.9395385214    -0.4955330932     1.1238685095
| 12>  C        1.6870535101    -1.3246458565     0.0952189284
| 13>  C        1.9140062959    -2.7996718622     0.1850268973
| 14>  H        0.4414828015     2.1830125972    -0.1523925032
| 15>  H       -1.1496385265     1.6645417624    -0.7084147551
| 16>  H       -0.7993912670     1.7161804968     1.0274417866
| 17>  H       -0.8149945337    -0.6134627125     0.0103353178
| 18>  H        0.7075595104    -0.9497035754    -1.9665663239
| 19>  H        3.8339637525     0.7979787935    -0.4347684766
| 20>  H        2.5209537377     1.8569495035     0.1153401646
| 21>  H        3.0367048750    -0.4209981818     1.6274067799
| 22>  H        1.0040836502    -3.3613760110    -0.0529278059
| 23>  H        2.6969093069    -3.1177749969    -0.5128291634
| 24>  H        2.2242705625    -3.0771545777     1.1966981235
| 25> *
| 26>
| 27>                          ****END OF INPUT****

CARTESIAN COORDINATES (ANGSTROEM)
---------------------------------
  C     -0.374531    1.486421    0.044678
  C      0.068813    0.035201    0.004155
  C      1.075797   -0.480401   -1.053985
  O      2.027987    0.513927   -1.408431
  C      2.758108    0.839504   -0.218831
  C      2.375356   -0.226326    0.789848
  N      0.939539   -0.495533    1.123869
  C      1.687054   -1.324646    0.095219
  C      1.914006   -2.799672    0.185027
  H      0.441483    2.183013   -0.152393
  H     -1.149639    1.664542   -0.708415
  H     -0.799391    1.716180    1.027442
  H     -0.814995   -0.613463    0.010335
  H      0.707560   -0.949704   -1.966566
  H      3.833964    0.797979   -0.434768
  H      2.520954    1.856950    0.115340
  H      3.036705   -0.420998    1.627407
  H      1.004084   -3.361376   -0.052928
  H      2.696909   -3.117775   -0.512829
  H      2.224271   -3.077155    1.196698

 Total Charge           Charge          ....    0
 Multiplicity           Mult            ....    1
 Number of Electrons    NEL             ....   68
 Basis Dimension        Dim             ....  345

ORBITAL ENERGIES
----------------

  NO   OCC          E(Eh)            E(eV)
   0   2.0000     -20.557493      -559.3978
   1   2.0000     -15.559064      -423.3837
   2   2.0000     -11.285439      -307.0924
   3   2.0000     -11.281235      -306.9780
   4   2.0000     -11.264283      -306.5167
   5   2.0000     -11.261758      -306.4480
   6   2.0000     -11.258194      -306.3510
   7   2.0000     -11.229102      -305.5594
   8   2.0000     -11.212362      -305.1039
   9   2.0000      -1.392343       -37.8876
  10   2.0000      -1.274624       -34.6843
  11   2.0000      -1.049127       -28.5482
  12   2.0000      -1.008312       -27.4376
  13   2.0000      -0.968119       -26.3439
  14   2.0000      -0.908153       -24.7121
  15   2.0000      -0.869459       -23.6592
  16   2.0000      -0.770518       -20.9669
  17   2.0000      -0.718774       -19.5588
  18   2.0000      -0.708489       -19.2790
  19   2.0000      -0.662584       -18.0298
  20   2.0000      -0.608222       -16.5505
  21   2.0000      -0.593880       -16.1603
  22   2.0000      -0.584275       -15.8989
  23   2.0000      -0.581521       -15.8240
  24   2.0000      -0.560295       -15.2464
  25   2.0000      -0.554880       -15.0991
  26   2.0000      -0.549042       -14.9402
  27   2.0000      -0.526437       -14.3251
  28   2.0000      -0.506038       -13.7700
  29   2.0000      -0.498194       -13.5565
  30   2.0000      -0.443211       -12.0604
  31   2.0000      -0.412569       -11.2266
  32   2.0000      -0.403588       -10.9822
  33   2.0000      -0.361449        -9.8355
  34   0.0000       0.134783         3.6676
  35   0.0000       0.155054         4.2192
  36   0.0000       0.166089         4.5195
  37   0.0000       0.185529         5.0485
  38   0.0000       0.192031         5.2254

MULLIKEN ATOMIC CHARGES
-----------------------
   0 C :   -0.417577
   1 C :    0.010919
   2 C :    0.066629
   3 O :   -0.327696
   4 C :   -0.040646
   5 C :   -0.130785
   6 N :   -0.251031
   7 C :    0.116911
   8 C :   -0.425798
   9 H :    0.130673
  10 H :    0.128539
  11 H :    0.142291
  12 H :    0.102432
  13 H :    0.125160
  14 H :    0.115760
  15 H :    0.105930
  16 H :    0.126301
  17 H :    0.135318
  18 H :    0.141431
  19 H :    0.145239
Sum of atomic charges:    0.0000000

LOEWDIN ATOMIC CHARGES
----------------------
   0 C :   -0.294758
   1 C :   -0.261981
   2 C :   -0.235189
   3 O :    0.168661
   4 C :   -0.275620
   5 C :   -0.219388
   6 N :    0.147156
   7 C :   -0.228269
   8 C :   -0.272633
   9 H :    0.124318
  10 H :    0.128645
  11 H :    0.130762
  12 H :    0.151110
  13 H :    0.136802
  14 H :    0.129860
  15 H :    0.121468
  16 H :    0.149459
  17 H :    0.130465
  18 H :    0.133170
  19 H :    0.135965

  Mayer bond orders larger than 0.1
B(  0-C ,  1-C ) :   0.9134 B(  0-C ,  9-H ) :   0.9318 B(  0-C , 10-H ) :   0.9318
B(  0-C , 11-H ) :   0.9383 B(  1-C ,  2-C ) :   0.9461 B(  1-C ,  6-N ) :   0.9316
B(  1-C , 12-H ) :   0.9162 B(  2-C ,  3-O ) :   0.9766 B(  2-C ,  7-C ) :   0.9185
B(  2-C , 13-H ) :   0.9247 B(  3-O ,  4-C ) :   0.9392 B(  4-C ,  5-C ) :   0.9550
B(  4-C , 14-H ) :   0.9141 B(  4-C , 15-H ) :   0.9232 B(  5-C ,  6-N ) :   0.9200
B(  5-C ,  7-C ) :   0.8739 B(  5-C , 16-H ) :   0.9355 B(  6-N ,  7-C ) :   0.8394
B(  7-C ,  8-C ) :   0.8226 B(  8-C , 17-H ) :   0.9375 B(  8-C , 18-H ) :   0.9407
B(  8-C , 19-H ) :   0.9489

MP2 TOTAL ENERGY:     -402.420691836 Eh
FINAL SINGLE POINT ENERGY      -402.420691835527

DIPOLE MOMENT
-------------
                                X             Y             Z
Electronic contribution:      1.62868       0.23326      -0.91494
Nuclear contribution   :     -1.44905      -0.49013       0.82674
                        -----------------------------------------
Total Dipole Moment    :      0.17963      -0.25686      -0.08819
                        -----------------------------------------
Magnitude (a.u.)       :      0.32562
Magnitude (Debye)      :      0.82765

                             ****ORCA TERMINATED NORMALLY****
TOTAL RUN TIME: 0 days 0 hours 20 minutes 25 seconds 775 msec
