                         Program Version 3.0.3 - RELEASE   -
|  1> ! RI-MP2 RIJK def2-TZVP def2-TZVP/C def2-TZVP/JK TIGHTSCF
|  2> % maxcore 2000
|  3> % mp2 density relaxed end
|  4> *xyz 0 1
|  5>  N        0.0747619697    -1.1432591414     0.1539314276
|  6>  C        0.0784402988     0.0082467962     0.0477739272
|  7>  C        0.0553667335     1.4252956165    -0.1309000028
|  8>  C       -0.7135021077     2.2366062541    -1.1945944447
|  9>  C        0.4671787019     3.2448774268    -1.1551278243
| 10>  C        1.0694267350     3.9364126344    -2.3142829544
| 11>  N        0.4639655889     4.6939526023    -1.1987924503
| 12>  C        1.1546382535     2.4233955187    -0.0817966980
| 13>  O        0.2343370524     2.2768613754     1.0041139319
| 14>  H       -0.8135782567     1.7231852500    -2.1528519781
| 15>  H       -1.6857976443     2.5960552123    -0.8505366242
| 16>  H        2.1481223752     4.0369916076    -2.3987152901
| 17>  H        0.5429144920     3.8775452254    -3.2636888892
| 18>  H       -0.4559770037     5.0441771030    -1.4542636343
| 19>  H        2.2084645914     2.2935652387     0.1332759737
| 20> *
| 21>
| 22>                          ****END OF INPUT****

CARTESIAN COORDINATES (ANGSTROEM)
---------------------------------
  N      0.074762   -1.143259    0.153931
  C      0.078440    0.008247    0.047774
  C      0.055367    1.425296   -0.130900
  C     -0.713502    2.236606   -1.194594
  C      0.467179    3.244877   -1.155128
  C      1.069427    3.936413   -2.314283
  N      0.463966    4.693953   -1.198792
  C      1.154638    2.423396   -0.081797
  O      0.234337    2.276861    1.004114
  H     -0.813578    1.723185   -2.152852
  H     -1.685798    2.596055   -0.850537
  H      2.148122    4.036992   -2.398715
  H      0.542914    3.877545   -3.263689
  H     -0.455977    5.044177   -1.454264
  H      2.208465    2.293565    0.133276

 Total Charge           Charge          ....    0
 Multiplicity           Mult            ....    1
 Number of Electrons    NEL             ....   64
 Basis Dimension        Dim             ....  315

ORBITAL ENERGIES
----------------

  NO   OCC          E(Eh)            E(eV)
   0   2.0000     -20.610604      -560.8431
   1   2.0000     -15.590321      -424.2342
   2   2.0000     -15.582756      -424.0284
   3   2.0000     -11.350504      -308.8629
   4   2.0000     -11.327842      -308.2463
   5   2.0000     -11.303390      -307.5809
   6   2.0000     -11.290416      -307.2278
   7   2.0000     -11.282705      -307.0180
   8   2.0000     -11.275127      -306.8118
   9   2.0000      -1.463495       -39.8237
  10   2.0000      -1.291180       -35.1348
  11   2.0000      -1.232828       -33.5470
  12   2.0000      -1.101338       -29.9689
  13   2.0000      -0.963818       -26.2268
  14   2.0000      -0.929204       -25.2849
  15   2.0000      -0.906915       -24.6784
  16   2.0000      -0.787837       -21.4381
  17   2.0000      -0.769988       -20.9524
  18   2.0000      -0.696687       -18.9578
  19   2.0000      -0.683979       -18.6120
  20   2.0000      -0.635005       -17.2794
  21   2.0000      -0.618527       -16.8310
  22   2.0000      -0.604866       -16.4593
  23   2.0000      -0.573255       -15.5991
  24   2.0000      -0.549490       -14.9524
  25   2.0000      -0.521763       -14.1979
  26   2.0000      -0.506429       -13.7806
  27   2.0000      -0.502161       -13.6645
  28   2.0000      -0.487143       -13.2558
  29   2.0000      -0.467291       -12.7156
  30   2.0000      -0.418611       -11.3910
  31   2.0000      -0.413392       -11.2490
  32   0.0000       0.122392         3.3304
  33   0.0000       0.132959         3.6180
  34   0.0000       0.140851         3.8328
  35   0.0000       0.152641         4.1536
  36   0.0000       0.156056         4.2465

MULLIKEN ATOMIC CHARGES
-----------------------
   0 N :   -0.037444
   1 C :   -0.234144
   2 C :    0.288975
   3 C :   -0.195618
   4 C :    0.101349
   5 C :   -0.233042
   6 N :   -0.384901
   7 C :    0.032448
   8 O :   -0.287173
   9 H :    0.147680
  10 H :    0.139381
  11 H :    0.132462
  12 H :    0.137241
  13 H :    0.229160
  14 H :    0.163627
Sum of atomic charges:   -0.0000000

LOEWDIN ATOMIC CHARGES
----------------------
   0 N :    0.089842
   1 C :   -0.145243
   2 C :   -0.268769
   3 C :   -0.134085
   4 C :   -0.277221
   5 C :   -0.230019
   6 N :    0.018214
   7 C :   -0.150002
   8 O :    0.233114
   9 H :    0.148402
  10 H :    0.143329
  11 H :    0.130093
  12 H :    0.126028
  13 H :    0.172411
  14 H :    0.143905

  Mayer bond orders larger than 0.1
B(  0-N ,  1-C ) :   2.8501 B(  1-C ,  2-C ) :   0.9171 B(  2-C ,  3-C ) :   0.9039
B(  2-C ,  7-C ) :   0.8739 B(  2-C ,  8-O ) :   0.9103 B(  3-C ,  4-C ) :   0.9428
B(  3-C ,  9-H ) :   0.9063 B(  3-C , 10-H ) :   0.9009 B(  4-C ,  5-C ) :   0.9137
B(  4-C ,  6-N ) :   0.8828 B(  4-C ,  7-C ) :   0.8803 B(  5-C ,  6-N ) :   0.9679
B(  5-C , 11-H ) :   0.9114 B(  5-C , 12-H ) :   0.9213 B(  6-N , 13-H ) :   0.8656
B(  7-C ,  8-O ) :   0.8928 B(  7-C , 14-H ) :   0.9138

MP2 TOTAL ENERGY:     -416.030625861 Eh
FINAL SINGLE POINT ENERGY      -416.030625861099

DIPOLE MOMENT
-------------
                                X             Y             Z
Electronic contribution:     -0.12294      -5.09964       4.93178
Nuclear contribution   :      0.04232       6.12896      -6.27474
                        -----------------------------------------
Total Dipole Moment    :     -0.08062       1.02932      -1.34296
                        -----------------------------------------
Magnitude (a.u.)       :      1.69397
Magnitude (Debye)      :      4.30573

                             ****ORCA TERMINATED NORMALLY****
TOTAL RUN TIME: 0 days 0 hours 14 minutes 56 seconds 540 msec
