                         Program Version 3.0.3 - RELEASE   -
|  1> ! RI-MP2 RIJK def2-TZVP def2-TZVP/C def2-TZVP/JK TIGHTSCF
|  2> % maxcore 2000
|  3> % mp2 density relaxed end
|  4> *xyz 0 1
|  5>  C       -0.0539748692     1.5733280673     0.0023829053
|  6>  C        0.0004428297     0.0811159737    -0.0350541058
|  7>  C       -0.0760341800    -0.7741490382    -1.0954181975
|  8>  N        0.0244847013    -2.0614060253    -0.6115912914
|  9>  C       -0.0100290460    -3.2223223026    -1.3797473673
| 10>  O        0.0774308073    -4.3399541952    -0.9557269401
| 11>  N        0.1662787310    -2.0786137154     0.7506998768
| 12>  C        0.1507764857    -0.8076176517     1.0802951049
| 13>  O        0.2662713661    -0.3914785056     2.3503105736
| 14>  H        0.8600889334     1.9934106230     0.4357296533
| 15>  H       -0.1752443155     1.9890509826    -1.0009368350
| 16>  H       -0.8883710511     1.9249883648     0.6187324778
| 17>  H       -0.1928600785    -0.5860465741    -2.1517239445
| 18>  H       -0.1307420797    -2.9644876746    -2.4490760549
| 19>  H        0.3536004855    -1.1768769986     2.9071658848
| 20> *
| 21>
| 22>                          ****END OF INPUT****

CARTESIAN COORDINATES (ANGSTROEM)
---------------------------------
  C     -0.053975    1.573328    0.002383
  C      0.000443    0.081116   -0.035054
  C     -0.076034   -0.774149   -1.095418
  N      0.024485   -2.061406   -0.611591
  C     -0.010029   -3.222322   -1.379747
  O      0.077431   -4.339954   -0.955727
  N      0.166279   -2.078614    0.750700
  C      0.150776   -0.807618    1.080295
  O      0.266271   -0.391479    2.350311
  H      0.860089    1.993411    0.435730
  H     -0.175244    1.989051   -1.000937
  H     -0.888371    1.924988    0.618732
  H     -0.192860   -0.586047   -2.151724
  H     -0.130742   -2.964488   -2.449076
  H      0.353600   -1.176877    2.907166

 Total Charge           Charge          ....    0
 Multiplicity           Mult            ....    1
 Number of Electrons    NEL             ....   66
 Basis Dimension        Dim             ....  315

ORBITAL ENERGIES
----------------

  NO   OCC          E(Eh)            E(eV)
   0   2.0000     -20.610679      -560.8451
   1   2.0000     -20.553976      -559.3021
   2   2.0000     -15.658011      -426.0761
   3   2.0000     -15.592712      -424.2993
   4   2.0000     -11.374365      -309.5122
   5   2.0000     -11.341986      -308.6311
   6   2.0000     -11.302972      -307.5695
   7   2.0000     -11.254571      -306.2524
   8   2.0000     -11.243592      -305.9537
   9   2.0000      -1.446981       -39.3744
  10   2.0000      -1.419856       -38.6362
  11   2.0000      -1.367209       -37.2037
  12   2.0000      -1.138423       -30.9781
  13   2.0000      -1.103478       -30.0272
  14   2.0000      -0.976765       -26.5791
  15   2.0000      -0.894671       -24.3452
  16   2.0000      -0.830903       -22.6100
  17   2.0000      -0.793265       -21.5858
  18   2.0000      -0.750292       -20.4165
  19   2.0000      -0.702142       -19.1062
  20   2.0000      -0.667776       -18.1711
  21   2.0000      -0.653502       -17.7827
  22   2.0000      -0.633449       -17.2370
  23   2.0000      -0.604581       -16.4515
  24   2.0000      -0.599727       -16.3194
  25   2.0000      -0.580000       -15.7826
  26   2.0000      -0.571312       -15.5462
  27   2.0000      -0.552471       -15.0335
  28   2.0000      -0.520187       -14.1550
  29   2.0000      -0.477725       -12.9996
  30   2.0000      -0.456608       -12.4249
  31   2.0000      -0.372595       -10.1388
  32   2.0000      -0.356609        -9.7038
  33   0.0000       0.099527         2.7083
  34   0.0000       0.129079         3.5124
  35   0.0000       0.142430         3.8757
  36   0.0000       0.157243         4.2788
  37   0.0000       0.165086         4.4922

MULLIKEN ATOMIC CHARGES
-----------------------
   0 C :   -0.398512
   1 C :   -0.062698
   2 C :   -0.121322
   3 N :    0.105313
   4 C :    0.133804
   5 O :   -0.257115
   6 N :   -0.248005
   7 C :    0.221059
   8 O :   -0.420857
   9 H :    0.152961
  10 H :    0.139129
  11 H :    0.152971
  12 H :    0.162338
  13 H :    0.093966
  14 H :    0.346968
Sum of atomic charges:    0.0000000

LOEWDIN ATOMIC CHARGES
----------------------
   0 C :   -0.263150
   1 C :   -0.185459
   2 C :   -0.172410
   3 N :    0.191678
   4 C :   -0.362375
   5 O :    0.137712
   6 N :    0.070597
   7 C :   -0.386132
   8 O :    0.092636
   9 H :    0.137531
  10 H :    0.132837
  11 H :    0.137539
  12 H :    0.144297
  13 H :    0.119238
  14 H :    0.205461

  Mayer bond orders larger than 0.1
B(  0-C ,  1-C ) :   0.8759 B(  0-C ,  9-H ) :   0.9305 B(  0-C , 10-H ) :   0.9448
B(  0-C , 11-H ) :   0.9306 B(  1-C ,  2-C ) :   1.5372 B(  1-C ,  7-C ) :   1.1942
B(  2-C ,  3-N ) :   1.1357 B(  2-C , 12-H ) :   0.8905 B(  3-N ,  4-C ) :   0.9578
B(  3-N ,  6-N ) :   0.9533 B(  4-C ,  5-O ) :   2.0122 B(  4-C , 13-H ) :   0.9249
B(  6-N ,  7-C ) :   1.5547 B(  7-C ,  8-O ) :   1.1500 B(  8-O , 14-H ) :   0.8137

MP2 TOTAL ENERGY:     -453.249664863 Eh
FINAL SINGLE POINT ENERGY      -453.249664862838

DIPOLE MOMENT
-------------
                                X             Y             Z
Electronic contribution:      0.41158      -7.34387       1.20155
Nuclear contribution   :     -0.52217       8.67163      -1.76283
                        -----------------------------------------
Total Dipole Moment    :     -0.11059       1.32775      -0.56127
                        -----------------------------------------
Magnitude (a.u.)       :      1.44575
Magnitude (Debye)      :      3.67480

                             ****ORCA TERMINATED NORMALLY****
TOTAL RUN TIME: 0 days 0 hours 13 minutes 43 seconds 714 msec
