                         Program Version 3.0.3 - RELEASE   -
|  1> ! RI-MP2 RIJK def2-TZVP def2-TZVP/C def2-TZVP/JK TIGHTSCF
|  2> % maxcore 2000
|  3> % mp2 density relaxed end
|  4> *xyz 0 1
|  5>  C       -0.0659422819     1.3957589472    -0.0070110213
|  6>  N       -0.0073967198    -0.0313992868     0.2172806909
|  7>  C       -1.1339214755    -0.8745166411    -0.1368685322
|  8>  C       -0.5922583928    -2.2780213697     0.1667573498
|  9>  N        0.8471413596    -2.0919845865    -0.0190823744
| 10>  C        1.7288582379    -3.1240234922    -0.1825784054
| 11>  O        2.9313213310    -3.0216908273    -0.2906370308
| 12>  C        1.1922587112    -0.7088336527     0.0448595206
| 13>  N        2.3310631520    -0.1602070441    -0.0292998603
| 14>  H        0.8894339533     1.8270381957     0.2924823530
| 15>  H       -0.2417532490     1.6414436189    -1.0658038028
| 16>  H       -0.8712744764     1.8336054379     0.5910794804
| 17>  H       -2.0175628288    -0.6339939001     0.4615737832
| 18>  H       -1.4050645211    -0.7720386882    -1.2013064332
| 19>  H       -0.8166695455    -2.5686049568     1.1998188974
| 20>  H       -0.9863220057    -3.0419131987    -0.5072505330
| 21>  H        1.2066351510    -4.1006302500    -0.2143732005
| 22>  H        3.0592098404    -0.8662507755    -0.1030593315
| 23> *
| 24>
| 25>                          ****END OF INPUT****

CARTESIAN COORDINATES (ANGSTROEM)
---------------------------------
  C     -0.065942    1.395759   -0.007011
  N     -0.007397   -0.031399    0.217281
  C     -1.133921   -0.874517   -0.136869
  C     -0.592258   -2.278021    0.166757
  N      0.847141   -2.091985   -0.019082
  C      1.728858   -3.124023   -0.182578
  O      2.931321   -3.021691   -0.290637
  C      1.192259   -0.708834    0.044860
  N      2.331063   -0.160207   -0.029300
  H      0.889434    1.827038    0.292482
  H     -0.241753    1.641444   -1.065804
  H     -0.871274    1.833605    0.591079
  H     -2.017563   -0.633994    0.461574
  H     -1.405065   -0.772039   -1.201306
  H     -0.816670   -2.568605    1.199819
  H     -0.986322   -3.041913   -0.507251
  H      1.206635   -4.100630   -0.214373
  H      3.059210   -0.866251   -0.103059

 Total Charge           Charge          ....    0
 Multiplicity           Mult            ....    1
 Number of Electrons    NEL             ....   68
 Basis Dimension        Dim             ....  333

ORBITAL ENERGIES
----------------

  NO   OCC          E(Eh)            E(eV)
   0   2.0000     -20.545535      -559.0724
   1   2.0000     -15.617511      -424.9741
   2   2.0000     -15.582524      -424.0220
   3   2.0000     -15.511642      -422.0932
   4   2.0000     -11.370188      -309.3985
   5   2.0000     -11.347779      -308.7888
   6   2.0000     -11.299334      -307.4705
   7   2.0000     -11.288298      -307.1702
   8   2.0000     -11.256038      -306.2924
   9   2.0000      -1.408062       -38.3153
  10   2.0000      -1.339443       -36.4481
  11   2.0000      -1.226013       -33.3615
  12   2.0000      -1.176337       -32.0098
  13   2.0000      -1.033145       -28.1133
  14   2.0000      -0.962479       -26.1904
  15   2.0000      -0.904245       -24.6058
  16   2.0000      -0.852987       -23.2110
  17   2.0000      -0.750261       -20.4156
  18   2.0000      -0.721659       -19.6373
  19   2.0000      -0.708909       -19.2904
  20   2.0000      -0.668232       -18.1835
  21   2.0000      -0.639876       -17.4119
  22   2.0000      -0.623483       -16.9658
  23   2.0000      -0.619596       -16.8601
  24   2.0000      -0.610790       -16.6204
  25   2.0000      -0.586701       -15.9650
  26   2.0000      -0.554673       -15.0934
  27   2.0000      -0.542669       -14.7668
  28   2.0000      -0.525766       -14.3068
  29   2.0000      -0.504487       -13.7278
  30   2.0000      -0.466336       -12.6896
  31   2.0000      -0.415357       -11.3024
  32   2.0000      -0.394982       -10.7480
  33   2.0000      -0.352905        -9.6030
  34   0.0000       0.120430         3.2771
  35   0.0000       0.128349         3.4926
  36   0.0000       0.142969         3.8904
  37   0.0000       0.167516         4.5584
  38   0.0000       0.172288         4.6882

MULLIKEN ATOMIC CHARGES
-----------------------
   0 C :   -0.314973
   1 N :   -0.127238
   2 C :   -0.139182
   3 C :   -0.171704
   4 N :   -0.075402
   5 C :    0.166488
   6 O :   -0.351133
   7 C :    0.142449
   8 N :   -0.424741
   9 H :    0.182016
  10 H :    0.121217
  11 H :    0.133869
  12 H :    0.135774
  13 H :    0.107678
  14 H :    0.129170
  15 H :    0.143021
  16 H :    0.094047
  17 H :    0.248644
Sum of atomic charges:   -0.0000000

LOEWDIN ATOMIC CHARGES
----------------------
   0 C :   -0.295441
   1 N :    0.146499
   2 C :   -0.249530
   3 C :   -0.229144
   4 N :    0.203700
   5 C :   -0.386354
   6 O :    0.080276
   7 C :   -0.388911
   8 N :   -0.071296
   9 H :    0.136817
  10 H :    0.113137
  11 H :    0.118065
  12 H :    0.135291
  13 H :    0.127209
  14 H :    0.135355
  15 H :    0.136739
  16 H :    0.118566
  17 H :    0.169020

  Mayer bond orders larger than 0.1
B(  0-C ,  1-N ) :   0.8936 B(  0-C ,  9-H ) :   0.9228 B(  0-C , 10-H ) :   0.9301
B(  0-C , 11-H ) :   0.9327 B(  1-N ,  2-C ) :   0.9050 B(  1-N ,  7-C ) :   1.1084
B(  2-C ,  3-C ) :   0.9553 B(  2-C , 12-H ) :   0.9314 B(  2-C , 13-H ) :   0.9097
B(  3-C ,  4-N ) :   0.8958 B(  3-C , 14-H ) :   0.9169 B(  3-C , 15-H ) :   0.9248
B(  4-N ,  5-C ) :   1.0986 B(  4-N ,  7-C ) :   0.9537 B(  5-C ,  6-O ) :   1.8699
B(  5-C , 16-H ) :   0.9306 B(  7-C ,  8-N ) :   1.9524 B(  8-N , 17-H ) :   0.8473

MP2 TOTAL ENERGY:     -434.585517923 Eh
FINAL SINGLE POINT ENERGY      -434.585517922638

DIPOLE MOMENT
-------------
                                X             Y             Z
Electronic contribution:      5.78123      -4.32415       0.24863
Nuclear contribution   :     -7.96006       3.95270      -0.23547
                        -----------------------------------------
Total Dipole Moment    :     -2.17883      -0.37145       0.01316
                        -----------------------------------------
Magnitude (a.u.)       :      2.21030
Magnitude (Debye)      :      5.61815

                             ****ORCA TERMINATED NORMALLY****
TOTAL RUN TIME: 0 days 0 hours 18 minutes 14 seconds 373 msec
