                         Program Version 3.0.3 - RELEASE   -
|  1> ! RI-MP2 RIJK def2-TZVP def2-TZVP/C def2-TZVP/JK TIGHTSCF
|  2> % maxcore 2000
|  3> % mp2 density relaxed end
|  4> *xyz 0 1
|  5>  C       -0.1014849670     1.5111073495     0.0270088254
|  6>  C       -0.0055979690     0.0216636092    -0.0018324384
|  7>  C        0.9026430106    -0.9636905013    -0.7840430705
|  8>  C       -0.1682171192    -1.9916896620    -0.7929801680
|  9>  N        0.8418122105    -1.9817441940     0.3234954580
| 10>  C       -0.0812372149    -1.0268622337     1.0917651353
| 11>  C       -0.1533804401    -0.9646551692     2.5778717350
| 12>  C       -1.1224637876    -1.0505381020    -0.0111143318
| 13>  C       -2.6069597903    -0.8941947769     0.0062130367
| 14>  H        0.8417237787     1.9692374559     0.3482122034
| 15>  H       -0.3506930477     1.9195856591    -0.9597724986
| 16>  H       -0.8796263275     1.8398093120     0.7245672615
| 17>  H        1.7853308272    -0.8344991521    -1.4010813257
| 18>  H       -0.3279309886    -2.8631824468    -1.4187236515
| 19>  H        0.8201937445    -0.7026338402     3.0074715922
| 20>  H       -0.8799371990    -0.2112492091     2.9000399060
| 21>  H       -0.4578618549    -1.9305219684     2.9967382320
| 22>  H       -2.9096937729    -0.1090366391     0.7076562522
| 23>  H       -2.9964050956    -0.6204397285    -0.9817538773
| 24>  H       -3.1058997771    -1.8205152624     0.3155426142
| 25> *
| 26>
| 27>                          ****END OF INPUT****

CARTESIAN COORDINATES (ANGSTROEM)
---------------------------------
  C     -0.101485    1.511107    0.027009
  C     -0.005598    0.021664   -0.001832
  C      0.902643   -0.963691   -0.784043
  C     -0.168217   -1.991690   -0.792980
  N      0.841812   -1.981744    0.323495
  C     -0.081237   -1.026862    1.091765
  C     -0.153380   -0.964655    2.577872
  C     -1.122464   -1.050538   -0.011114
  C     -2.606960   -0.894195    0.006213
  H      0.841724    1.969237    0.348212
  H     -0.350693    1.919586   -0.959772
  H     -0.879626    1.839809    0.724567
  H      1.785331   -0.834499   -1.401081
  H     -0.327931   -2.863182   -1.418724
  H      0.820194   -0.702634    3.007472
  H     -0.879937   -0.211249    2.900040
  H     -0.457862   -1.930522    2.996738
  H     -2.909694   -0.109037    0.707656
  H     -2.996405   -0.620440   -0.981754
  H     -3.105900   -1.820515    0.315543

 Total Charge           Charge          ....    0
 Multiplicity           Mult            ....    1
 Number of Electrons    NEL             ....   66
 Basis Dimension        Dim             ....  345

ORBITAL ENERGIES
----------------

  NO   OCC          E(Eh)            E(eV)
   0   2.0000     -15.550088      -423.1394
   1   2.0000     -11.260550      -306.4151
   2   2.0000     -11.257708      -306.3378
   3   2.0000     -11.256973      -306.3178
   4   2.0000     -11.239530      -305.8432
   5   2.0000     -11.238975      -305.8280
   6   2.0000     -11.227630      -305.5193
   7   2.0000     -11.227628      -305.5193
   8   2.0000     -11.222177      -305.3710
   9   2.0000      -1.332168       -36.2501
  10   2.0000      -1.079994       -29.3881
  11   2.0000      -1.003992       -27.3200
  12   2.0000      -0.998365       -27.1669
  13   2.0000      -0.933164       -25.3927
  14   2.0000      -0.880482       -23.9591
  15   2.0000      -0.853121       -23.2146
  16   2.0000      -0.687755       -18.7148
  17   2.0000      -0.683890       -18.6096
  18   2.0000      -0.652908       -17.7665
  19   2.0000      -0.637561       -17.3489
  20   2.0000      -0.588121       -16.0036
  21   2.0000      -0.587197       -15.9785
  22   2.0000      -0.566216       -15.4075
  23   2.0000      -0.558806       -15.2059
  24   2.0000      -0.555510       -15.1162
  25   2.0000      -0.553313       -15.0564
  26   2.0000      -0.531553       -14.4643
  27   2.0000      -0.524947       -14.2845
  28   2.0000      -0.464720       -12.6457
  29   2.0000      -0.426187       -11.5972
  30   2.0000      -0.412118       -11.2143
  31   2.0000      -0.348757        -9.4902
  32   2.0000      -0.318015        -8.6536
  33   0.0000       0.124454         3.3866
  34   0.0000       0.160876         4.3777
  35   0.0000       0.165681         4.5084
  36   0.0000       0.179696         4.8898
  37   0.0000       0.185992         5.0611

MULLIKEN ATOMIC CHARGES
-----------------------
   0 C :   -0.407644
   1 C :    0.063348
   2 C :   -0.114817
   3 C :   -0.114865
   4 N :   -0.160372
   5 C :   -0.011003
   6 C :   -0.426536
   7 C :    0.063381
   8 C :   -0.407641
   9 H :    0.143544
  10 H :    0.139551
  11 H :    0.131881
  12 H :    0.135740
  13 H :    0.135738
  14 H :    0.143270
  15 H :    0.128171
  16 H :    0.143279
  17 H :    0.131878
  18 H :    0.139551
  19 H :    0.143547
Sum of atomic charges:    0.0000000

LOEWDIN ATOMIC CHARGES
----------------------
   0 C :   -0.277314
   1 C :   -0.148006
   2 C :   -0.145460
   3 C :   -0.145460
   4 N :    0.150463
   5 C :   -0.183663
   6 C :   -0.272506
   7 C :   -0.148012
   8 C :   -0.277314
   9 H :    0.131500
  10 H :    0.130461
  11 H :    0.132638
  12 H :    0.128676
  13 H :    0.128675
  14 H :    0.133714
  15 H :    0.133285
  16 H :    0.133725
  17 H :    0.132637
  18 H :    0.130462
  19 H :    0.131499

  Mayer bond orders larger than 0.1
B(  0-C ,  1-C ) :   0.8265 B(  0-C ,  9-H ) :   0.9435 B(  0-C , 10-H ) :   0.9391
B(  0-C , 11-H ) :   0.9441 B(  1-C ,  2-C ) :   0.8730 B(  1-C ,  5-C ) :   0.8757
B(  1-C ,  7-C ) :   0.7638 B(  2-C ,  3-C ) :   0.9935 B(  2-C ,  4-N ) :   0.9425
B(  2-C , 12-H ) :   0.9077 B(  3-C ,  4-N ) :   0.9425 B(  3-C ,  7-C ) :   0.8730
B(  3-C , 13-H ) :   0.9077 B(  4-N ,  5-C ) :   1.0084 B(  5-C ,  6-C ) :   0.8692
B(  5-C ,  7-C ) :   0.8756 B(  6-C , 14-H ) :   0.9398 B(  6-C , 15-H ) :   0.9321
B(  6-C , 16-H ) :   0.9398 B(  7-C ,  8-C ) :   0.8265 B(  8-C , 17-H ) :   0.9441
B(  8-C , 18-H ) :   0.9391 B(  8-C , 19-H ) :   0.9435

MP2 TOTAL ENERGY:     -365.239254824 Eh
FINAL SINGLE POINT ENERGY      -365.239254824211

DIPOLE MOMENT
-------------
                                X             Y             Z
Electronic contribution:      4.18082      -4.32983      -2.87846
Nuclear contribution   :     -4.79631       4.97188       2.77071
                        -----------------------------------------
Total Dipole Moment    :     -0.61549       0.64205      -0.10775
                        -----------------------------------------
Magnitude (a.u.)       :      0.89592
Magnitude (Debye)      :      2.27724

                             ****ORCA TERMINATED NORMALLY****
TOTAL RUN TIME: 0 days 0 hours 20 minutes 55 seconds 413 msec
