                         Program Version 3.0.3 - RELEASE   -
|  1> ! RI-MP2 RIJK def2-TZVP def2-TZVP/C def2-TZVP/JK TIGHTSCF
|  2> % maxcore 2000
|  3> % mp2 density relaxed end
|  4> *xyz 0 1
|  5>  C       -0.0301277044     1.5944483599    -0.0004469971
|  6>  C        0.0296135401     0.0631361294     0.0284579018
|  7>  C        0.7901120061    -0.5613664251    -1.1735484210
|  8>  C        1.5513491699    -1.7906698405    -0.6147872524
|  9>  C        2.9264768562    -1.9876260682    -1.2469729635
| 10>  O        3.5001274467    -3.1638536332    -0.6937783071
| 11>  C        1.5897663248    -1.5090781553     0.8711626488
| 12>  C        0.7742332497    -0.5146181046     1.2138718681
| 13>  H        0.9781327103     2.0234873312    -0.0010509739
| 14>  H       -0.5496943673     1.9522966820    -0.8958877277
| 15>  H       -0.5619559863     1.9886297728     0.8722591969
| 16>  H       -1.0062527525    -0.3105639225     0.0440824347
| 17>  H        0.1302780825    -0.8133396073    -2.0081379737
| 18>  H        1.5171750690     0.1711378194    -1.5489150834
| 19>  H        0.9871554886    -2.7173114315    -0.7977889194
| 20>  H        2.8217265500    -2.0722306353    -2.3412240403
| 21>  H        3.5512243666    -1.1031382733    -1.0410905211
| 22>  H        4.3883876648    -3.2624474205    -1.0481468921
| 23>  H        2.2015144295    -2.0957152137     1.5462983454
| 24>  H        0.6122070556    -0.1559696737     2.2257658970
| 25> *
| 26>
| 27>                          ****END OF INPUT****

CARTESIAN COORDINATES (ANGSTROEM)
---------------------------------
  C     -0.030128    1.594448   -0.000447
  C      0.029614    0.063136    0.028458
  C      0.790112   -0.561366   -1.173548
  C      1.551349   -1.790670   -0.614787
  C      2.926477   -1.987626   -1.246973
  O      3.500127   -3.163854   -0.693778
  C      1.589766   -1.509078    0.871163
  C      0.774233   -0.514618    1.213872
  H      0.978133    2.023487   -0.001051
  H     -0.549694    1.952297   -0.895888
  H     -0.561956    1.988630    0.872259
  H     -1.006253   -0.310564    0.044082
  H      0.130278   -0.813340   -2.008138
  H      1.517175    0.171138   -1.548915
  H      0.987155   -2.717311   -0.797789
  H      2.821727   -2.072231   -2.341224
  H      3.551224   -1.103138   -1.041091
  H      4.388388   -3.262447   -1.048147
  H      2.201514   -2.095715    1.546298
  H      0.612207   -0.155970    2.225766

 Total Charge           Charge          ....    0
 Multiplicity           Mult            ....    1
 Number of Electrons    NEL             ....   62
 Basis Dimension        Dim             ....  320

ORBITAL ENERGIES
----------------

  NO   OCC          E(Eh)            E(eV)
   0   2.0000     -20.554545      -559.3176
   1   2.0000     -11.272966      -306.7530
   2   2.0000     -11.227133      -305.5058
   3   2.0000     -11.224161      -305.4249
   4   2.0000     -11.218168      -305.2619
   5   2.0000     -11.215589      -305.1917
   6   2.0000     -11.213562      -305.1365
   7   2.0000     -11.212113      -305.0971
   8   2.0000      -1.358575       -36.9687
   9   2.0000      -1.136137       -30.9159
  10   2.0000      -1.020741       -27.7758
  11   2.0000      -0.978686       -26.6314
  12   2.0000      -0.914068       -24.8731
  13   2.0000      -0.846235       -23.0272
  14   2.0000      -0.768512       -20.9123
  15   2.0000      -0.718536       -19.5524
  16   2.0000      -0.694556       -18.8998
  17   2.0000      -0.662535       -18.0285
  18   2.0000      -0.638742       -17.3811
  19   2.0000      -0.608474       -16.5574
  20   2.0000      -0.575485       -15.6597
  21   2.0000      -0.562649       -15.3104
  22   2.0000      -0.538907       -14.6644
  23   2.0000      -0.513710       -13.9788
  24   2.0000      -0.490843       -13.3565
  25   2.0000      -0.482385       -13.1264
  26   2.0000      -0.481326       -13.0976
  27   2.0000      -0.466867       -12.7041
  28   2.0000      -0.453617       -12.3435
  29   2.0000      -0.438069       -11.9205
  30   2.0000      -0.339819        -9.2469
  31   0.0000       0.135801         3.6953
  32   0.0000       0.140544         3.8244
  33   0.0000       0.160281         4.3615
  34   0.0000       0.167579         4.5601
  35   0.0000       0.175532         4.7765

MULLIKEN ATOMIC CHARGES
-----------------------
   0 C :   -0.415321
   1 C :    0.074852
   2 C :   -0.339437
   3 C :    0.087038
   4 C :   -0.095511
   5 O :   -0.472144
   6 C :   -0.213915
   7 C :   -0.199398
   8 H :    0.124028
   9 H :    0.130183
  10 H :    0.129221
  11 H :    0.092485
  12 H :    0.126598
  13 H :    0.109746
  14 H :    0.094281
  15 H :    0.100047
  16 H :    0.095663
  17 H :    0.315084
  18 H :    0.134342
  19 H :    0.122156
Sum of atomic charges:    0.0000000

LOEWDIN ATOMIC CHARGES
----------------------
   0 C :   -0.296903
   1 C :   -0.256449
   2 C :   -0.191826
   3 C :   -0.237364
   4 C :   -0.331526
   5 O :   -0.048329
   6 C :   -0.134258
   7 C :   -0.142409
   8 H :    0.122326
   9 H :    0.122735
  10 H :    0.122255
  11 H :    0.153480
  12 H :    0.132969
  13 H :    0.142313
  14 H :    0.158188
  15 H :    0.116989
  16 H :    0.116838
  17 H :    0.171889
  18 H :    0.141746
  19 H :    0.137337

  Mayer bond orders larger than 0.1
B(  0-C ,  1-C ) :   0.8966 B(  0-C ,  8-H ) :   0.9345 B(  0-C ,  9-H ) :   0.9391
B(  0-C , 10-H ) :   0.9404 B(  1-C ,  2-C ) :   0.9300 B(  1-C ,  7-C ) :   0.8994
B(  1-C , 11-H ) :   0.9161 B(  2-C ,  3-C ) :   0.9170 B(  2-C , 12-H ) :   0.9259
B(  2-C , 13-H ) :   0.9274 B(  3-C ,  4-C ) :   0.9070 B(  3-C ,  6-C ) :   0.9093
B(  3-C , 14-H ) :   0.9114 B(  4-C ,  5-O ) :   1.0206 B(  4-C , 15-H ) :   0.9346
B(  4-C , 16-H ) :   0.9183 B(  5-O , 17-H ) :   0.8481 B(  6-C ,  7-C ) :   1.7821
B(  6-C , 18-H ) :   0.9324 B(  7-C , 19-H ) :   0.9271

MP2 TOTAL ENERGY:     -348.410600684 Eh
FINAL SINGLE POINT ENERGY      -348.410600683840

DIPOLE MOMENT
-------------
                                X             Y             Z
Electronic contribution:      2.41149      -5.06023       1.52969
Nuclear contribution   :     -2.17589       5.36841      -1.96076
                        -----------------------------------------
Total Dipole Moment    :      0.23560       0.30818      -0.43108
                        -----------------------------------------
Magnitude (a.u.)       :      0.57992
Magnitude (Debye)      :      1.47405

                             ****ORCA TERMINATED NORMALLY****
TOTAL RUN TIME: 0 days 0 hours 12 minutes 35 seconds 686 msec
