                         Program Version 3.0.3 - RELEASE   -
|  1> ! RI-MP2 RIJK def2-TZVP def2-TZVP/C def2-TZVP/JK TIGHTSCF
|  2> % maxcore 2000
|  3> % mp2 density relaxed end
|  4> *xyz 0 1
|  5>  O       -0.0893179676     1.4676639847     0.2213093405
|  6>  C        0.0224817543     0.0666101349     0.0043038825
|  7>  C       -1.3864996988    -0.4883016358    -0.0718688132
|  8>  C       -2.1847986719    -0.5285543945     1.2563878577
|  9>  O       -2.4797273101    -1.9307716353     1.0794911864
| 10>  C       -1.6157611428    -2.0273124030    -0.0750094239
| 11>  C       -2.3721597258    -2.3907835372    -1.3617624019
| 12>  C       -2.7203679370    -1.0388522233    -1.9442615448
| 13>  C       -2.1863305956    -0.0251325403    -1.2622906833
| 14>  H        0.7959381760     1.8413691273     0.2581374493
| 15>  H        0.5611929028    -0.1528330275    -0.9312939718
| 16>  H        0.5691723558    -0.4207798841     0.8276133564
| 17>  H       -1.5768884981    -0.3471760326     2.1529321614
| 18>  H       -3.0928564505     0.0816275358     1.3046799139
| 19>  H       -0.7517864284    -2.6715360146     0.1287330828
| 20>  H       -1.7622107648    -2.9895933642    -2.0516252188
| 21>  H       -3.2555154620    -2.9911091057    -1.1136090020
| 22>  H       -3.3380612756    -0.9312067174    -2.8297488071
| 23>  H       -2.2961951799     1.0267300827    -1.4979686642
| 24> *
| 25>
| 26>                          ****END OF INPUT****

CARTESIAN COORDINATES (ANGSTROEM)
---------------------------------
  O     -0.089318    1.467664    0.221309
  C      0.022482    0.066610    0.004304
  C     -1.386500   -0.488302   -0.071869
  C     -2.184799   -0.528554    1.256388
  O     -2.479727   -1.930772    1.079491
  C     -1.615761   -2.027312   -0.075009
  C     -2.372160   -2.390784   -1.361762
  C     -2.720368   -1.038852   -1.944262
  C     -2.186331   -0.025133   -1.262291
  H      0.795938    1.841369    0.258137
  H      0.561193   -0.152833   -0.931294
  H      0.569172   -0.420780    0.827613
  H     -1.576888   -0.347176    2.152932
  H     -3.092856    0.081628    1.304680
  H     -0.751786   -2.671536    0.128733
  H     -1.762211   -2.989593   -2.051625
  H     -3.255515   -2.991109   -1.113609
  H     -3.338061   -0.931207   -2.829749
  H     -2.296195    1.026730   -1.497969

 Total Charge           Charge          ....    0
 Multiplicity           Mult            ....    1
 Number of Electrons    NEL             ....   68
 Basis Dimension        Dim             ....  339

ORBITAL ENERGIES
----------------

  NO   OCC          E(Eh)            E(eV)
   0   2.0000     -20.564970      -559.6013
   1   2.0000     -20.542596      -558.9925
   2   2.0000     -11.284518      -307.0673
   3   2.0000     -11.280306      -306.9527
   4   2.0000     -11.271370      -306.7096
   5   2.0000     -11.238096      -305.8042
   6   2.0000     -11.228549      -305.5444
   7   2.0000     -11.225727      -305.4676
   8   2.0000     -11.222775      -305.3872
   9   2.0000      -1.376287       -37.4507
  10   2.0000      -1.366972       -37.1972
  11   2.0000      -1.124874       -30.6094
  12   2.0000      -1.024159       -27.8688
  13   2.0000      -0.960434       -26.1347
  14   2.0000      -0.899747       -24.4834
  15   2.0000      -0.875948       -23.8358
  16   2.0000      -0.764750       -20.8099
  17   2.0000      -0.722711       -19.6660
  18   2.0000      -0.709060       -19.2945
  19   2.0000      -0.672198       -18.2914
  20   2.0000      -0.653134       -17.7727
  21   2.0000      -0.634457       -17.2645
  22   2.0000      -0.614570       -16.7233
  23   2.0000      -0.594917       -16.1885
  24   2.0000      -0.564272       -15.3546
  25   2.0000      -0.536033       -14.5862
  26   2.0000      -0.532738       -14.4965
  27   2.0000      -0.520374       -14.1601
  28   2.0000      -0.485261       -13.2046
  29   2.0000      -0.473303       -12.8792
  30   2.0000      -0.444934       -12.1073
  31   2.0000      -0.437193       -11.8966
  32   2.0000      -0.412234       -11.2174
  33   2.0000      -0.349379        -9.5071
  34   0.0000       0.127429         3.4675
  35   0.0000       0.150311         4.0902
  36   0.0000       0.158452         4.3117
  37   0.0000       0.169912         4.6235
  38   0.0000       0.185926         5.0593

MULLIKEN ATOMIC CHARGES
-----------------------
   0 O :   -0.472967
   1 C :   -0.105877
   2 C :    0.197099
   3 C :   -0.038270
   4 O :   -0.331297
   5 C :    0.016589
   6 C :   -0.147565
   7 C :   -0.186740
   8 C :   -0.249253
   9 H :    0.316182
  10 H :    0.104680
  11 H :    0.106183
  12 H :    0.092835
  13 H :    0.101111
  14 H :    0.089673
  15 H :    0.112664
  16 H :    0.130029
  17 H :    0.125732
  18 H :    0.139193
Sum of atomic charges:   -0.0000000

LOEWDIN ATOMIC CHARGES
----------------------
   0 O :   -0.040882
   1 C :   -0.307513
   2 C :   -0.234996
   3 C :   -0.217570
   4 O :    0.136391
   5 C :   -0.210357
   6 C :   -0.223897
   7 C :   -0.146032
   8 C :   -0.117573
   9 H :    0.173696
  10 H :    0.122469
  11 H :    0.121375
  12 H :    0.120502
  13 H :    0.121659
  14 H :    0.132291
  15 H :    0.139483
  16 H :    0.149188
  17 H :    0.136513
  18 H :    0.145252

  Mayer bond orders larger than 0.1
B(  0-O ,  1-C ) :   1.0319 B(  0-O ,  2-C ) :  -0.1038 B(  0-O ,  9-H ) :   0.8467
B(  1-C ,  2-C ) :   0.9087 B(  1-C , 10-H ) :   0.9220 B(  1-C , 11-H ) :   0.9211
B(  2-C ,  3-C ) :   0.9518 B(  2-C ,  5-C ) :   0.9261 B(  2-C ,  8-C ) :   0.9035
B(  3-C ,  4-O ) :   0.9512 B(  3-C , 12-H ) :   0.9015 B(  3-C , 13-H ) :   0.9064
B(  4-O ,  5-C ) :   1.0005 B(  5-C ,  6-C ) :   0.9098 B(  5-C , 14-H ) :   0.9184
B(  6-C ,  7-C ) :   0.9577 B(  6-C , 15-H ) :   0.9060 B(  6-C , 16-H ) :   0.9057
B(  7-C ,  8-C ) :   1.7863 B(  7-C , 17-H ) :   0.9283 B(  8-C , 18-H ) :   0.9236

MP2 TOTAL ENERGY:     -422.305890607 Eh
FINAL SINGLE POINT ENERGY      -422.305890606942

DIPOLE MOMENT
-------------
                                X             Y             Z
Electronic contribution:     -1.03902       0.39543       1.23774
Nuclear contribution   :      1.96934      -0.20988      -1.67599
                        -----------------------------------------
Total Dipole Moment    :      0.93032       0.18556      -0.43825
                        -----------------------------------------
Magnitude (a.u.)       :      1.04498
Magnitude (Debye)      :      2.65614

                             ****ORCA TERMINATED NORMALLY****
TOTAL RUN TIME: 0 days 0 hours 17 minutes 9 seconds 107 msec
