                         Program Version 3.0.3 - RELEASE   -
|  1> ! RI-MP2 RIJK def2-TZVP def2-TZVP/C def2-TZVP/JK TIGHTSCF
|  2> % maxcore 2000
|  3> % mp2 density relaxed end
|  4> *xyz 0 1
|  5>  C       -0.0832298973     1.5751279534     0.0475996052
|  6>  C        0.0186890388     0.0394465671     0.0416647268
|  7>  C        0.8173296981    -0.5256371804    -1.1355280208
|  8>  C        1.8550731839    -1.2818848912    -0.7228386471
|  9>  C        1.8624987800    -1.3071121104     0.7432180434
| 10>  C        0.8108564145    -0.5508465837     1.1626698036
| 11>  O        0.7255613602    -0.4992969841     2.5072537809
| 12>  C        1.7744221379    -1.2627219936     2.9635593039
| 13>  C        2.5032423996    -1.7820381924     1.9331646936
| 14>  H        0.9125110910     2.0269477938     0.0480041711
| 15>  H       -0.6221952079     1.9295509478    -0.8362180035
| 16>  H       -0.6193990878     1.9227551946     0.9355665333
| 17>  H       -0.9988249673    -0.3786588239     0.0187490192
| 18>  H        0.5480846961    -0.3121063499    -2.1619420978
| 19>  H        2.5642087832    -1.7884383900    -1.3649477094
| 20>  H        1.8578099630    -1.3324866794     4.0353237492
| 21>  H        3.3724495241    -2.4133222077     2.0337059184
| 22> *
| 23>
| 24>                          ****END OF INPUT****

CARTESIAN COORDINATES (ANGSTROEM)
---------------------------------
  C     -0.083230    1.575128    0.047600
  C      0.018689    0.039447    0.041665
  C      0.817330   -0.525637   -1.135528
  C      1.855073   -1.281885   -0.722839
  C      1.862499   -1.307112    0.743218
  C      0.810856   -0.550847    1.162670
  O      0.725561   -0.499297    2.507254
  C      1.774422   -1.262722    2.963559
  C      2.503242   -1.782038    1.933165
  H      0.912511    2.026948    0.048004
  H     -0.622195    1.929551   -0.836218
  H     -0.619399    1.922755    0.935567
  H     -0.998825   -0.378659    0.018749
  H      0.548085   -0.312106   -2.161942
  H      2.564209   -1.788438   -1.364948
  H      1.857810   -1.332487    4.035324
  H      3.372450   -2.413322    2.033706

 Total Charge           Charge          ....    0
 Multiplicity           Mult            ....    1
 Number of Electrons    NEL             ....   64
 Basis Dimension        Dim             ....  327

ORBITAL ENERGIES
----------------

  NO   OCC          E(Eh)            E(eV)
   0   2.0000     -20.622249      -561.1599
   1   2.0000     -11.284145      -307.0572
   2   2.0000     -11.274066      -306.7829
   3   2.0000     -11.249776      -306.1220
   4   2.0000     -11.238932      -305.8269
   5   2.0000     -11.232887      -305.6624
   6   2.0000     -11.227562      -305.5175
   7   2.0000     -11.225193      -305.4530
   8   2.0000     -11.218588      -305.2733
   9   2.0000      -1.455182       -39.5975
  10   2.0000      -1.157782       -31.5049
  11   2.0000      -1.068620       -29.0786
  12   2.0000      -1.000452       -27.2237
  13   2.0000      -0.965910       -26.2837
  14   2.0000      -0.877666       -23.8825
  15   2.0000      -0.810195       -22.0465
  16   2.0000      -0.767022       -20.8717
  17   2.0000      -0.734739       -19.9933
  18   2.0000      -0.691672       -18.8214
  19   2.0000      -0.643309       -17.5053
  20   2.0000      -0.629766       -17.1368
  21   2.0000      -0.599193       -16.3049
  22   2.0000      -0.592412       -16.1203
  23   2.0000      -0.571708       -15.5570
  24   2.0000      -0.546433       -14.8692
  25   2.0000      -0.534970       -14.5573
  26   2.0000      -0.527787       -14.3618
  27   2.0000      -0.487709       -13.2712
  28   2.0000      -0.479045       -13.0355
  29   2.0000      -0.433450       -11.7948
  30   2.0000      -0.353335        -9.6147
  31   2.0000      -0.283101        -7.7036
  32   0.0000       0.116817         3.1787
  33   0.0000       0.156091         4.2475
  34   0.0000       0.159527         4.3410
  35   0.0000       0.176086         4.7916
  36   0.0000       0.181596         4.9415

MULLIKEN ATOMIC CHARGES
-----------------------
   0 C :   -0.415232
   1 C :    0.071434
   2 C :   -0.183771
   3 C :   -0.222339
   4 C :    0.102354
   5 C :    0.055147
   6 O :   -0.231081
   7 C :    0.021078
   8 C :   -0.278879
   9 H :    0.140831
  10 H :    0.134015
  11 H :    0.140674
  12 H :    0.118953
  13 H :    0.131182
  14 H :    0.130683
  15 H :    0.146135
  16 H :    0.138816
Sum of atomic charges:   -0.0000000

LOEWDIN ATOMIC CHARGES
----------------------
   0 C :   -0.274777
   1 C :   -0.213575
   2 C :   -0.123112
   3 C :   -0.115540
   4 C :   -0.140993
   5 C :   -0.198760
   6 O :    0.354400
   7 C :   -0.229329
   8 C :   -0.164512
   9 H :    0.130161
  10 H :    0.124599
  11 H :    0.127054
  12 H :    0.172699
  13 H :    0.136855
  14 H :    0.140263
  15 H :    0.130884
  16 H :    0.143683

  Mayer bond orders larger than 0.1
B(  0-C ,  1-C ) :   0.8551 B(  0-C ,  9-H ) :   0.9333 B(  0-C , 10-H ) :   0.9356
B(  0-C , 11-H ) :   0.9341 B(  1-C ,  2-C ) :   0.9231 B(  1-C ,  5-C ) :   1.0250
B(  1-C , 12-H ) :   0.8861 B(  2-C ,  3-C ) :   1.7230 B(  2-C , 13-H ) :   0.9258
B(  3-C ,  4-C ) :   0.9774 B(  3-C , 14-H ) :   0.9262 B(  4-C ,  5-C ) :   1.4068
B(  4-C ,  8-C ) :   1.1583 B(  5-C ,  6-O ) :   1.0680 B(  6-O ,  7-C ) :   1.0221
B(  7-C ,  8-C ) :   1.5456 B(  7-C , 15-H ) :   0.9387 B(  8-C , 16-H ) :   0.9178

MP2 TOTAL ENERGY:     -384.030698160 Eh
FINAL SINGLE POINT ENERGY      -384.030698160203

DIPOLE MOMENT
-------------
                                X             Y             Z
Electronic contribution:      1.76186      -3.97966       3.73289
Nuclear contribution   :     -1.76342       4.02076      -3.88767
                        -----------------------------------------
Total Dipole Moment    :     -0.00156       0.04111      -0.15478
                        -----------------------------------------
Magnitude (a.u.)       :      0.16016
Magnitude (Debye)      :      0.40708

                             ****ORCA TERMINATED NORMALLY****
TOTAL RUN TIME: 0 days 0 hours 18 minutes 54 seconds 144 msec
