                         Program Version 3.0.3 - RELEASE   -
|  1> ! RI-MP2 RIJK def2-TZVP def2-TZVP/C def2-TZVP/JK TIGHTSCF
|  2> % maxcore 2000
|  3> % mp2 density relaxed end
|  4> *xyz 0 1
|  5>  C        0.1267385802     1.5681894613     0.0091353504
|  6>  C        1.3834899820     0.7385072692    -0.0070432479
|  7>  C        0.0460027659     0.0468645957     0.0019054301
|  8>  C       -0.3995347455    -0.6559297495     1.2402659876
|  9>  C       -1.6932110975    -0.8678640422     1.5495222815
| 10>  C       -2.8312619115    -0.5918363634     0.7047463173
| 11>  C       -2.8440368339    -0.5847031116    -0.6533572494
| 12>  C       -1.7221056170    -0.8517301958    -1.5222440153
| 13>  C       -0.4228198189    -0.6429282130    -1.2351685519
| 14>  H       -0.1417155041     2.0763374697     0.9289070540
| 15>  H       -0.1589192471     2.0859420855    -0.9000366954
| 16>  H        1.9630823809     0.7060897830    -0.9243005928
| 17>  H        1.9802299780     0.6965165262     0.8987588680
| 18>  H        0.3709548866    -1.0037458090     1.9257184863
| 19>  H       -1.9184608540    -1.3080505839     2.5191751804
| 20>  H       -3.7886283966    -0.4921047451     1.2114326156
| 21>  H       -3.8107552094    -0.4797494982    -1.1408696564
| 22>  H       -1.9655990777    -1.2817301024    -2.4920581401
| 23>  H        0.3346051495    -0.9834496664    -1.9386086520
| 24> *
| 25>
| 26>                          ****END OF INPUT****

CARTESIAN COORDINATES (ANGSTROEM)
---------------------------------
  C      0.126739    1.568189    0.009135
  C      1.383490    0.738507   -0.007043
  C      0.046003    0.046865    0.001905
  C     -0.399535   -0.655930    1.240266
  C     -1.693211   -0.867864    1.549522
  C     -2.831262   -0.591836    0.704746
  C     -2.844037   -0.584703   -0.653357
  C     -1.722106   -0.851730   -1.522244
  C     -0.422820   -0.642928   -1.235169
  H     -0.141716    2.076337    0.928907
  H     -0.158919    2.085942   -0.900037
  H      1.963082    0.706090   -0.924301
  H      1.980230    0.696517    0.898759
  H      0.370955   -1.003746    1.925718
  H     -1.918461   -1.308051    2.519175
  H     -3.788628   -0.492105    1.211433
  H     -3.810755   -0.479749   -1.140870
  H     -1.965599   -1.281730   -2.492058
  H      0.334605   -0.983450   -1.938609

 Total Charge           Charge          ....    0
 Multiplicity           Mult            ....    1
 Number of Electrons    NEL             ....   64
 Basis Dimension        Dim             ....  339

ORBITAL ENERGIES
----------------

  NO   OCC          E(Eh)            E(eV)
   0   2.0000     -11.242966      -305.9367
   1   2.0000     -11.236061      -305.7488
   2   2.0000     -11.236027      -305.7478
   3   2.0000     -11.234367      -305.7027
   4   2.0000     -11.232882      -305.6623
   5   2.0000     -11.227157      -305.5065
   6   2.0000     -11.227154      -305.5064
   7   2.0000     -11.226670      -305.4932
   8   2.0000     -11.224371      -305.4307
   9   2.0000      -1.167808       -31.7777
  10   2.0000      -1.099862       -29.9288
  11   2.0000      -1.041263       -28.3342
  12   2.0000      -0.990973       -26.9657
  13   2.0000      -0.863016       -23.4839
  14   2.0000      -0.847934       -23.0734
  15   2.0000      -0.824508       -22.4360
  16   2.0000      -0.714887       -19.4531
  17   2.0000      -0.711595       -19.3635
  18   2.0000      -0.684193       -18.6178
  19   2.0000      -0.623730       -16.9726
  20   2.0000      -0.623606       -16.9692
  21   2.0000      -0.614582       -16.7236
  22   2.0000      -0.588286       -16.0081
  23   2.0000      -0.526586       -14.3291
  24   2.0000      -0.520457       -14.1624
  25   2.0000      -0.514182       -13.9916
  26   2.0000      -0.479962       -13.0604
  27   2.0000      -0.476348       -12.9621
  28   2.0000      -0.419381       -11.4119
  29   2.0000      -0.406871       -11.0715
  30   2.0000      -0.357562        -9.7297
  31   2.0000      -0.294885        -8.0242
  32   0.0000       0.093789         2.5521
  33   0.0000       0.141754         3.8573
  34   0.0000       0.154495         4.2040
  35   0.0000       0.167208         4.5500
  36   0.0000       0.170127         4.6294

MULLIKEN ATOMIC CHARGES
-----------------------
   0 C :   -0.266813
   1 C :   -0.335637
   2 C :    0.277347
   3 C :   -0.199000
   4 C :   -0.135043
   5 C :   -0.132397
   6 C :   -0.132397
   7 C :   -0.135043
   8 C :   -0.199000
   9 H :    0.129286
  10 H :    0.129286
  11 H :    0.129834
  12 H :    0.129834
  13 H :    0.125295
  14 H :    0.123057
  15 H :    0.121520
  16 H :    0.121520
  17 H :    0.123057
  18 H :    0.125295
Sum of atomic charges:   -0.0000000

LOEWDIN ATOMIC CHARGES
----------------------
   0 C :   -0.188490
   1 C :   -0.202420
   2 C :   -0.238885
   3 C :   -0.096682
   4 C :   -0.156144
   5 C :   -0.148743
   6 C :   -0.148743
   7 C :   -0.156145
   8 C :   -0.096682
   9 H :    0.135678
  10 H :    0.135678
  11 H :    0.134141
  12 H :    0.134141
  13 H :    0.147309
  14 H :    0.150823
  15 H :    0.148515
  16 H :    0.148515
  17 H :    0.150823
  18 H :    0.147309

  Mayer bond orders larger than 0.1
B(  0-C ,  1-C ) :   0.9314 B(  0-C ,  2-C ) :   0.8377 B(  0-C ,  9-H ) :   0.9218
B(  0-C , 10-H ) :   0.9218 B(  1-C ,  2-C ) :   0.8417 B(  1-C , 11-H ) :   0.9248
B(  1-C , 12-H ) :   0.9248 B(  2-C ,  3-C ) :   0.9032 B(  2-C ,  8-C ) :   0.9032
B(  3-C ,  4-C ) :   1.7058 B(  3-C , 13-H ) :   0.9194 B(  4-C ,  5-C ) :   1.0628
B(  4-C , 14-H ) :   0.9167 B(  5-C ,  6-C ) :   1.6244 B(  5-C , 15-H ) :   0.9254
B(  6-C ,  7-C ) :   1.0628 B(  6-C , 16-H ) :   0.9254 B(  7-C ,  8-C ) :   1.7058
B(  7-C , 17-H ) :   0.9167 B(  8-C , 18-H ) :   0.9194

MP2 TOTAL ENERGY:     -348.091629246 Eh
FINAL SINGLE POINT ENERGY      -348.091629246266

DIPOLE MOMENT
-------------
                                X             Y             Z
Electronic contribution:     -1.82742      -1.76576       0.00792
Nuclear contribution   :      1.84508       1.76959      -0.00806
                        -----------------------------------------
Total Dipole Moment    :      0.01766       0.00384      -0.00015
                        -----------------------------------------
Magnitude (a.u.)       :      0.01807
Magnitude (Debye)      :      0.04594

                             ****ORCA TERMINATED NORMALLY****
TOTAL RUN TIME: 0 days 0 hours 18 minutes 21 seconds 580 msec
