                         Program Version 3.0.3 - RELEASE   -
|  1> ! RI-MP2 RIJK def2-TZVP def2-TZVP/C def2-TZVP/JK TIGHTSCF
|  2> % maxcore 2000
|  3> % mp2 density relaxed end
|  4> *xyz 0 1
|  5>  C       -0.0532253153     1.4341170597     0.0296422579
|  6>  N        0.0184862178    -0.0141250528     0.0397960626
|  7>  C       -1.0499017350    -0.6838939992     0.0239435151
|  8>  O       -2.2976862001     0.0153741573    -0.0035280675
|  9>  C       -3.4403854362    -0.6779811299    -0.0212115540
| 10>  C       -3.4735052551    -2.0201646796    -0.0140169245
| 11>  C       -2.1963606128    -2.7012200012     0.0144257334
| 12>  C       -2.1666670370    -4.2026702983     0.0241193300
| 13>  N       -1.0694602702    -2.0623405382     0.0319843656
| 14>  H        0.9610957670     1.8395509611     0.0463391518
| 15>  H       -0.5633045314     1.8178427673    -0.8647911268
| 16>  H       -0.5966688041     1.8286120758     0.8993996779
| 17>  H       -4.3112011935    -0.0305327002    -0.0415366188
| 18>  H       -4.4113523645    -2.5576250173    -0.0287403281
| 19>  H       -2.6724207040    -4.6013208428    -0.8632043976
| 20>  H       -1.1362042837    -4.5569392410     0.0453271685
| 21>  H       -2.7048712519    -4.5905344108     0.8970240142
| 22> *
| 23>
| 24>                          ****END OF INPUT****

CARTESIAN COORDINATES (ANGSTROEM)
---------------------------------
  C     -0.053225    1.434117    0.029642
  N      0.018486   -0.014125    0.039796
  C     -1.049902   -0.683894    0.023944
  O     -2.297686    0.015374   -0.003528
  C     -3.440385   -0.677981   -0.021212
  C     -3.473505   -2.020165   -0.014017
  C     -2.196361   -2.701220    0.014426
  C     -2.166667   -4.202670    0.024119
  N     -1.069460   -2.062341    0.031984
  H      0.961096    1.839551    0.046339
  H     -0.563305    1.817843   -0.864791
  H     -0.596669    1.828612    0.899400
  H     -4.311201   -0.030533   -0.041537
  H     -4.411352   -2.557625   -0.028740
  H     -2.672421   -4.601321   -0.863204
  H     -1.136204   -4.556939    0.045327
  H     -2.704871   -4.590534    0.897024

 Total Charge           Charge          ....    0
 Multiplicity           Mult            ....    1
 Number of Electrons    NEL             ....   66
 Basis Dimension        Dim             ....  327

ORBITAL ENERGIES
----------------

  NO   OCC          E(Eh)            E(eV)
   0   2.0000     -20.630478      -561.3838
   1   2.0000     -15.563019      -423.4913
   2   2.0000     -15.528860      -422.5618
   3   2.0000     -11.361156      -309.1528
   4   2.0000     -11.342949      -308.6573
   5   2.0000     -11.319327      -308.0146
   6   2.0000     -11.245773      -306.0130
   7   2.0000     -11.240791      -305.8775
   8   2.0000     -11.234542      -305.7074
   9   2.0000      -1.466074       -39.8939
  10   2.0000      -1.265266       -34.4297
  11   2.0000      -1.208957       -32.8974
  12   2.0000      -1.077490       -29.3200
  13   2.0000      -1.013948       -27.5909
  14   2.0000      -0.938100       -25.5270
  15   2.0000      -0.893496       -24.3133
  16   2.0000      -0.824621       -22.4391
  17   2.0000      -0.745037       -20.2735
  18   2.0000      -0.724047       -19.7023
  19   2.0000      -0.661415       -17.9980
  20   2.0000      -0.654382       -17.8066
  21   2.0000      -0.628595       -17.1049
  22   2.0000      -0.603498       -16.4220
  23   2.0000      -0.595311       -16.1992
  24   2.0000      -0.567391       -15.4395
  25   2.0000      -0.563538       -15.3346
  26   2.0000      -0.555347       -15.1118
  27   2.0000      -0.542443       -14.7606
  28   2.0000      -0.488432       -13.2909
  29   2.0000      -0.430763       -11.7216
  30   2.0000      -0.430610       -11.7175
  31   2.0000      -0.404101       -10.9961
  32   2.0000      -0.326020        -8.8715
  33   0.0000       0.079489         2.1630
  34   0.0000       0.132602         3.6083
  35   0.0000       0.149971         4.0809
  36   0.0000       0.154181         4.1955
  37   0.0000       0.159794         4.3482

MULLIKEN ATOMIC CHARGES
-----------------------
   0 C :   -0.281820
   1 N :   -0.211764
   2 C :    0.221804
   3 O :   -0.214187
   4 C :    0.039065
   5 C :   -0.232816
   6 C :    0.164318
   7 C :   -0.428444
   8 N :   -0.204630
   9 H :    0.142174
  10 H :    0.126359
  11 H :    0.126357
  12 H :    0.148246
  13 H :    0.151008
  14 H :    0.145273
  15 H :    0.163773
  16 H :    0.145286
Sum of atomic charges:    0.0000000

LOEWDIN ATOMIC CHARGES
----------------------
   0 C :   -0.338594
   1 N :    0.082511
   2 C :   -0.397841
   3 O :    0.304505
   4 C :   -0.214939
   5 C :   -0.174671
   6 C :   -0.237502
   7 C :   -0.259037
   8 N :    0.183888
   9 H :    0.114880
  10 H :    0.113205
  11 H :    0.113200
  12 H :    0.143118
  13 H :    0.155652
  14 H :    0.136831
  15 H :    0.137945
  16 H :    0.136847

  Mayer bond orders larger than 0.1
B(  0-C ,  1-N ) :   0.8816 B(  0-C ,  9-H ) :   0.9448 B(  0-C , 10-H ) :   0.9279
B(  0-C , 11-H ) :   0.9279 B(  1-N ,  2-C ) :   1.9488 B(  2-C ,  3-O ) :   0.8825
B(  2-C ,  8-N ) :   1.1465 B(  3-O ,  4-C ) :   1.1220 B(  4-C ,  5-C ) :   1.6255
B(  4-C , 12-H ) :   0.9415 B(  5-C ,  6-C ) :   1.0267 B(  5-C , 13-H ) :   0.9095
B(  6-C ,  7-C ) :   0.8869 B(  6-C ,  8-N ) :   1.6684 B(  7-C , 14-H ) :   0.9263
B(  7-C , 15-H ) :   0.9459 B(  7-C , 16-H ) :   0.9262

MP2 TOTAL ENERGY:     -417.308880199 Eh
FINAL SINGLE POINT ENERGY      -417.308880199496

DIPOLE MOMENT
-------------
                                X             Y             Z
Electronic contribution:     -0.24162       1.13831      -0.01059
Nuclear contribution   :     -1.43264      -1.32830      -0.01992
                        -----------------------------------------
Total Dipole Moment    :     -1.67426      -0.18999      -0.03051
                        -----------------------------------------
Magnitude (a.u.)       :      1.68528
Magnitude (Debye)      :      4.28365

                             ****ORCA TERMINATED NORMALLY****
TOTAL RUN TIME: 0 days 0 hours 16 minutes 42 seconds 548 msec
