                         Program Version 3.0.3 - RELEASE   -
|  1> ! RI-MP2 RIJK def2-TZVP def2-TZVP/C def2-TZVP/JK TIGHTSCF
|  2> % maxcore 2000
|  3> % mp2 density relaxed end
|  4> *xyz 0 1
|  5>  C        0.0909246857     1.4880386825     0.0701636963
|  6>  C       -0.0096987737    -0.0125624735     0.0045500778
|  7>  C       -1.2031259655    -0.6806705154     0.0218215074
|  8>  C       -2.5373980072     0.0256168913     0.0733219387
|  9>  C       -1.2160436360    -2.1445089729     0.0601876732
| 10>  O       -2.2399860331    -2.8108444029     0.0746158451
| 11>  C        0.1505198771    -2.8264773820     0.1660694193
| 12>  C        1.2297596872    -2.0301113001    -0.5560563031
| 13>  N        1.2034647389    -0.6569312992    -0.0712916664
| 14>  H        0.9748640688     1.7887941823     0.6423915215
| 15>  H        0.1861765678     1.9159310694    -0.9359814789
| 16>  H       -0.7883001048     1.9313539668     0.5371015238
| 17>  H       -2.6566349862     0.7613662667    -0.7292865930
| 18>  H       -3.3240303696    -0.7239434814    -0.0300320276
| 19>  H       -2.7018745010     0.5481291187     1.0244323253
| 20>  H        0.4001886316    -2.9039812359     1.2330402766
| 21>  H        0.0684877222    -3.8407442994    -0.2299199789
| 22>  H        2.2239319094    -2.4501247654    -0.3779333038
| 23>  H        1.0401658783    -2.0590035373    -1.6427452195
| 24>  H        1.9816113800    -0.0778282423    -0.3475827036
| 25> *
| 26>
| 27>                          ****END OF INPUT****

CARTESIAN COORDINATES (ANGSTROEM)
---------------------------------
  C      0.090925    1.488039    0.070164
  C     -0.009699   -0.012562    0.004550
  C     -1.203126   -0.680671    0.021822
  C     -2.537398    0.025617    0.073322
  C     -1.216044   -2.144509    0.060188
  O     -2.239986   -2.810844    0.074616
  C      0.150520   -2.826477    0.166069
  C      1.229760   -2.030111   -0.556056
  N      1.203465   -0.656931   -0.071292
  H      0.974864    1.788794    0.642392
  H      0.186177    1.915931   -0.935981
  H     -0.788300    1.931354    0.537102
  H     -2.656635    0.761366   -0.729287
  H     -3.324030   -0.723943   -0.030032
  H     -2.701875    0.548129    1.024432
  H      0.400189   -2.903981    1.233040
  H      0.068488   -3.840744   -0.229920
  H      2.223932   -2.450125   -0.377933
  H      1.040166   -2.059004   -1.642745
  H      1.981611   -0.077828   -0.347583

 Total Charge           Charge          ....    0
 Multiplicity           Mult            ....    1
 Number of Electrons    NEL             ....   68
 Basis Dimension        Dim             ....  345

ORBITAL ENERGIES
----------------

  NO   OCC          E(Eh)            E(eV)
   0   2.0000     -20.512190      -558.1651
   1   2.0000     -15.584577      -424.0779
   2   2.0000     -11.308692      -307.7251
   3   2.0000     -11.301385      -307.5263
   4   2.0000     -11.274443      -306.7932
   5   2.0000     -11.244741      -305.9849
   6   2.0000     -11.230324      -305.5927
   7   2.0000     -11.211111      -305.0698
   8   2.0000     -11.206614      -304.9475
   9   2.0000      -1.355452       -36.8837
  10   2.0000      -1.268296       -34.5121
  11   2.0000      -1.079229       -29.3673
  12   2.0000      -1.051698       -28.6181
  13   2.0000      -0.979945       -26.6657
  14   2.0000      -0.923897       -25.1405
  15   2.0000      -0.855727       -23.2855
  16   2.0000      -0.802772       -21.8445
  17   2.0000      -0.713312       -19.4102
  18   2.0000      -0.688802       -18.7433
  19   2.0000      -0.669293       -18.2124
  20   2.0000      -0.633112       -17.2279
  21   2.0000      -0.603379       -16.4188
  22   2.0000      -0.587546       -15.9879
  23   2.0000      -0.568939       -15.4816
  24   2.0000      -0.564380       -15.3576
  25   2.0000      -0.560782       -15.2596
  26   2.0000      -0.546022       -14.8580
  27   2.0000      -0.533178       -14.5085
  28   2.0000      -0.520268       -14.1572
  29   2.0000      -0.498644       -13.5688
  30   2.0000      -0.485366       -13.2075
  31   2.0000      -0.449668       -12.2361
  32   2.0000      -0.389587       -10.6012
  33   2.0000      -0.308327        -8.3900
  34   0.0000       0.112642         3.0651
  35   0.0000       0.118756         3.2315
  36   0.0000       0.143552         3.9063
  37   0.0000       0.156903         4.2695
  38   0.0000       0.179438         4.8828

MULLIKEN ATOMIC CHARGES
-----------------------
   0 C :   -0.473043
   1 C :    0.200176
   2 C :   -0.070540
   3 C :   -0.460108
   4 C :    0.136125
   5 O :   -0.332149
   6 C :   -0.179948
   7 C :   -0.155817
   8 N :   -0.314618
   9 H :    0.146857
  10 H :    0.156887
  11 H :    0.159169
  12 H :    0.134848
  13 H :    0.177718
  14 H :    0.134130
  15 H :    0.120536
  16 H :    0.139675
  17 H :    0.131523
  18 H :    0.117200
  19 H :    0.231380
Sum of atomic charges:    0.0000000

LOEWDIN ATOMIC CHARGES
----------------------
   0 C :   -0.262405
   1 C :   -0.214296
   2 C :   -0.183017
   3 C :   -0.275927
   4 C :   -0.322842
   5 O :    0.111584
   6 C :   -0.221290
   7 C :   -0.277328
   8 N :    0.094642
   9 H :    0.132406
  10 H :    0.137557
  11 H :    0.137739
  12 H :    0.124792
  13 H :    0.140710
  14 H :    0.125611
  15 H :    0.153357
  16 H :    0.149518
  17 H :    0.133187
  18 H :    0.131140
  19 H :    0.184862

  Mayer bond orders larger than 0.1
B(  0-C ,  1-C ) :   0.8497 B(  0-C ,  9-H ) :   0.9460 B(  0-C , 10-H ) :   0.9251
B(  0-C , 11-H ) :   0.9423 B(  1-C ,  2-C ) :   1.4796 B(  1-C ,  8-N ) :   1.1837
B(  2-C ,  3-C ) :   0.8799 B(  2-C ,  4-C ) :   1.0278 B(  3-C , 12-H ) :   0.9427
B(  3-C , 13-H ) :   0.9285 B(  3-C , 14-H ) :   0.9370 B(  4-C ,  5-O ) :   1.9364
B(  4-C ,  6-C ) :   0.9491 B(  6-C ,  7-C ) :   0.9096 B(  6-C , 15-H ) :   0.9002
B(  6-C , 16-H ) :   0.9300 B(  7-C ,  8-N ) :   0.9084 B(  7-C , 17-H ) :   0.9215
B(  7-C , 18-H ) :   0.9370 B(  8-N , 19-H ) :   0.8776

MP2 TOTAL ENERGY:     -402.500295480 Eh
FINAL SINGLE POINT ENERGY      -402.500295479847

DIPOLE MOMENT
-------------
                                X             Y             Z
Electronic contribution:     -1.14354      -5.11266       0.30745
Nuclear contribution   :      2.79048       6.19387      -0.58896
                        -----------------------------------------
Total Dipole Moment    :      1.64694       1.08122      -0.28151
                        -----------------------------------------
Magnitude (a.u.)       :      1.99015
Magnitude (Debye)      :      5.05856

                             ****ORCA TERMINATED NORMALLY****
TOTAL RUN TIME: 0 days 0 hours 20 minutes 9 seconds 174 msec
