                         Program Version 3.0.3 - RELEASE   -
|  1> ! RI-MP2 RIJK def2-TZVP def2-TZVP/C def2-TZVP/JK TIGHTSCF
|  2> % maxcore 2000
|  3> % mp2 density relaxed end
|  4> *xyz 0 1
|  5>  O       -0.2204777744     0.0430497373     0.1460606890
|  6>  C       -0.0583926088     1.2277333088     0.0147994946
|  7>  C        1.2857902420     1.9168981966    -0.0545408867
|  8>  C        1.4088328684     2.8058990124    -1.3138769776
|  9>  C        2.6586332524     3.6093390576    -1.3402727827
| 10>  C        3.7498582878     3.6672446973    -2.1425974758
| 11>  N        4.6312692638     4.6330387153    -1.6672963729
| 12>  C        4.0426902144     5.1019140824    -0.6190392833
| 13>  O        2.8409175667     4.5392135795    -0.3448936857
| 14>  H       -0.9305998229     1.9197191183    -0.0675697334
| 15>  H        1.3776922200     2.5566705642     0.8335584734
| 16>  H        2.0767719113     1.1637830116    -0.0177161251
| 17>  H        1.3878572468     2.1832712755    -2.2136403514
| 18>  H        0.5383411974     3.4733530255    -1.3700885505
| 19>  H        3.9653681593     3.0883226481    -3.0266811977
| 20>  H        4.3808462961     5.8733307897     0.0547765158
| 21> *
| 22>
| 23>                          ****END OF INPUT****

CARTESIAN COORDINATES (ANGSTROEM)
---------------------------------
  O     -0.220478    0.043050    0.146061
  C     -0.058393    1.227733    0.014799
  C      1.285790    1.916898   -0.054541
  C      1.408833    2.805899   -1.313877
  C      2.658633    3.609339   -1.340273
  C      3.749858    3.667245   -2.142597
  N      4.631269    4.633039   -1.667296
  C      4.042690    5.101914   -0.619039
  O      2.840918    4.539214   -0.344894
  H     -0.930600    1.919719   -0.067570
  H      1.377692    2.556671    0.833558
  H      2.076772    1.163783   -0.017716
  H      1.387857    2.183271   -2.213640
  H      0.538341    3.473353   -1.370089
  H      3.965368    3.088323   -3.026681
  H      4.380846    5.873331    0.054777

 Total Charge           Charge          ....    0
 Multiplicity           Mult            ....    1
 Number of Electrons    NEL             ....   66
 Basis Dimension        Dim             ....  321

ORBITAL ENERGIES
----------------

  NO   OCC          E(Eh)            E(eV)
   0   2.0000     -20.646154      -561.8104
   1   2.0000     -20.565736      -559.6221
   2   2.0000     -15.573588      -423.7789
   3   2.0000     -11.340703      -308.5962
   4   2.0000     -11.340362      -308.5869
   5   2.0000     -11.308432      -307.7181
   6   2.0000     -11.270101      -306.6750
   7   2.0000     -11.265961      -306.5624
   8   2.0000     -11.255646      -306.2817
   9   2.0000      -1.494938       -40.6793
  10   2.0000      -1.404616       -38.2215
  11   2.0000      -1.240439       -33.7541
  12   2.0000      -1.111846       -30.2549
  13   2.0000      -1.031732       -28.0749
  14   2.0000      -0.928035       -25.2531
  15   2.0000      -0.851352       -23.1665
  16   2.0000      -0.807215       -21.9654
  17   2.0000      -0.800833       -21.7918
  18   2.0000      -0.740429       -20.1481
  19   2.0000      -0.684373       -18.6227
  20   2.0000      -0.675901       -18.3922
  21   2.0000      -0.645189       -17.5565
  22   2.0000      -0.629186       -17.1210
  23   2.0000      -0.610324       -16.6078
  24   2.0000      -0.599013       -16.3000
  25   2.0000      -0.576108       -15.6767
  26   2.0000      -0.563379       -15.3303
  27   2.0000      -0.534555       -14.5460
  28   2.0000      -0.507878       -13.8201
  29   2.0000      -0.468876       -12.7588
  30   2.0000      -0.462417       -12.5830
  31   2.0000      -0.430993       -11.7279
  32   2.0000      -0.344727        -9.3805
  33   0.0000       0.120797         3.2870
  34   0.0000       0.125320         3.4101
  35   0.0000       0.144308         3.9268
  36   0.0000       0.159827         4.3491
  37   0.0000       0.163376         4.4457

MULLIKEN ATOMIC CHARGES
-----------------------
   0 O :   -0.255140
   1 C :    0.082156
   2 C :   -0.147002
   3 C :   -0.293622
   4 C :    0.194328
   5 C :   -0.150884
   6 N :   -0.262375
   7 C :    0.104703
   8 O :   -0.223569
   9 H :    0.073413
  10 H :    0.141275
  11 H :    0.135611
  12 H :    0.151463
  13 H :    0.142725
  14 H :    0.146906
  15 H :    0.160011
Sum of atomic charges:   -0.0000000

LOEWDIN ATOMIC CHARGES
----------------------
   0 O :    0.137332
   1 C :   -0.297614
   2 C :   -0.249825
   3 C :   -0.226625
   4 C :   -0.257804
   5 C :   -0.225367
   6 N :    0.099453
   7 C :   -0.325544
   8 O :    0.345791
   9 H :    0.110163
  10 H :    0.156290
  11 H :    0.148378
  12 H :    0.158628
  13 H :    0.153244
  14 H :    0.140271
  15 H :    0.133228

  Mayer bond orders larger than 0.1
B(  0-O ,  1-C ) :   2.0109 B(  1-C ,  2-C ) :   0.8636 B(  1-C ,  9-H ) :   0.9399
B(  2-C ,  3-C ) :   0.8944 B(  2-C , 10-H ) :   0.9135 B(  2-C , 11-H ) :   0.9015
B(  3-C ,  4-C ) :   0.8927 B(  3-C , 12-H ) :   0.9310 B(  3-C , 13-H ) :   0.9226
B(  4-C ,  5-C ) :   1.5914 B(  4-C ,  8-O ) :   0.9848 B(  5-C ,  6-N ) :   1.1977
B(  5-C , 14-H ) :   0.9323 B(  6-N ,  7-C ) :   1.6539 B(  7-C ,  8-O ) :   1.0778
B(  7-C , 15-H ) :   0.9253

MP2 TOTAL ENERGY:     -437.195095553 Eh
FINAL SINGLE POINT ENERGY      -437.195095552982

DIPOLE MOMENT
-------------
                                X             Y             Z
Electronic contribution:      2.18909       1.54636       0.34851
Nuclear contribution   :     -2.54046      -0.88687      -0.29396
                        -----------------------------------------
Total Dipole Moment    :     -0.35137       0.65948       0.05455
                        -----------------------------------------
Magnitude (a.u.)       :      0.74924
Magnitude (Debye)      :      1.90441

                             ****ORCA TERMINATED NORMALLY****
TOTAL RUN TIME: 0 days 0 hours 13 minutes 12 seconds 4 msec
