                         Program Version 3.0.3 - RELEASE   -
|  1> ! RI-MP2 RIJK def2-TZVP def2-TZVP/C def2-TZVP/JK TIGHTSCF
|  2> % maxcore 2000
|  3> % mp2 density relaxed end
|  4> *xyz 0 1
|  5>  C        0.0114606781     1.5160886679     0.2661978222
|  6>  C       -0.0070184614     0.0194939686    -0.0708624953
|  7>  C       -1.4384607698    -0.5196265178    -0.0645008086
|  8>  O       -1.9853411013    -0.3432475362     1.2352910512
|  9>  C        0.6671502353    -0.2971821965    -1.4190814370
| 10>  C        2.1452667231     0.0310826259    -1.4748239003
| 11>  C        3.1580003862    -0.9346445828    -0.9100822277
| 12>  C        3.0582129439    -0.7291760384    -2.4026224963
| 13>  H        1.0316277025     1.8888370475     0.3928809712
| 14>  H       -0.4630503241     2.1008024747    -0.5322887205
| 15>  H       -0.5374221491     1.7019928287     1.1918514820
| 16>  H        0.5365521872    -0.5191568436     0.7173642218
| 17>  H       -2.0361310598     0.0154892734    -0.8221277553
| 18>  H       -1.4322916362    -1.5854127380    -0.3454088587
| 19>  H       -2.9079732078    -0.6118212239     1.2128937178
| 20>  H        0.5407422934    -1.3660889992    -1.6398184707
| 21>  H        0.1423395936     0.2434198198    -2.2204891384
| 22>  H        2.3830060437     1.0838224655    -1.3516554293
| 23>  H        4.0238678484    -0.5385485924    -0.3911348687
| 24>  H        2.7903002416    -1.8719177383    -0.5041986828
| 25>  H        2.6257872364    -1.5289153759    -2.9956508559
| 26>  H        3.8550238562    -0.1898130991    -2.9030593605
| 27> *
| 28>
| 29>                          ****END OF INPUT****

CARTESIAN COORDINATES (ANGSTROEM)
---------------------------------
  C      0.011461    1.516089    0.266198
  C     -0.007018    0.019494   -0.070862
  C     -1.438461   -0.519627   -0.064501
  O     -1.985341   -0.343248    1.235291
  C      0.667150   -0.297182   -1.419081
  C      2.145267    0.031083   -1.474824
  C      3.158000   -0.934645   -0.910082
  C      3.058213   -0.729176   -2.402622
  H      1.031628    1.888837    0.392881
  H     -0.463050    2.100802   -0.532289
  H     -0.537422    1.701993    1.191851
  H      0.536552   -0.519157    0.717364
  H     -2.036131    0.015489   -0.822128
  H     -1.432292   -1.585413   -0.345409
  H     -2.907973   -0.611821    1.212894
  H      0.540742   -1.366089   -1.639818
  H      0.142340    0.243420   -2.220489
  H      2.383006    1.083822   -1.351655
  H      4.023868   -0.538549   -0.391135
  H      2.790300   -1.871918   -0.504199
  H      2.625787   -1.528915   -2.995651
  H      3.855024   -0.189813   -2.903059

 Total Charge           Charge          ....    0
 Multiplicity           Mult            ....    1
 Number of Electrons    NEL             ....   64
 Basis Dimension        Dim             ....  332

ORBITAL ENERGIES
----------------

  NO   OCC          E(Eh)            E(eV)
   0   2.0000     -20.552263      -559.2555
   1   2.0000     -11.270381      -306.6827
   2   2.0000     -11.226125      -305.4784
   3   2.0000     -11.220522      -305.3259
   4   2.0000     -11.220017      -305.3122
   5   2.0000     -11.219924      -305.3097
   6   2.0000     -11.219370      -305.2946
   7   2.0000     -11.202138      -304.8257
   8   2.0000      -1.356514       -36.9126
   9   2.0000      -1.142202       -31.0809
  10   2.0000      -1.068724       -29.0815
  11   2.0000      -0.937013       -25.4974
  12   2.0000      -0.914328       -24.8801
  13   2.0000      -0.818821       -22.2812
  14   2.0000      -0.791168       -21.5288
  15   2.0000      -0.756189       -20.5769
  16   2.0000      -0.694519       -18.8988
  17   2.0000      -0.664134       -18.0720
  18   2.0000      -0.641928       -17.4677
  19   2.0000      -0.622050       -16.9268
  20   2.0000      -0.580053       -15.7841
  21   2.0000      -0.575256       -15.6535
  22   2.0000      -0.546612       -14.8741
  23   2.0000      -0.532647       -14.4940
  24   2.0000      -0.510177       -13.8826
  25   2.0000      -0.502303       -13.6684
  26   2.0000      -0.480977       -13.0881
  27   2.0000      -0.471765       -12.8374
  28   2.0000      -0.451045       -12.2736
  29   2.0000      -0.438375       -11.9288
  30   2.0000      -0.410214       -11.1625
  31   2.0000      -0.398279       -10.8377
  32   0.0000       0.135289         3.6814
  33   0.0000       0.154276         4.1981
  34   0.0000       0.156916         4.2699
  35   0.0000       0.164001         4.4627
  36   0.0000       0.175374         4.7722

MULLIKEN ATOMIC CHARGES
-----------------------
   0 C :   -0.440009
   1 C :    0.006590
   2 C :   -0.062919
   3 O :   -0.468984
   4 C :   -0.260920
   5 C :   -0.085664
   6 C :   -0.274309
   7 C :   -0.260557
   8 H :    0.132097
   9 H :    0.112615
  10 H :    0.157580
  11 H :    0.087423
  12 H :    0.091156
  13 H :    0.095767
  14 H :    0.314921
  15 H :    0.110912
  16 H :    0.115659
  17 H :    0.122806
  18 H :    0.127776
  19 H :    0.125733
  20 H :    0.124957
  21 H :    0.127369
Sum of atomic charges:    0.0000000

LOEWDIN ATOMIC CHARGES
----------------------
   0 C :   -0.293634
   1 C :   -0.285246
   2 C :   -0.331364
   3 O :   -0.048732
   4 C :   -0.229826
   5 C :   -0.232339
   6 C :   -0.232814
   7 C :   -0.232656
   8 H :    0.121028
   9 H :    0.121861
  10 H :    0.129102
  11 H :    0.156025
  12 H :    0.116393
  13 H :    0.115835
  14 H :    0.171486
  15 H :    0.143878
  16 H :    0.142434
  17 H :    0.146894
  18 H :    0.129480
  19 H :    0.131790
  20 H :    0.130971
  21 H :    0.129433

  Mayer bond orders larger than 0.1
B(  0-C ,  1-C ) :   0.9173 B(  0-C ,  8-H ) :   0.9401 B(  0-C ,  9-H ) :   0.9307
B(  0-C , 10-H ) :   0.9346 B(  1-C ,  2-C ) :   0.9251 B(  1-C ,  4-C ) :   0.9134
B(  1-C , 11-H ) :   0.9206 B(  2-C ,  3-O ) :   1.0205 B(  2-C , 12-H ) :   0.9208
B(  2-C , 13-H ) :   0.9351 B(  3-O , 14-H ) :   0.8487 B(  4-C ,  5-C ) :   0.9207
B(  4-C , 15-H ) :   0.9300 B(  4-C , 16-H ) :   0.9188 B(  5-C ,  6-C ) :   0.8853
B(  5-C ,  7-C ) :   0.8905 B(  5-C , 17-H ) :   0.9327 B(  6-C ,  7-C ) :   0.9042
B(  6-C , 18-H ) :   0.9303 B(  6-C , 19-H ) :   0.9292 B(  7-C , 20-H ) :   0.9305
B(  7-C , 21-H ) :   0.9323

MP2 TOTAL ENERGY:     -349.588265843 Eh
FINAL SINGLE POINT ENERGY      -349.588265843282

DIPOLE MOMENT
-------------
                                X             Y             Z
Electronic contribution:     -2.13256      -1.11691       1.81870
Nuclear contribution   :      1.79920       0.92356      -2.23195
                        -----------------------------------------
Total Dipole Moment    :     -0.33336      -0.19334      -0.41325
                        -----------------------------------------
Magnitude (a.u.)       :      0.56506
Magnitude (Debye)      :      1.43626

                             ****ORCA TERMINATED NORMALLY****
TOTAL RUN TIME: 0 days 0 hours 13 minutes 2 seconds 411 msec
