                         Program Version 3.0.3 - RELEASE   -
|  1> ! RI-MP2 RIJK def2-TZVP def2-TZVP/C def2-TZVP/JK TIGHTSCF
|  2> % maxcore 2000
|  3> % mp2 density relaxed end
|  4> *xyz 0 1
|  5>  O        0.0917122968     1.3746744518     0.0881493244
|  6>  C        0.0631541763    -0.0017780281     0.0768020414
|  7>  C        0.9318914577    -0.7431219831     1.0720986483
|  8>  C        0.7006691317    -2.0315830868     0.8127241065
|  9>  C       -0.3042019515    -1.9937154180    -0.3356283846
| 10>  O       -0.7517907926    -3.1560389754    -0.9523724410
| 11>  C       -1.2908495913    -0.7910289780    -0.0573347934
| 12>  N       -1.3381567450    -0.3975480152    -1.5154651265
| 13>  C        0.0963538477    -0.8112340057    -1.2763476442
| 14>  H       -0.5173287537     1.6554015344    -0.6102201579
| 15>  H        1.5791797173    -0.2763095713     1.8002436629
| 16>  H        1.1160673674    -2.9196326826     1.2683325760
| 17>  H       -1.2402669605    -3.6779585694    -0.3069964445
| 18>  H       -2.1690708350    -0.7550961252     0.5946805292
| 19>  H       -1.8120116111    -1.1310326067    -2.0482205376
| 20>  H        0.8552372060    -0.8004669307    -2.0632438291
| 21> *
| 22>
| 23>                          ****END OF INPUT****

CARTESIAN COORDINATES (ANGSTROEM)
---------------------------------
  O      0.091712    1.374674    0.088149
  C      0.063154   -0.001778    0.076802
  C      0.931891   -0.743122    1.072099
  C      0.700669   -2.031583    0.812724
  C     -0.304202   -1.993715   -0.335628
  O     -0.751791   -3.156039   -0.952372
  C     -1.290850   -0.791029   -0.057335
  N     -1.338157   -0.397548   -1.515465
  C      0.096354   -0.811234   -1.276348
  H     -0.517329    1.655402   -0.610220
  H      1.579180   -0.276310    1.800244
  H      1.116067   -2.919633    1.268333
  H     -1.240267   -3.677959   -0.306996
  H     -2.169071   -0.755096    0.594681
  H     -1.812012   -1.131033   -2.048221
  H      0.855237   -0.800467   -2.063244

 Total Charge           Charge          ....    0
 Multiplicity           Mult            ....    1
 Number of Electrons    NEL             ....   66
 Basis Dimension        Dim             ....  321

ORBITAL ENERGIES
----------------

  NO   OCC          E(Eh)            E(eV)
   0   2.0000     -20.581899      -560.0619
   1   2.0000     -20.565848      -559.6252
   2   2.0000     -15.558456      -423.3671
   3   2.0000     -11.307857      -307.7024
   4   2.0000     -11.305186      -307.6298
   5   2.0000     -11.275952      -306.8343
   6   2.0000     -11.275283      -306.8160
   7   2.0000     -11.240077      -305.8580
   8   2.0000     -11.237959      -305.8004
   9   2.0000      -1.399610       -38.0853
  10   2.0000      -1.384407       -37.6716
  11   2.0000      -1.276808       -34.7437
  12   2.0000      -1.120673       -30.4951
  13   2.0000      -0.953434       -25.9443
  14   2.0000      -0.909725       -24.7549
  15   2.0000      -0.885987       -24.1089
  16   2.0000      -0.788177       -21.4474
  17   2.0000      -0.749055       -20.3828
  18   2.0000      -0.714104       -19.4317
  19   2.0000      -0.698141       -18.9974
  20   2.0000      -0.665564       -18.1109
  21   2.0000      -0.638635       -17.3781
  22   2.0000      -0.598335       -16.2815
  23   2.0000      -0.588490       -16.0136
  24   2.0000      -0.585709       -15.9379
  25   2.0000      -0.557445       -15.1688
  26   2.0000      -0.523508       -14.2454
  27   2.0000      -0.496054       -13.4983
  28   2.0000      -0.471731       -12.8365
  29   2.0000      -0.465535       -12.6679
  30   2.0000      -0.406509       -11.0617
  31   2.0000      -0.388618       -10.5748
  32   2.0000      -0.344586        -9.3766
  33   0.0000       0.118583         3.2268
  34   0.0000       0.131881         3.5887
  35   0.0000       0.163409         4.4466
  36   0.0000       0.175342         4.7713
  37   0.0000       0.183825         5.0021

MULLIKEN ATOMIC CHARGES
-----------------------
   0 O :   -0.462105
   1 C :    0.198780
   2 C :   -0.227691
   3 C :   -0.213403
   4 C :    0.139857
   5 O :   -0.457186
   6 C :   -0.015121
   7 N :   -0.407614
   8 C :    0.007053
   9 H :    0.339797
  10 H :    0.146515
  11 H :    0.145216
  12 H :    0.331694
  13 H :    0.134102
  14 H :    0.213124
  15 H :    0.126981
Sum of atomic charges:   -0.0000000

LOEWDIN ATOMIC CHARGES
----------------------
   0 O :    0.040723
   1 C :   -0.310331
   2 C :   -0.094572
   3 C :   -0.118154
   4 C :   -0.311953
   5 O :    0.027714
   6 C :   -0.153869
   7 N :   -0.016579
   8 C :   -0.139373
   9 H :    0.195661
  10 H :    0.142079
  11 H :    0.137180
  12 H :    0.186636
  13 H :    0.124164
  14 H :    0.162540
  15 H :    0.128134

  Mayer bond orders larger than 0.1
B(  0-O ,  1-C ) :   1.0381 B(  0-O ,  9-H ) :   0.8112 B(  1-C ,  2-C ) :   0.9544
B(  1-C ,  6-C ) :   0.8187 B(  1-C ,  8-C ) :   0.8522 B(  2-C ,  3-C ) :   1.7151
B(  2-C , 10-H ) :   0.9214 B(  3-C ,  4-C ) :   0.9499 B(  3-C , 11-H ) :   0.9153
B(  4-C ,  5-O ) :   1.1582 B(  4-C ,  6-C ) :   0.8408 B(  4-C ,  8-C ) :   0.8739
B(  5-O ,  6-C ) :  -0.1190 B(  5-O ,  8-C ) :  -0.1129 B(  5-O , 12-H ) :   0.8337
B(  6-C ,  7-N ) :   0.8969 B(  6-C , 13-H ) :   0.8672 B(  7-N ,  8-C ) :   0.8982
B(  7-N , 14-H ) :   0.8753 B(  8-C , 15-H ) :   0.8847

MP2 TOTAL ENERGY:     -437.088138670 Eh
FINAL SINGLE POINT ENERGY      -437.088138669617

DIPOLE MOMENT
-------------
                                X             Y             Z
Electronic contribution:      0.20875       0.38548      -0.08622
Nuclear contribution   :     -0.53229      -1.18823       0.43484
                        -----------------------------------------
Total Dipole Moment    :     -0.32354      -0.80274       0.34863
                        -----------------------------------------
Magnitude (a.u.)       :      0.93307
Magnitude (Debye)      :      2.37167

                             ****ORCA TERMINATED NORMALLY****
TOTAL RUN TIME: 0 days 0 hours 16 minutes 22 seconds 622 msec
