                         Program Version 3.0.3 - RELEASE   -
|  1> ! RI-MP2 RIJK def2-TZVP def2-TZVP/C def2-TZVP/JK TIGHTSCF
|  2> % maxcore 2000
|  3> % mp2 density relaxed end
|  4> *xyz 0 1
|  5>  C        0.0257289558     1.4639257314    -0.0024862955
|  6>  N       -0.0236752185     0.0174319739     0.0158408815
|  7>  C       -0.2591193273    -0.8376620905    -1.0389130867
|  8>  N       -0.2351015988    -2.0959237547    -0.6762564786
|  9>  C        0.0276160178    -2.0830512795     0.6790877001
| 10>  N        0.1531589609    -3.2021898487     1.5406760851
| 11>  C        0.1579413730    -0.7891758669     1.1073476462
| 12>  O        0.4127688840    -0.2603959846     2.3234813922
| 13>  H        1.0061299722     1.8258048766     0.3212034835
| 14>  H       -0.1585495173     1.8060134978    -1.0224807662
| 15>  H       -0.7360569003     1.8896668838     0.6573410284
| 16>  H       -0.4377832750    -0.4585656790    -2.0342597996
| 17>  H        0.8978484817    -3.8192429748     1.2272560856
| 18>  H       -0.6963780465    -3.7605938162     1.5356996012
| 19>  H        0.4990989583    -1.0206812487     2.9160651927
| 20> *
| 21>
| 22>                          ****END OF INPUT****

CARTESIAN COORDINATES (ANGSTROEM)
---------------------------------
  C      0.025729    1.463926   -0.002486
  N     -0.023675    0.017432    0.015841
  C     -0.259119   -0.837662   -1.038913
  N     -0.235102   -2.095924   -0.676256
  C      0.027616   -2.083051    0.679088
  N      0.153159   -3.202190    1.540676
  C      0.157941   -0.789176    1.107348
  O      0.412769   -0.260396    2.323481
  H      1.006130    1.825805    0.321203
  H     -0.158550    1.806013   -1.022481
  H     -0.736057    1.889667    0.657341
  H     -0.437783   -0.458566   -2.034260
  H      0.897848   -3.819243    1.227256
  H     -0.696378   -3.760594    1.535700
  H      0.499099   -1.020681    2.916065

 Total Charge           Charge          ....    0
 Multiplicity           Mult            ....    1
 Number of Electrons    NEL             ....   60
 Basis Dimension        Dim             ....  290

ORBITAL ENERGIES
----------------

  NO   OCC          E(Eh)            E(eV)
   0   2.0000     -20.595992      -560.4454
   1   2.0000     -15.615090      -424.9082
   2   2.0000     -15.552368      -423.2014
   3   2.0000     -15.540321      -422.8736
   4   2.0000     -11.311141      -307.7918
   5   2.0000     -11.285346      -307.0899
   6   2.0000     -11.279753      -306.9377
   7   2.0000     -11.254256      -306.2439
   8   2.0000      -1.422643       -38.7121
   9   2.0000      -1.331834       -36.2411
  10   2.0000      -1.207997       -32.8713
  11   2.0000      -1.150873       -31.3168
  12   2.0000      -0.997597       -27.1460
  13   2.0000      -0.945940       -25.7403
  14   2.0000      -0.824812       -22.4443
  15   2.0000      -0.785399       -21.3718
  16   2.0000      -0.722045       -19.6478
  17   2.0000      -0.671959       -18.2849
  18   2.0000      -0.669637       -18.2217
  19   2.0000      -0.642607       -17.4862
  20   2.0000      -0.640844       -17.4382
  21   2.0000      -0.598851       -16.2956
  22   2.0000      -0.582301       -15.8452
  23   2.0000      -0.575217       -15.6525
  24   2.0000      -0.563503       -15.3337
  25   2.0000      -0.527565       -14.3558
  26   2.0000      -0.440543       -11.9878
  27   2.0000      -0.418835       -11.3971
  28   2.0000      -0.380352       -10.3499
  29   2.0000      -0.290951        -7.9172
  30   0.0000       0.132228         3.5981
  31   0.0000       0.145928         3.9709
  32   0.0000       0.170579         4.6417
  33   0.0000       0.172504         4.6941
  34   0.0000       0.186265         5.0685

MULLIKEN ATOMIC CHARGES
-----------------------
   0 C :   -0.314207
   1 N :   -0.041990
   2 C :   -0.022279
   3 N :   -0.262090
   4 C :    0.033969
   5 N :   -0.572730
   6 C :    0.178472
   7 O :   -0.452749
   8 H :    0.156235
   9 H :    0.148200
  10 H :    0.156209
  11 H :    0.145194
  12 H :    0.247759
  13 H :    0.247756
  14 H :    0.352250
Sum of atomic charges:   -0.0000000

LOEWDIN ATOMIC CHARGES
----------------------
   0 C :   -0.266060
   1 N :    0.232673
   2 C :   -0.312851
   3 N :    0.090607
   4 C :   -0.388044
   5 N :   -0.131775
   6 C :   -0.344497
   7 O :    0.068736
   8 H :    0.126754
   9 H :    0.129017
  10 H :    0.126743
  11 H :    0.129266
  12 H :    0.165250
  13 H :    0.165250
  14 H :    0.208930

  Mayer bond orders larger than 0.1
B(  0-C ,  1-N ) :   0.8683 B(  0-C ,  8-H ) :   0.9295 B(  0-C ,  9-H ) :   0.9307
B(  0-C , 10-H ) :   0.9295 B(  1-N ,  2-C ) :   1.1295 B(  1-N ,  6-C ) :   1.1548
B(  2-C ,  3-N ) :   1.5756 B(  2-C , 11-H ) :   0.9234 B(  3-N ,  4-C ) :   1.2673
B(  4-C ,  5-N ) :   1.1432 B(  4-C ,  6-C ) :   1.4488 B(  5-N , 12-H ) :   0.8908
B(  5-N , 13-H ) :   0.8908 B(  6-C ,  7-O ) :   1.1003 B(  7-O , 14-H ) :   0.8098

MP2 TOTAL ENERGY:     -395.364890230 Eh
FINAL SINGLE POINT ENERGY      -395.364890230137

DIPOLE MOMENT
-------------
                                X             Y             Z
Electronic contribution:     -0.00052      -2.26030       0.42320
Nuclear contribution   :      0.06927       2.98742      -0.20393
                        -----------------------------------------
Total Dipole Moment    :      0.06875       0.72712       0.21927
                        -----------------------------------------
Magnitude (a.u.)       :      0.76257
Magnitude (Debye)      :      1.93829

                             ****ORCA TERMINATED NORMALLY****
TOTAL RUN TIME: 0 days 0 hours 10 minutes 55 seconds 63 msec
