                         Program Version 3.0.3 - RELEASE   -
|  1> ! RI-MP2 RIJK def2-TZVP def2-TZVP/C def2-TZVP/JK TIGHTSCF
|  2> % maxcore 2000
|  3> % mp2 density relaxed end
|  4> *xyz 0 1
|  5>  C        0.1246555141     1.5932340918     0.0448629782
|  6>  C       -0.0269391532     0.0745244253    -0.0632746681
|  7>  N        0.6926132712    -0.4959761586    -1.1915551461
|  8>  C        0.0733832986    -0.8003748187    -2.3915373947
|  9>  O       -1.0975941860    -0.7404018701    -2.6664711033
| 10>  O        1.0638469765    -1.1998146257    -3.2496857006
| 11>  C        2.2770298238    -1.1471177517    -2.5720708679
| 12>  C        2.0692819604    -0.7047935282    -1.3216640890
| 13>  N        2.9386460152    -0.3731635175    -0.2806431266
| 14>  H        1.1729521136     1.8715239919     0.1790429089
| 15>  H       -0.2546698013     2.0793185971    -0.8582332784
| 16>  H       -0.4466387685     1.9658844596     0.9007881886
| 17>  H        0.3099019378    -0.4138797066     0.8579500562
| 18>  H       -1.0734800899    -0.1996214555    -0.2172448411
| 19>  H        3.1578599999    -1.4328029256    -3.1170702206
| 20>  H        3.9042478544    -0.5282102820    -0.5420504745
| 21>  H        2.7446255934    -0.8849393757     0.5743746891
| 22> *
| 23>
| 24>                          ****END OF INPUT****

CARTESIAN COORDINATES (ANGSTROEM)
---------------------------------
  C      0.124656    1.593234    0.044863
  C     -0.026939    0.074524   -0.063275
  N      0.692613   -0.495976   -1.191555
  C      0.073383   -0.800375   -2.391537
  O     -1.097594   -0.740402   -2.666471
  O      1.063847   -1.199815   -3.249686
  C      2.277030   -1.147118   -2.572071
  C      2.069282   -0.704794   -1.321664
  N      2.938646   -0.373164   -0.280643
  H      1.172952    1.871524    0.179043
  H     -0.254670    2.079319   -0.858233
  H     -0.446639    1.965884    0.900788
  H      0.309902   -0.413880    0.857950
  H     -1.073480   -0.199621   -0.217245
  H      3.157860   -1.432803   -3.117070
  H      3.904248   -0.528210   -0.542050
  H      2.744626   -0.884939    0.574375

 Total Charge           Charge          ....    0
 Multiplicity           Mult            ....    1
 Number of Electrons    NEL             ....   68
 Basis Dimension        Dim             ....  327

ORBITAL ENERGIES
----------------

  NO   OCC          E(Eh)            E(eV)
   0   2.0000     -20.614686      -560.9541
   1   2.0000     -20.522077      -558.4341
   2   2.0000     -15.612884      -424.8482
   3   2.0000     -15.597858      -424.4393
   4   2.0000     -11.400066      -310.2116
   5   2.0000     -11.325871      -308.1926
   6   2.0000     -11.281622      -306.9886
   7   2.0000     -11.279985      -306.9440
   8   2.0000     -11.225380      -305.4581
   9   2.0000      -1.481232       -40.3064
  10   2.0000      -1.365519       -37.1577
  11   2.0000      -1.295961       -35.2649
  12   2.0000      -1.216642       -33.1065
  13   2.0000      -1.051667       -28.6173
  14   2.0000      -0.998263       -27.1641
  15   2.0000      -0.896467       -24.3941
  16   2.0000      -0.847436       -23.0599
  17   2.0000      -0.797602       -21.7039
  18   2.0000      -0.730645       -19.8818
  19   2.0000      -0.697568       -18.9818
  20   2.0000      -0.678839       -18.4721
  21   2.0000      -0.675380       -18.3780
  22   2.0000      -0.635008       -17.2794
  23   2.0000      -0.622307       -16.9338
  24   2.0000      -0.610445       -16.6111
  25   2.0000      -0.587194       -15.9784
  26   2.0000      -0.567043       -15.4300
  27   2.0000      -0.536425       -14.5969
  28   2.0000      -0.527556       -14.3555
  29   2.0000      -0.505016       -13.7422
  30   2.0000      -0.501275       -13.6404
  31   2.0000      -0.454844       -12.3769
  32   2.0000      -0.432521       -11.7695
  33   2.0000      -0.310584        -8.4514
  34   0.0000       0.108785         2.9602
  35   0.0000       0.146721         3.9925
  36   0.0000       0.157754         4.2927
  37   0.0000       0.179733         4.8908
  38   0.0000       0.184013         5.0073

MULLIKEN ATOMIC CHARGES
-----------------------
   0 C :   -0.393896
   1 C :   -0.163530
   2 N :   -0.085889
   3 C :    0.315543
   4 O :   -0.356623
   5 O :   -0.212077
   6 C :   -0.100134
   7 C :    0.160798
   8 N :   -0.539904
   9 H :    0.146990
  10 H :    0.145909
  11 H :    0.131171
  12 H :    0.112573
  13 H :    0.168202
  14 H :    0.155241
  15 H :    0.253984
  16 H :    0.261641
Sum of atomic charges:    0.0000000

LOEWDIN ATOMIC CHARGES
----------------------
   0 C :   -0.309953
   1 C :   -0.267510
   2 N :    0.239574
   3 C :   -0.525118
   4 O :    0.082127
   5 O :    0.302432
   6 C :   -0.256565
   7 C :   -0.330464
   8 N :   -0.080933
   9 H :    0.125000
  10 H :    0.128734
  11 H :    0.125614
  12 H :    0.132037
  13 H :    0.151823
  14 H :    0.134051
  15 H :    0.176790
  16 H :    0.172362

  Mayer bond orders larger than 0.1
B(  0-C ,  1-C ) :   0.9206 B(  0-C ,  9-H ) :   0.9328 B(  0-C , 10-H ) :   0.9342
B(  0-C , 11-H ) :   0.9325 B(  1-C ,  2-N ) :   0.8411 B(  1-C , 12-H ) :   0.9353
B(  1-C , 13-H ) :   0.9162 B(  2-N ,  3-C ) :   1.1057 B(  2-N ,  7-C ) :   1.0465
B(  3-C ,  4-O ) :   1.9478 B(  3-C ,  5-O ) :   1.0782 B(  5-O ,  6-C ) :   0.9542
B(  6-C ,  7-C ) :   1.6628 B(  6-C , 14-H ) :   0.9399 B(  7-C ,  8-N ) :   0.9878
B(  8-N , 15-H ) :   0.8807 B(  8-N , 16-H ) :   0.8601

MP2 TOTAL ENERGY:     -454.456271494 Eh
FINAL SINGLE POINT ENERGY      -454.456271494073

DIPOLE MOMENT
-------------
                                X             Y             Z
Electronic contribution:     -0.57583      -5.36607      -7.63674
Nuclear contribution   :      2.22210       5.36751       9.19907
                        -----------------------------------------
Total Dipole Moment    :      1.64627       0.00144       1.56233
                        -----------------------------------------
Magnitude (a.u.)       :      2.26960
Magnitude (Debye)      :      5.76887

                             ****ORCA TERMINATED NORMALLY****
TOTAL RUN TIME: 0 days 0 hours 15 minutes 46 seconds 961 msec
