                         Program Version 3.0.3 - RELEASE   -
|  1> ! RI-MP2 RIJK def2-TZVP def2-TZVP/C def2-TZVP/JK TIGHTSCF
|  2> % maxcore 2000
|  3> % mp2 density relaxed end
|  4> *xyz 0 1
|  5>  C        0.2109810409     1.5250963698    -0.1614070035
|  6>  C        0.1304917193     0.0164978751     0.0141594184
|  7>  O        0.5845032166    -0.5618859875    -1.2308255466
|  8>  C        1.1300595205    -1.7969828249    -1.3433023852
|  9>  O        1.2901597724    -2.2639565166    -2.4381854525
| 10>  C        1.5906123059    -2.5006812084    -0.0754989701
| 11>  C        0.8957430486    -2.0333934135     1.2044434893
| 12>  C        0.8824182150    -0.5043773576     1.2385875316
| 13>  O        2.1967500652     0.0364077594     1.2162525518
| 14>  H        1.2517655668     1.8379593240    -0.2581657161
| 15>  H       -0.3382658223     1.8250332239    -1.0567152722
| 16>  H       -0.2280587603     2.0297811918     0.7047471362
| 17>  H       -0.9193581675    -0.2842388414     0.1364222883
| 18>  H        1.4838089058    -3.5738121174    -0.2437525724
| 19>  H        2.6643757711    -2.2939942786    -0.0034913797
| 20>  H       -0.1371167059    -2.4002326693     1.2458212179
| 21>  H        1.4058217952    -2.4357562545     2.0878055971
| 22>  H        0.3316321528    -0.1490624160     2.1236674335
| 23>  H        2.6640150099    -0.2763173082     1.9972485941
| 24> *
| 25>
| 26>                          ****END OF INPUT****

CARTESIAN COORDINATES (ANGSTROEM)
---------------------------------
  C      0.210981    1.525096   -0.161407
  C      0.130492    0.016498    0.014159
  O      0.584503   -0.561886   -1.230826
  C      1.130060   -1.796983   -1.343302
  O      1.290160   -2.263957   -2.438185
  C      1.590612   -2.500681   -0.075499
  C      0.895743   -2.033393    1.204443
  C      0.882418   -0.504377    1.238588
  O      2.196750    0.036408    1.216253
  H      1.251766    1.837959   -0.258166
  H     -0.338266    1.825033   -1.056715
  H     -0.228059    2.029781    0.704747
  H     -0.919358   -0.284239    0.136422
  H      1.483809   -3.573812   -0.243753
  H      2.664376   -2.293994   -0.003491
  H     -0.137117   -2.400233    1.245821
  H      1.405822   -2.435756    2.087806
  H      0.331632   -0.149062    2.123667
  H      2.664015   -0.276317    1.997249

 Total Charge           Charge          ....    0
 Multiplicity           Mult            ....    1
 Number of Electrons    NEL             ....   70
 Basis Dimension        Dim             ....  339

ORBITAL ENERGIES
----------------

  NO   OCC          E(Eh)            E(eV)
   0   2.0000     -20.589196      -560.2605
   1   2.0000     -20.577467      -559.9413
   2   2.0000     -20.526143      -558.5447
   3   2.0000     -11.372027      -309.4486
   4   2.0000     -11.305485      -307.6379
   5   2.0000     -11.304649      -307.6151
   6   2.0000     -11.252295      -306.1905
   7   2.0000     -11.249241      -306.1074
   8   2.0000     -11.221448      -305.3511
   9   2.0000      -1.445391       -39.3311
  10   2.0000      -1.386554       -37.7301
  11   2.0000      -1.348982       -36.7077
  12   2.0000      -1.098407       -29.8892
  13   2.0000      -1.058995       -28.8167
  14   2.0000      -0.957507       -26.0551
  15   2.0000      -0.876934       -23.8626
  16   2.0000      -0.850918       -23.1546
  17   2.0000      -0.758271       -20.6336
  18   2.0000      -0.715917       -19.4811
  19   2.0000      -0.687214       -18.7000
  20   2.0000      -0.670182       -18.2366
  21   2.0000      -0.653894       -17.7934
  22   2.0000      -0.647398       -17.6166
  23   2.0000      -0.602794       -16.4029
  24   2.0000      -0.586220       -15.9518
  25   2.0000      -0.576557       -15.6889
  26   2.0000      -0.555206       -15.1079
  27   2.0000      -0.547971       -14.9110
  28   2.0000      -0.539651       -14.6847
  29   2.0000      -0.522943       -14.2300
  30   2.0000      -0.502683       -13.6787
  31   2.0000      -0.475447       -12.9376
  32   2.0000      -0.461678       -12.5629
  33   2.0000      -0.441812       -12.0223
  34   2.0000      -0.425463       -11.5774
  35   0.0000       0.105205         2.8628
  36   0.0000       0.143562         3.9065
  37   0.0000       0.154338         4.1998
  38   0.0000       0.162970         4.4346
  39   0.0000       0.168224         4.5776

MULLIKEN ATOMIC CHARGES
-----------------------
   0 C :   -0.381692
   1 C :    0.067930
   2 O :   -0.207113
   3 C :    0.213594
   4 O :   -0.292360
   5 C :   -0.186556
   6 C :   -0.281701
   7 C :    0.047891
   8 O :   -0.469236
   9 H :    0.154396
  10 H :    0.149301
  11 H :    0.118475
  12 H :    0.097533
  13 H :    0.155645
  14 H :    0.127503
  15 H :    0.124695
  16 H :    0.136188
  17 H :    0.109082
  18 H :    0.316423
Sum of atomic charges:   -0.0000000

LOEWDIN ATOMIC CHARGES
----------------------
   0 C :   -0.283339
   1 C :   -0.293088
   2 O :    0.282060
   3 C :   -0.473315
   4 O :    0.131610
   5 C :   -0.232510
   6 C :   -0.251847
   7 C :   -0.339179
   8 O :   -0.003411
   9 H :    0.133531
  10 H :    0.130128
  11 H :    0.128301
  12 H :    0.148769
  13 H :    0.154170
  14 H :    0.160919
  15 H :    0.146854
  16 H :    0.138669
  17 H :    0.143406
  18 H :    0.178274

  Mayer bond orders larger than 0.1
B(  0-C ,  1-C ) :   0.9312 B(  0-C ,  9-H ) :   0.9310 B(  0-C , 10-H ) :   0.9364
B(  0-C , 11-H ) :   0.9285 B(  1-C ,  2-O ) :   0.8608 B(  1-C ,  7-C ) :   0.9169
B(  1-C , 12-H ) :   0.9237 B(  2-O ,  3-C ) :   1.1293 B(  3-C ,  4-O ) :   2.0286
B(  3-C ,  5-C ) :   0.9462 B(  5-C ,  6-C ) :   0.9007 B(  5-C , 13-H ) :   0.9183
B(  5-C , 14-H ) :   0.8986 B(  6-C ,  7-C ) :   0.9192 B(  6-C , 15-H ) :   0.9255
B(  6-C , 16-H ) :   0.9295 B(  7-C ,  8-O ) :   0.9508 B(  7-C , 17-H ) :   0.9178
B(  8-O , 18-H ) :   0.8423

MP2 TOTAL ENERGY:     -459.479891482 Eh
FINAL SINGLE POINT ENERGY      -459.479891482362

DIPOLE MOMENT
-------------
                                X             Y             Z
Electronic contribution:      1.50806      -2.79649      -5.67397
Nuclear contribution   :     -1.79263       2.84716       7.86872
                        -----------------------------------------
Total Dipole Moment    :     -0.28457       0.05066       2.19475
                        -----------------------------------------
Magnitude (a.u.)       :      2.21370
Magnitude (Debye)      :      5.62678

                             ****ORCA TERMINATED NORMALLY****
TOTAL RUN TIME: 0 days 0 hours 17 minutes 36 seconds 970 msec
