                         Program Version 3.0.3 - RELEASE   -
|  1> ! RI-MP2 RIJK def2-TZVP def2-TZVP/C def2-TZVP/JK TIGHTSCF
|  2> % maxcore 2000
|  3> % mp2 density relaxed end
|  4> *xyz 0 1
|  5>  C       -0.0728245268     1.4472966486     0.0597368952
|  6>  C       -0.0039421590    -0.0039410918     0.0067461955
|  7>  C        0.0709056796    -1.2088009847    -0.0371579866
|  8>  C        0.0927585483    -2.6204682880    -0.0898432266
|  9>  C        1.1675650752    -3.4130136821    -0.2710228501
| 10>  C        0.7842868834    -4.8461191067    -0.1648520899
| 11>  O        0.2360139981    -5.1980839743     1.1317031320
| 12>  C       -0.6698563686    -4.8828046234     0.0751325661
| 13>  C       -1.1799580550    -3.4494548977     0.0944214046
| 14>  H        0.5538615113     1.8457826194     0.8657331540
| 15>  H        0.2734304693     1.8949338835    -0.8788810587
| 16>  H       -1.0980986009     1.7916122644     0.2336538672
| 17>  H        2.1792287425    -3.0644296471    -0.4309246072
| 18>  H        1.3424550669    -5.6370691266    -0.6554933487
| 19>  H       -1.3101508232    -5.6967089978    -0.2544171693
| 20>  H       -1.6865352069    -3.2059838246     1.0344826683
| 21>  H       -1.8931110644    -3.2634486710    -0.7174449459
| 22> *
| 23>
| 24>                          ****END OF INPUT****

CARTESIAN COORDINATES (ANGSTROEM)
---------------------------------
  C     -0.072825    1.447297    0.059737
  C     -0.003942   -0.003941    0.006746
  C      0.070906   -1.208801   -0.037158
  C      0.092759   -2.620468   -0.089843
  C      1.167565   -3.413014   -0.271023
  C      0.784287   -4.846119   -0.164852
  O      0.236014   -5.198084    1.131703
  C     -0.669856   -4.882805    0.075133
  C     -1.179958   -3.449455    0.094421
  H      0.553862    1.845783    0.865733
  H      0.273430    1.894934   -0.878881
  H     -1.098099    1.791612    0.233654
  H      2.179229   -3.064430   -0.430925
  H      1.342455   -5.637069   -0.655493
  H     -1.310151   -5.696709   -0.254417
  H     -1.686535   -3.205984    1.034483
  H     -1.893111   -3.263449   -0.717445

 Total Charge           Charge          ....    0
 Multiplicity           Mult            ....    1
 Number of Electrons    NEL             ....   64
 Basis Dimension        Dim             ....  327

ORBITAL ENERGIES
----------------

  NO   OCC          E(Eh)            E(eV)
   0   2.0000     -20.564581      -559.5907
   1   2.0000     -11.288300      -307.1703
   2   2.0000     -11.286438      -307.1196
   3   2.0000     -11.262249      -306.4614
   4   2.0000     -11.251888      -306.1794
   5   2.0000     -11.241249      -305.8899
   6   2.0000     -11.238465      -305.8142
   7   2.0000     -11.236094      -305.7497
   8   2.0000     -11.225195      -305.4531
   9   2.0000      -1.408362       -38.3235
  10   2.0000      -1.129887       -30.7458
  11   2.0000      -1.058364       -28.7996
  12   2.0000      -0.982707       -26.7408
  13   2.0000      -0.975175       -26.5359
  14   2.0000      -0.909857       -24.7585
  15   2.0000      -0.805119       -21.9084
  16   2.0000      -0.787051       -21.4167
  17   2.0000      -0.727601       -19.7990
  18   2.0000      -0.652594       -17.7580
  19   2.0000      -0.629136       -17.1197
  20   2.0000      -0.605639       -16.4803
  21   2.0000      -0.594629       -16.1807
  22   2.0000      -0.592436       -16.1210
  23   2.0000      -0.589096       -16.0301
  24   2.0000      -0.559329       -15.2201
  25   2.0000      -0.541677       -14.7398
  26   2.0000      -0.523384       -14.2420
  27   2.0000      -0.456947       -12.4342
  28   2.0000      -0.435219       -11.8429
  29   2.0000      -0.424797       -11.5593
  30   2.0000      -0.377094       -10.2612
  31   2.0000      -0.320815        -8.7298
  32   0.0000       0.102236         2.7820
  33   0.0000       0.134254         3.6532
  34   0.0000       0.155586         4.2337
  35   0.0000       0.172464         4.6930
  36   0.0000       0.184362         5.0168

MULLIKEN ATOMIC CHARGES
-----------------------
   0 C :   -0.469631
   1 C :    0.058203
   2 C :    0.123552
   3 C :   -0.166019
   4 C :   -0.229837
   5 C :    0.056955
   6 O :   -0.317607
   7 C :   -0.035450
   8 C :   -0.161119
   9 H :    0.165616
  10 H :    0.164422
  11 H :    0.163381
  12 H :    0.141291
  13 H :    0.124137
  14 H :    0.122987
  15 H :    0.132543
  16 H :    0.126576
Sum of atomic charges:   -0.0000000

LOEWDIN ATOMIC CHARGES
----------------------
   0 C :   -0.292850
   1 C :   -0.075637
   2 C :   -0.047753
   3 C :   -0.136830
   4 C :   -0.092584
   5 C :   -0.236967
   6 O :    0.163851
   7 C :   -0.250988
   8 C :   -0.176730
   9 H :    0.143089
  10 H :    0.142915
  11 H :    0.142017
  12 H :    0.144534
  13 H :    0.136276
  14 H :    0.134173
  15 H :    0.154115
  16 H :    0.149367

  Mayer bond orders larger than 0.1
B(  0-C ,  1-C ) :   0.8548 B(  0-C ,  9-H ) :   0.9442 B(  0-C , 10-H ) :   0.9437
B(  0-C , 11-H ) :   0.9436 B(  1-C ,  2-C ) :   2.6147 B(  1-C ,  3-C ) :  -0.1532
B(  2-C ,  3-C ) :   1.0166 B(  3-C ,  4-C ) :   1.6906 B(  3-C ,  8-C ) :   0.9842
B(  4-C ,  5-C ) :   0.9516 B(  4-C , 12-H ) :   0.9245 B(  5-C ,  6-O ) :   0.9082
B(  5-C ,  7-C ) :   0.9684 B(  5-C , 13-H ) :   0.9319 B(  6-O ,  7-C ) :   0.9512
B(  7-C ,  8-C ) :   0.9430 B(  7-C , 14-H ) :   0.9282 B(  8-C , 15-H ) :   0.8906
B(  8-C , 16-H ) :   0.9007

MP2 TOTAL ENERGY:     -383.965369942 Eh
FINAL SINGLE POINT ENERGY      -383.965369941836

DIPOLE MOMENT
-------------
                                X             Y             Z
Electronic contribution:      1.56753      -5.40586       0.93208
Nuclear contribution   :     -1.80908       5.97506      -1.57376
                        -----------------------------------------
Total Dipole Moment    :     -0.24154       0.56920      -0.64168
                        -----------------------------------------
Magnitude (a.u.)       :      0.89111
Magnitude (Debye)      :      2.26503

                             ****ORCA TERMINATED NORMALLY****
TOTAL RUN TIME: 0 days 0 hours 23 minutes 44 seconds 783 msec
