                         Program Version 3.0.3 - RELEASE   -
|  1> ! RI-MP2 RIJK def2-TZVP def2-TZVP/C def2-TZVP/JK TIGHTSCF
|  2> % maxcore 2000
|  3> % mp2 density relaxed end
|  4> *xyz 0 1
|  5>  C       -0.0467654002     1.5628549091     0.0265634406
|  6>  C        0.0224161871     0.0356772189     0.1682772800
|  7>  C        0.7878746237    -0.3606660755     1.4386893884
|  8>  C       -1.4026431825    -0.5419495521     0.1325721301
|  9>  C       -1.4692700278    -2.0981038190     0.1290080830
| 10>  C       -2.8640647720    -2.5587217594     0.1621014151
| 11>  N       -3.9693026072    -2.8879219559     0.2148193834
| 12>  C       -0.7633884859    -2.6720254606    -1.0261565361
| 13>  N       -0.1809894872    -3.0968711638    -1.9280282081
| 14>  H        0.9577664638     1.9957779938     0.0065523642
| 15>  H       -0.5577638750     1.8569261246    -0.8956727674
| 16>  H       -0.5863581964     2.0132486222     0.8680029604
| 17>  H        0.5674099260    -0.3592021505    -0.6991065113
| 18>  H        0.2585288558    -0.0255781170     2.3388053542
| 19>  H        0.9405869716    -1.4419499755     1.5187224812
| 20>  H        1.7796654745     0.1009231572     1.4470207929
| 21>  H       -1.9703927310    -0.2005442744     1.0053887054
| 22>  H       -1.9312691733    -0.1813644632    -0.7550395483
| 23>  H       -0.9798087138    -2.4800000789     1.0331657023
| 24> *
| 25>
| 26>                          ****END OF INPUT****

CARTESIAN COORDINATES (ANGSTROEM)
---------------------------------
  C     -0.046765    1.562855    0.026563
  C      0.022416    0.035677    0.168277
  C      0.787875   -0.360666    1.438689
  C     -1.402643   -0.541950    0.132572
  C     -1.469270   -2.098104    0.129008
  C     -2.864065   -2.558722    0.162101
  N     -3.969303   -2.887922    0.214819
  C     -0.763388   -2.672025   -1.026157
  N     -0.180989   -3.096871   -1.928028
  H      0.957766    1.995778    0.006552
  H     -0.557764    1.856926   -0.895673
  H     -0.586358    2.013249    0.868003
  H      0.567410   -0.359202   -0.699107
  H      0.258529   -0.025578    2.338805
  H      0.940587   -1.441950    1.518722
  H      1.779665    0.100923    1.447021
  H     -1.970393   -0.200544    1.005389
  H     -1.931269   -0.181364   -0.755040
  H     -0.979809   -2.480000    1.033166

 Total Charge           Charge          ....    0
 Multiplicity           Mult            ....    1
 Number of Electrons    NEL             ....   66
 Basis Dimension        Dim             ....  339

ORBITAL ENERGIES
----------------

  NO   OCC          E(Eh)            E(eV)
   0   2.0000     -15.597115      -424.4191
   1   2.0000     -15.596220      -424.3947
   2   2.0000     -11.348455      -308.8072
   3   2.0000     -11.300072      -307.4906
   4   2.0000     -11.299281      -307.4691
   5   2.0000     -11.276913      -306.8604
   6   2.0000     -11.259732      -306.3929
   7   2.0000     -11.239647      -305.8463
   8   2.0000     -11.235727      -305.7397
   9   2.0000      -1.254092       -34.1256
  10   2.0000      -1.237853       -33.6837
  11   2.0000      -1.149738       -31.2860
  12   2.0000      -1.082729       -29.4626
  13   2.0000      -0.957321       -26.0500
  14   2.0000      -0.941514       -25.6199
  15   2.0000      -0.816438       -22.2164
  16   2.0000      -0.772885       -21.0313
  17   2.0000      -0.730036       -19.8653
  18   2.0000      -0.670432       -18.2434
  19   2.0000      -0.632639       -17.2150
  20   2.0000      -0.611880       -16.6501
  21   2.0000      -0.592057       -16.1107
  22   2.0000      -0.579842       -15.7783
  23   2.0000      -0.572936       -15.5904
  24   2.0000      -0.561100       -15.2683
  25   2.0000      -0.549174       -14.9438
  26   2.0000      -0.516427       -14.0527
  27   2.0000      -0.501184       -13.6379
  28   2.0000      -0.500491       -13.6190
  29   2.0000      -0.494686       -13.4611
  30   2.0000      -0.486824       -13.2472
  31   2.0000      -0.482251       -13.1227
  32   2.0000      -0.465016       -12.6537
  33   0.0000       0.103449         2.8150
  34   0.0000       0.130000         3.5375
  35   0.0000       0.141736         3.8568
  36   0.0000       0.149085         4.0568
  37   0.0000       0.155520         4.2319

MULLIKEN ATOMIC CHARGES
-----------------------
   0 C :   -0.397871
   1 C :   -0.026778
   2 C :   -0.433735
   3 C :   -0.291726
   4 C :    0.159810
   5 C :   -0.167905
   6 N :   -0.035090
   7 C :   -0.183753
   8 N :   -0.040884
   9 H :    0.141777
  10 H :    0.139196
  11 H :    0.127321
  12 H :    0.122495
  13 H :    0.132596
  14 H :    0.136511
  15 H :    0.145510
  16 H :    0.149796
  17 H :    0.152394
  18 H :    0.170339
Sum of atomic charges:    0.0000000

LOEWDIN ATOMIC CHARGES
----------------------
   0 C :   -0.287846
   1 C :   -0.304492
   2 C :   -0.291041
   3 C :   -0.187792
   4 C :   -0.222071
   5 C :   -0.150676
   6 N :    0.086135
   7 C :   -0.152274
   8 N :    0.086494
   9 H :    0.127257
  10 H :    0.125927
  11 H :    0.125509
  12 H :    0.159433
  13 H :    0.126325
  14 H :    0.121215
  15 H :    0.129848
  16 H :    0.153941
  17 H :    0.155401
  18 H :    0.198707

  Mayer bond orders larger than 0.1
B(  0-C ,  1-C ) :   0.9178 B(  0-C ,  9-H ) :   0.9402 B(  0-C , 10-H ) :   0.9388
B(  0-C , 11-H ) :   0.9294 B(  1-C ,  2-C ) :   0.9025 B(  1-C ,  3-C ) :   0.9157
B(  1-C , 12-H ) :   0.9263 B(  2-C , 13-H ) :   0.9295 B(  2-C , 14-H ) :   0.9360
B(  2-C , 15-H ) :   0.9360 B(  3-C ,  4-C ) :   0.8773 B(  3-C , 16-H ) :   0.9256
B(  3-C , 17-H ) :   0.9166 B(  4-C ,  5-C ) :   0.9104 B(  4-C ,  7-C ) :   0.8980
B(  4-C , 18-H ) :   0.8931 B(  5-C ,  6-N ) :   2.8594 B(  7-C ,  8-N ) :   2.8397

MP2 TOTAL ENERGY:     -381.426122965 Eh
FINAL SINGLE POINT ENERGY      -381.426122964714

DIPOLE MOMENT
-------------
                                X             Y             Z
Electronic contribution:     -7.59398     -12.35102      -4.91453
Nuclear contribution   :      8.43357      13.63722       5.93372
                        -----------------------------------------
Total Dipole Moment    :      0.83959       1.28620       1.01919
                        -----------------------------------------
Magnitude (a.u.)       :      1.84336
Magnitude (Debye)      :      4.68546

                             ****ORCA TERMINATED NORMALLY****
TOTAL RUN TIME: 0 days 0 hours 18 minutes 36 seconds 667 msec
