                         Program Version 3.0.3 - RELEASE   -
|  1> ! RI-MP2 RIJK def2-TZVP def2-TZVP/C def2-TZVP/JK TIGHTSCF
|  2> % maxcore 2000
|  3> % mp2 density relaxed end
|  4> *xyz 0 1
|  5>  O        0.3432158207     0.9134548731    -1.1565116198
|  6>  C        0.1330780842    -0.0932568262    -0.1993714613
|  7>  C        1.3031811730    -0.9986770170     0.1176154837
|  8>  C        0.9054057333     0.1118300893     1.0694829428
|  9>  C       -1.2559311057    -0.6424563743    -0.1725796552
| 10>  C       -2.2365121506    -0.5206468479    -1.3282332439
| 11>  C       -2.6113371509     0.0029531881     0.0241571875
| 12>  O       -3.0863667654    -1.0553860149     0.8601465028
| 13>  C       -1.7926788831    -1.7098267783     0.7832123567
| 14>  H        0.3687312023     0.4900445167    -2.0220734447
| 15>  H        1.1061652522    -2.0257236009     0.4070919691
| 16>  H        2.2054319801    -0.8552583174    -0.4666323598
| 17>  H        1.5386217865     0.9904332055     1.1023415689
| 18>  H        0.4404685208    -0.1519859658     2.0127685421
| 19>  H       -1.9757383041     0.2450386814    -2.0515774563
| 20>  H       -2.7473793327    -1.3933816829    -1.7277655311
| 21>  H       -2.9244593999     1.0154238837     0.2499568103
| 22>  H       -1.8631115724    -2.7376638453     0.4069265450
| 23>  H       -1.3087892983    -1.7114033669     1.7669869634
| 24> *
| 25>
| 26>                          ****END OF INPUT****

CARTESIAN COORDINATES (ANGSTROEM)
---------------------------------
  O      0.343216    0.913455   -1.156512
  C      0.133078   -0.093257   -0.199371
  C      1.303181   -0.998677    0.117615
  C      0.905406    0.111830    1.069483
  C     -1.255931   -0.642456   -0.172580
  C     -2.236512   -0.520647   -1.328233
  C     -2.611337    0.002953    0.024157
  O     -3.086367   -1.055386    0.860147
  C     -1.792679   -1.709827    0.783212
  H      0.368731    0.490045   -2.022073
  H      1.106165   -2.025724    0.407092
  H      2.205432   -0.855258   -0.466632
  H      1.538622    0.990433    1.102342
  H      0.440469   -0.151986    2.012769
  H     -1.975738    0.245039   -2.051577
  H     -2.747379   -1.393382   -1.727766
  H     -2.924459    1.015424    0.249957
  H     -1.863112   -2.737664    0.406927
  H     -1.308789   -1.711403    1.766987

 Total Charge           Charge          ....    0
 Multiplicity           Mult            ....    1
 Number of Electrons    NEL             ....   68
 Basis Dimension        Dim             ....  339

ORBITAL ENERGIES
----------------

  NO   OCC          E(Eh)            E(eV)
   0   2.0000     -20.569816      -559.7331
   1   2.0000     -20.554833      -559.3254
   2   2.0000     -11.299963      -307.4876
   3   2.0000     -11.288306      -307.1704
   4   2.0000     -11.287095      -307.1375
   5   2.0000     -11.248606      -306.0901
   6   2.0000     -11.234670      -305.7109
   7   2.0000     -11.233486      -305.6787
   8   2.0000     -11.229942      -305.5823
   9   2.0000      -1.394423       -37.9442
  10   2.0000      -1.380398       -37.5625
  11   2.0000      -1.145533       -31.1715
  12   2.0000      -1.110510       -30.2185
  13   2.0000      -0.954886       -25.9838
  14   2.0000      -0.858826       -23.3698
  15   2.0000      -0.837438       -22.7879
  16   2.0000      -0.817268       -22.2390
  17   2.0000      -0.745834       -20.2952
  18   2.0000      -0.729091       -19.8396
  19   2.0000      -0.680540       -18.5184
  20   2.0000      -0.649011       -17.6605
  21   2.0000      -0.643350       -17.5064
  22   2.0000      -0.626246       -17.0410
  23   2.0000      -0.588436       -16.0122
  24   2.0000      -0.567118       -15.4321
  25   2.0000      -0.546369       -14.8675
  26   2.0000      -0.533435       -14.5155
  27   2.0000      -0.523818       -14.2538
  28   2.0000      -0.510365       -13.8877
  29   2.0000      -0.473743       -12.8912
  30   2.0000      -0.454442       -12.3660
  31   2.0000      -0.426119       -11.5953
  32   2.0000      -0.392122       -10.6702
  33   2.0000      -0.359468        -9.7816
  34   0.0000       0.136437         3.7126
  35   0.0000       0.150594         4.0979
  36   0.0000       0.164949         4.4885
  37   0.0000       0.173129         4.7111
  38   0.0000       0.191403         5.2083

MULLIKEN ATOMIC CHARGES
-----------------------
   0 O :   -0.469914
   1 C :    0.247706
   2 C :   -0.321718
   3 C :   -0.276793
   4 C :   -0.050274
   5 C :   -0.289980
   6 C :    0.043219
   7 O :   -0.328845
   8 C :   -0.028336
   9 H :    0.325657
  10 H :    0.129655
  11 H :    0.136502
  12 H :    0.136677
  13 H :    0.136396
  14 H :    0.126164
  15 H :    0.133791
  16 H :    0.136552
  17 H :    0.106725
  18 H :    0.106817
Sum of atomic charges:   -0.0000000

LOEWDIN ATOMIC CHARGES
----------------------
   0 O :    0.031660
   1 C :   -0.339824
   2 C :   -0.209130
   3 C :   -0.197479
   4 C :   -0.186719
   5 C :   -0.188325
   6 C :   -0.222392
   7 O :    0.144671
   8 C :   -0.214172
   9 H :    0.181655
  10 H :    0.133522
  11 H :    0.135656
  12 H :    0.140568
  13 H :    0.133465
  14 H :    0.142205
  15 H :    0.134738
  16 H :    0.133639
  17 H :    0.120499
  18 H :    0.125763

  Mayer bond orders larger than 0.1
B(  0-O ,  1-C ) :   0.9448 B(  0-O ,  9-H ) :   0.8386 B(  1-C ,  2-C ) :   0.8610
B(  1-C ,  3-C ) :   0.8664 B(  1-C ,  4-C ) :   0.9301 B(  2-C ,  3-C ) :   0.9073
B(  2-C , 10-H ) :   0.9177 B(  2-C , 11-H ) :   0.9245 B(  3-C , 12-H ) :   0.9236
B(  3-C , 13-H ) :   0.9336 B(  4-C ,  5-C ) :   0.8681 B(  4-C ,  6-C ) :   0.9213
B(  4-C ,  8-C ) :   0.9284 B(  5-C ,  6-C ) :   0.8798 B(  5-C , 14-H ) :   0.9261
B(  5-C , 15-H ) :   0.8995 B(  6-C ,  7-O ) :   0.9610 B(  6-C , 16-H ) :   0.9072
B(  7-O ,  8-C ) :   0.9461 B(  8-C , 17-H ) :   0.9038 B(  8-C , 18-H ) :   0.9186

MP2 TOTAL ENERGY:     -422.248562469 Eh
FINAL SINGLE POINT ENERGY      -422.248562468664

DIPOLE MOMENT
-------------
                                X             Y             Z
Electronic contribution:     -3.13744       1.33376      -0.25496
Nuclear contribution   :      3.75780      -1.67680      -0.19220
                        -----------------------------------------
Total Dipole Moment    :      0.62036      -0.34304      -0.44716
                        -----------------------------------------
Magnitude (a.u.)       :      0.83814
Magnitude (Debye)      :      2.13037

                             ****ORCA TERMINATED NORMALLY****
TOTAL RUN TIME: 0 days 0 hours 16 minutes 17 seconds 333 msec
