                         Program Version 3.0.3 - RELEASE   -
|  1> ! RI-MP2 RIJK def2-TZVP def2-TZVP/C def2-TZVP/JK TIGHTSCF
|  2> % maxcore 2000
|  3> % mp2 density relaxed end
|  4> *xyz 0 1
|  5>  C       -0.1601807030     1.5552590596    -0.1859981852
|  6>  C       -0.0195219157     0.0548257988    -0.0354616646
|  7>  C       -1.2723220697    -0.6612511673     0.6665745065
|  8>  O       -1.8287886490    -1.8080060853     0.1109357002
|  9>  C       -0.3664227530    -0.8535324826     1.9815858060
| 10>  C        0.8185569858    -0.6600102773     1.0430848164
| 11>  C        2.1527449361    -0.2102761279     0.4036683150
| 12>  C        1.1477429247    -0.7180809134    -0.7189676144
| 13>  O        0.8733222833    -1.8755000670     0.1335797461
| 14>  H        0.7862140661     2.0524466271    -0.4181870056
| 15>  H       -0.8555432522     1.7818795415    -1.0030320922
| 16>  H       -0.5678629966     2.0189822409     0.7197706294
| 17>  H       -2.0913401034     0.0466533802     0.8197279485
| 18>  H       -1.0687694576    -2.3735552583    -0.0878856912
| 19>  H       -0.4991499726    -0.0282703184     2.6856480343
| 20>  H       -0.4399720958    -1.8110116758     2.5021629073
| 21>  H        2.4005840736     0.8511437897     0.4533036990
| 22>  H        3.0205336709    -0.8549406334     0.5509232305
| 23>  H        1.3781013380    -0.9119369711    -1.7715027259
| 24> *
| 25>
| 26>                          ****END OF INPUT****

CARTESIAN COORDINATES (ANGSTROEM)
---------------------------------
  C     -0.160181    1.555259   -0.185998
  C     -0.019522    0.054826   -0.035462
  C     -1.272322   -0.661251    0.666575
  O     -1.828789   -1.808006    0.110936
  C     -0.366423   -0.853532    1.981586
  C      0.818557   -0.660010    1.043085
  C      2.152745   -0.210276    0.403668
  C      1.147743   -0.718081   -0.718968
  O      0.873322   -1.875500    0.133580
  H      0.786214    2.052447   -0.418187
  H     -0.855543    1.781880   -1.003032
  H     -0.567863    2.018982    0.719771
  H     -2.091340    0.046653    0.819728
  H     -1.068769   -2.373555   -0.087886
  H     -0.499150   -0.028270    2.685648
  H     -0.439972   -1.811012    2.502163
  H      2.400584    0.851144    0.453304
  H      3.020534   -0.854941    0.550923
  H      1.378101   -0.911937   -1.771503

 Total Charge           Charge          ....    0
 Multiplicity           Mult            ....    1
 Number of Electrons    NEL             ....   68
 Basis Dimension        Dim             ....  339

ORBITAL ENERGIES
----------------

  NO   OCC          E(Eh)            E(eV)
   0   2.0000     -20.552927      -559.2736
   1   2.0000     -20.543588      -559.0195
   2   2.0000     -11.314473      -307.8825
   3   2.0000     -11.307547      -307.6940
   4   2.0000     -11.294715      -307.3448
   5   2.0000     -11.256269      -306.2986
   6   2.0000     -11.243254      -305.9445
   7   2.0000     -11.240373      -305.8661
   8   2.0000     -11.230111      -305.5868
   9   2.0000      -1.409741       -38.3610
  10   2.0000      -1.354756       -36.8648
  11   2.0000      -1.122223       -30.5372
  12   2.0000      -1.035900       -28.1883
  13   2.0000      -0.985541       -26.8179
  14   2.0000      -0.893628       -24.3169
  15   2.0000      -0.849702       -23.1216
  16   2.0000      -0.828633       -22.5483
  17   2.0000      -0.727717       -19.8022
  18   2.0000      -0.665708       -18.1148
  19   2.0000      -0.658327       -17.9140
  20   2.0000      -0.638251       -17.3677
  21   2.0000      -0.626236       -17.0407
  22   2.0000      -0.592770       -16.1301
  23   2.0000      -0.571575       -15.5533
  24   2.0000      -0.566966       -15.4279
  25   2.0000      -0.561836       -15.2883
  26   2.0000      -0.545411       -14.8414
  27   2.0000      -0.519835       -14.1454
  28   2.0000      -0.512103       -13.9350
  29   2.0000      -0.480063       -13.0632
  30   2.0000      -0.451283       -12.2800
  31   2.0000      -0.421410       -11.4671
  32   2.0000      -0.401990       -10.9387
  33   2.0000      -0.367585       -10.0025
  34   0.0000       0.132974         3.6184
  35   0.0000       0.159143         4.3305
  36   0.0000       0.164028         4.4634
  37   0.0000       0.171945         4.6789
  38   0.0000       0.192171         5.2292

MULLIKEN ATOMIC CHARGES
-----------------------
   0 C :   -0.471956
   1 C :    0.121682
   2 C :    0.055999
   3 O :   -0.457064
   4 C :   -0.232909
   5 C :    0.020443
   6 C :   -0.133383
   7 C :   -0.064352
   8 O :   -0.345473
   9 H :    0.130768
  10 H :    0.153089
  11 H :    0.136028
  12 H :    0.112707
  13 H :    0.337991
  14 H :    0.124291
  15 H :    0.130344
  16 H :    0.122248
  17 H :    0.126181
  18 H :    0.133367
Sum of atomic charges:   -0.0000000

LOEWDIN ATOMIC CHARGES
----------------------
   0 C :   -0.276722
   1 C :   -0.178499
   2 C :   -0.268900
   3 O :   -0.004999
   4 C :   -0.186704
   5 C :   -0.215667
   6 C :   -0.170378
   7 C :   -0.199993
   8 O :    0.138653
   9 H :    0.125948
  10 H :    0.134999
  11 H :    0.129284
  12 H :    0.137124
  13 H :    0.177475
  14 H :    0.141025
  15 H :    0.135066
  16 H :    0.128485
  17 H :    0.131842
  18 H :    0.121962

  Mayer bond orders larger than 0.1
B(  0-C ,  1-C ) :   0.9143 B(  0-C ,  9-H ) :   0.9293 B(  0-C , 10-H ) :   0.9419
B(  0-C , 11-H ) :   0.9270 B(  1-C ,  2-C ) :   0.8385 B(  1-C ,  5-C ) :   0.8180
B(  1-C ,  7-C ) :   0.9152 B(  2-C ,  3-O ) :   1.0028 B(  2-C ,  4-C ) :   0.9095
B(  2-C , 12-H ) :   0.9355 B(  3-O , 13-H ) :   0.8062 B(  4-C ,  5-C ) :   0.9382
B(  4-C , 14-H ) :   0.9119 B(  4-C , 15-H ) :   0.9001 B(  5-C ,  6-C ) :   0.8616
B(  5-C ,  8-O ) :   0.8350 B(  6-C ,  7-C ) :   0.9021 B(  6-C , 16-H ) :   0.9145
B(  6-C , 17-H ) :   0.9110 B(  7-C ,  8-O ) :   0.8692 B(  7-C , 18-H ) :   0.8807

MP2 TOTAL ENERGY:     -422.197829179 Eh
FINAL SINGLE POINT ENERGY      -422.197829179093

DIPOLE MOMENT
-------------
                                X             Y             Z
Electronic contribution:     -0.19442      -5.38817      -0.60617
Nuclear contribution   :      0.84499       6.34550       0.72629
                        -----------------------------------------
Total Dipole Moment    :      0.65057       0.95733       0.12012
                        -----------------------------------------
Magnitude (a.u.)       :      1.16368
Magnitude (Debye)      :      2.95784

                             ****ORCA TERMINATED NORMALLY****
TOTAL RUN TIME: 0 days 0 hours 20 minutes 2 seconds 450 msec
