                         Program Version 3.0.3 - RELEASE   -
|  1> ! RI-MP2 RIJK def2-TZVP def2-TZVP/C def2-TZVP/JK TIGHTSCF
|  2> % maxcore 2000
|  3> % mp2 density relaxed end
|  4> *xyz 0 1
|  5>  C        0.1318158666     1.4389359828    -0.1911653852
|  6>  C       -0.0228547833    -0.0693501734     0.0053351711
|  7>  O        0.7496261698    -0.5339914448     1.1098182293
|  8>  C       -1.4807109030    -0.4972791475     0.1422011327
|  9>  C       -2.3696748059    -0.4314809140    -1.1486230802
| 10>  C       -2.7332090195    -1.8796001040    -0.8946565238
| 11>  C       -1.7457918676    -2.0338274913     0.2429292601
| 12>  N       -3.6259283864    -2.5958292557    -1.4351376319
| 13>  O       -3.6564135692    -3.8804312301    -0.8565258417
| 14>  H        1.1884084435     1.7028074714    -0.2864822478
| 15>  H       -0.3944579203     1.7820498803    -1.0876688415
| 16>  H       -0.2816043300     1.9848970843     0.6664407964
| 17>  H        0.4088629311    -0.5894567529    -0.8605115484
| 18>  H        0.4392670170    -0.0743584791     1.8981493767
| 19>  H       -1.9435846393     0.0476385686     0.9733288637
| 20>  H       -3.1959216997     0.2835197387    -1.1496863294
| 21>  H       -1.7860346545    -0.2846176679    -2.0649608864
| 22>  H       -0.8717503710    -2.6435102345    -0.0086789688
| 23>  H       -2.1619295333    -2.4127380319     1.1795648813
| 24>  H       -4.3719385049    -4.3030766991    -1.3431932860
| 25> *
| 26>
| 27>                          ****END OF INPUT****

CARTESIAN COORDINATES (ANGSTROEM)
---------------------------------
  C      0.131816    1.438936   -0.191165
  C     -0.022855   -0.069350    0.005335
  O      0.749626   -0.533991    1.109818
  C     -1.480711   -0.497279    0.142201
  C     -2.369675   -0.431481   -1.148623
  C     -2.733209   -1.879600   -0.894657
  C     -1.745792   -2.033827    0.242929
  N     -3.625928   -2.595829   -1.435138
  O     -3.656414   -3.880431   -0.856526
  H      1.188408    1.702807   -0.286482
  H     -0.394458    1.782050   -1.087669
  H     -0.281604    1.984897    0.666441
  H      0.408863   -0.589457   -0.860512
  H      0.439267   -0.074358    1.898149
  H     -1.943585    0.047639    0.973329
  H     -3.195922    0.283520   -1.149686
  H     -1.786035   -0.284618   -2.064961
  H     -0.871750   -2.643510   -0.008679
  H     -2.161930   -2.412738    1.179565
  H     -4.371939   -4.303077   -1.343193

 Total Charge           Charge          ....    0
 Multiplicity           Mult            ....    1
 Number of Electrons    NEL             ....   70
 Basis Dimension        Dim             ....  345

ORBITAL ENERGIES
----------------

  NO   OCC          E(Eh)            E(eV)
   0   2.0000     -20.586232      -560.1799
   1   2.0000     -20.559126      -559.4423
   2   2.0000     -15.609117      -424.7457
   3   2.0000     -11.287095      -307.1375
   4   2.0000     -11.274129      -306.7846
   5   2.0000     -11.242596      -305.9266
   6   2.0000     -11.241249      -305.8899
   7   2.0000     -11.234785      -305.7141
   8   2.0000     -11.225413      -305.4590
   9   2.0000      -1.410820       -38.3904
  10   2.0000      -1.365523       -37.1578
  11   2.0000      -1.181372       -32.1468
  12   2.0000      -1.097665       -29.8690
  13   2.0000      -1.016972       -27.6732
  14   2.0000      -0.926498       -25.2113
  15   2.0000      -0.888599       -24.1800
  16   2.0000      -0.805354       -21.9148
  17   2.0000      -0.724175       -19.7058
  18   2.0000      -0.688679       -18.7399
  19   2.0000      -0.681503       -18.5446
  20   2.0000      -0.673005       -18.3134
  21   2.0000      -0.639830       -17.4107
  22   2.0000      -0.623690       -16.9715
  23   2.0000      -0.587792       -15.9946
  24   2.0000      -0.571686       -15.5564
  25   2.0000      -0.560942       -15.2640
  26   2.0000      -0.553641       -15.0653
  27   2.0000      -0.533090       -14.5061
  28   2.0000      -0.525274       -14.2934
  29   2.0000      -0.499609       -13.5951
  30   2.0000      -0.480791       -13.0830
  31   2.0000      -0.461434       -12.5562
  32   2.0000      -0.437692       -11.9102
  33   2.0000      -0.421563       -11.4713
  34   2.0000      -0.379429       -10.3248
  35   0.0000       0.124062         3.3759
  36   0.0000       0.138300         3.7633
  37   0.0000       0.148982         4.0540
  38   0.0000       0.152665         4.1542
  39   0.0000       0.170459         4.6384

MULLIKEN ATOMIC CHARGES
-----------------------
   0 C :   -0.387418
   1 C :    0.050485
   2 O :   -0.463545
   3 C :   -0.063196
   4 C :   -0.220500
   5 C :   -0.030931
   6 C :   -0.194619
   7 N :   -0.078838
   8 O :   -0.364433
   9 H :    0.149519
  10 H :    0.130675
  11 H :    0.114227
  12 H :    0.091685
  13 H :    0.310172
  14 H :    0.097154
  15 H :    0.128988
  16 H :    0.123651
  17 H :    0.139084
  18 H :    0.132237
  19 H :    0.335604
Sum of atomic charges:    0.0000000

LOEWDIN ATOMIC CHARGES
----------------------
   0 C :   -0.299818
   1 C :   -0.364635
   2 O :   -0.018538
   3 C :   -0.207798
   4 C :   -0.174584
   5 C :   -0.283319
   6 C :   -0.183177
   7 N :    0.019337
   8 O :   -0.077830
   9 H :    0.127437
  10 H :    0.127492
  11 H :    0.121462
  12 H :    0.147156
  13 H :    0.174159
  14 H :    0.146884
  15 H :    0.138246
  16 H :    0.144962
  17 H :    0.152596
  18 H :    0.141695
  19 H :    0.168276

  Mayer bond orders larger than 0.1
B(  0-C ,  1-C ) :   0.9454 B(  0-C ,  9-H ) :   0.9407 B(  0-C , 10-H ) :   0.9322
B(  0-C , 11-H ) :   0.9204 B(  1-C ,  2-O ) :   0.9124 B(  1-C ,  3-C ) :   0.9516
B(  1-C , 12-H ) :   0.9105 B(  2-O , 13-H ) :   0.8435 B(  3-C ,  4-C ) :   0.9259
B(  3-C ,  6-C ) :   0.9383 B(  3-C , 14-H ) :   0.9114 B(  4-C ,  5-C ) :   0.9441
B(  4-C , 15-H ) :   0.8985 B(  4-C , 16-H ) :   0.8969 B(  5-C ,  6-C ) :   0.9471
B(  5-C ,  7-N ) :   1.9020 B(  6-C , 17-H ) :   0.8965 B(  6-C , 18-H ) :   0.9114
B(  7-N ,  8-O ) :   0.8048 B(  8-O , 19-H ) :   0.8448

MP2 TOTAL ENERGY:     -439.509734807 Eh
FINAL SINGLE POINT ENERGY      -439.509734807169

DIPOLE MOMENT
-------------
                                X             Y             Z
Electronic contribution:     -4.73577      -7.30767      -1.08269
Nuclear contribution   :      4.53269       7.97774       1.27176
                        -----------------------------------------
Total Dipole Moment    :     -0.20308       0.67007       0.18907
                        -----------------------------------------
Magnitude (a.u.)       :      0.72525
Magnitude (Debye)      :      1.84344

                             ****ORCA TERMINATED NORMALLY****
TOTAL RUN TIME: 0 days 0 hours 15 minutes 59 seconds 40 msec
