                         Program Version 3.0.3 - RELEASE   -
|  1> ! RI-MP2 RIJK def2-TZVP def2-TZVP/C def2-TZVP/JK TIGHTSCF
|  2> % maxcore 2000
|  3> % mp2 density relaxed end
|  4> *xyz 0 1
|  5>  C       -0.1166441919     1.5730563556     0.0116630418
|  6>  C       -0.0274039235     0.0391503446    -0.0046782774
|  7>  C        0.6267566085    -0.4793308035    -1.2938361796
|  8>  C        0.9986016190    -1.9596006771    -1.1665049099
|  9>  C        2.0128360154    -2.1979447344    -0.0306453618
| 10>  C        3.4527422319    -1.8503063076    -0.4629432449
| 11>  C        1.6018568027    -1.4587394264     1.2328405353
| 12>  C        2.2534439689    -1.9041303417     2.5170646406
| 13>  C        0.6904012534    -0.4812841357     1.2171108022
| 14>  H        0.8827408714     2.0220119910    -0.0048038352
| 15>  H       -0.6682800069     1.9431682748    -0.8592763672
| 16>  H       -0.6288028671     1.9323059782     0.9107069777
| 17>  H       -1.0611804717    -0.3434421674     0.0293877493
| 18>  H       -0.0469674100    -0.3228024120    -2.1441087826
| 19>  H        1.5275453333     0.1131492026    -1.5014429368
| 20>  H        0.0888437415    -2.5382714064    -0.9614198521
| 21>  H        1.4048083711    -2.3378604808    -2.1118342184
| 22>  H        2.0076878655    -3.2722792881     0.2050485133
| 23>  H        3.5418966360    -0.7947783595    -0.7385114100
| 24>  H        4.1735357405    -2.0435846674     0.3368096408
| 25>  H        3.7494575905    -2.4530593299    -1.3279702140
| 26>  H        3.3427829656    -1.7781967277     2.4881166811
| 27>  H        1.8759787545    -1.3400575177     3.3743177592
| 28>  H        2.0703733248    -2.9705859468     2.7040623855
| 29>  H        0.4178507666    -0.0066783865     2.1599431933
| 30> *
| 31>
| 32>                          ****END OF INPUT****

CARTESIAN COORDINATES (ANGSTROEM)
---------------------------------
  C     -0.116644    1.573056    0.011663
  C     -0.027404    0.039150   -0.004678
  C      0.626757   -0.479331   -1.293836
  C      0.998602   -1.959601   -1.166505
  C      2.012836   -2.197945   -0.030645
  C      3.452742   -1.850306   -0.462943
  C      1.601857   -1.458739    1.232841
  C      2.253444   -1.904130    2.517065
  C      0.690401   -0.481284    1.217111
  H      0.882741    2.022012   -0.004804
  H     -0.668280    1.943168   -0.859276
  H     -0.628803    1.932306    0.910707
  H     -1.061180   -0.343442    0.029388
  H     -0.046967   -0.322802   -2.144109
  H      1.527545    0.113149   -1.501443
  H      0.088844   -2.538271   -0.961420
  H      1.404808   -2.337860   -2.111834
  H      2.007688   -3.272279    0.205049
  H      3.541897   -0.794778   -0.738511
  H      4.173536   -2.043585    0.336810
  H      3.749458   -2.453059   -1.327970
  H      3.342783   -1.778197    2.488117
  H      1.875979   -1.340058    3.374318
  H      2.070373   -2.970586    2.704062
  H      0.417851   -0.006678    2.159943

 Total Charge           Charge          ....    0
 Multiplicity           Mult            ....    1
 Number of Electrons    NEL             ....   70
 Basis Dimension        Dim             ....  375

ORBITAL ENERGIES
----------------

  NO   OCC          E(Eh)            E(eV)
   0   2.0000     -11.225661      -305.4658
   1   2.0000     -11.223151      -305.3975
   2   2.0000     -11.223117      -305.3965
   3   2.0000     -11.214366      -305.1584
   4   2.0000     -11.213248      -305.1280
   5   2.0000     -11.211899      -305.0913
   6   2.0000     -11.210808      -305.0616
   7   2.0000     -11.209459      -305.0249
   8   2.0000     -11.208934      -305.0106
   9   2.0000      -1.130274       -30.7563
  10   2.0000      -1.051065       -28.6009
  11   2.0000      -1.024905       -27.8891
  12   2.0000      -0.956981       -26.0408
  13   2.0000      -0.921103       -25.0645
  14   2.0000      -0.878685       -23.9102
  15   2.0000      -0.802562       -21.8388
  16   2.0000      -0.790223       -21.5031
  17   2.0000      -0.677888       -18.4463
  18   2.0000      -0.651022       -17.7152
  19   2.0000      -0.611278       -16.6337
  20   2.0000      -0.602531       -16.3957
  21   2.0000      -0.588048       -16.0016
  22   2.0000      -0.569289       -15.4911
  23   2.0000      -0.554251       -15.0819
  24   2.0000      -0.544506       -14.8168
  25   2.0000      -0.529141       -14.3986
  26   2.0000      -0.528564       -14.3830
  27   2.0000      -0.526975       -14.3397
  28   2.0000      -0.493976       -13.4418
  29   2.0000      -0.483902       -13.1676
  30   2.0000      -0.480128       -13.0650
  31   2.0000      -0.451518       -12.2864
  32   2.0000      -0.437482       -11.9045
  33   2.0000      -0.423072       -11.5124
  34   2.0000      -0.330045        -8.9810
  35   0.0000       0.133965         3.6454
  36   0.0000       0.145718         3.9652
  37   0.0000       0.160819         4.3761
  38   0.0000       0.164898         4.4871
  39   0.0000       0.172797         4.7020

MULLIKEN ATOMIC CHARGES
-----------------------
   0 C :   -0.410722
   1 C :    0.064713
   2 C :   -0.301649
   3 C :   -0.180413
   4 C :    0.027782
   5 C :   -0.447432
   6 C :    0.034507
   7 C :   -0.430064
   8 C :   -0.274992
   9 H :    0.125291
  10 H :    0.128852
  11 H :    0.129827
  12 H :    0.090224
  13 H :    0.121932
  14 H :    0.110910
  15 H :    0.111735
  16 H :    0.120092
  17 H :    0.091970
  18 H :    0.129435
  19 H :    0.130036
  20 H :    0.128789
  21 H :    0.132693
  22 H :    0.130576
  23 H :    0.133467
  24 H :    0.102443
Sum of atomic charges:    0.0000000

LOEWDIN ATOMIC CHARGES
----------------------
   0 C :   -0.291369
   1 C :   -0.271024
   2 C :   -0.236513
   3 C :   -0.232174
   4 C :   -0.240067
   5 C :   -0.285362
   6 C :   -0.171411
   7 C :   -0.272009
   8 C :   -0.129141
   9 H :    0.123048
  10 H :    0.122275
  11 H :    0.121609
  12 H :    0.157354
  13 H :    0.136839
  14 H :    0.139890
  15 H :    0.141776
  16 H :    0.137086
  17 H :    0.157109
  18 H :    0.122367
  19 H :    0.121151
  20 H :    0.122162
  21 H :    0.126385
  22 H :    0.127389
  23 H :    0.128056
  24 H :    0.144576

  Mayer bond orders larger than 0.1
B(  0-C ,  1-C ) :   0.8955 B(  0-C ,  9-H ) :   0.9338 B(  0-C , 10-H ) :   0.9387
B(  0-C , 11-H ) :   0.9419 B(  1-C ,  2-C ) :   0.9351 B(  1-C ,  8-C ) :   0.9087
B(  1-C , 12-H ) :   0.9163 B(  2-C ,  3-C ) :   0.9155 B(  2-C , 13-H ) :   0.9291
B(  2-C , 14-H ) :   0.9326 B(  3-C ,  4-C ) :   0.9091 B(  3-C , 15-H ) :   0.9293
B(  3-C , 16-H ) :   0.9383 B(  4-C ,  5-C ) :   0.8819 B(  4-C ,  6-C ) :   0.9251
B(  4-C , 17-H ) :   0.9234 B(  5-C , 18-H ) :   0.9362 B(  5-C , 19-H ) :   0.9407
B(  5-C , 20-H ) :   0.9369 B(  6-C ,  7-C ) :   0.8949 B(  6-C ,  8-C ) :   1.7765
B(  7-C , 21-H ) :   0.9287 B(  7-C , 22-H ) :   0.9458 B(  7-C , 23-H ) :   0.9340
B(  8-C , 24-H ) :   0.9204

MP2 TOTAL ENERGY:     -351.739834124 Eh
FINAL SINGLE POINT ENERGY      -351.739834124013

DIPOLE MOMENT
-------------
                                X             Y             Z
Electronic contribution:     -1.83093      -1.16536       0.78917
Nuclear contribution   :      1.83440       1.06922      -0.84267
                        -----------------------------------------
Total Dipole Moment    :      0.00346      -0.09614      -0.05350
                        -----------------------------------------
Magnitude (a.u.)       :      0.11008
Magnitude (Debye)      :      0.27980

                             ****ORCA TERMINATED NORMALLY****
TOTAL RUN TIME: 0 days 0 hours 24 minutes 54 seconds 486 msec
