                         Program Version 3.0.3 - RELEASE   -
|  1> ! RI-MP2 RIJK def2-TZVP def2-TZVP/C def2-TZVP/JK TIGHTSCF
|  2> % maxcore 2000
|  3> % mp2 density relaxed end
|  4> *xyz 0 1
|  5>  C        1.2113286093     1.0303624075    -0.6847356816
|  6>  C        0.1459519518     0.1508864175    -0.0807142827
|  7>  N        0.5650996228    -1.1405270700     0.4789445898
|  8>  C        0.0181918034    -0.1187282801     1.3888909204
|  9>  C        0.9352471524     0.4239484489     2.4155291074
| 10>  N        0.4691914454     1.2496146996     3.3543514934
| 11>  N        1.5462933289     1.5400322143     4.1090445543
| 12>  C        2.6759853122     0.9233118842     3.6860421801
| 13>  C        2.3203670072     0.1814829112     2.5811687897
| 14>  H        2.1145545198     1.0334874176    -0.0712990125
| 15>  H        1.4791318672     0.6783027362    -1.6868211835
| 16>  H        0.8524360405     2.0615437232    -0.7722104577
| 17>  H       -0.8028693747     0.1633326524    -0.6173594725
| 18>  H       -0.1264427718    -1.8618677445     0.2970779139
| 19>  H       -1.0005880380    -0.2440313698     1.7491898242
| 20>  H        1.4353177357     2.1520469851     4.8990474239
| 21>  H        3.6177593813     1.0525858482     4.1957461893
| 22>  H        2.9435297965    -0.4612441615     1.9832981140
| 23> *
| 24>
| 25>                          ****END OF INPUT****

CARTESIAN COORDINATES (ANGSTROEM)
---------------------------------
  C      1.211329    1.030362   -0.684736
  C      0.145952    0.150886   -0.080714
  N      0.565100   -1.140527    0.478945
  C      0.018192   -0.118728    1.388891
  C      0.935247    0.423948    2.415529
  N      0.469191    1.249615    3.354351
  N      1.546293    1.540032    4.109045
  C      2.675985    0.923312    3.686042
  C      2.320367    0.181483    2.581169
  H      2.114555    1.033487   -0.071299
  H      1.479132    0.678303   -1.686821
  H      0.852436    2.061544   -0.772210
  H     -0.802869    0.163333   -0.617359
  H     -0.126443   -1.861868    0.297078
  H     -1.000588   -0.244031    1.749190
  H      1.435318    2.152047    4.899047
  H      3.617759    1.052586    4.195746
  H      2.943530   -0.461244    1.983298

 Total Charge           Charge          ....    0
 Multiplicity           Mult            ....    1
 Number of Electrons    NEL             ....   66
 Basis Dimension        Dim             ....  333

ORBITAL ENERGIES
----------------

  NO   OCC          E(Eh)            E(eV)
   0   2.0000     -15.631656      -425.3590
   1   2.0000     -15.577703      -423.8908
   2   2.0000     -15.554812      -423.2679
   3   2.0000     -11.272437      -306.7386
   4   2.0000     -11.260238      -306.4066
   5   2.0000     -11.259492      -306.3864
   6   2.0000     -11.252655      -306.2003
   7   2.0000     -11.211883      -305.0909
   8   2.0000     -11.211792      -305.0884
   9   2.0000      -1.368287       -37.2330
  10   2.0000      -1.261568       -34.3290
  11   2.0000      -1.098455       -29.8905
  12   2.0000      -1.045950       -28.4618
  13   2.0000      -0.985988       -26.8301
  14   2.0000      -0.904452       -24.6114
  15   2.0000      -0.823562       -22.4103
  16   2.0000      -0.805826       -21.9276
  17   2.0000      -0.742222       -20.1969
  18   2.0000      -0.724238       -19.7075
  19   2.0000      -0.704841       -19.1797
  20   2.0000      -0.610224       -16.6050
  21   2.0000      -0.605848       -16.4860
  22   2.0000      -0.588000       -16.0003
  23   2.0000      -0.576941       -15.6994
  24   2.0000      -0.567002       -15.4289
  25   2.0000      -0.549581       -14.9549
  26   2.0000      -0.505775       -13.7628
  27   2.0000      -0.471488       -12.8298
  28   2.0000      -0.458660       -12.4808
  29   2.0000      -0.453438       -12.3387
  30   2.0000      -0.403179       -10.9711
  31   2.0000      -0.342693        -9.3252
  32   2.0000      -0.337344        -9.1796
  33   0.0000       0.137676         3.7464
  34   0.0000       0.139570         3.7979
  35   0.0000       0.156761         4.2657
  36   0.0000       0.167389         4.5549
  37   0.0000       0.182634         4.9697

MULLIKEN ATOMIC CHARGES
-----------------------
   0 C :   -0.391904
   1 C :    0.012511
   2 N :   -0.388359
   3 C :   -0.130834
   4 C :    0.085159
   5 N :   -0.222806
   6 N :   -0.098526
   7 C :   -0.089878
   8 C :   -0.192502
   9 H :    0.140241
  10 H :    0.128895
  11 H :    0.124735
  12 H :    0.115822
  13 H :    0.219156
  14 H :    0.124596
  15 H :    0.255171
  16 H :    0.149392
  17 H :    0.159131
Sum of atomic charges:   -0.0000000

LOEWDIN ATOMIC CHARGES
----------------------
   0 C :   -0.293633
   1 C :   -0.276341
   2 N :    0.009074
   3 C :   -0.225003
   4 C :   -0.269694
   5 N :    0.046240
   6 N :    0.128378
   7 C :   -0.246295
   8 C :   -0.175867
   9 H :    0.131068
  10 H :    0.125746
  11 H :    0.127499
  12 H :    0.135708
  13 H :    0.165277
  14 H :    0.147394
  15 H :    0.186956
  16 H :    0.135995
  17 H :    0.147498

  Mayer bond orders larger than 0.1
B(  0-C ,  1-C ) :   0.9121 B(  0-C ,  9-H ) :   0.9379 B(  0-C , 10-H ) :   0.9374
B(  0-C , 11-H ) :   0.9359 B(  1-C ,  2-N ) :   0.8730 B(  1-C ,  3-C ) :   0.8998
B(  1-C , 12-H ) :   0.9228 B(  2-N ,  3-C ) :   0.9714 B(  2-N , 13-H ) :   0.8689
B(  3-C ,  4-C ) :   0.9076 B(  3-C , 14-H ) :   0.9421 B(  4-C ,  5-N ) :   1.5378
B(  4-C ,  8-C ) :   1.2816 B(  5-N ,  6-N ) :   1.0856 B(  5-N ,  7-C ) :   0.1095
B(  6-N ,  7-C ) :   1.2038 B(  6-N , 15-H ) :   0.8736 B(  7-C ,  8-C ) :   1.4379
B(  7-C , 16-H ) :   0.9115 B(  8-C , 17-H ) :   0.9068

MP2 TOTAL ENERGY:     -397.436570950 Eh
FINAL SINGLE POINT ENERGY      -397.436570950191

DIPOLE MOMENT
-------------
                                X             Y             Z
Electronic contribution:     -0.47440       0.01558       6.91657
Nuclear contribution   :      0.63737       0.25901      -6.60735
                        -----------------------------------------
Total Dipole Moment    :      0.16297       0.27460       0.30922
                        -----------------------------------------
Magnitude (a.u.)       :      0.44450
Magnitude (Debye)      :      1.12983

                             ****ORCA TERMINATED NORMALLY****
TOTAL RUN TIME: 0 days 0 hours 16 minutes 44 seconds 996 msec
