                         Program Version 3.0.3 - RELEASE   -
|  1> ! RI-MP2 RIJK def2-TZVP def2-TZVP/C def2-TZVP/JK TIGHTSCF
|  2> % maxcore 2000
|  3> % mp2 density relaxed end
|  4> *xyz 0 1
|  5>  C       -0.1648039215     1.5415993258     0.2169805658
|  6>  C       -0.0208345556     0.0398611794    -0.0066734922
|  7>  C        0.9057927863    -0.6081467599     1.0272478386
|  8>  O       -1.3350322463    -0.5028288305     0.0436509150
|  9>  C       -1.4895718770    -1.7861811957    -0.5257384866
| 10>  C       -2.9801553128    -2.1642032983    -0.5490799355
| 11>  C       -3.7604788264    -1.1427382911    -1.3949572995
| 12>  C       -3.1059886455    -3.5634884662    -1.1748022954
| 13>  C       -3.5288481095    -2.1840036654     0.8888808933
| 14>  H        0.8088517383     2.0375136698     0.1619674417
| 15>  H       -0.8238931490     1.9788229424    -0.5376465578
| 16>  H       -0.5972694066     1.7371746599     1.2035234456
| 17>  H        0.3945903243    -0.1342246949    -1.0143706227
| 18>  H        1.9043503305    -0.1620870102     0.9780266772
| 19>  H        0.5089645371    -0.4573681037     2.0365252337
| 20>  H        1.0148820616    -1.6831530273     0.8585510814
| 21>  H       -1.0871133390    -1.7923639864    -1.5538904404
| 22>  H       -0.9313676874    -2.5442802104     0.0475136552
| 23>  H       -3.4031021994    -1.1364007585    -2.4312057438
| 24>  H       -4.8281706372    -1.3863833840    -1.4121831235
| 25>  H       -3.6421290196    -0.1344180605    -0.9915274876
| 26>  H       -2.5538192171    -4.3127612244    -0.5963794156
| 27>  H       -4.1545659895    -3.8773866073    -1.2085841029
| 28>  H       -2.7215498735    -3.5792496816    -2.2009618606
| 29>  H       -3.4025384777    -1.2091888495     1.3659152910
| 30>  H       -4.5944023127    -2.4375976139     0.8949625747
| 31>  H       -3.0055134048    -2.9285624477     1.4998756509
| 32> *
| 33>
| 34>                          ****END OF INPUT****

CARTESIAN COORDINATES (ANGSTROEM)
---------------------------------
  C     -0.164804    1.541599    0.216981
  C     -0.020835    0.039861   -0.006673
  C      0.905793   -0.608147    1.027248
  O     -1.335032   -0.502829    0.043651
  C     -1.489572   -1.786181   -0.525738
  C     -2.980155   -2.164203   -0.549080
  C     -3.760479   -1.142738   -1.394957
  C     -3.105989   -3.563488   -1.174802
  C     -3.528848   -2.184004    0.888881
  H      0.808852    2.037514    0.161967
  H     -0.823893    1.978823   -0.537647
  H     -0.597269    1.737175    1.203523
  H      0.394590   -0.134225   -1.014371
  H      1.904350   -0.162087    0.978027
  H      0.508965   -0.457368    2.036525
  H      1.014882   -1.683153    0.858551
  H     -1.087113   -1.792364   -1.553890
  H     -0.931368   -2.544280    0.047514
  H     -3.403102   -1.136401   -2.431206
  H     -4.828171   -1.386383   -1.412183
  H     -3.642129   -0.134418   -0.991527
  H     -2.553819   -4.312761   -0.596379
  H     -4.154566   -3.877387   -1.208584
  H     -2.721550   -3.579250   -2.200962
  H     -3.402538   -1.209189    1.365915
  H     -4.594402   -2.437598    0.894963
  H     -3.005513   -2.928562    1.499876

 Total Charge           Charge          ....    0
 Multiplicity           Mult            ....    1
 Number of Electrons    NEL             ....   74
 Basis Dimension        Dim             ....  387

ORBITAL ENERGIES
----------------

  NO   OCC          E(Eh)            E(eV)
   0   2.0000     -20.544358      -559.0404
   1   2.0000     -11.277371      -306.8729
   2   2.0000     -11.265414      -306.5475
   3   2.0000     -11.229040      -305.5577
   4   2.0000     -11.212768      -305.1149
   5   2.0000     -11.209902      -305.0370
   6   2.0000     -11.209868      -305.0360
   7   2.0000     -11.201668      -304.8129
   8   2.0000     -11.201649      -304.8124
   9   2.0000      -1.368296       -37.2332
  10   2.0000      -1.099303       -29.9135
  11   2.0000      -1.040033       -28.3007
  12   2.0000      -0.937249       -25.5038
  13   2.0000      -0.926087       -25.2001
  14   2.0000      -0.921771       -25.0827
  15   2.0000      -0.903510       -24.5858
  16   2.0000      -0.791601       -21.5405
  17   2.0000      -0.733674       -19.9643
  18   2.0000      -0.673108       -18.3162
  19   2.0000      -0.643606       -17.5134
  20   2.0000      -0.633045       -17.2260
  21   2.0000      -0.606308       -16.4985
  22   2.0000      -0.583168       -15.8688
  23   2.0000      -0.578750       -15.7486
  24   2.0000      -0.560713       -15.2578
  25   2.0000      -0.542610       -14.7652
  26   2.0000      -0.536549       -14.6002
  27   2.0000      -0.524829       -14.2813
  28   2.0000      -0.522510       -14.2182
  29   2.0000      -0.512696       -13.9512
  30   2.0000      -0.506175       -13.7737
  31   2.0000      -0.493012       -13.4156
  32   2.0000      -0.467771       -12.7287
  33   2.0000      -0.453596       -12.3430
  34   2.0000      -0.449846       -12.2409
  35   2.0000      -0.440525       -11.9873
  36   2.0000      -0.410390       -11.1673
  37   0.0000       0.129340         3.5195
  38   0.0000       0.150661         4.0997
  39   0.0000       0.169410         4.6099
  40   0.0000       0.170611         4.6426
  41   0.0000       0.190674         5.1885

MULLIKEN ATOMIC CHARGES
-----------------------
   0 C :   -0.366896
   1 C :    0.087697
   2 C :   -0.396950
   3 O :   -0.299006
   4 C :   -0.094884
   5 C :    0.135212
   6 C :   -0.425784
   7 C :   -0.415571
   8 C :   -0.423103
   9 H :    0.120547
  10 H :    0.134279
  11 H :    0.127393
  12 H :    0.062391
  13 H :    0.127537
  14 H :    0.127017
  15 H :    0.131201
  16 H :    0.098398
  17 H :    0.095127
  18 H :    0.118784
  19 H :    0.126200
  20 H :    0.147640
  21 H :    0.127950
  22 H :    0.134466
  23 H :    0.127923
  24 H :    0.147207
  25 H :    0.126085
  26 H :    0.119140
Sum of atomic charges:    0.0000000

LOEWDIN ATOMIC CHARGES
----------------------
   0 C :   -0.294212
   1 C :   -0.377025
   2 C :   -0.300569
   3 O :    0.186384
   4 C :   -0.290487
   5 C :   -0.357329
   6 C :   -0.272929
   7 C :   -0.272936
   8 C :   -0.272457
   9 H :    0.124388
  10 H :    0.124605
  11 H :    0.125878
  12 H :    0.131704
  13 H :    0.125724
  14 H :    0.125841
  15 H :    0.120191
  16 H :    0.123566
  17 H :    0.122925
  18 H :    0.123472
  19 H :    0.123615
  20 H :    0.128457
  21 H :    0.124161
  22 H :    0.127020
  23 H :    0.124280
  24 H :    0.128600
  25 H :    0.123482
  26 H :    0.123650

  Mayer bond orders larger than 0.1
B(  0-C ,  1-C ) :   0.9293 B(  0-C ,  9-H ) :   0.9338 B(  0-C , 10-H ) :   0.9380
B(  0-C , 11-H ) :   0.9344 B(  1-C ,  2-C ) :   0.9139 B(  1-C ,  3-O ) :   0.9220
B(  1-C , 12-H ) :   0.9317 B(  2-C , 13-H ) :   0.9311 B(  2-C , 14-H ) :   0.9323
B(  2-C , 15-H ) :   0.9376 B(  3-O ,  4-C ) :   0.9304 B(  4-C ,  5-C ) :   0.9277
B(  4-C , 16-H ) :   0.9252 B(  4-C , 17-H ) :   0.9190 B(  5-C ,  6-C ) :   0.9080
B(  5-C ,  7-C ) :   0.9070 B(  5-C ,  8-C ) :   0.9112 B(  6-C , 18-H ) :   0.9332
B(  6-C , 19-H ) :   0.9369 B(  6-C , 20-H ) :   0.9334 B(  7-C , 21-H ) :   0.9339
B(  7-C , 22-H ) :   0.9375 B(  7-C , 23-H ) :   0.9338 B(  8-C , 24-H ) :   0.9324
B(  8-C , 25-H ) :   0.9366 B(  8-C , 26-H ) :   0.9330

MP2 TOTAL ENERGY:     -390.029935022 Eh
FINAL SINGLE POINT ENERGY      -390.029935022307

DIPOLE MOMENT
-------------
                                X             Y             Z
Electronic contribution:      0.69398       1.22975      -0.07925
Nuclear contribution   :     -0.31785      -1.36126      -0.06468
                        -----------------------------------------
Total Dipole Moment    :      0.37613      -0.13152      -0.14394
                        -----------------------------------------
Magnitude (a.u.)       :      0.42366
Magnitude (Debye)      :      1.07685

                             ****ORCA TERMINATED NORMALLY****
TOTAL RUN TIME: 0 days 0 hours 25 minutes 29 seconds 516 msec
