                         Program Version 3.0.3 - RELEASE   -
|  1> ! RI-MP2 RIJK def2-TZVP def2-TZVP/C def2-TZVP/JK TIGHTSCF
|  2> % maxcore 2000
|  3> % mp2 density relaxed end
|  4> *xyz 0 1
|  5>  O       -0.0605118188     0.0011436765     0.2212653699
|  6>  C       -0.0341756845     1.1849356627     0.0170578737
|  7>  N       -1.1822331128     1.9581761973    -0.0876473581
|  8>  C       -1.1673550753     3.3612489014     0.0144873974
|  9>  C       -0.0227646778     4.0052571721    -0.2512793374
| 10>  C        1.1466723688     3.1782341669    -0.6812096914
| 11>  O        1.1304829203     1.8609445314    -0.0923451881
| 12>  C       -2.3854944000     3.9813716684     0.4000185703
| 13>  C       -3.4394843517     4.4668240535     0.7189449270
| 14>  H       -2.0313603201     1.4638205853     0.1360324902
| 15>  H        0.0566410520     5.0794017740    -0.1706049593
| 16>  H        1.1790517827     3.0638301001    -1.7760426316
| 17>  H        2.0961852417     3.6176931689    -0.3670674573
| 18>  H       -4.3619632844     4.9108267116     1.0028651547
| 19> *
| 20>
| 21>                          ****END OF INPUT****

CARTESIAN COORDINATES (ANGSTROEM)
---------------------------------
  O     -0.060512    0.001144    0.221265
  C     -0.034176    1.184936    0.017058
  N     -1.182233    1.958176   -0.087647
  C     -1.167355    3.361249    0.014487
  C     -0.022765    4.005257   -0.251279
  C      1.146672    3.178234   -0.681210
  O      1.130483    1.860945   -0.092345
  C     -2.385494    3.981372    0.400019
  C     -3.439484    4.466824    0.718945
  H     -2.031360    1.463821    0.136032
  H      0.056641    5.079402   -0.170605
  H      1.179052    3.063830   -1.776043
  H      2.096185    3.617693   -0.367067
  H     -4.361963    4.910827    1.002865

 Total Charge           Charge          ....    0
 Multiplicity           Mult            ....    1
 Number of Electrons    NEL             ....   64
 Basis Dimension        Dim             ....  309

ORBITAL ENERGIES
----------------

  NO   OCC          E(Eh)            E(eV)
   0   2.0000     -20.609864      -560.8229
   1   2.0000     -20.531062      -558.6786
   2   2.0000     -15.615892      -424.9300
   3   2.0000     -11.413828      -310.5861
   4   2.0000     -11.327650      -308.2410
   5   2.0000     -11.318623      -307.9954
   6   2.0000     -11.266509      -306.5773
   7   2.0000     -11.261789      -306.4488
   8   2.0000     -11.257933      -306.3439
   9   2.0000      -1.471869       -40.0516
  10   2.0000      -1.368636       -37.2425
  11   2.0000      -1.275998       -34.7217
  12   2.0000      -1.107254       -30.1299
  13   2.0000      -1.055276       -28.7155
  14   2.0000      -0.969647       -26.3854
  15   2.0000      -0.900032       -24.4911
  16   2.0000      -0.782111       -21.2823
  17   2.0000      -0.771077       -20.9821
  18   2.0000      -0.747968       -20.3532
  19   2.0000      -0.719023       -19.5656
  20   2.0000      -0.694434       -18.8965
  21   2.0000      -0.654379       -17.8065
  22   2.0000      -0.634687       -17.2707
  23   2.0000      -0.609426       -16.5833
  24   2.0000      -0.584774       -15.9125
  25   2.0000      -0.553706       -15.0671
  26   2.0000      -0.525854       -14.3092
  27   2.0000      -0.467758       -12.7283
  28   2.0000      -0.466750       -12.7009
  29   2.0000      -0.433835       -11.8052
  30   2.0000      -0.428323       -11.6553
  31   2.0000      -0.340855        -9.2751
  32   0.0000       0.084416         2.2971
  33   0.0000       0.133455         3.6315
  34   0.0000       0.146226         3.9790
  35   0.0000       0.153018         4.1638
  36   0.0000       0.158777         4.3205

MULLIKEN ATOMIC CHARGES
-----------------------
   0 O :   -0.320589
   1 C :    0.347388
   2 N :   -0.360933
   3 C :    0.017102
   4 C :   -0.257757
   5 C :   -0.034646
   6 O :   -0.226189
   7 C :    0.000278
   8 C :   -0.064544
   9 H :    0.262373
  10 H :    0.157834
  11 H :    0.128976
  12 H :    0.145327
  13 H :    0.205381
Sum of atomic charges:   -0.0000000

LOEWDIN ATOMIC CHARGES
----------------------
   0 O :    0.108044
   1 C :   -0.567619
   2 N :    0.164301
   3 C :   -0.220467
   4 C :   -0.143266
   5 C :   -0.256601
   6 O :    0.258995
   7 C :   -0.066394
   8 C :   -0.051226
   9 H :    0.208615
  10 H :    0.154594
  11 H :    0.137150
  12 H :    0.141278
  13 H :    0.132597

  Mayer bond orders larger than 0.1
B(  0-O ,  1-C ) :   2.0086 B(  1-C ,  2-N ) :   1.0665 B(  1-C ,  6-O ) :   1.1186
B(  2-N ,  3-C ) :   1.0393 B(  2-N ,  9-H ) :   0.8636 B(  3-C ,  4-C ) :   1.6780
B(  3-C ,  7-C ) :   1.1355 B(  3-C ,  8-C ) :  -0.1604 B(  4-C ,  5-C ) :   0.9483
B(  4-C , 10-H ) :   0.9176 B(  5-C ,  6-O ) :   0.8528 B(  5-C , 11-H ) :   0.9157
B(  5-C , 12-H ) :   0.9351 B(  7-C ,  8-C ) :   2.5808 B(  8-C , 13-H ) :   0.8727

MP2 TOTAL ENERGY:     -435.964586800 Eh
FINAL SINGLE POINT ENERGY      -435.964586799529

DIPOLE MOMENT
-------------
                                X             Y             Z
Electronic contribution:     -0.61031      -3.20612       0.94235
Nuclear contribution   :     -0.04430       4.85085      -1.18788
                        -----------------------------------------
Total Dipole Moment    :     -0.65462       1.64473      -0.24552
                        -----------------------------------------
Magnitude (a.u.)       :      1.78716
Magnitude (Debye)      :      4.54260

                             ****ORCA TERMINATED NORMALLY****
TOTAL RUN TIME: 0 days 0 hours 14 minutes 39 seconds 148 msec
