                         Program Version 3.0.3 - RELEASE   -
|  1> ! RI-MP2 RIJK def2-TZVP def2-TZVP/C def2-TZVP/JK TIGHTSCF
|  2> % maxcore 2000
|  3> % mp2 density relaxed end
|  4> *xyz 0 1
|  5>  N        0.0205562946     1.3416890793    -0.1295918209
|  6>  C        0.0587525169     0.0360203143     0.2679350070
|  7>  O        1.0570279480    -0.4690016543     0.7436453989
|  8>  C       -1.2516651583    -0.7305331801     0.0836002922
|  9>  C       -1.0221610009    -2.2347446912    -0.0780221656
| 10>  C       -2.3238079410    -3.0411786386    -0.0719007779
| 11>  C       -2.0845090032    -4.5505444397    -0.2557042499
| 12>  C       -3.3645012637    -5.3417708010    -0.1241064466
| 13>  O       -3.8194751234    -6.0731271548    -0.9652081827
| 14>  H        0.8280874897     1.9169784754     0.0458231499
| 15>  H       -0.8178049783     1.7760953916    -0.4721688769
| 16>  H       -1.8639691454    -0.5410656758     0.9766355421
| 17>  H       -1.8149531471    -0.3243214073    -0.7654822719
| 18>  H       -0.4771687397    -2.4200813866    -1.0116790278
| 19>  H       -0.3612901501    -2.5697489547     0.7276711614
| 20>  H       -2.8564027698    -2.8693447561     0.8737624304
| 21>  H       -2.9906002600    -2.6842514636    -0.8677586529
| 22>  H       -1.6335787051    -4.7709814300    -1.2276879975
| 23>  H       -1.3955616508    -4.8994810508     0.5275045305
| 24>  H       -3.8941399625    -5.1907952761     0.8474178381
| 25> *
| 26>
| 27>                          ****END OF INPUT****

CARTESIAN COORDINATES (ANGSTROEM)
---------------------------------
  N      0.020556    1.341689   -0.129592
  C      0.058753    0.036020    0.267935
  O      1.057028   -0.469002    0.743645
  C     -1.251665   -0.730533    0.083600
  C     -1.022161   -2.234745   -0.078022
  C     -2.323808   -3.041179   -0.071901
  C     -2.084509   -4.550544   -0.255704
  C     -3.364501   -5.341771   -0.124106
  O     -3.819475   -6.073127   -0.965208
  H      0.828087    1.916978    0.045823
  H     -0.817805    1.776095   -0.472169
  H     -1.863969   -0.541066    0.976636
  H     -1.814953   -0.324321   -0.765482
  H     -0.477169   -2.420081   -1.011679
  H     -0.361290   -2.569749    0.727671
  H     -2.856403   -2.869345    0.873762
  H     -2.990600   -2.684251   -0.867759
  H     -1.633579   -4.770981   -1.227688
  H     -1.395562   -4.899481    0.527505
  H     -3.894140   -5.190795    0.847418

 Total Charge           Charge          ....    0
 Multiplicity           Mult            ....    1
 Number of Electrons    NEL             ....   70
 Basis Dimension        Dim             ....  345

ORBITAL ENERGIES
----------------

  NO   OCC          E(Eh)            E(eV)
   0   2.0000     -20.556671      -559.3755
   1   2.0000     -20.521292      -558.4128
   2   2.0000     -15.588320      -424.1798
   3   2.0000     -11.356272      -309.0199
   4   2.0000     -11.331401      -308.3431
   5   2.0000     -11.250221      -306.1341
   6   2.0000     -11.244889      -305.9890
   7   2.0000     -11.242433      -305.9221
   8   2.0000     -11.235145      -305.7238
   9   2.0000      -1.395302       -37.9681
  10   2.0000      -1.386429       -37.7266
  11   2.0000      -1.215798       -33.0835
  12   2.0000      -1.103483       -30.0273
  13   2.0000      -1.038539       -28.2601
  14   2.0000      -0.936268       -25.4771
  15   2.0000      -0.835818       -22.7438
  16   2.0000      -0.795343       -21.6424
  17   2.0000      -0.786547       -21.4030
  18   2.0000      -0.727697       -19.8016
  19   2.0000      -0.683767       -18.6063
  20   2.0000      -0.672111       -18.2891
  21   2.0000      -0.653126       -17.7724
  22   2.0000      -0.634540       -17.2667
  23   2.0000      -0.609896       -16.5961
  24   2.0000      -0.604724       -16.4554
  25   2.0000      -0.565383       -15.3849
  26   2.0000      -0.563296       -15.3281
  27   2.0000      -0.526366       -14.3231
  28   2.0000      -0.513756       -13.9800
  29   2.0000      -0.506810       -13.7910
  30   2.0000      -0.487925       -13.2771
  31   2.0000      -0.484476       -13.1833
  32   2.0000      -0.429757       -11.6943
  33   2.0000      -0.421222       -11.4620
  34   2.0000      -0.416596       -11.3362
  35   0.0000       0.115271         3.1367
  36   0.0000       0.130325         3.5463
  37   0.0000       0.139449         3.7946
  38   0.0000       0.155412         4.2290
  39   0.0000       0.159785         4.3480

MULLIKEN ATOMIC CHARGES
-----------------------
   0 N :   -0.481325
   1 C :    0.284095
   2 O :   -0.352707
   3 C :   -0.233108
   4 C :   -0.246177
   5 C :   -0.265525
   6 C :   -0.132305
   7 C :    0.096628
   8 O :   -0.264671
   9 H :    0.260942
  10 H :    0.258459
  11 H :    0.134271
  12 H :    0.122793
  13 H :    0.119223
  14 H :    0.144960
  15 H :    0.114604
  16 H :    0.123376
  17 H :    0.122103
  18 H :    0.126623
  19 H :    0.067738
Sum of atomic charges:    0.0000000

LOEWDIN ATOMIC CHARGES
----------------------
   0 N :   -0.022736
   1 C :   -0.477049
   2 O :    0.084156
   3 C :   -0.240294
   4 C :   -0.260279
   5 C :   -0.264853
   6 C :   -0.261506
   7 C :   -0.298482
   8 O :    0.129708
   9 H :    0.173104
  10 H :    0.169171
  11 H :    0.152844
  12 H :    0.140716
  13 H :    0.143073
  14 H :    0.148466
  15 H :    0.138286
  16 H :    0.139713
  17 H :    0.145323
  18 H :    0.152410
  19 H :    0.108229

  Mayer bond orders larger than 0.1
B(  0-N ,  1-C ) :   1.1628 B(  0-N ,  9-H ) :   0.8581 B(  0-N , 10-H ) :   0.8717
B(  1-C ,  2-O ) :   1.9715 B(  1-C ,  3-C ) :   0.9004 B(  3-C ,  4-C ) :   0.9418
B(  3-C , 11-H ) :   0.8995 B(  3-C , 12-H ) :   0.9199 B(  4-C ,  5-C ) :   0.9174
B(  4-C , 13-H ) :   0.9305 B(  4-C , 14-H ) :   0.9369 B(  5-C ,  6-C ) :   0.9135
B(  5-C , 15-H ) :   0.9325 B(  5-C , 16-H ) :   0.9212 B(  6-C ,  7-C ) :   0.8776
B(  6-C , 17-H ) :   0.9048 B(  6-C , 18-H ) :   0.9154 B(  7-C ,  8-O ) :   2.0070
B(  7-C , 19-H ) :   0.9392

MP2 TOTAL ENERGY:     -439.611328144 Eh
FINAL SINGLE POINT ENERGY      -439.611328144210

DIPOLE MOMENT
-------------
                                X             Y             Z
Electronic contribution:      1.30302      -1.07740      -0.19228
Nuclear contribution   :     -1.71557       2.71386       0.30072
                        -----------------------------------------
Total Dipole Moment    :     -0.41255       1.63646       0.10844
                        -----------------------------------------
Magnitude (a.u.)       :      1.69114
Magnitude (Debye)      :      4.29854

                             ****ORCA TERMINATED NORMALLY****
TOTAL RUN TIME: 0 days 0 hours 16 minutes 0 seconds 866 msec
