                         Program Version 3.0.3 - RELEASE   -
|  1> ! RI-MP2 RIJK def2-TZVP def2-TZVP/C def2-TZVP/JK TIGHTSCF
|  2> % maxcore 2000
|  3> % mp2 density relaxed end
|  4> *xyz 0 1
|  5>  C        0.0871344811     1.4849514710     0.0611854890
|  6>  C       -0.0412687165     0.0074573979     0.0430060694
|  7>  C       -1.1184210010    -0.8343984555    -0.0836190580
|  8>  C       -0.6014683717    -2.1792964061    -0.0267938811
|  9>  C        0.7349812632    -2.0488339637     0.1282715895
| 10>  O        1.0855061735    -0.7287659054     0.1718098584
| 11>  C       -2.4672011357    -0.4334325314    -0.2388624740
| 12>  N       -3.5699533346    -0.1016503570    -0.3657444838
| 13>  H        0.7309908606     1.8351994339    -0.7527992461
| 14>  H       -0.8977279254     1.9416780620    -0.0522922284
| 15>  H        0.5269425424     1.8313446319     1.0026683810
| 16>  H       -1.1691248256    -3.0926555690    -0.0945635587
| 17>  H        1.5466884198    -2.7502677488     0.2207234128
| 18> *
| 19>
| 20>                          ****END OF INPUT****

CARTESIAN COORDINATES (ANGSTROEM)
---------------------------------
  C      0.087134    1.484951    0.061185
  C     -0.041269    0.007457    0.043006
  C     -1.118421   -0.834398   -0.083619
  C     -0.601468   -2.179296   -0.026794
  C      0.734981   -2.048834    0.128272
  O      1.085506   -0.728766    0.171810
  C     -2.467201   -0.433433   -0.238862
  N     -3.569953   -0.101650   -0.365744
  H      0.730991    1.835199   -0.752799
  H     -0.897728    1.941678   -0.052292
  H      0.526943    1.831345    1.002668
  H     -1.169125   -3.092656   -0.094564
  H      1.546688   -2.750268    0.220723

 Total Charge           Charge          ....    0
 Multiplicity           Mult            ....    1
 Number of Electrons    NEL             ....   56
 Basis Dimension        Dim             ....  278

ORBITAL ENERGIES
----------------

  NO   OCC          E(Eh)            E(eV)
   0   2.0000     -20.650850      -561.9382
   1   2.0000     -15.571570      -423.7240
   2   2.0000     -11.338415      -308.5340
   3   2.0000     -11.309844      -307.7565
   4   2.0000     -11.279093      -306.9197
   5   2.0000     -11.276018      -306.8361
   6   2.0000     -11.259022      -306.3736
   7   2.0000     -11.256642      -306.3088
   8   2.0000      -1.491040       -40.5733
   9   2.0000      -1.220376       -33.2081
  10   2.0000      -1.124852       -30.6088
  11   2.0000      -1.079727       -29.3809
  12   2.0000      -0.970172       -26.3997
  13   2.0000      -0.877063       -23.8661
  14   2.0000      -0.819903       -22.3107
  15   2.0000      -0.745251       -20.2793
  16   2.0000      -0.676479       -18.4079
  17   2.0000      -0.669552       -18.2194
  18   2.0000      -0.624811       -17.0020
  19   2.0000      -0.595669       -16.2090
  20   2.0000      -0.585910       -15.9434
  21   2.0000      -0.585173       -15.9234
  22   2.0000      -0.561962       -15.2918
  23   2.0000      -0.557475       -15.1697
  24   2.0000      -0.515105       -14.0167
  25   2.0000      -0.464297       -12.6342
  26   2.0000      -0.410795       -11.1783
  27   2.0000      -0.336713        -9.1624
  28   0.0000       0.106708         2.9037
  29   0.0000       0.134210         3.6520
  30   0.0000       0.150574         4.0973
  31   0.0000       0.161130         4.3846
  32   0.0000       0.167570         4.5598

MULLIKEN ATOMIC CHARGES
-----------------------
   0 C :   -0.437730
   1 C :    0.117533
   2 C :    0.204692
   3 C :   -0.289662
   4 C :    0.037867
   5 O :   -0.204458
   6 C :   -0.183562
   7 N :   -0.050080
   8 H :    0.158038
   9 H :    0.168558
  10 H :    0.158037
  11 H :    0.160330
  12 H :    0.160437
Sum of atomic charges:   -0.0000000

LOEWDIN ATOMIC CHARGES
----------------------
   0 C :   -0.259456
   1 C :   -0.224225
   2 C :   -0.166856
   3 C :   -0.135909
   4 C :   -0.218457
   5 O :    0.371112
   6 C :   -0.154881
   7 N :    0.070699
   8 H :    0.140454
   9 H :    0.146597
  10 H :    0.140454
  11 H :    0.152932
  12 H :    0.137537

  Mayer bond orders larger than 0.1
B(  0-C ,  1-C ) :   0.8556 B(  0-C ,  8-H ) :   0.9317 B(  0-C ,  9-H ) :   0.9505
B(  0-C , 10-H ) :   0.9317 B(  1-C ,  2-C ) :   1.4762 B(  1-C ,  5-O ) :   1.1012
B(  2-C ,  3-C ) :   1.1403 B(  2-C ,  6-C ) :   0.8721 B(  3-C ,  4-C ) :   1.5731
B(  3-C , 11-H ) :   0.9120 B(  4-C ,  5-O ) :   1.0106 B(  4-C , 12-H ) :   0.9349
B(  6-C ,  7-N ) :   2.8599

MP2 TOTAL ENERGY:     -360.884960716 Eh
FINAL SINGLE POINT ENERGY      -360.884960716352

DIPOLE MOMENT
-------------
                                X             Y             Z
Electronic contribution:     -2.41388      -2.76680      -0.28571
Nuclear contribution   :      3.89083       2.46936       0.45603
                        -----------------------------------------
Total Dipole Moment    :      1.47695      -0.29744       0.17032
                        -----------------------------------------
Magnitude (a.u.)       :      1.51620
Magnitude (Debye)      :      3.85388

                             ****ORCA TERMINATED NORMALLY****
TOTAL RUN TIME: 0 days 0 hours 10 minutes 57 seconds 450 msec
