                         Program Version 3.0.3 - RELEASE   -
|  1> ! RI-MP2 RIJK def2-TZVP def2-TZVP/C def2-TZVP/JK TIGHTSCF
|  2> % maxcore 2000
|  3> % mp2 density relaxed end
|  4> *xyz 0 1
|  5>  O       -0.3022704039     1.4249456395     0.6274800963
|  6>  C       -0.0348961615     0.1032497717     0.2472402521
|  7>  C       -0.7464815140    -1.0216756343     0.9603492859
|  8>  C       -1.1554363408    -0.6032284414    -0.4537542606
|  9>  N       -2.3580884384     0.1303131675    -0.7167619533
| 10>  C       -3.5890220145    -0.5984350349    -0.4607418342
| 11>  C       -4.7866349529     0.2409407106    -0.9413690652
| 12>  C       -6.0627124718    -0.4358210213    -0.7290078049
| 13>  N       -7.0638702658    -0.9858212455    -0.5542553789
| 14>  H        0.0431950412     1.5576328257     1.5160844851
| 15>  H        0.9796761369    -0.0674489927    -0.1093473066
| 16>  H       -0.2277946860    -1.9629583315     1.1074529084
| 17>  H       -1.4141686027    -0.7326549151     1.7658242185
| 18>  H       -0.8742792300    -1.2846875755    -1.2534374677
| 19>  H       -2.3292236661     1.0048649773    -0.2015888939
| 20>  H       -3.5617643433    -1.5374517282    -1.0246508757
| 21>  H       -3.7355326282    -0.8730242899     0.5979499766
| 22>  H       -4.8091359234     1.2006099722    -0.4103463358
| 23>  H       -4.6667622146     0.4709557458    -2.0049474061
| 24> *
| 25>
| 26>                          ****END OF INPUT****

CARTESIAN COORDINATES (ANGSTROEM)
---------------------------------
  O     -0.302270    1.424946    0.627480
  C     -0.034896    0.103250    0.247240
  C     -0.746482   -1.021676    0.960349
  C     -1.155436   -0.603228   -0.453754
  N     -2.358088    0.130313   -0.716762
  C     -3.589022   -0.598435   -0.460742
  C     -4.786635    0.240941   -0.941369
  C     -6.062712   -0.435821   -0.729008
  N     -7.063870   -0.985821   -0.554255
  H      0.043195    1.557633    1.516084
  H      0.979676   -0.067449   -0.109347
  H     -0.227795   -1.962958    1.107453
  H     -1.414169   -0.732655    1.765824
  H     -0.874279   -1.284688   -1.253437
  H     -2.329224    1.004865   -0.201589
  H     -3.561764   -1.537452   -1.024651
  H     -3.735533   -0.873024    0.597950
  H     -4.809136    1.200610   -0.410346
  H     -4.666762    0.470956   -2.004947

 Total Charge           Charge          ....    0
 Multiplicity           Mult            ....    1
 Number of Electrons    NEL             ....   68
 Basis Dimension        Dim             ....  339

ORBITAL ENERGIES
----------------

  NO   OCC          E(Eh)            E(eV)
   0   2.0000     -20.581383      -560.0479
   1   2.0000     -15.565701      -423.5643
   2   2.0000     -15.557848      -423.3506
   3   2.0000     -11.297323      -307.4158
   4   2.0000     -11.278579      -306.9057
   5   2.0000     -11.276127      -306.8390
   6   2.0000     -11.271276      -306.7070
   7   2.0000     -11.270443      -306.6843
   8   2.0000     -11.236741      -305.7673
   9   2.0000      -1.391250       -37.8578
  10   2.0000      -1.237338       -33.6697
  11   2.0000      -1.214671       -33.0529
  12   2.0000      -1.120746       -30.4970
  13   2.0000      -1.048245       -28.5242
  14   2.0000      -0.890218       -24.2241
  15   2.0000      -0.840687       -22.8763
  16   2.0000      -0.813741       -22.1430
  17   2.0000      -0.727411       -19.7939
  18   2.0000      -0.702291       -19.1103
  19   2.0000      -0.690496       -18.7894
  20   2.0000      -0.664297       -18.0765
  21   2.0000      -0.646917       -17.6035
  22   2.0000      -0.606152       -16.4942
  23   2.0000      -0.589380       -16.0379
  24   2.0000      -0.562642       -15.3103
  25   2.0000      -0.558052       -15.1854
  26   2.0000      -0.549426       -14.9506
  27   2.0000      -0.534370       -14.5410
  28   2.0000      -0.515763       -14.0346
  29   2.0000      -0.465124       -12.6567
  30   2.0000      -0.454815       -12.3761
  31   2.0000      -0.447760       -12.1842
  32   2.0000      -0.425460       -11.5773
  33   2.0000      -0.366524        -9.9736
  34   0.0000       0.122417         3.3311
  35   0.0000       0.135440         3.6855
  36   0.0000       0.147862         4.0235
  37   0.0000       0.158778         4.3206
  38   0.0000       0.173511         4.7215

MULLIKEN ATOMIC CHARGES
-----------------------
   0 O :   -0.483853
   1 C :    0.024709
   2 C :   -0.289485
   3 C :   -0.047074
   4 N :   -0.317360
   5 C :   -0.152905
   6 C :   -0.093752
   7 C :   -0.195503
   8 N :   -0.064719
   9 H :    0.332484
  10 H :    0.114372
  11 H :    0.132821
  12 H :    0.140904
  13 H :    0.128575
  14 H :    0.219497
  15 H :    0.127692
  16 H :    0.109937
  17 H :    0.150606
  18 H :    0.163055
Sum of atomic charges:   -0.0000000

LOEWDIN ATOMIC CHARGES
----------------------
   0 O :   -0.008895
   1 C :   -0.321097
   2 C :   -0.232540
   3 C :   -0.272519
   4 N :    0.013696
   5 C :   -0.288369
   6 C :   -0.246741
   7 C :   -0.194892
   8 N :    0.054154
   9 H :    0.183255
  10 H :    0.131794
  11 H :    0.132050
  12 H :    0.136271
  13 H :    0.144032
  14 H :    0.178170
  15 H :    0.140334
  16 H :    0.123453
  17 H :    0.162133
  18 H :    0.165712

  Mayer bond orders larger than 0.1
B(  0-O ,  1-C ) :   0.9856 B(  0-O ,  9-H ) :   0.8370 B(  1-C ,  2-C ) :   0.8778
B(  1-C ,  3-C ) :   0.8833 B(  1-C , 10-H ) :   0.9493 B(  2-C ,  3-C ) :   0.8432
B(  2-C , 11-H ) :   0.9146 B(  2-C , 12-H ) :   0.9300 B(  3-C ,  4-N ) :   1.0241
B(  3-C , 13-H ) :   0.9318 B(  4-N ,  5-C ) :   0.9572 B(  4-N , 14-H ) :   0.8654
B(  5-C ,  6-C ) :   0.9098 B(  5-C , 15-H ) :   0.9238 B(  5-C , 16-H ) :   0.9218
B(  6-C ,  7-C ) :   0.9189 B(  6-C , 17-H ) :   0.9086 B(  6-C , 18-H ) :   0.9068
B(  7-C ,  8-N ) :   2.8724

MP2 TOTAL ENERGY:     -418.482326280 Eh
FINAL SINGLE POINT ENERGY      -418.482326280371

DIPOLE MOMENT
-------------
                                X             Y             Z
Electronic contribution:     -5.22357       0.95480      -1.19118
Nuclear contribution   :      7.03745      -0.63615       1.80013
                        -----------------------------------------
Total Dipole Moment    :      1.81388       0.31866       0.60895
                        -----------------------------------------
Magnitude (a.u.)       :      1.93972
Magnitude (Debye)      :      4.93037

                             ****ORCA TERMINATED NORMALLY****
TOTAL RUN TIME: 0 days 0 hours 13 minutes 42 seconds 114 msec
