                         Program Version 3.0.3 - RELEASE   -
|  1> ! RI-MP2 RIJK def2-TZVP def2-TZVP/C def2-TZVP/JK TIGHTSCF
|  2> % maxcore 2000
|  3> % mp2 density relaxed end
|  4> *xyz 0 1
|  5>  O       -0.0809007962     1.4257330798    -0.0671385005
|  6>  C       -0.0232670793     0.0197737320     0.0121488159
|  7>  C        0.9041897106    -0.5467249942    -1.0843686963
|  8>  C        2.2569066941    -0.0142953395    -0.9686362776
|  9>  C        3.3457769606     0.4778740739    -0.8283059781
| 10>  C        0.2471559805    -0.6141159021     1.4289328191
| 11>  C       -1.1235485459    -1.2941249450     1.3485592724
| 12>  C       -2.1940672321    -0.2520233778     1.2074746271
| 13>  C       -1.4011490419    -0.6381862515    -0.0090474333
| 14>  H        0.8278953771     1.7530170648    -0.0658788367
| 15>  H        0.9181809605    -1.6411562961    -1.0281332670
| 16>  H        0.4844538059    -0.2786737862    -2.0621191486
| 17>  H        4.3206886726     0.8863339515    -0.7252898378
| 18>  H        1.0972218756    -1.3000859608     1.4307790662
| 19>  H        0.3690086223     0.1091098720     2.2406682697
| 20>  H       -1.3410302746    -2.3087111266     1.6572732179
| 21>  H       -3.2147549674    -0.6206294901     1.2180515718
| 22>  H       -2.0641133410     0.7323560327     1.6475380468
| 23>  H       -1.8698827211    -1.0509977669    -0.8953206310
| 24> *
| 25>
| 26>                          ****END OF INPUT****

CARTESIAN COORDINATES (ANGSTROEM)
---------------------------------
  O     -0.080901    1.425733   -0.067139
  C     -0.023267    0.019774    0.012149
  C      0.904190   -0.546725   -1.084369
  C      2.256907   -0.014295   -0.968636
  C      3.345777    0.477874   -0.828306
  C      0.247156   -0.614116    1.428933
  C     -1.123549   -1.294125    1.348559
  C     -2.194067   -0.252023    1.207475
  C     -1.401149   -0.638186   -0.009047
  H      0.827895    1.753017   -0.065879
  H      0.918181   -1.641156   -1.028133
  H      0.484454   -0.278674   -2.062119
  H      4.320689    0.886334   -0.725290
  H      1.097222   -1.300086    1.430779
  H      0.369009    0.109110    2.240668
  H     -1.341030   -2.308711    1.657273
  H     -3.214755   -0.620629    1.218052
  H     -2.064113    0.732356    1.647538
  H     -1.869883   -1.050998   -0.895321

 Total Charge           Charge          ....    0
 Multiplicity           Mult            ....    1
 Number of Electrons    NEL             ....   66
 Basis Dimension        Dim             ....  339

ORBITAL ENERGIES
----------------

  NO   OCC          E(Eh)            E(eV)
   0   2.0000     -20.552111      -559.2514
   1   2.0000     -11.297010      -307.4073
   2   2.0000     -11.256194      -306.2966
   3   2.0000     -11.243323      -305.9464
   4   2.0000     -11.235295      -305.7279
   5   2.0000     -11.230786      -305.6052
   6   2.0000     -11.230753      -305.6043
   7   2.0000     -11.225942      -305.4734
   8   2.0000     -11.224835      -305.4433
   9   2.0000      -1.366520       -37.1849
  10   2.0000      -1.186654       -32.2905
  11   2.0000      -1.077904       -29.3313
  12   2.0000      -0.999796       -27.2058
  13   2.0000      -0.949131       -25.8272
  14   2.0000      -0.874244       -23.7894
  15   2.0000      -0.798193       -21.7199
  16   2.0000      -0.735967       -20.0267
  17   2.0000      -0.728290       -19.8178
  18   2.0000      -0.688259       -18.7285
  19   2.0000      -0.678274       -18.4568
  20   2.0000      -0.650711       -17.7068
  21   2.0000      -0.622815       -16.9477
  22   2.0000      -0.596611       -16.2346
  23   2.0000      -0.576562       -15.6891
  24   2.0000      -0.553075       -15.0499
  25   2.0000      -0.526777       -14.3343
  26   2.0000      -0.504862       -13.7380
  27   2.0000      -0.472663       -12.8618
  28   2.0000      -0.428692       -11.6653
  29   2.0000      -0.420388       -11.4394
  30   2.0000      -0.396189       -10.7809
  31   2.0000      -0.391493       -10.6531
  32   2.0000      -0.382604       -10.4112
  33   0.0000       0.134916         3.6712
  34   0.0000       0.155449         4.2300
  35   0.0000       0.164200         4.4681
  36   0.0000       0.166400         4.5280
  37   0.0000       0.172052         4.6818

MULLIKEN ATOMIC CHARGES
-----------------------
   0 O :   -0.469488
   1 C :    0.301700
   2 C :   -0.422276
   3 C :   -0.059762
   4 C :   -0.134567
   5 C :   -0.258874
   6 C :   -0.128421
   7 C :   -0.265981
   8 C :   -0.150954
   9 H :    0.321885
  10 H :    0.160124
  11 H :    0.147768
  12 H :    0.192653
  13 H :    0.125937
  14 H :    0.109230
  15 H :    0.130816
  16 H :    0.130334
  17 H :    0.142545
  18 H :    0.127331
Sum of atomic charges:    0.0000000

LOEWDIN ATOMIC CHARGES
----------------------
   0 O :    0.022215
   1 C :   -0.335156
   2 C :   -0.213291
   3 C :   -0.117230
   4 C :   -0.105758
   5 C :   -0.178328
   6 C :   -0.180642
   7 C :   -0.198748
   8 C :   -0.150432
   9 H :    0.182252
  10 H :    0.164749
  11 H :    0.163278
  12 H :    0.127790
  13 H :    0.138269
  14 H :    0.132348
  15 H :    0.133577
  16 H :    0.140082
  17 H :    0.137676
  18 H :    0.137350

  Mayer bond orders larger than 0.1
B(  0-O ,  1-C ) :   0.9949 B(  0-O ,  9-H ) :   0.8296 B(  1-C ,  2-C ) :   0.8688
B(  1-C ,  5-C ) :   0.9317 B(  1-C ,  8-C ) :   0.8929 B(  2-C ,  3-C ) :   1.1012
B(  2-C , 10-H ) :   0.9355 B(  2-C , 11-H ) :   0.9091 B(  3-C ,  4-C ) :   2.5987
B(  4-C , 12-H ) :   0.9006 B(  5-C ,  6-C ) :   0.9594 B(  5-C , 13-H ) :   0.9212
B(  5-C , 14-H ) :   0.9029 B(  6-C ,  7-C ) :   0.8898 B(  6-C ,  8-C ) :   0.8435
B(  6-C , 15-H ) :   0.9324 B(  7-C ,  8-C ) :   0.8891 B(  7-C , 16-H ) :   0.9335
B(  7-C , 17-H ) :   0.9150 B(  8-C , 18-H ) :   0.9241

MP2 TOTAL ENERGY:     -385.146978353 Eh
FINAL SINGLE POINT ENERGY      -385.146978353296

DIPOLE MOMENT
-------------
                                X             Y             Z
Electronic contribution:      2.46457       1.84983      -1.96937
Nuclear contribution   :     -2.16690      -2.29065       2.00048
                        -----------------------------------------
Total Dipole Moment    :      0.29766      -0.44082       0.03111
                        -----------------------------------------
Magnitude (a.u.)       :      0.53282
Magnitude (Debye)      :      1.35432

                             ****ORCA TERMINATED NORMALLY****
TOTAL RUN TIME: 0 days 0 hours 19 minutes 41 seconds 972 msec
