                         Program Version 3.0.3 - RELEASE   -
|  1> ! RI-MP2 RIJK def2-TZVP def2-TZVP/C def2-TZVP/JK TIGHTSCF
|  2> % maxcore 2000
|  3> % mp2 density relaxed end
|  4> *xyz 0 1
|  5>  C        0.0087720243     1.4921060299    -0.0534852335
|  6>  C        1.2746904263     0.7118574171    -0.0194655886
|  7>  C        1.9047860219     0.4508167682     1.3374708149
|  8>  C        2.1586226714    -1.0417772152     1.6004747442
|  9>  C        0.8068969167    -1.6801758457     1.5809559449
| 10>  C       -0.1660581011    -0.5333149711     1.3161551069
| 11>  C        0.7376557524     0.2281096561     2.3310678783
| 12>  N        1.3429611663    -1.0912287273     2.8580482710
| 13>  N       -0.0382652154     0.0203515076    -0.0392223649
| 14>  H       -0.2933530386     2.0342763388     0.8401544125
| 15>  H       -0.3181421097     1.9445699823    -0.9843154525
| 16>  H        1.8847602631     0.6163209316    -0.9132433142
| 17>  H        2.7043467970     1.1198572858     1.6543526431
| 18>  H        3.0772632358    -1.6069401176     1.4959924877
| 19>  H        0.6556034102    -2.7459534226     1.4611808150
| 20>  H       -1.2013647660    -0.7151054947     1.6036283686
| 21>  H        0.3842123455     0.9767165868     3.0345025466
| 22> *
| 23>
| 24>                          ****END OF INPUT****

CARTESIAN COORDINATES (ANGSTROEM)
---------------------------------
  C      0.008772    1.492106   -0.053485
  C      1.274690    0.711857   -0.019466
  C      1.904786    0.450817    1.337471
  C      2.158623   -1.041777    1.600475
  C      0.806897   -1.680176    1.580956
  C     -0.166058   -0.533315    1.316155
  C      0.737656    0.228110    2.331068
  N      1.342961   -1.091229    2.858048
  N     -0.038265    0.020352   -0.039222
  H     -0.293353    2.034276    0.840154
  H     -0.318142    1.944570   -0.984315
  H      1.884760    0.616321   -0.913243
  H      2.704347    1.119857    1.654353
  H      3.077263   -1.606940    1.495992
  H      0.655603   -2.745953    1.461181
  H     -1.201365   -0.715105    1.603628
  H      0.384212    0.976717    3.034503

 Total Charge           Charge          ....    0
 Multiplicity           Mult            ....    1
 Number of Electrons    NEL             ....   64
 Basis Dimension        Dim             ....  327

ORBITAL ENERGIES
----------------

  NO   OCC          E(Eh)            E(eV)
   0   2.0000     -15.563576      -423.5064
   1   2.0000     -15.563362      -423.5006
   2   2.0000     -11.268760      -306.6386
   3   2.0000     -11.267442      -306.6027
   4   2.0000     -11.266526      -306.5778
   5   2.0000     -11.263115      -306.4849
   6   2.0000     -11.262846      -306.4776
   7   2.0000     -11.261122      -306.4307
   8   2.0000     -11.248432      -306.0854
   9   2.0000      -1.339346       -36.4455
  10   2.0000      -1.266954       -34.4756
  11   2.0000      -1.021544       -27.7976
  12   2.0000      -1.004966       -27.3465
  13   2.0000      -0.928793       -25.2737
  14   2.0000      -0.861775       -23.4501
  15   2.0000      -0.831330       -22.6216
  16   2.0000      -0.737754       -20.0753
  17   2.0000      -0.725936       -19.7537
  18   2.0000      -0.722059       -19.6482
  19   2.0000      -0.687304       -18.7025
  20   2.0000      -0.630631       -17.1603
  21   2.0000      -0.586439       -15.9578
  22   2.0000      -0.572747       -15.5852
  23   2.0000      -0.547358       -14.8944
  24   2.0000      -0.539822       -14.6893
  25   2.0000      -0.517041       -14.0694
  26   2.0000      -0.466198       -12.6859
  27   2.0000      -0.460360       -12.5270
  28   2.0000      -0.421969       -11.4824
  29   2.0000      -0.408854       -11.1255
  30   2.0000      -0.386840       -10.5265
  31   2.0000      -0.367477        -9.9995
  32   0.0000       0.144614         3.9351
  33   0.0000       0.158236         4.3058
  34   0.0000       0.168819         4.5938
  35   0.0000       0.171593         4.6693
  36   0.0000       0.187084         5.0908

MULLIKEN ATOMIC CHARGES
-----------------------
   0 C :   -0.202976
   1 C :   -0.078372
   2 C :   -0.038251
   3 C :   -0.122335
   4 C :   -0.119309
   5 C :    0.066620
   6 C :   -0.116272
   7 N :   -0.216884
   8 N :   -0.245101
   9 H :    0.128437
  10 H :    0.132462
  11 H :    0.130377
  12 H :    0.133915
  13 H :    0.139836
  14 H :    0.139084
  15 H :    0.123601
  16 H :    0.145169
Sum of atomic charges:    0.0000000

LOEWDIN ATOMIC CHARGES
----------------------
   0 C :   -0.236950
   1 C :   -0.216014
   2 C :   -0.178073
   3 C :   -0.178104
   4 C :   -0.176159
   5 C :   -0.222795
   6 C :   -0.156712
   7 N :    0.134104
   8 N :    0.130885
   9 H :    0.129850
  10 H :    0.129227
  11 H :    0.141026
  12 H :    0.151836
  13 H :    0.135639
  14 H :    0.136021
  15 H :    0.146535
  16 H :    0.129684

  Mayer bond orders larger than 0.1
B(  0-C ,  1-C ) :   0.9385 B(  0-C ,  8-N ) :   0.8955 B(  0-C ,  9-H ) :   0.9109
B(  0-C , 10-H ) :   0.9271 B(  1-C ,  2-C ) :   0.9443 B(  1-C ,  8-N ) :   0.9029
B(  1-C , 11-H ) :   0.9058 B(  2-C ,  3-C ) :   0.8782 B(  2-C ,  6-C ) :   0.9066
B(  2-C , 12-H ) :   0.9132 B(  3-C ,  4-C ) :   0.9506 B(  3-C ,  7-N ) :   0.9001
B(  3-C , 13-H ) :   0.9093 B(  4-C ,  5-C ) :   0.8630 B(  4-C ,  7-N ) :   0.8834
B(  4-C , 14-H ) :   0.9148 B(  5-C ,  6-C ) :   0.9131 B(  5-C ,  8-N ) :   0.9069
B(  5-C , 15-H ) :   0.9431 B(  6-C ,  7-N ) :   0.9581 B(  6-C , 16-H ) :   0.9142

MP2 TOTAL ENERGY:     -380.112131729 Eh
FINAL SINGLE POINT ENERGY      -380.112131728964

DIPOLE MOMENT
-------------
                                X             Y             Z
Electronic contribution:      0.30796      -2.05006       1.09772
Nuclear contribution   :     -0.15671       2.63319      -1.36609
                        -----------------------------------------
Total Dipole Moment    :      0.15125       0.58313      -0.26837
                        -----------------------------------------
Magnitude (a.u.)       :      0.65950
Magnitude (Debye)      :      1.67631

                             ****ORCA TERMINATED NORMALLY****
TOTAL RUN TIME: 0 days 0 hours 19 minutes 42 seconds 740 msec
