                         Program Version 3.0.3 - RELEASE   -
|  1> ! RI-MP2 RIJK def2-TZVP def2-TZVP/C def2-TZVP/JK TIGHTSCF
|  2> % maxcore 2000
|  3> % mp2 density relaxed end
|  4> *xyz 0 1
|  5>  C       -0.0825921723     1.5480128035    -0.0635293607
|  6>  C       -0.0027943986     0.0191117341    -0.0235415179
|  7>  C        0.7023852761    -0.5249084046     1.2291809754
|  8>  C        0.0290118226    -0.1794123482     2.5693171092
|  9>  C       -1.3539179390    -0.6943592616     2.8926550301
| 10>  C       -0.1396553504    -1.4520984283     3.3733190174
| 11>  C        0.4054679145    -2.6069002939     2.5508744793
| 12>  C       -0.2702847828    -2.9903762669     1.2561867479
| 13>  C        0.9102256308    -2.0485632196     1.2364625338
| 14>  H        0.9164330108     1.9982167586    -0.0312044476
| 15>  H       -0.5735716444     1.8969525007    -0.9774658479
| 16>  H       -0.6490281883     1.9369802533     0.7888384435
| 17>  H       -1.0136801438    -0.4019128039    -0.0834304528
| 18>  H        0.5292466590    -0.3433956879    -0.9123298312
| 19>  H        1.7042991387    -0.0741205703     1.2614426029
| 20>  H        0.3332884731     0.7435215928     3.0515413095
| 21>  H       -1.9158932035    -0.1403935817     3.6379237137
| 22>  H       -1.9780623315    -1.1139013657     2.1128102371
| 23>  H        0.0581917191    -1.4740898067     4.4390365435
| 24>  H        0.9549969234    -3.3728037327     3.0863468824
| 25>  H       -0.0926703883    -3.9958754978     0.8879975204
| 26>  H       -1.2671707834    -2.6266358946     1.0376264372
| 27>  H        1.8258430482    -2.4189576485     0.7864158650
| 28> *
| 29>
| 30>                          ****END OF INPUT****

CARTESIAN COORDINATES (ANGSTROEM)
---------------------------------
  C     -0.082592    1.548013   -0.063529
  C     -0.002794    0.019112   -0.023542
  C      0.702385   -0.524908    1.229181
  C      0.029012   -0.179412    2.569317
  C     -1.353918   -0.694359    2.892655
  C     -0.139655   -1.452098    3.373319
  C      0.405468   -2.606900    2.550874
  C     -0.270285   -2.990376    1.256187
  C      0.910226   -2.048563    1.236463
  H      0.916433    1.998217   -0.031204
  H     -0.573572    1.896953   -0.977466
  H     -0.649028    1.936980    0.788838
  H     -1.013680   -0.401913   -0.083430
  H      0.529247   -0.343396   -0.912330
  H      1.704299   -0.074121    1.261443
  H      0.333288    0.743522    3.051541
  H     -1.915893   -0.140394    3.637924
  H     -1.978062   -1.113901    2.112810
  H      0.058192   -1.474090    4.439037
  H      0.954997   -3.372804    3.086347
  H     -0.092670   -3.995875    0.887998
  H     -1.267171   -2.626636    1.037626
  H      1.825843   -2.418958    0.786416

 Total Charge           Charge          ....    0
 Multiplicity           Mult            ....    1
 Number of Electrons    NEL             ....   68
 Basis Dimension        Dim             ....  363

ORBITAL ENERGIES
----------------

  NO   OCC          E(Eh)            E(eV)
   0   2.0000     -11.225402      -305.4587
   1   2.0000     -11.225247      -305.4545
   2   2.0000     -11.224731      -305.4405
   3   2.0000     -11.220227      -305.3179
   4   2.0000     -11.220178      -305.3166
   5   2.0000     -11.219056      -305.2860
   6   2.0000     -11.218695      -305.2762
   7   2.0000     -11.213278      -305.1288
   8   2.0000     -11.207524      -304.9722
   9   2.0000      -1.187730       -32.3198
  10   2.0000      -1.091879       -29.7115
  11   2.0000      -1.047835       -28.5131
  12   2.0000      -0.945346       -25.7242
  13   2.0000      -0.867399       -23.6031
  14   2.0000      -0.829847       -22.5813
  15   2.0000      -0.797460       -21.7000
  16   2.0000      -0.741694       -20.1825
  17   2.0000      -0.733440       -19.9579
  18   2.0000      -0.701686       -19.0938
  19   2.0000      -0.617937       -16.8149
  20   2.0000      -0.616641       -16.7797
  21   2.0000      -0.598983       -16.2992
  22   2.0000      -0.565645       -15.3920
  23   2.0000      -0.557586       -15.1727
  24   2.0000      -0.539000       -14.6669
  25   2.0000      -0.522044       -14.2055
  26   2.0000      -0.503395       -13.6981
  27   2.0000      -0.482111       -13.1189
  28   2.0000      -0.473988       -12.8979
  29   2.0000      -0.444855       -12.1051
  30   2.0000      -0.431346       -11.7375
  31   2.0000      -0.404061       -10.9950
  32   2.0000      -0.395501       -10.7621
  33   2.0000      -0.359836        -9.7916
  34   0.0000       0.137963         3.7542
  35   0.0000       0.152165         4.1406
  36   0.0000       0.164098         4.4653
  37   0.0000       0.166990         4.5440
  38   0.0000       0.187751         5.1090

MULLIKEN ATOMIC CHARGES
-----------------------
   0 C :   -0.410468
   1 C :   -0.172462
   2 C :   -0.049803
   3 C :   -0.146610
   4 C :   -0.281738
   5 C :   -0.102826
   6 C :   -0.112756
   7 C :   -0.282801
   8 C :   -0.098198
   9 H :    0.121220
  10 H :    0.132220
  11 H :    0.134404
  12 H :    0.089559
  13 H :    0.111257
  14 H :    0.087000
  15 H :    0.126070
  16 H :    0.126386
  17 H :    0.122210
  18 H :    0.119995
  19 H :    0.119866
  20 H :    0.126101
  21 H :    0.121496
  22 H :    0.119878
Sum of atomic charges:   -0.0000000

LOEWDIN ATOMIC CHARGES
----------------------
   0 C :   -0.318093
   1 C :   -0.265962
   2 C :   -0.206573
   3 C :   -0.172016
   4 C :   -0.204701
   5 C :   -0.175835
   6 C :   -0.176571
   7 C :   -0.204485
   8 C :   -0.169614
   9 H :    0.119816
  10 H :    0.119906
  11 H :    0.122197
  12 H :    0.135255
  13 H :    0.137514
  14 H :    0.161516
  15 H :    0.142290
  16 H :    0.133544
  17 H :    0.128925
  18 H :    0.144502
  19 H :    0.144287
  20 H :    0.133565
  21 H :    0.128461
  22 H :    0.142070

  Mayer bond orders larger than 0.1
B(  0-C ,  1-C ) :   0.9173 B(  0-C ,  9-H ) :   0.9390 B(  0-C , 10-H ) :   0.9418
B(  0-C , 11-H ) :   0.9392 B(  1-C ,  2-C ) :   0.9020 B(  1-C , 12-H ) :   0.9213
B(  1-C , 13-H ) :   0.9377 B(  2-C ,  3-C ) :   0.9526 B(  2-C ,  8-C ) :   0.9562
B(  2-C , 14-H ) :   0.9170 B(  3-C ,  4-C ) :   0.8792 B(  3-C ,  5-C ) :   0.8697
B(  3-C , 15-H ) :   0.9288 B(  4-C ,  5-C ) :   0.8953 B(  4-C , 16-H ) :   0.9299
B(  4-C , 17-H ) :   0.9254 B(  5-C ,  6-C ) :   0.9331 B(  5-C , 18-H ) :   0.9308
B(  6-C ,  7-C ) :   0.8928 B(  6-C ,  8-C ) :   0.8714 B(  6-C , 19-H ) :   0.9312
B(  7-C ,  8-C ) :   0.8811 B(  7-C , 20-H ) :   0.9311 B(  7-C , 21-H ) :   0.9247
B(  8-C , 22-H ) :   0.9271

MP2 TOTAL ENERGY:     -350.490694053 Eh
FINAL SINGLE POINT ENERGY      -350.490694053354

DIPOLE MOMENT
-------------
                                X             Y             Z
Electronic contribution:      1.33979      -3.72518       3.58523
Nuclear contribution   :     -1.22446       3.73754      -3.55201
                        -----------------------------------------
Total Dipole Moment    :      0.11532       0.01235       0.03323
                        -----------------------------------------
Magnitude (a.u.)       :      0.12065
Magnitude (Debye)      :      0.30667

                             ****ORCA TERMINATED NORMALLY****
TOTAL RUN TIME: 0 days 0 hours 34 minutes 44 seconds 111 msec
