                         Program Version 3.0.3 - RELEASE   -
|  1> ! RI-MP2 RIJK def2-TZVP def2-TZVP/C def2-TZVP/JK TIGHTSCF
|  2> % maxcore 2000
|  3> % mp2 density relaxed end
|  4> *xyz 0 1
|  5>  C        0.0703652288     1.2591309567    -0.0297821465
|  6>  O       -0.0872561614    -0.1326313227     0.2470940510
|  7>  C       -1.3370720322    -0.6143618921     0.0126142962
|  8>  O       -2.2629276212     0.0491692506    -0.4001517160
|  9>  N       -1.3853263326    -1.9367972412     0.3178391387
| 10>  C       -2.5871779306    -2.6924176399     0.2070239022
| 11>  C       -2.7236989965    -3.7455077917    -0.8804830265
| 12>  C       -2.4923565138    -4.1468400228     0.5578373860
| 13>  O       -1.2211928979    -4.5784823133     0.9573173016
| 14>  H        1.1098725242     1.4914079190     0.2049909141
| 15>  H       -0.1383279630     1.4755242650    -1.0809881330
| 16>  H       -0.6012078092     1.8601145315     0.5892658296
| 17>  H       -0.5703231210    -2.3959119982     0.6923084197
| 18>  H       -3.4751343685    -2.1412087507     0.4937901149
| 19>  H       -3.6991286513    -3.9196024087    -1.3211153418
| 20>  H       -1.8807536803    -3.8462429290    -1.5556903846
| 21>  H       -3.3171448704    -4.5937727903     1.1106506814
| 22>  H       -1.0334085132    -5.4159862720     0.5219186831
| 23> *
| 24>
| 25>                          ****END OF INPUT****

CARTESIAN COORDINATES (ANGSTROEM)
---------------------------------
  C      0.070365    1.259131   -0.029782
  O     -0.087256   -0.132631    0.247094
  C     -1.337072   -0.614362    0.012614
  O     -2.262928    0.049169   -0.400152
  N     -1.385326   -1.936797    0.317839
  C     -2.587178   -2.692418    0.207024
  C     -2.723699   -3.745508   -0.880483
  C     -2.492357   -4.146840    0.557837
  O     -1.221193   -4.578482    0.957317
  H      1.109873    1.491408    0.204991
  H     -0.138328    1.475524   -1.080988
  H     -0.601208    1.860115    0.589266
  H     -0.570323   -2.395912    0.692308
  H     -3.475134   -2.141209    0.493790
  H     -3.699129   -3.919602   -1.321115
  H     -1.880754   -3.846243   -1.555690
  H     -3.317145   -4.593773    1.110651
  H     -1.033409   -5.415986    0.521919

 Total Charge           Charge          ....    0
 Multiplicity           Mult            ....    1
 Number of Electrons    NEL             ....   70
 Basis Dimension        Dim             ....  333

ORBITAL ENERGIES
----------------

  NO   OCC          E(Eh)            E(eV)
   0   2.0000     -20.593100      -560.3667
   1   2.0000     -20.580873      -560.0340
   2   2.0000     -20.517263      -558.3031
   3   2.0000     -15.579804      -423.9480
   4   2.0000     -11.392117      -309.9953
   5   2.0000     -11.296655      -307.3976
   6   2.0000     -11.278002      -306.8900
   7   2.0000     -11.275259      -306.8154
   8   2.0000     -11.233408      -305.6766
   9   2.0000      -1.454352       -39.5749
  10   2.0000      -1.390951       -37.8497
  11   2.0000      -1.347462       -36.6663
  12   2.0000      -1.243086       -33.8261
  13   2.0000      -1.119422       -30.4610
  14   2.0000      -0.963013       -26.2049
  15   2.0000      -0.852308       -23.1925
  16   2.0000      -0.835279       -22.7291
  17   2.0000      -0.793604       -21.5951
  18   2.0000      -0.743726       -20.2378
  19   2.0000      -0.712455       -19.3869
  20   2.0000      -0.680548       -18.5186
  21   2.0000      -0.672673       -18.3044
  22   2.0000      -0.666345       -18.1322
  23   2.0000      -0.639294       -17.3961
  24   2.0000      -0.595314       -16.1993
  25   2.0000      -0.586157       -15.9502
  26   2.0000      -0.562953       -15.3187
  27   2.0000      -0.547918       -14.9096
  28   2.0000      -0.527138       -14.3442
  29   2.0000      -0.523722       -14.2512
  30   2.0000      -0.473758       -12.8916
  31   2.0000      -0.456001       -12.4084
  32   2.0000      -0.451201       -12.2778
  33   2.0000      -0.426943       -11.6177
  34   2.0000      -0.367606       -10.0031
  35   0.0000       0.132657         3.6098
  36   0.0000       0.159260         4.3337
  37   0.0000       0.160777         4.3750
  38   0.0000       0.178023         4.8443
  39   0.0000       0.187180         5.0934

MULLIKEN ATOMIC CHARGES
-----------------------
   0 C :   -0.208069
   1 O :   -0.307717
   2 C :    0.434222
   3 O :   -0.399810
   4 N :   -0.355621
   5 C :    0.038403
   6 C :   -0.279776
   7 C :    0.018646
   8 O :   -0.488727
   9 H :    0.137880
  10 H :    0.136633
  11 H :    0.136431
  12 H :    0.265176
  13 H :    0.148270
  14 H :    0.133195
  15 H :    0.139911
  16 H :    0.116571
  17 H :    0.334382
Sum of atomic charges:    0.0000000

LOEWDIN ATOMIC CHARGES
----------------------
   0 C :   -0.316953
   1 O :    0.200499
   2 C :   -0.585780
   3 O :    0.072502
   4 N :    0.134073
   5 C :   -0.237094
   6 C :   -0.216833
   7 C :   -0.318830
   8 O :   -0.008448
   9 H :    0.112913
  10 H :    0.112390
  11 H :    0.112418
  12 H :    0.196692
  13 H :    0.152649
  14 H :    0.134426
  15 H :    0.138697
  16 H :    0.132232
  17 H :    0.184448

  Mayer bond orders larger than 0.1
B(  0-C ,  1-O ) :   0.8549 B(  0-C ,  9-H ) :   0.9325 B(  0-C , 10-H ) :   0.9420
B(  0-C , 11-H ) :   0.9418 B(  1-O ,  2-C ) :   1.0778 B(  2-C ,  3-O ) :   1.8542
B(  2-C ,  4-N ) :   1.1675 B(  4-N ,  5-C ) :   0.8892 B(  4-N , 12-H ) :   0.8494
B(  5-C ,  6-C ) :   0.8725 B(  5-C ,  7-C ) :   0.8545 B(  5-C , 13-H ) :   0.9317
B(  6-C ,  7-C ) :   0.8865 B(  6-C , 14-H ) :   0.9169 B(  6-C , 15-H ) :   0.9290
B(  7-C ,  8-O ) :   0.9946 B(  7-C , 16-H ) :   0.9501 B(  8-O , 17-H ) :   0.8363

MP2 TOTAL ENERGY:     -475.487436854 Eh
FINAL SINGLE POINT ENERGY      -475.487436853672

DIPOLE MOMENT
-------------
                                X             Y             Z
Electronic contribution:      0.22868       0.00825       1.25277
Nuclear contribution   :      0.07724      -1.02152      -1.30587
                        -----------------------------------------
Total Dipole Moment    :      0.30592      -1.01327      -0.05310
                        -----------------------------------------
Magnitude (a.u.)       :      1.05978
Magnitude (Debye)      :      2.69373

                             ****ORCA TERMINATED NORMALLY****
TOTAL RUN TIME: 0 days 0 hours 13 minutes 35 seconds 93 msec
