                         Program Version 3.0.3 - RELEASE   -
|  1> ! RI-MP2 RIJK def2-TZVP def2-TZVP/C def2-TZVP/JK TIGHTSCF
|  2> % maxcore 2000
|  3> % mp2 density relaxed end
|  4> *xyz 0 1
|  5>  C        0.0358642483     1.5405228381     0.0760191994
|  6>  C        0.0712144320     0.0461412140    -0.1592775068
|  7>  C        0.7072100552    -0.6717481600    -1.2847802057
|  8>  C        2.0307601769    -0.0673603107    -1.7556554493
|  9>  O        2.1020738241     1.0688244447    -2.5731889249
| 10>  C        2.4146185972    -0.0380324498    -0.2652881769
| 11>  N        3.3411097879     0.3894914517     0.4674063212
| 12>  N        1.2565883421    -0.8037243272     0.1556775770
| 13>  H        0.9628152081     2.0459863603    -0.2042857551
| 14>  H       -0.7937891627     1.9876249335    -0.4817343097
| 15>  H       -0.1249780967     1.7459197624     1.1390146034
| 16>  H       -0.8265979087    -0.4524109967     0.2015717119
| 17>  H        0.2259939342    -1.5195336024    -1.7601504143
| 18>  H        2.6273150608    -0.8356404730    -2.2590751813
| 19>  H        1.5128680373     1.7414159202    -2.2179335124
| 20>  H        4.0380538939     0.8779754347    -0.1000240665
| 21> *
| 22>
| 23>                          ****END OF INPUT****

CARTESIAN COORDINATES (ANGSTROEM)
---------------------------------
  C      0.035864    1.540523    0.076019
  C      0.071214    0.046141   -0.159278
  C      0.707210   -0.671748   -1.284780
  C      2.030760   -0.067360   -1.755655
  O      2.102074    1.068824   -2.573189
  C      2.414619   -0.038032   -0.265288
  N      3.341110    0.389491    0.467406
  N      1.256588   -0.803724    0.155678
  H      0.962815    2.045986   -0.204286
  H     -0.793789    1.987625   -0.481734
  H     -0.124978    1.745920    1.139015
  H     -0.826598   -0.452411    0.201572
  H      0.225994   -1.519534   -1.760150
  H      2.627315   -0.835640   -2.259075
  H      1.512868    1.741416   -2.217934
  H      4.038054    0.877975   -0.100024

 Total Charge           Charge          ....    0
 Multiplicity           Mult            ....    1
 Number of Electrons    NEL             ....   60
 Basis Dimension        Dim             ....  296

ORBITAL ENERGIES
----------------

  NO   OCC          E(Eh)            E(eV)
   0   2.0000     -20.584938      -560.1447
   1   2.0000     -15.583911      -424.0598
   2   2.0000     -15.549441      -423.1218
   3   2.0000     -11.316052      -307.9254
   4   2.0000     -11.315476      -307.9097
   5   2.0000     -11.294301      -307.3336
   6   2.0000     -11.282823      -307.0212
   7   2.0000     -11.245605      -306.0085
   8   2.0000      -1.396554       -38.0022
   9   2.0000      -1.321024       -35.9469
  10   2.0000      -1.200180       -32.6585
  11   2.0000      -1.033748       -28.1297
  12   2.0000      -0.978622       -26.6297
  13   2.0000      -0.921666       -25.0798
  14   2.0000      -0.803376       -21.8610
  15   2.0000      -0.754076       -20.5195
  16   2.0000      -0.720836       -19.6149
  17   2.0000      -0.683760       -18.6060
  18   2.0000      -0.649813       -17.6823
  19   2.0000      -0.621047       -16.8996
  20   2.0000      -0.612035       -16.6543
  21   2.0000      -0.594472       -16.1764
  22   2.0000      -0.578953       -15.7541
  23   2.0000      -0.533009       -14.5039
  24   2.0000      -0.514571       -14.0022
  25   2.0000      -0.498013       -13.5516
  26   2.0000      -0.482065       -13.1177
  27   2.0000      -0.429602       -11.6901
  28   2.0000      -0.408735       -11.1222
  29   2.0000      -0.388421       -10.5695
  30   0.0000       0.121169         3.2972
  31   0.0000       0.138982         3.7819
  32   0.0000       0.158144         4.3033
  33   0.0000       0.167839         4.5671
  34   0.0000       0.172910         4.7051

MULLIKEN ATOMIC CHARGES
-----------------------
   0 C :   -0.380511
   1 C :   -0.022953
   2 C :   -0.090763
   3 C :    0.041782
   4 O :   -0.442654
   5 C :    0.001994
   6 N :   -0.305353
   7 N :   -0.180430
   8 H :    0.120248
   9 H :    0.146896
  10 H :    0.153471
  11 H :    0.128001
  12 H :    0.139757
  13 H :    0.130577
  14 H :    0.324539
  15 H :    0.235399
Sum of atomic charges:    0.0000000

LOEWDIN ATOMIC CHARGES
----------------------
   0 C :   -0.290807
   1 C :   -0.252205
   2 C :   -0.166447
   3 C :   -0.308211
   4 O :    0.000014
   5 C :   -0.338019
   6 N :   -0.020187
   7 N :    0.173523
   8 H :    0.124151
   9 H :    0.132681
  10 H :    0.137360
  11 H :    0.156478
  12 H :    0.137213
  13 H :    0.161148
  14 H :    0.175940
  15 H :    0.177367

  Mayer bond orders larger than 0.1
B(  0-C ,  1-C ) :   0.9128 B(  0-C ,  8-H ) :   0.9208 B(  0-C ,  9-H ) :   0.9275
B(  0-C , 10-H ) :   0.9316 B(  1-C ,  2-C ) :   0.9650 B(  1-C ,  7-N ) :   0.8671
B(  1-C , 11-H ) :   0.9287 B(  2-C ,  3-C ) :   0.9167 B(  2-C ,  7-N ) :   0.8339
B(  2-C , 12-H ) :   0.9046 B(  3-C ,  4-O ) :   0.9850 B(  3-C ,  5-C ) :   0.8887
B(  3-C , 13-H ) :   0.9227 B(  4-O , 14-H ) :   0.8372 B(  5-C ,  6-N ) :   2.0349
B(  5-C ,  7-N ) :   0.9679 B(  6-N , 15-H ) :   0.8434

MP2 TOTAL ENERGY:     -379.238342322 Eh
FINAL SINGLE POINT ENERGY      -379.238342322380

DIPOLE MOMENT
-------------
                                X             Y             Z
Electronic contribution:      3.23807      -2.95296      -0.62580
Nuclear contribution   :     -4.13625       3.46879      -0.06844
                        -----------------------------------------
Total Dipole Moment    :     -0.89817       0.51583      -0.69424
                        -----------------------------------------
Magnitude (a.u.)       :      1.24690
Magnitude (Debye)      :      3.16938

                             ****ORCA TERMINATED NORMALLY****
TOTAL RUN TIME: 0 days 0 hours 12 minutes 37 seconds 247 msec
