                         Program Version 3.0.3 - RELEASE   -
|  1> ! RI-MP2 RIJK def2-TZVP def2-TZVP/C def2-TZVP/JK TIGHTSCF
|  2> % maxcore 2000
|  3> % mp2 density relaxed end
|  4> *xyz 0 1
|  5>  C       -0.9429760765     1.3020693432     0.4193267916
|  6>  C       -0.0871125481     0.1030181487    -0.0014472801
|  7>  C        0.8405340806    -0.3921995354     1.0954846073
|  8>  C        0.2934962293    -1.2983466574     2.1850227133
|  9>  C        1.2211894898    -1.8566625717     1.1495958310
| 10>  O        0.6824259221    -2.7510312692     0.2284727072
| 11>  N        1.8835296674     0.5204959268     1.4898601259
| 12>  C        3.0039543657     0.7104283369     0.7390521169
| 13>  O        3.2735068049     0.1005676607    -0.2747258034
| 14>  H       -0.3188628327     2.1530505767     0.7127773976
| 15>  H       -1.5838785776     1.6333058256    -0.4031244382
| 16>  H       -1.5888683365     1.0514866806     1.2679594613
| 17>  H       -0.7263235572    -0.7292383955    -0.3101005887
| 18>  H        0.5275982235     0.3672161008    -0.8699822579
| 19>  H        0.6626805720    -1.1882825578     3.1988225560
| 20>  H       -0.7528583524    -1.5711707412     2.1030808909
| 21>  H        2.2420675294    -2.0666992277     1.4624141345
| 22>  H        1.1876864606    -2.6578983748    -0.5877523217
| 23>  H        1.7262539249     1.1397877987     2.2705479469
| 24>  H        3.6638205207     1.4897772019     1.1711119094
| 25> *
| 26>
| 27>                          ****END OF INPUT****

CARTESIAN COORDINATES (ANGSTROEM)
---------------------------------
  C     -0.942976    1.302069    0.419327
  C     -0.087113    0.103018   -0.001447
  C      0.840534   -0.392200    1.095485
  C      0.293496   -1.298347    2.185023
  C      1.221189   -1.856663    1.149596
  O      0.682426   -2.751031    0.228473
  N      1.883530    0.520496    1.489860
  C      3.003954    0.710428    0.739052
  O      3.273507    0.100568   -0.274726
  H     -0.318863    2.153051    0.712777
  H     -1.583879    1.633306   -0.403124
  H     -1.588868    1.051487    1.267959
  H     -0.726324   -0.729238   -0.310101
  H      0.527598    0.367216   -0.869982
  H      0.662681   -1.188283    3.198823
  H     -0.752858   -1.571171    2.103081
  H      2.242068   -2.066699    1.462414
  H      1.187686   -2.657898   -0.587752
  H      1.726254    1.139788    2.270548
  H      3.663821    1.489777    1.171112

 Total Charge           Charge          ....    0
 Multiplicity           Mult            ....    1
 Number of Electrons    NEL             ....   70
 Basis Dimension        Dim             ....  345

ORBITAL ENERGIES
----------------

  NO   OCC          E(Eh)            E(eV)
   0   2.0000     -20.564351      -559.5844
   1   2.0000     -20.528349      -558.6048
   2   2.0000     -15.594586      -424.3502
   3   2.0000     -11.353536      -308.9454
   4   2.0000     -11.285332      -307.0895
   5   2.0000     -11.275982      -306.8351
   6   2.0000     -11.233219      -305.6714
   7   2.0000     -11.223998      -305.4205
   8   2.0000     -11.218395      -305.2680
   9   2.0000      -1.388925       -37.7946
  10   2.0000      -1.375245       -37.4223
  11   2.0000      -1.251276       -34.0489
  12   2.0000      -1.123190       -30.5636
  13   2.0000      -1.028794       -27.9949
  14   2.0000      -0.892320       -24.2813
  15   2.0000      -0.851822       -23.1793
  16   2.0000      -0.827676       -22.5222
  17   2.0000      -0.766309       -20.8523
  18   2.0000      -0.730766       -19.8851
  19   2.0000      -0.706606       -19.2277
  20   2.0000      -0.681539       -18.5456
  21   2.0000      -0.632754       -17.2181
  22   2.0000      -0.616618       -16.7790
  23   2.0000      -0.604785       -16.4570
  24   2.0000      -0.587400       -15.9840
  25   2.0000      -0.564096       -15.3498
  26   2.0000      -0.554426       -15.0867
  27   2.0000      -0.531198       -14.4546
  28   2.0000      -0.516854       -14.0643
  29   2.0000      -0.495830       -13.4922
  30   2.0000      -0.488974       -13.3056
  31   2.0000      -0.454563       -12.3693
  32   2.0000      -0.431962       -11.7543
  33   2.0000      -0.403078       -10.9683
  34   2.0000      -0.381877       -10.3914
  35   0.0000       0.122343         3.3291
  36   0.0000       0.149473         4.0674
  37   0.0000       0.155215         4.2236
  38   0.0000       0.166123         4.5204
  39   0.0000       0.175229         4.7682

MULLIKEN ATOMIC CHARGES
-----------------------
   0 C :   -0.426850
   1 C :   -0.242545
   2 C :    0.212336
   3 C :   -0.297434
   4 C :    0.034302
   5 O :   -0.461471
   6 N :   -0.375309
   7 C :    0.202116
   8 O :   -0.366995
   9 H :    0.118927
  10 H :    0.140176
  11 H :    0.127973
  12 H :    0.139957
  13 H :    0.135891
  14 H :    0.140985
  15 H :    0.138446
  16 H :    0.117488
  17 H :    0.334879
  18 H :    0.243007
  19 H :    0.084120
Sum of atomic charges:    0.0000000

LOEWDIN ATOMIC CHARGES
----------------------
   0 C :   -0.315596
   1 C :   -0.251242
   2 C :   -0.279464
   3 C :   -0.185779
   4 C :   -0.302461
   5 O :    0.006845
   6 N :    0.131354
   7 C :   -0.428790
   8 O :    0.060313
   9 H :    0.117458
  10 H :    0.123185
  11 H :    0.121002
  12 H :    0.148006
  13 H :    0.147010
  14 H :    0.135417
  15 H :    0.145824
  16 H :    0.139397
  17 H :    0.189696
  18 H :    0.187576
  19 H :    0.110249

  Mayer bond orders larger than 0.1
B(  0-C ,  1-C ) :   0.9043 B(  0-C ,  9-H ) :   0.9389 B(  0-C , 10-H ) :   0.9424
B(  0-C , 11-H ) :   0.9396 B(  1-C ,  2-C ) :   0.9016 B(  1-C , 12-H ) :   0.9255
B(  1-C , 13-H ) :   0.9295 B(  2-C ,  3-C ) :   0.8903 B(  2-C ,  4-C ) :   0.8257
B(  2-C ,  6-N ) :   0.7155 B(  3-C ,  4-C ) :   0.8823 B(  3-C , 14-H ) :   0.9174
B(  3-C , 15-H ) :   0.9142 B(  4-C ,  5-O ) :   1.0524 B(  4-C , 16-H ) :   0.9676
B(  5-O , 17-H ) :   0.8358 B(  6-N ,  7-C ) :   1.1485 B(  6-N , 18-H ) :   0.8673
B(  7-C ,  8-O ) :   1.8799 B(  7-C , 19-H ) :   0.9301

MP2 TOTAL ENERGY:     -439.578152540 Eh
FINAL SINGLE POINT ENERGY      -439.578152540006

DIPOLE MOMENT
-------------
                                X             Y             Z
Electronic contribution:      6.61760      -3.10398      -0.72773
Nuclear contribution   :     -6.96869       3.83287       1.60084
                        -----------------------------------------
Total Dipole Moment    :     -0.35109       0.72888       0.87311
                        -----------------------------------------
Magnitude (a.u.)       :      1.19032
Magnitude (Debye)      :      3.02555

                             ****ORCA TERMINATED NORMALLY****
TOTAL RUN TIME: 0 days 0 hours 18 minutes 0 seconds 370 msec
