                         Program Version 3.0.3 - RELEASE   -
|  1> ! RI-MP2 RIJK def2-TZVP def2-TZVP/C def2-TZVP/JK TIGHTSCF
|  2> % maxcore 2000
|  3> % mp2 density relaxed end
|  4> *xyz 0 1
|  5>  C       -0.0271578381     1.4625015755     0.0019146504
|  6>  C        0.0049875320    -0.0528659854    -0.0037361033
|  7>  C        0.6316123722    -0.7149295835    -1.2377999818
|  8>  O        0.3305690621    -2.1170719581    -1.0836808069
|  9>  C       -0.7132060802    -2.1893306717    -0.1458829708
| 10>  C       -0.3844923965    -1.8870032980     1.3620911733
| 11>  C        0.6459509296    -0.7536885166     1.2413086961
| 12>  O       -1.6339067815    -1.1334252512     1.4369947643
| 13>  C       -1.3713543151    -0.8170124602     0.0538145550
| 14>  H        0.9827699126     1.8863256656     0.0345846078
| 15>  H       -0.5235093749     1.8546090220    -0.8931989227
| 16>  H       -0.5706745100     1.8302486794     0.8780131304
| 17>  H        0.1951185858    -0.3426007903    -2.1775979186
| 18>  H        1.7181551774    -0.5892419220    -1.2888432224
| 19>  H       -1.3515186725    -3.0534979448    -0.3220600258
| 20>  H       -0.2763408893    -2.6452825351     2.1371590843
| 21>  H        1.6659074776    -1.0995988033     1.0547913170
| 22>  H        0.6314431453    -0.1274274484     2.1363633222
| 23>  H       -2.2223928065    -0.4220638939    -0.5007909787
| 24> *
| 25>
| 26>                          ****END OF INPUT****

CARTESIAN COORDINATES (ANGSTROEM)
---------------------------------
  C     -0.027158    1.462502    0.001915
  C      0.004988   -0.052866   -0.003736
  C      0.631612   -0.714930   -1.237800
  O      0.330569   -2.117072   -1.083681
  C     -0.713206   -2.189331   -0.145883
  C     -0.384492   -1.887003    1.362091
  C      0.645951   -0.753689    1.241309
  O     -1.633907   -1.133425    1.436995
  C     -1.371354   -0.817012    0.053815
  H      0.982770    1.886326    0.034585
  H     -0.523509    1.854609   -0.893199
  H     -0.570675    1.830249    0.878013
  H      0.195119   -0.342601   -2.177598
  H      1.718155   -0.589242   -1.288843
  H     -1.351519   -3.053498   -0.322060
  H     -0.276341   -2.645283    2.137159
  H      1.665907   -1.099599    1.054791
  H      0.631443   -0.127427    2.136363
  H     -2.222393   -0.422064   -0.500791

 Total Charge           Charge          ....    0
 Multiplicity           Mult            ....    1
 Number of Electrons    NEL             ....   68
 Basis Dimension        Dim             ....  339

ORBITAL ENERGIES
----------------

  NO   OCC          E(Eh)            E(eV)
   0   2.0000     -20.560857      -559.4894
   1   2.0000     -20.554631      -559.3200
   2   2.0000     -11.287603      -307.1513
   3   2.0000     -11.285857      -307.1038
   4   2.0000     -11.284896      -307.0776
   5   2.0000     -11.280602      -306.9608
   6   2.0000     -11.246704      -306.0384
   7   2.0000     -11.228129      -305.5329
   8   2.0000     -11.225519      -305.4619
   9   2.0000      -1.412829       -38.4450
  10   2.0000      -1.369306       -37.2607
  11   2.0000      -1.102657       -30.0048
  12   2.0000      -1.014755       -27.6129
  13   2.0000      -0.970313       -26.4036
  14   2.0000      -0.937898       -25.5215
  15   2.0000      -0.868555       -23.6346
  16   2.0000      -0.760776       -20.7018
  17   2.0000      -0.754847       -20.5404
  18   2.0000      -0.714740       -19.4491
  19   2.0000      -0.669031       -18.2052
  20   2.0000      -0.657589       -17.8939
  21   2.0000      -0.625621       -17.0240
  22   2.0000      -0.587098       -15.9757
  23   2.0000      -0.574346       -15.6288
  24   2.0000      -0.566713       -15.4210
  25   2.0000      -0.552255       -15.0276
  26   2.0000      -0.536064       -14.5871
  27   2.0000      -0.514462       -13.9992
  28   2.0000      -0.489728       -13.3262
  29   2.0000      -0.488999       -13.3063
  30   2.0000      -0.480752       -13.0819
  31   2.0000      -0.456597       -12.4246
  32   2.0000      -0.402658       -10.9569
  33   2.0000      -0.395809       -10.7705
  34   0.0000       0.132374         3.6021
  35   0.0000       0.162580         4.4240
  36   0.0000       0.171752         4.6736
  37   0.0000       0.175853         4.7852
  38   0.0000       0.188059         5.1173

MULLIKEN ATOMIC CHARGES
-----------------------
   0 C :   -0.412679
   1 C :    0.111792
   2 C :   -0.069751
   3 O :   -0.325084
   4 C :    0.071606
   5 C :    0.012997
   6 C :   -0.257490
   7 O :   -0.316790
   8 C :   -0.073506
   9 H :    0.138509
  10 H :    0.131224
  11 H :    0.148166
  12 H :    0.095501
  13 H :    0.116745
  14 H :    0.122288
  15 H :    0.134064
  16 H :    0.120679
  17 H :    0.121801
  18 H :    0.129927
Sum of atomic charges:    0.0000000

LOEWDIN ATOMIC CHARGES
----------------------
   0 C :   -0.271675
   1 C :   -0.268291
   2 C :   -0.242586
   3 O :    0.168420
   4 C :   -0.258054
   5 C :   -0.228903
   6 C :   -0.182419
   7 O :    0.166296
   8 C :   -0.216270
   9 H :    0.129012
  10 H :    0.127882
  11 H :    0.133498
  12 H :    0.124193
  13 H :    0.128294
  14 H :    0.141807
  15 H :    0.129314
  16 H :    0.142648
  17 H :    0.142170
  18 H :    0.134662

  Mayer bond orders larger than 0.1
B(  0-C ,  1-C ) :   0.8745 B(  0-C ,  9-H ) :   0.9407 B(  0-C , 10-H ) :   0.9345
B(  0-C , 11-H ) :   0.9401 B(  1-C ,  2-C ) :   0.9700 B(  1-C ,  6-C ) :   0.9039
B(  1-C ,  8-C ) :   0.8402 B(  2-C ,  3-O ) :   0.9214 B(  2-C , 12-H ) :   0.9164
B(  2-C , 13-H ) :   0.9178 B(  3-O ,  4-C ) :   1.0160 B(  4-C ,  5-C ) :   0.8708
B(  4-C ,  8-C ) :   0.9628 B(  4-C , 14-H ) :   0.9326 B(  5-C ,  6-C ) :   0.9412
B(  5-C ,  7-O ) :   0.8894 B(  5-C , 15-H ) :   0.9111 B(  6-C , 16-H ) :   0.9047
B(  6-C , 17-H ) :   0.9182 B(  7-O ,  8-C ) :   0.9853 B(  8-C , 18-H ) :   0.9095

MP2 TOTAL ENERGY:     -422.310640908 Eh
FINAL SINGLE POINT ENERGY      -422.310640908182

DIPOLE MOMENT
-------------
                                X             Y             Z
Electronic contribution:     -2.52929      -5.50860       0.47129
Nuclear contribution   :      2.83865       5.93162      -0.64258
                        -----------------------------------------
Total Dipole Moment    :      0.30936       0.42303      -0.17128
                        -----------------------------------------
Magnitude (a.u.)       :      0.55136
Magnitude (Debye)      :      1.40145

                             ****ORCA TERMINATED NORMALLY****
TOTAL RUN TIME: 0 days 0 hours 19 minutes 10 seconds 116 msec
