                         Program Version 3.0.3 - RELEASE   -
|  1> ! RI-MP2 RIJK def2-TZVP def2-TZVP/C def2-TZVP/JK TIGHTSCF
|  2> % maxcore 2000
|  3> % mp2 density relaxed end
|  4> *xyz 0 1
|  5>  N        0.0767360040     1.3675610823     0.2007973511
|  6>  C       -0.0203635857     0.0158754644     0.0223536538
|  7>  N        1.1403235079    -0.6695968588    -0.1300149945
|  8>  H        1.0060215925    -1.6742378347    -0.1101594309
|  9>  H        1.9732873253    -0.3114640525     0.3105541867
| 10>  C       -1.2205914451    -0.6804307793     0.0054416989
| 11>  C       -2.5671003319    -0.2322734365    -0.0442985093
| 12>  N       -3.3796487320    -1.2795145030    -0.0675576305
| 13>  C       -2.5028962967    -2.3459730781    -0.0367183503
| 14>  O       -2.9782086769    -3.6027122804    -0.0516284094
| 15>  N       -1.2235004268    -2.0752655784     0.0064187407
| 16>  H        0.8395470208     1.8353152331    -0.2661711554
| 17>  H       -0.7891385689     1.8824183045     0.1915468048
| 18>  H       -2.9489963104     0.7818876518    -0.0734172518
| 19>  H       -3.9391901062    -3.5202907743    -0.0816019239
| 20> *
| 21>
| 22>                          ****END OF INPUT****

CARTESIAN COORDINATES (ANGSTROEM)
---------------------------------
  N      0.076736    1.367561    0.200797
  C     -0.020364    0.015875    0.022354
  N      1.140324   -0.669597   -0.130015
  H      1.006022   -1.674238   -0.110159
  H      1.973287   -0.311464    0.310554
  C     -1.220591   -0.680431    0.005442
  C     -2.567100   -0.232273   -0.044299
  N     -3.379649   -1.279515   -0.067558
  C     -2.502896   -2.345973   -0.036718
  O     -2.978209   -3.602712   -0.051628
  N     -1.223500   -2.075266    0.006419
  H      0.839547    1.835315   -0.266171
  H     -0.789139    1.882418    0.191547
  H     -2.948996    0.781888   -0.073417
  H     -3.939190   -3.520291   -0.081602

 Total Charge           Charge          ....    0
 Multiplicity           Mult            ....    1
 Number of Electrons    NEL             ....   66
 Basis Dimension        Dim             ....  315

ORBITAL ENERGIES
----------------

  NO   OCC          E(Eh)            E(eV)
   0   2.0000     -20.574014      -559.8474
   1   2.0000     -15.615041      -424.9069
   2   2.0000     -15.601923      -424.5499
   3   2.0000     -15.535622      -422.7458
   4   2.0000     -15.519042      -422.2946
   5   2.0000     -11.369346      -309.3756
   6   2.0000     -11.322643      -308.1048
   7   2.0000     -11.272590      -306.7428
   8   2.0000     -11.234193      -305.6979
   9   2.0000      -1.408957       -38.3397
  10   2.0000      -1.320985       -35.9458
  11   2.0000      -1.280847       -34.8536
  12   2.0000      -1.206403       -32.8279
  13   2.0000      -1.130647       -30.7665
  14   2.0000      -1.005491       -27.3608
  15   2.0000      -0.883407       -24.0387
  16   2.0000      -0.810119       -22.0445
  17   2.0000      -0.789883       -21.4938
  18   2.0000      -0.754962       -20.5436
  19   2.0000      -0.731288       -19.8994
  20   2.0000      -0.670589       -18.2477
  21   2.0000      -0.663100       -18.0439
  22   2.0000      -0.650228       -17.6936
  23   2.0000      -0.614437       -16.7197
  24   2.0000      -0.598937       -16.2979
  25   2.0000      -0.577765       -15.7218
  26   2.0000      -0.540677       -14.7126
  27   2.0000      -0.497106       -13.5269
  28   2.0000      -0.461167       -12.5490
  29   2.0000      -0.455106       -12.3841
  30   2.0000      -0.413214       -11.2441
  31   2.0000      -0.367619       -10.0034
  32   2.0000      -0.287773        -7.8307
  33   0.0000       0.086401         2.3511
  34   0.0000       0.105487         2.8704
  35   0.0000       0.139274         3.7898
  36   0.0000       0.163424         4.4470
  37   0.0000       0.172819         4.7026

MULLIKEN ATOMIC CHARGES
-----------------------
   0 N :   -0.494038
   1 C :    0.227482
   2 N :   -0.483693
   3 H :    0.295221
   4 H :    0.260152
   5 C :    0.183862
   6 C :   -0.132447
   7 N :   -0.320643
   8 C :    0.272958
   9 O :   -0.422111
  10 N :   -0.375139
  11 H :    0.265855
  12 H :    0.268602
  13 H :    0.113451
  14 H :    0.340488
Sum of atomic charges:   -0.0000000

LOEWDIN ATOMIC CHARGES
----------------------
   0 N :   -0.010440
   1 C :   -0.291214
   2 N :    0.009498
   3 H :    0.194491
   4 H :    0.175292
   5 C :   -0.279857
   6 C :   -0.239691
   7 N :    0.074172
   8 C :   -0.486401
   9 O :    0.078120
  10 N :    0.090011
  11 H :    0.177782
  12 H :    0.182987
  13 H :    0.126118
  14 H :    0.199132

  Mayer bond orders larger than 0.1
B(  0-N ,  1-C ) :   1.2068 B(  0-N , 11-H ) :   0.8597 B(  0-N , 12-H ) :   0.8710
B(  1-C ,  2-N ) :   1.2397 B(  1-C ,  5-C ) :   1.1884 B(  2-N ,  3-H ) :   0.8360
B(  2-N ,  4-H ) :   0.8630 B(  5-C ,  6-C ) :   1.1890 B(  5-C , 10-N ) :   1.0562
B(  6-C ,  7-N ) :   1.5534 B(  6-C , 13-H ) :   0.9341 B(  7-N ,  8-C ) :   1.2289
B(  8-C ,  9-O ) :   1.1102 B(  8-C , 10-N ) :   1.6130 B(  9-O , 14-H ) :   0.8185

MP2 TOTAL ENERGY:     -449.445540325 Eh
FINAL SINGLE POINT ENERGY      -449.445540325102

DIPOLE MOMENT
-------------
                                X             Y             Z
Electronic contribution:     -2.62197      -3.11166      -0.03135
Nuclear contribution   :      4.16878       5.04459       0.03293
                        -----------------------------------------
Total Dipole Moment    :      1.54681       1.93293       0.00158
                        -----------------------------------------
Magnitude (a.u.)       :      2.47565
Magnitude (Debye)      :      6.29261

                             ****ORCA TERMINATED NORMALLY****
TOTAL RUN TIME: 0 days 0 hours 13 minutes 46 seconds 716 msec
