                         Program Version 3.0.3 - RELEASE   -
|  1> ! RI-MP2 RIJK def2-TZVP def2-TZVP/C def2-TZVP/JK TIGHTSCF
|  2> % maxcore 2000
|  3> % mp2 density relaxed end
|  4> *xyz 0 1
|  5>  C        0.3026903374     1.6124040919     0.1706547751
|  6>  C        0.1093270898     0.1100206063     0.0378040244
|  7>  C        1.0261485730    -0.6852114318    -0.9415513054
|  8>  C        1.3408013211    -1.7142042786     0.1925062754
|  9>  O        0.7328441120    -2.9774746415     0.0454857354
| 10>  C        2.7838520094    -1.7459029069     0.7084606264
| 11>  C        2.8704076077    -0.4514115744     1.5261990458
| 12>  O        1.5689701428    -0.2458516021     2.0768326895
| 13>  C        0.5952896359    -0.8021589470     1.2098628128
| 14>  H        1.3378478126     1.8643997863     0.4187049937
| 15>  H        0.0451155852     2.1223159180    -0.7641309136
| 16>  H       -0.3308861101     2.0226683855     0.9639068680
| 17>  H       -0.9424861760    -0.1106781933    -0.1712042933
| 18>  H        0.5266896835    -1.1204646133    -1.8104580475
| 19>  H        1.9023784349    -0.1243487580    -1.2831157287
| 20>  H        1.1436091794    -3.4212547024    -0.7042384049
| 21>  H        2.8956728208    -2.6213262089     1.3557140705
| 22>  H        3.5349208918    -1.7930604057    -0.0862787398
| 23>  H        3.5796422464    -0.5049861658     2.3566871852
| 24>  H        3.1609004779     0.3972929572     0.8877428020
| 25>  H       -0.1851465255    -1.2648725855     1.8184277088
| 26> *
| 27>
| 28>                          ****END OF INPUT****

CARTESIAN COORDINATES (ANGSTROEM)
---------------------------------
  C      0.302690    1.612404    0.170655
  C      0.109327    0.110021    0.037804
  C      1.026149   -0.685211   -0.941551
  C      1.340801   -1.714204    0.192506
  O      0.732844   -2.977475    0.045486
  C      2.783852   -1.745903    0.708461
  C      2.870408   -0.451412    1.526199
  O      1.568970   -0.245852    2.076833
  C      0.595290   -0.802159    1.209863
  H      1.337848    1.864400    0.418705
  H      0.045116    2.122316   -0.764131
  H     -0.330886    2.022668    0.963907
  H     -0.942486   -0.110678   -0.171204
  H      0.526690   -1.120465   -1.810458
  H      1.902378   -0.124349   -1.283116
  H      1.143609   -3.421255   -0.704238
  H      2.895673   -2.621326    1.355714
  H      3.534921   -1.793060   -0.086279
  H      3.579642   -0.504986    2.356687
  H      3.160900    0.397293    0.887743
  H     -0.185147   -1.264873    1.818428

 Total Charge           Charge          ....    0
 Multiplicity           Mult            ....    1
 Number of Electrons    NEL             ....   70
 Basis Dimension        Dim             ....  351

ORBITAL ENERGIES
----------------

  NO   OCC          E(Eh)            E(eV)
   0   2.0000     -20.561922      -559.5184
   1   2.0000     -20.550081      -559.1961
   2   2.0000     -11.284175      -307.0580
   3   2.0000     -11.275789      -306.8298
   4   2.0000     -11.267431      -306.6024
   5   2.0000     -11.225433      -305.4596
   6   2.0000     -11.225024      -305.4484
   7   2.0000     -11.222259      -305.3732
   8   2.0000     -11.210410      -305.0508
   9   2.0000      -1.382750       -37.6265
  10   2.0000      -1.362920       -37.0869
  11   2.0000      -1.114863       -30.3370
  12   2.0000      -1.037973       -28.2447
  13   2.0000      -0.969035       -26.3688
  14   2.0000      -0.911074       -24.7916
  15   2.0000      -0.843671       -22.9575
  16   2.0000      -0.799544       -21.7567
  17   2.0000      -0.736843       -20.0505
  18   2.0000      -0.707510       -19.2523
  19   2.0000      -0.665656       -18.1134
  20   2.0000      -0.644016       -17.5246
  21   2.0000      -0.624175       -16.9847
  22   2.0000      -0.606204       -16.4956
  23   2.0000      -0.582568       -15.8525
  24   2.0000      -0.577389       -15.7116
  25   2.0000      -0.561323       -15.2744
  26   2.0000      -0.543103       -14.7786
  27   2.0000      -0.522428       -14.2160
  28   2.0000      -0.502060       -13.6617
  29   2.0000      -0.488269       -13.2865
  30   2.0000      -0.476376       -12.9629
  31   2.0000      -0.469501       -12.7758
  32   2.0000      -0.425387       -11.5754
  33   2.0000      -0.411914       -11.2088
  34   2.0000      -0.390981       -10.6391
  35   0.0000       0.132332         3.6009
  36   0.0000       0.144222         3.9245
  37   0.0000       0.158915         4.3243
  38   0.0000       0.172941         4.7060
  39   0.0000       0.192097         5.2272

MULLIKEN ATOMIC CHARGES
-----------------------
   0 C :   -0.421992
   1 C :   -0.028673
   2 C :   -0.331537
   3 C :    0.261980
   4 O :   -0.459331
   5 C :   -0.304014
   6 C :   -0.053736
   7 O :   -0.328193
   8 C :    0.053977
   9 H :    0.122474
  10 H :    0.130533
  11 H :    0.133059
  12 H :    0.099339
  13 H :    0.119216
  14 H :    0.110388
  15 H :    0.318614
  16 H :    0.123313
  17 H :    0.121088
  18 H :    0.124860
  19 H :    0.089394
  20 H :    0.119240
Sum of atomic charges:    0.0000000

LOEWDIN ATOMIC CHARGES
----------------------
   0 C :   -0.298750
   1 C :   -0.235139
   2 C :   -0.187387
   3 C :   -0.340084
   4 O :    0.013408
   5 C :   -0.234903
   6 C :   -0.297725
   7 O :    0.175235
   8 C :   -0.225000
   9 H :    0.123129
  10 H :    0.123586
  11 H :    0.127492
  12 H :    0.152009
  13 H :    0.129651
  14 H :    0.134473
  15 H :    0.178598
  16 H :    0.145208
  17 H :    0.137423
  18 H :    0.126707
  19 H :    0.115160
  20 H :    0.136909

  Mayer bond orders larger than 0.1
B(  0-C ,  1-C ) :   0.8892 B(  0-C ,  9-H ) :   0.9351 B(  0-C , 10-H ) :   0.9417
B(  0-C , 11-H ) :   0.9389 B(  1-C ,  2-C ) :   0.9478 B(  1-C ,  8-C ) :   0.9294
B(  1-C , 12-H ) :   0.9098 B(  2-C ,  3-C ) :   0.9200 B(  2-C , 13-H ) :   0.9112
B(  2-C , 14-H ) :   0.8963 B(  3-C ,  4-O ) :   0.9957 B(  3-C ,  5-C ) :   0.9326
B(  3-C ,  8-C ) :   0.9118 B(  4-O , 15-H ) :   0.8397 B(  5-C ,  6-C ) :   0.9588
B(  5-C , 16-H ) :   0.9207 B(  5-C , 17-H ) :   0.9143 B(  6-C ,  7-O ) :   0.9211
B(  6-C , 18-H ) :   0.9304 B(  6-C , 19-H ) :   0.9204 B(  7-O ,  8-C ) :   0.9481
B(  8-C , 20-H ) :   0.9231

MP2 TOTAL ENERGY:     -423.521823642 Eh
FINAL SINGLE POINT ENERGY      -423.521823642198

DIPOLE MOMENT
-------------
                                X             Y             Z
Electronic contribution:     -0.86626      -4.62863       2.66361
Nuclear contribution   :      1.39873       4.51440      -3.49794
                        -----------------------------------------
Total Dipole Moment    :      0.53247      -0.11423      -0.83433
                        -----------------------------------------
Magnitude (a.u.)       :      0.99633
Magnitude (Debye)      :      2.53247

                             ****ORCA TERMINATED NORMALLY****
TOTAL RUN TIME: 0 days 0 hours 18 minutes 59 seconds 74 msec
