                         Program Version 3.0.3 - RELEASE   -
|  1> ! RI-MP2 RIJK def2-TZVP def2-TZVP/C def2-TZVP/JK TIGHTSCF
|  2> % maxcore 2000
|  3> % mp2 density relaxed end
|  4> *xyz 0 1
|  5>  C        0.0538180179     1.5835818531    -0.0164473631
|  6>  C        0.2297810924     0.0632300262    -0.0486903970
|  7>  C        0.5051143069    -0.5348515528     1.3372613455
|  8>  C        0.6657609841    -2.0410081466     1.3209208266
|  9>  O       -0.4902581306    -2.7613673693     0.9705621725
| 10>  C        1.9995694434    -2.6623395707     0.9324688851
| 11>  C        1.4880920734    -2.7283382354     2.3605367319
| 12>  O        2.0777114686    -1.9380279338     3.3504845978
| 13>  H        0.9531682963     2.0768030207     0.3687247093
| 14>  H       -0.1452484737     1.9849672596    -1.0150959231
| 15>  H       -0.7816034514     1.8705700704     0.6315069507
| 16>  H       -0.6767439690    -0.3928669626    -0.4690104258
| 17>  H        1.0518141235    -0.1995779815    -0.7275084545
| 18>  H        1.4051698057    -0.0871377530     1.7695262844
| 19>  H       -0.3234753066    -0.2879500737     2.0135134643
| 20>  H       -0.6265931077    -2.6553972029     0.0229533816
| 21>  H        1.9863429247    -3.5759266151     0.3481470007
| 22>  H        2.8276891014    -1.9892443014     0.7342945460
| 23>  H        1.1008623364    -3.6897454520     2.6958627628
| 24>  H        2.9471642942    -2.3045039292     3.5416171544
| 25> *
| 26>
| 27>                          ****END OF INPUT****

CARTESIAN COORDINATES (ANGSTROEM)
---------------------------------
  C      0.053818    1.583582   -0.016447
  C      0.229781    0.063230   -0.048690
  C      0.505114   -0.534852    1.337261
  C      0.665761   -2.041008    1.320921
  O     -0.490258   -2.761367    0.970562
  C      1.999569   -2.662340    0.932469
  C      1.488092   -2.728338    2.360537
  O      2.077711   -1.938028    3.350485
  H      0.953168    2.076803    0.368725
  H     -0.145248    1.984967   -1.015096
  H     -0.781603    1.870570    0.631507
  H     -0.676744   -0.392867   -0.469010
  H      1.051814   -0.199578   -0.727508
  H      1.405170   -0.087138    1.769526
  H     -0.323475   -0.287950    2.013513
  H     -0.626593   -2.655397    0.022953
  H      1.986343   -3.575927    0.348147
  H      2.827689   -1.989244    0.734295
  H      1.100862   -3.689745    2.695863
  H      2.947164   -2.304504    3.541617

 Total Charge           Charge          ....    0
 Multiplicity           Mult            ....    1
 Number of Electrons    NEL             ....   64
 Basis Dimension        Dim             ....  320

ORBITAL ENERGIES
----------------

  NO   OCC          E(Eh)            E(eV)
   0   2.0000     -20.564016      -559.5753
   1   2.0000     -20.559748      -559.4592
   2   2.0000     -11.284079      -307.0554
   3   2.0000     -11.279136      -306.9209
   4   2.0000     -11.224240      -305.4271
   5   2.0000     -11.221927      -305.3642
   6   2.0000     -11.216763      -305.2236
   7   2.0000     -11.213354      -305.1309
   8   2.0000      -1.380151       -37.5558
   9   2.0000      -1.363610       -37.1057
  10   2.0000      -1.120857       -30.5001
  11   2.0000      -1.054234       -28.6872
  12   2.0000      -0.942694       -25.6520
  13   2.0000      -0.841818       -22.9070
  14   2.0000      -0.814126       -22.1535
  15   2.0000      -0.767878       -20.8950
  16   2.0000      -0.709708       -19.3121
  17   2.0000      -0.674405       -18.3515
  18   2.0000      -0.646345       -17.5879
  19   2.0000      -0.627217       -17.0674
  20   2.0000      -0.622934       -16.9509
  21   2.0000      -0.587130       -15.9766
  22   2.0000      -0.558709       -15.2032
  23   2.0000      -0.546323       -14.8662
  24   2.0000      -0.529423       -14.4063
  25   2.0000      -0.511791       -13.9265
  26   2.0000      -0.506131       -13.7725
  27   2.0000      -0.484597       -13.1866
  28   2.0000      -0.473270       -12.8783
  29   2.0000      -0.464232       -12.6324
  30   2.0000      -0.398390       -10.8407
  31   2.0000      -0.388168       -10.5626
  32   0.0000       0.134096         3.6489
  33   0.0000       0.143553         3.9063
  34   0.0000       0.156998         4.2721
  35   0.0000       0.173397         4.7184
  36   0.0000       0.186997         5.0884

MULLIKEN ATOMIC CHARGES
-----------------------
   0 C :   -0.390105
   1 C :   -0.213837
   2 C :   -0.245399
   3 C :    0.272264
   4 O :   -0.468661
   5 C :   -0.363767
   6 C :    0.012080
   7 O :   -0.464090
   8 H :    0.123663
   9 H :    0.132915
  10 H :    0.125913
  11 H :    0.091237
  12 H :    0.112623
  13 H :    0.131167
  14 H :    0.118363
  15 H :    0.322796
  16 H :    0.134151
  17 H :    0.130025
  18 H :    0.113992
  19 H :    0.324672
Sum of atomic charges:    0.0000000

LOEWDIN ATOMIC CHARGES
----------------------
   0 C :   -0.319929
   1 C :   -0.295791
   2 C :   -0.229567
   3 C :   -0.352821
   4 O :    0.024085
   5 C :   -0.212658
   6 C :   -0.303009
   7 O :   -0.001937
   8 H :    0.120863
   9 H :    0.120055
  10 H :    0.121699
  11 H :    0.129763
  12 H :    0.134465
  13 H :    0.149815
  14 H :    0.147817
  15 H :    0.177817
  16 H :    0.134123
  17 H :    0.136656
  18 H :    0.137531
  19 H :    0.181023

  Mayer bond orders larger than 0.1
B(  0-C ,  1-C ) :   0.9290 B(  0-C ,  8-H ) :   0.9412 B(  0-C ,  9-H ) :   0.9434
B(  0-C , 10-H ) :   0.9392 B(  1-C ,  2-C ) :   0.9224 B(  1-C , 11-H ) :   0.9257
B(  1-C , 12-H ) :   0.9321 B(  2-C ,  3-C ) :   0.9268 B(  2-C , 13-H ) :   0.9159
B(  2-C , 14-H ) :   0.9217 B(  3-C ,  4-O ) :   0.9429 B(  3-C ,  5-C ) :   0.8714
B(  3-C ,  6-C ) :   0.8519 B(  4-O , 15-H ) :   0.8405 B(  5-C ,  6-C ) :   0.9117
B(  5-C , 16-H ) :   0.9137 B(  5-C , 17-H ) :   0.9124 B(  6-C ,  7-O ) :   1.0427
B(  6-C , 18-H ) :   0.9570 B(  7-O , 19-H ) :   0.8404

MP2 TOTAL ENERGY:     -385.492553826 Eh
FINAL SINGLE POINT ENERGY      -385.492553825688

DIPOLE MOMENT
-------------
                                X             Y             Z
Electronic contribution:      0.68104      -6.92135       4.59732
Nuclear contribution   :     -0.04697       6.84056      -5.19343
                        -----------------------------------------
Total Dipole Moment    :      0.63407      -0.08079      -0.59611
                        -----------------------------------------
Magnitude (a.u.)       :      0.87403
Magnitude (Debye)      :      2.22161

                             ****ORCA TERMINATED NORMALLY****
TOTAL RUN TIME: 0 days 0 hours 12 minutes 5 seconds 248 msec
