                         Program Version 3.0.3 - RELEASE   -
|  1> ! RI-MP2 RIJK def2-TZVP def2-TZVP/C def2-TZVP/JK TIGHTSCF
|  2> % maxcore 2000
|  3> % mp2 density relaxed end
|  4> *xyz 0 1
|  5>  N        0.6972462359     0.6635068560     0.4844747664
|  6>  C       -0.3187842382     0.3340073040    -0.3485707413
|  7>  O       -0.5569325281     0.8664308386    -1.4144943908
|  8>  C       -1.1780789676    -0.8118704698     0.1410891145
|  9>  O       -0.8095439873    -1.4753720034     1.3480673006
| 10>  C       -2.0248628210    -0.7046342225     1.3568210912
| 11>  C       -2.0720218989     0.4682719048     2.1851520196
| 12>  C       -2.1574080102     1.4342143064     2.8947235053
| 13>  H        1.2741875971     1.4567696324     0.2612834403
| 14>  H        0.8064901965     0.1854004184     1.3629045048
| 15>  H       -1.5381031640    -1.4502302881    -0.6635375762
| 16>  H       -2.9260911218    -1.3162689232     1.3758313091
| 17>  H       -2.2265079125     2.2943834164     3.5144812865
| 18> *
| 19>
| 20>                          ****END OF INPUT****

CARTESIAN COORDINATES (ANGSTROEM)
---------------------------------
  N      0.697246    0.663507    0.484475
  C     -0.318784    0.334007   -0.348571
  O     -0.556933    0.866431   -1.414494
  C     -1.178079   -0.811870    0.141089
  O     -0.809544   -1.475372    1.348067
  C     -2.024863   -0.704634    1.356821
  C     -2.072022    0.468272    2.185152
  C     -2.157408    1.434214    2.894724
  H      1.274188    1.456770    0.261283
  H      0.806490    0.185400    1.362905
  H     -1.538103   -1.450230   -0.663538
  H     -2.926091   -1.316269    1.375831
  H     -2.226508    2.294383    3.514481

 Total Charge           Charge          ....    0
 Multiplicity           Mult            ....    1
 Number of Electrons    NEL             ....   58
 Basis Dimension        Dim             ....  278

ORBITAL ENERGIES
----------------

  NO   OCC          E(Eh)            E(eV)
   0   2.0000     -20.608665      -560.7903
   1   2.0000     -20.527666      -558.5862
   2   2.0000     -15.588576      -424.1867
   3   2.0000     -11.364178      -309.2350
   4   2.0000     -11.342555      -308.6466
   5   2.0000     -11.322878      -308.1112
   6   2.0000     -11.258364      -306.3557
   7   2.0000     -11.253652      -306.2274
   8   2.0000      -1.453262       -39.5453
   9   2.0000      -1.389541       -37.8113
  10   2.0000      -1.220566       -33.2133
  11   2.0000      -1.071988       -29.1703
  12   2.0000      -0.984466       -26.7887
  13   2.0000      -0.938665       -25.5424
  14   2.0000      -0.820694       -22.3322
  15   2.0000      -0.769576       -20.9412
  16   2.0000      -0.735006       -20.0005
  17   2.0000      -0.721011       -19.6197
  18   2.0000      -0.695984       -18.9387
  19   2.0000      -0.653228       -17.7752
  20   2.0000      -0.601581       -16.3698
  21   2.0000      -0.589704       -16.0467
  22   2.0000      -0.582359       -15.8468
  23   2.0000      -0.512866       -13.9558
  24   2.0000      -0.501571       -13.6484
  25   2.0000      -0.435624       -11.8539
  26   2.0000      -0.429723       -11.6934
  27   2.0000      -0.415344       -11.3021
  28   2.0000      -0.399913       -10.8822
  29   0.0000       0.128511         3.4970
  30   0.0000       0.138860         3.7786
  31   0.0000       0.141503         3.8505
  32   0.0000       0.156249         4.2517
  33   0.0000       0.157160         4.2765

MULLIKEN ATOMIC CHARGES
-----------------------
   0 N :   -0.462725
   1 C :    0.235648
   2 O :   -0.343919
   3 C :    0.105673
   4 O :   -0.318069
   5 C :   -0.182868
   6 C :    0.035404
   7 C :   -0.107621
   8 H :    0.259873
   9 H :    0.280611
  10 H :    0.150589
  11 H :    0.146791
  12 H :    0.200613
Sum of atomic charges:    0.0000000

LOEWDIN ATOMIC CHARGES
----------------------
   0 N :    0.011940
   1 C :   -0.479921
   2 O :    0.093520
   3 C :   -0.211636
   4 O :    0.180101
   5 C :   -0.240370
   6 C :   -0.091432
   7 C :   -0.060960
   8 H :    0.176371
   9 H :    0.179327
  10 H :    0.152746
  11 H :    0.158951
  12 H :    0.131363

  Mayer bond orders larger than 0.1
B(  0-N ,  1-C ) :   1.1917 B(  0-N ,  8-H ) :   0.8595 B(  0-N ,  9-H ) :   0.8514
B(  1-C ,  2-O ) :   1.9651 B(  1-C ,  3-C ) :   0.8933 B(  3-C ,  4-O ) :   0.8780
B(  3-C ,  5-C ) :   0.9524 B(  3-C , 10-H ) :   0.9119 B(  4-O ,  5-C ) :   0.9280
B(  5-C ,  6-C ) :   1.1272 B(  5-C ,  7-C ) :  -0.1150 B(  5-C , 11-H ) :   0.9291
B(  6-C ,  7-C ) :   2.5880 B(  7-C , 12-H ) :   0.8903

MP2 TOTAL ENERGY:     -397.914592363 Eh
FINAL SINGLE POINT ENERGY      -397.914592362758

DIPOLE MOMENT
-------------
                                X             Y             Z
Electronic contribution:     -0.25921      -0.61683      -0.75985
Nuclear contribution   :      0.33107       0.69342       1.81393
                        -----------------------------------------
Total Dipole Moment    :      0.07186       0.07659       1.05408
                        -----------------------------------------
Magnitude (a.u.)       :      1.05930
Magnitude (Debye)      :      2.69253

                             ****ORCA TERMINATED NORMALLY****
TOTAL RUN TIME: 0 days 0 hours 9 minutes 25 seconds 415 msec
