                         Program Version 3.0.3 - RELEASE   -
|  1> ! RI-MP2 RIJK def2-TZVP def2-TZVP/C def2-TZVP/JK TIGHTSCF
|  2> % maxcore 2000
|  3> % mp2 density relaxed end
|  4> *xyz 0 1
|  5>  C       -0.1076421071     1.5554899977    -0.0910690307
|  6>  C        0.0098994030     0.0521431662    -0.0074685246
|  7>  C        0.6321285122    -0.7753416226    -1.0983130309
|  8>  N        1.3749843732    -0.0296235221    -2.1630811661
|  9>  H        2.1765578167     0.4016285351    -1.6543957854
| 10>  H        1.7255804403    -0.6482451888    -2.8955894694
| 11>  H        0.8052910471     0.7035503355    -2.5901409988
| 12>  C        1.3289427360    -0.6429609132     0.2305516002
| 13>  O        2.5422488320     0.0856614116     0.1240395791
| 14>  C       -1.2063113780    -0.7310581616     0.6741724430
| 15>  O       -2.0067875339    -0.0043694467     1.2676100734
| 16>  O       -1.1265947473    -1.9635421889     0.5071320064
| 17>  H        0.8484594171     2.0947272252    -0.0483352795
| 18>  H       -0.6348979403     1.8761595159    -0.9998459923
| 19>  H       -0.7401319038     1.8529933016     0.7499646577
| 20>  H        0.1526829386    -1.6908706454    -1.4181496767
| 21>  H        1.3606317043    -1.5095095244     0.8807778869
| 22>  H        2.5393339800     0.7811774548     0.7913444579
| 23> *
| 24>
| 25>                          ****END OF INPUT****

CARTESIAN COORDINATES (ANGSTROEM)
---------------------------------
  C     -0.107642    1.555490   -0.091069
  C      0.009899    0.052143   -0.007469
  C      0.632129   -0.775342   -1.098313
  N      1.374984   -0.029624   -2.163081
  H      2.176558    0.401629   -1.654396
  H      1.725580   -0.648245   -2.895589
  H      0.805291    0.703550   -2.590141
  C      1.328943   -0.642961    0.230552
  O      2.542249    0.085661    0.124040
  C     -1.206311   -0.731058    0.674172
  O     -2.006788   -0.004369    1.267610
  O     -1.126595   -1.963542    0.507132
  H      0.848459    2.094727   -0.048335
  H     -0.634898    1.876160   -0.999846
  H     -0.740132    1.852993    0.749965
  H      0.152683   -1.690871   -1.418150
  H      1.360632   -1.509510    0.880778
  H      2.539334    0.781177    0.791344

 Total Charge           Charge          ....    0
 Multiplicity           Mult            ....    1
 Number of Electrons    NEL             ....   70
 Basis Dimension        Dim             ....  333

ORBITAL ENERGIES
----------------

  NO   OCC          E(Eh)            E(eV)
   0   2.0000     -20.619446      -561.0836
   1   2.0000     -20.440870      -556.2244
   2   2.0000     -20.439404      -556.1845
   3   2.0000     -15.742358      -428.3713
   4   2.0000     -11.316086      -307.9264
   5   2.0000     -11.310726      -307.7805
   6   2.0000     -11.293337      -307.3073
   7   2.0000     -11.251801      -306.1771
   8   2.0000     -11.234673      -305.7110
   9   2.0000      -1.429727       -38.9049
  10   2.0000      -1.357430       -36.9376
  11   2.0000      -1.328285       -36.1445
  12   2.0000      -1.233745       -33.5719
  13   2.0000      -1.158228       -31.5170
  14   2.0000      -0.990638       -26.9566
  15   2.0000      -0.873295       -23.7636
  16   2.0000      -0.847412       -23.0593
  17   2.0000      -0.831377       -22.6229
  18   2.0000      -0.807430       -21.9713
  19   2.0000      -0.727438       -19.7946
  20   2.0000      -0.711954       -19.3732
  21   2.0000      -0.689416       -18.7600
  22   2.0000      -0.626662       -17.0523
  23   2.0000      -0.620246       -16.8778
  24   2.0000      -0.597835       -16.2679
  25   2.0000      -0.574878       -15.6432
  26   2.0000      -0.556946       -15.1553
  27   2.0000      -0.546644       -14.8749
  28   2.0000      -0.533098       -14.5063
  29   2.0000      -0.510893       -13.9021
  30   2.0000      -0.458426       -12.4744
  31   2.0000      -0.429272       -11.6811
  32   2.0000      -0.367332        -9.9956
  33   2.0000      -0.346496        -9.4286
  34   2.0000      -0.345121        -9.3912
  35   0.0000       0.053452         1.4545
  36   0.0000       0.106852         2.9076
  37   0.0000       0.122089         3.3222
  38   0.0000       0.158501         4.3130
  39   0.0000       0.184214         5.0127

MULLIKEN ATOMIC CHARGES
-----------------------
   0 C :   -0.450441
   1 C :   -0.006476
   2 C :   -0.143244
   3 N :   -0.342792
   4 H :    0.331764
   5 H :    0.318641
   6 H :    0.323447
   7 C :    0.002178
   8 O :   -0.524517
   9 C :    0.254910
  10 O :   -0.442455
  11 O :   -0.488984
  12 H :    0.093539
  13 H :    0.119348
  14 H :    0.207020
  15 H :    0.209109
  16 H :    0.177355
  17 H :    0.361599
Sum of atomic charges:   -0.0000000

LOEWDIN ATOMIC CHARGES
----------------------
   0 C :   -0.287491
   1 C :   -0.218321
   2 C :   -0.211504
   3 N :    0.162312
   4 H :    0.212585
   5 H :    0.207083
   6 H :    0.206967
   7 C :   -0.264953
   8 O :   -0.018899
   9 C :   -0.640265
  10 O :   -0.006077
  11 O :   -0.039177
  12 H :    0.108174
  13 H :    0.123824
  14 H :    0.156924
  15 H :    0.162285
  16 H :    0.154496
  17 H :    0.192037

  Mayer bond orders larger than 0.1
B(  0-C ,  1-C ) :   0.8753 B(  0-C , 12-H ) :   0.9386 B(  0-C , 13-H ) :   0.9256
B(  0-C , 14-H ) :   0.9032 B(  1-C ,  2-C ) :   0.8748 B(  1-C ,  7-C ) :   0.8539
B(  1-C ,  9-C ) :   0.8270 B(  2-C ,  3-N ) :   0.7724 B(  2-C ,  7-C ) :   0.9231
B(  2-C , 15-H ) :   0.8656 B(  3-N ,  4-H ) :   0.7917 B(  3-N ,  5-H ) :   0.8484
B(  3-N ,  6-H ) :   0.8431 B(  7-C ,  8-O ) :   0.8444 B(  7-C , 16-H ) :   0.9171
B(  8-O , 17-H ) :   0.8235 B(  9-C , 10-O ) :   1.7808 B(  9-C , 11-O ) :   1.6721

MP2 TOTAL ENERGY:     -475.435315757 Eh
FINAL SINGLE POINT ENERGY      -475.435315757292

DIPOLE MOMENT
-------------
                                X             Y             Z
Electronic contribution:     -2.25073      -4.06367       2.48497
Nuclear contribution   :      6.03975       5.74159      -6.03292
                        -----------------------------------------
Total Dipole Moment    :      3.78902       1.67791      -3.54795
                        -----------------------------------------
Magnitude (a.u.)       :      5.45527
Magnitude (Debye)      :     13.86620

                             ****ORCA TERMINATED NORMALLY****
TOTAL RUN TIME: 0 days 0 hours 16 minutes 5 seconds 883 msec
