                         Program Version 3.0.3 - RELEASE   -
|  1> ! RI-MP2 RIJK def2-TZVP def2-TZVP/C def2-TZVP/JK TIGHTSCF
|  2> % maxcore 2000
|  3> % mp2 density relaxed end
|  4> *xyz 0 1
|  5>  C        0.1061070627     1.4542969095    -0.3207973210
|  6>  C        0.0224786831     0.0046971556     0.1761699466
|  7>  C       -1.3794027090    -0.5392689859     0.1767225010
|  8>  C       -2.0895654996    -1.0134991536    -1.0805246591
|  9>  C       -1.9240124313    -1.9608309400     0.0734899689
| 10>  O       -1.1940015503    -3.1341247435    -0.0200027782
| 11>  C       -2.9857108586    -1.6793379200     1.1425500687
| 12>  C       -2.4609525942    -0.2049638863     1.2271136057
| 13>  O       -1.9804562255     0.1982756233     2.4897673203
| 14>  H        1.1389377596     1.8161326887    -0.3070027200
| 15>  H       -0.2700764829     1.5417365433    -1.3453411900
| 16>  H       -0.4899706544     2.1173737004     0.3140450797
| 17>  H        0.6547574846    -0.6442107602    -0.4416139825
| 18>  H        0.4312623188    -0.0481658675     1.1931659185
| 19>  H       -3.0681942630    -0.6246385342    -1.3585723779
| 20>  H       -1.4232400086    -1.2029503634    -1.9175196064
| 21>  H       -1.6285051540    -3.7156662540    -0.6534965153
| 22>  H       -4.0348535695    -1.8408199370     0.8704703319
| 23>  H       -2.7763572717    -2.2031390463     2.0798811593
| 24>  H       -3.1769790644     0.5675252291     0.9289026698
| 25>  H       -1.3715746817    -0.4776620879     2.8080624101
| 26> *
| 27>
| 28>                          ****END OF INPUT****

CARTESIAN COORDINATES (ANGSTROEM)
---------------------------------
  C      0.106107    1.454297   -0.320797
  C      0.022479    0.004697    0.176170
  C     -1.379403   -0.539269    0.176723
  C     -2.089565   -1.013499   -1.080525
  C     -1.924012   -1.960831    0.073490
  O     -1.194002   -3.134125   -0.020003
  C     -2.985711   -1.679338    1.142550
  C     -2.460953   -0.204964    1.227114
  O     -1.980456    0.198276    2.489767
  H      1.138938    1.816133   -0.307003
  H     -0.270076    1.541737   -1.345341
  H     -0.489971    2.117374    0.314045
  H      0.654757   -0.644211   -0.441614
  H      0.431262   -0.048166    1.193166
  H     -3.068194   -0.624639   -1.358572
  H     -1.423240   -1.202950   -1.917520
  H     -1.628505   -3.715666   -0.653497
  H     -4.034854   -1.840820    0.870470
  H     -2.776357   -2.203139    2.079881
  H     -3.176979    0.567525    0.928903
  H     -1.371575   -0.477662    2.808062

 Total Charge           Charge          ....    0
 Multiplicity           Mult            ....    1
 Number of Electrons    NEL             ....   70
 Basis Dimension        Dim             ....  351

ORBITAL ENERGIES
----------------

  NO   OCC          E(Eh)            E(eV)
   0   2.0000     -20.571026      -559.7661
   1   2.0000     -20.557322      -559.3932
   2   2.0000     -11.290004      -307.2166
   3   2.0000     -11.283634      -307.0433
   4   2.0000     -11.233906      -305.6901
   5   2.0000     -11.230382      -305.5942
   6   2.0000     -11.226684      -305.4936
   7   2.0000     -11.224320      -305.4293
   8   2.0000     -11.210865      -305.0632
   9   2.0000      -1.382334       -37.6152
  10   2.0000      -1.364875       -37.1401
  11   2.0000      -1.182418       -32.1752
  12   2.0000      -1.033932       -28.1347
  13   2.0000      -0.976561       -26.5736
  14   2.0000      -0.889447       -24.2031
  15   2.0000      -0.855857       -23.2891
  16   2.0000      -0.802816       -21.8457
  17   2.0000      -0.753780       -20.5114
  18   2.0000      -0.681694       -18.5498
  19   2.0000      -0.667342       -18.1593
  20   2.0000      -0.643415       -17.5082
  21   2.0000      -0.633219       -17.2308
  22   2.0000      -0.611806       -16.6481
  23   2.0000      -0.599670       -16.3179
  24   2.0000      -0.561635       -15.2829
  25   2.0000      -0.554013       -15.0755
  26   2.0000      -0.538132       -14.6433
  27   2.0000      -0.525187       -14.2911
  28   2.0000      -0.523600       -14.2479
  29   2.0000      -0.508395       -13.8341
  30   2.0000      -0.487718       -13.2715
  31   2.0000      -0.459463       -12.5026
  32   2.0000      -0.418550       -11.3893
  33   2.0000      -0.396205       -10.7813
  34   2.0000      -0.370317       -10.0768
  35   0.0000       0.131606         3.5812
  36   0.0000       0.145601         3.9620
  37   0.0000       0.150812         4.1038
  38   0.0000       0.167401         4.5552
  39   0.0000       0.183671         4.9980

MULLIKEN ATOMIC CHARGES
-----------------------
   0 C :   -0.411003
   1 C :   -0.186826
   2 C :    0.005332
   3 C :   -0.329404
   4 C :    0.134604
   5 O :   -0.448971
   6 C :   -0.193131
   7 C :    0.043467
   8 O :   -0.455041
   9 H :    0.132402
  10 H :    0.124498
  11 H :    0.139438
  12 H :    0.125771
  13 H :    0.088319
  14 H :    0.124542
  15 H :    0.135903
  16 H :    0.327986
  17 H :    0.112549
  18 H :    0.104630
  19 H :    0.109944
  20 H :    0.314991
Sum of atomic charges:    0.0000000

LOEWDIN ATOMIC CHARGES
----------------------
   0 C :   -0.308260
   1 C :   -0.254271
   2 C :   -0.183425
   3 C :   -0.175222
   4 C :   -0.327143
   5 O :    0.026503
   6 C :   -0.187487
   7 C :   -0.275969
   8 O :   -0.007510
   9 H :    0.120126
  10 H :    0.120707
  11 H :    0.125459
  12 H :    0.146184
  13 H :    0.139285
  14 H :    0.131897
  15 H :    0.144897
  16 H :    0.185000
  17 H :    0.126204
  18 H :    0.139859
  19 H :    0.136752
  20 H :    0.176413

  Mayer bond orders larger than 0.1
B(  0-C ,  1-C ) :   0.9218 B(  0-C ,  9-H ) :   0.9406 B(  0-C , 10-H ) :   0.9395
B(  0-C , 11-H ) :   0.9371 B(  1-C ,  2-C ) :   0.9243 B(  1-C , 12-H ) :   0.9358
B(  1-C , 13-H ) :   0.9158 B(  2-C ,  3-C ) :   0.8369 B(  2-C ,  4-C ) :   0.7765
B(  2-C ,  6-C ) :  -0.1020 B(  2-C ,  7-C ) :   0.9124 B(  3-C ,  4-C ) :   0.9221
B(  3-C , 14-H ) :   0.8986 B(  3-C , 15-H ) :   0.9253 B(  4-C ,  5-O ) :   1.0855
B(  4-C ,  6-C ) :   0.9763 B(  5-O , 16-H ) :   0.8333 B(  6-C ,  7-C ) :   0.9606
B(  6-C , 17-H ) :   0.9006 B(  6-C , 18-H ) :   0.8978 B(  7-C ,  8-O ) :   0.9595
B(  7-C , 19-H ) :   0.9304 B(  8-O , 20-H ) :   0.8384

MP2 TOTAL ENERGY:     -423.496907589 Eh
FINAL SINGLE POINT ENERGY      -423.496907588612

DIPOLE MOMENT
-------------
                                X             Y             Z
Electronic contribution:     -2.30017      -4.73485       2.46449
Nuclear contribution   :      2.15273       4.25515      -3.07462
                        -----------------------------------------
Total Dipole Moment    :     -0.14744      -0.47969      -0.61013
                        -----------------------------------------
Magnitude (a.u.)       :      0.79000
Magnitude (Debye)      :      2.00802

                             ****ORCA TERMINATED NORMALLY****
TOTAL RUN TIME: 0 days 0 hours 17 minutes 56 seconds 772 msec
