                         Program Version 3.0.3 - RELEASE   -
|  1> ! RI-MP2 RIJK def2-TZVP def2-TZVP/C def2-TZVP/JK TIGHTSCF
|  2> % maxcore 2000
|  3> % mp2 density relaxed end
|  4> *xyz 0 1
|  5>  C        1.9724315558    -0.8138402955    -0.8804207275
|  6>  C        0.6888138149    -0.3458798221    -0.2250600302
|  7>  C       -0.1072169152    -1.2557214203     0.6841651581
|  8>  C        0.4964966611     0.0140962361     1.2359057628
|  9>  C        1.5256517305     0.1014164422     2.3715610900
| 10>  C        2.2821928139     1.4384578242     2.2374054511
| 11>  C        0.7366987222     0.0997397138     3.6989048168
| 12>  C        2.5464846535    -1.0494968212     2.4217541052
| 13>  H        2.4778900530    -1.5898120436    -0.3025327692
| 14>  H        1.7529378474    -1.2384386866    -1.8667505537
| 15>  H        2.6801063789     0.0098029453    -1.0298020155
| 16>  H        0.0891354006     0.2704466578    -0.8918091246
| 17>  H       -1.1843579006    -1.3251285015     0.5726157343
| 18>  H        0.3651071141    -2.1962453951     0.9509488628
| 19>  H       -0.2349776430     0.8130324569     1.3534410233
| 20>  H        1.5874123975     2.2855707511     2.2346051004
| 21>  H        2.9791253464     1.5819244852     3.0708767547
| 22>  H        2.8570067817     1.4750061513     1.3064385389
| 23>  H        0.1861784027    -0.8381362539     3.8272833336
| 24>  H        1.4107234498     0.2167713274     4.5547642322
| 25>  H        0.0110894119     0.9198645460     3.7305520419
| 26>  H        3.2336612524    -1.0314005340     1.5733119940
| 27>  H        3.1518614842    -0.9624343147     3.3306790580
| 28>  H        2.0587800762    -2.0289091886     2.4498714125
| 29> *
| 30>
| 31>                          ****END OF INPUT****

CARTESIAN COORDINATES (ANGSTROEM)
---------------------------------
  C      1.972432   -0.813840   -0.880421
  C      0.688814   -0.345880   -0.225060
  C     -0.107217   -1.255721    0.684165
  C      0.496497    0.014096    1.235906
  C      1.525652    0.101416    2.371561
  C      2.282193    1.438458    2.237405
  C      0.736699    0.099740    3.698905
  C      2.546485   -1.049497    2.421754
  H      2.477890   -1.589812   -0.302533
  H      1.752938   -1.238439   -1.866751
  H      2.680106    0.009803   -1.029802
  H      0.089135    0.270447   -0.891809
  H     -1.184358   -1.325129    0.572616
  H      0.365107   -2.196245    0.950949
  H     -0.234978    0.813032    1.353441
  H      1.587412    2.285571    2.234605
  H      2.979125    1.581924    3.070877
  H      2.857007    1.475006    1.306439
  H      0.186178   -0.838136    3.827283
  H      1.410723    0.216771    4.554764
  H      0.011089    0.919865    3.730552
  H      3.233661   -1.031401    1.573312
  H      3.151861   -0.962434    3.330679
  H      2.058780   -2.028909    2.449871

 Total Charge           Charge          ....    0
 Multiplicity           Mult            ....    1
 Number of Electrons    NEL             ....   64
 Basis Dimension        Dim             ....  344

ORBITAL ENERGIES
----------------

  NO   OCC          E(Eh)            E(eV)
   0   2.0000     -11.234886      -305.7168
   1   2.0000     -11.225226      -305.4539
   2   2.0000     -11.221629      -305.3560
   3   2.0000     -11.214185      -305.1535
   4   2.0000     -11.212943      -305.1197
   5   2.0000     -11.207720      -304.9776
   6   2.0000     -11.206900      -304.9553
   7   2.0000     -11.206437      -304.9427
   8   2.0000      -1.147105       -31.2143
   9   2.0000      -1.072247       -29.1773
  10   2.0000      -0.960417       -26.1343
  11   2.0000      -0.927072       -25.2269
  12   2.0000      -0.923512       -25.1300
  13   2.0000      -0.831648       -22.6303
  14   2.0000      -0.781794       -21.2737
  15   2.0000      -0.709577       -19.3086
  16   2.0000      -0.662295       -18.0220
  17   2.0000      -0.625169       -17.0117
  18   2.0000      -0.596476       -16.2309
  19   2.0000      -0.591427       -16.0935
  20   2.0000      -0.559614       -15.2279
  21   2.0000      -0.546155       -14.8616
  22   2.0000      -0.537671       -14.6308
  23   2.0000      -0.536348       -14.5948
  24   2.0000      -0.527996       -14.3675
  25   2.0000      -0.507231       -13.8024
  26   2.0000      -0.492898       -13.4124
  27   2.0000      -0.469288       -12.7700
  28   2.0000      -0.459963       -12.5162
  29   2.0000      -0.449442       -12.2299
  30   2.0000      -0.395517       -10.7626
  31   2.0000      -0.385215       -10.4822
  32   0.0000       0.133005         3.6193
  33   0.0000       0.158392         4.3101
  34   0.0000       0.165484         4.5031
  35   0.0000       0.171873         4.6769
  36   0.0000       0.191171         5.2020

MULLIKEN ATOMIC CHARGES
-----------------------
   0 C :   -0.416660
   1 C :   -0.050477
   2 C :   -0.290529
   3 C :   -0.147993
   4 C :    0.148512
   5 C :   -0.406823
   6 C :   -0.407360
   7 C :   -0.456339
   8 H :    0.132595
   9 H :    0.135082
  10 H :    0.127499
  11 H :    0.110124
  12 H :    0.128232
  13 H :    0.121206
  14 H :    0.105505
  15 H :    0.124627
  16 H :    0.127753
  17 H :    0.128743
  18 H :    0.132276
  19 H :    0.127501
  20 H :    0.124474
  21 H :    0.136766
  22 H :    0.133544
  23 H :    0.131742
Sum of atomic charges:   -0.0000000

LOEWDIN ATOMIC CHARGES
----------------------
   0 C :   -0.299882
   1 C :   -0.229769
   2 C :   -0.211180
   3 C :   -0.176574
   4 C :   -0.330132
   5 C :   -0.267207
   6 C :   -0.268526
   7 C :   -0.271538
   8 H :    0.123157
   9 H :    0.126100
  10 H :    0.122169
  11 H :    0.147167
  12 H :    0.127430
  13 H :    0.133197
  14 H :    0.156056
  15 H :    0.124709
  16 H :    0.123711
  17 H :    0.124323
  18 H :    0.126229
  19 H :    0.122903
  20 H :    0.123492
  21 H :    0.123208
  22 H :    0.127309
  23 H :    0.123648

  Mayer bond orders larger than 0.1
B(  0-C ,  1-C ) :   0.9021 B(  0-C ,  8-H ) :   0.9382 B(  0-C ,  9-H ) :   0.9381
B(  0-C , 10-H ) :   0.9398 B(  1-C ,  2-C ) :   0.8989 B(  1-C ,  3-C ) :   0.8759
B(  1-C , 11-H ) :   0.9291 B(  2-C ,  3-C ) :   0.8772 B(  2-C , 12-H ) :   0.9265
B(  2-C , 13-H ) :   0.9304 B(  3-C ,  4-C ) :   0.8991 B(  3-C , 14-H ) :   0.9262
B(  4-C ,  5-C ) :   0.9122 B(  4-C ,  6-C ) :   0.9104 B(  4-C ,  7-C ) :   0.8765
B(  5-C , 15-H ) :   0.9334 B(  5-C , 16-H ) :   0.9365 B(  5-C , 17-H ) :   0.9369
B(  6-C , 18-H ) :   0.9354 B(  6-C , 19-H ) :   0.9369 B(  6-C , 20-H ) :   0.9347
B(  7-C , 21-H ) :   0.9395 B(  7-C , 22-H ) :   0.9360 B(  7-C , 23-H ) :   0.9402

MP2 TOTAL ENERGY:     -313.689919882 Eh
FINAL SINGLE POINT ENERGY      -313.689919882488

DIPOLE MOMENT
-------------
                                X             Y             Z
Electronic contribution:     -2.51321       0.02693      -1.45968
Nuclear contribution   :      2.52134      -0.01256       1.42678
                        -----------------------------------------
Total Dipole Moment    :      0.00813       0.01438      -0.03290
                        -----------------------------------------
Magnitude (a.u.)       :      0.03681
Magnitude (Debye)      :      0.09356

                             ****ORCA TERMINATED NORMALLY****
TOTAL RUN TIME: 0 days 0 hours 16 minutes 55 seconds 412 msec
