                         Program Version 3.0.3 - RELEASE   -
|  1> ! RI-MP2 RIJK def2-TZVP def2-TZVP/C def2-TZVP/JK TIGHTSCF
|  2> % maxcore 2000
|  3> % mp2 density relaxed end
|  4> *xyz 0 1
|  5>  C        0.0743238113     1.4964616559    -0.1826776373
|  6>  O        1.5286626505     1.4266743328     0.0774130188
|  7>  C        1.2969063946     0.2066983706     0.8420905306
|  8>  C        1.1118168088     0.3446538711     2.3494805328
|  9>  C        0.0256583328    -0.7497765821     2.5525650283
| 10>  C       -0.1420658962    -1.2330852968     1.1111098696
| 11>  C        1.3167649703    -1.3129751441     0.4370670309
| 12>  C        0.6975399215    -0.9425417342    -0.9129838355
| 13>  C       -0.0189253668    -0.0182071607     0.1106623594
| 14>  H       -0.4160751412     2.1654541506     0.5331311793
| 15>  H       -0.1353274099     1.8145503640    -1.2077106090
| 16>  H        2.0323215533     0.1443575160     2.9054709853
| 17>  H        0.7668180931     1.3440534268     2.6277582484
| 18>  H        0.3522350213    -1.5636352243     3.2071712847
| 19>  H       -0.9029990521    -0.3463290144     2.9671114956
| 20>  H       -0.8426048605    -2.0463028162     0.9081037965
| 21>  H        2.0588504029    -2.0890336403     0.6564753042
| 22>  H        1.3563084865    -0.4423143013    -1.6247701693
| 23>  H        0.0784629198    -1.7006323532    -1.3999614534
| 24> *
| 25>
| 26>                          ****END OF INPUT****

CARTESIAN COORDINATES (ANGSTROEM)
---------------------------------
  C      0.074324    1.496462   -0.182678
  O      1.528663    1.426674    0.077413
  C      1.296906    0.206698    0.842091
  C      1.111817    0.344654    2.349481
  C      0.025658   -0.749777    2.552565
  C     -0.142066   -1.233085    1.111110
  C      1.316765   -1.312975    0.437067
  C      0.697540   -0.942542   -0.912984
  C     -0.018925   -0.018207    0.110662
  H     -0.416075    2.165454    0.533131
  H     -0.135327    1.814550   -1.207711
  H      2.032322    0.144358    2.905471
  H      0.766818    1.344053    2.627758
  H      0.352235   -1.563635    3.207171
  H     -0.902999   -0.346329    2.967111
  H     -0.842605   -2.046303    0.908104
  H      2.058850   -2.089034    0.656475
  H      1.356308   -0.442314   -1.624770
  H      0.078463   -1.700632   -1.399961

 Total Charge           Charge          ....    0
 Multiplicity           Mult            ....    1
 Number of Electrons    NEL             ....   66
 Basis Dimension        Dim             ....  339

ORBITAL ENERGIES
----------------

  NO   OCC          E(Eh)            E(eV)
   0   2.0000     -20.552188      -559.2535
   1   2.0000     -11.293343      -307.3075
   2   2.0000     -11.278970      -306.9164
   3   2.0000     -11.260507      -306.4140
   4   2.0000     -11.255294      -306.2721
   5   2.0000     -11.237674      -305.7926
   6   2.0000     -11.227996      -305.5293
   7   2.0000     -11.222973      -305.3926
   8   2.0000     -11.222529      -305.3806
   9   2.0000      -1.376078       -37.4450
  10   2.0000      -1.210594       -32.9419
  11   2.0000      -1.050963       -28.5982
  12   2.0000      -0.949168       -25.8282
  13   2.0000      -0.929543       -25.2941
  14   2.0000      -0.875776       -23.8311
  15   2.0000      -0.822996       -22.3949
  16   2.0000      -0.785804       -21.3828
  17   2.0000      -0.689313       -18.7572
  18   2.0000      -0.667792       -18.1715
  19   2.0000      -0.653276       -17.7765
  20   2.0000      -0.623429       -16.9644
  21   2.0000      -0.608598       -16.5608
  22   2.0000      -0.592153       -16.1133
  23   2.0000      -0.561186       -15.2706
  24   2.0000      -0.526242       -14.3198
  25   2.0000      -0.509494       -13.8640
  26   2.0000      -0.488142       -13.2830
  27   2.0000      -0.480589       -13.0775
  28   2.0000      -0.453960       -12.3529
  29   2.0000      -0.447316       -12.1721
  30   2.0000      -0.429096       -11.6763
  31   2.0000      -0.406868       -11.0714
  32   2.0000      -0.351422        -9.5627
  33   0.0000       0.136211         3.7065
  34   0.0000       0.153860         4.1867
  35   0.0000       0.163669         4.4537
  36   0.0000       0.165420         4.5013
  37   0.0000       0.186873         5.0851

MULLIKEN ATOMIC CHARGES
-----------------------
   0 C :   -0.081539
   1 O :   -0.333034
   2 C :    0.241745
   3 C :   -0.299926
   4 C :   -0.214415
   5 C :   -0.086939
   6 C :   -0.138307
   7 C :   -0.247689
   8 C :   -0.042743
   9 H :    0.109175
  10 H :    0.121570
  11 H :    0.125805
  12 H :    0.124532
  13 H :    0.117928
  14 H :    0.118034
  15 H :    0.117148
  16 H :    0.124720
  17 H :    0.129331
  18 H :    0.114605
Sum of atomic charges:   -0.0000000

LOEWDIN ATOMIC CHARGES
----------------------
   0 C :   -0.216931
   1 O :    0.135983
   2 C :   -0.232833
   3 C :   -0.204100
   4 C :   -0.224267
   5 C :   -0.129284
   6 C :   -0.117981
   7 C :   -0.179456
   8 C :   -0.153229
   9 H :    0.122734
  10 H :    0.124352
  11 H :    0.138212
  12 H :    0.138959
  13 H :    0.136650
  14 H :    0.136350
  15 H :    0.138085
  16 H :    0.122347
  17 H :    0.136251
  18 H :    0.128160

  Mayer bond orders larger than 0.1
B(  0-C ,  1-O ) :   0.9105 B(  0-C ,  8-C ) :   0.9422 B(  0-C ,  9-H ) :   0.9143
B(  0-C , 10-H ) :   0.9044 B(  1-O ,  2-C ) :   0.9639 B(  2-C ,  3-C ) :   0.9437
B(  2-C ,  6-C ) :   0.8872 B(  2-C ,  8-C ) :   0.7815 B(  3-C ,  4-C ) :   0.9718
B(  3-C , 11-H ) :   0.9286 B(  3-C , 12-H ) :   0.9193 B(  4-C ,  5-C ) :   0.9320
B(  4-C , 13-H ) :   0.9141 B(  4-C , 14-H ) :   0.9196 B(  5-C ,  6-C ) :   0.8622
B(  5-C ,  8-C ) :   0.9085 B(  5-C , 15-H ) :   0.9072 B(  6-C ,  7-C ) :   0.9201
B(  6-C , 16-H ) :   0.8826 B(  7-C ,  8-C ) :   0.8910 B(  7-C , 17-H ) :   0.9093
B(  7-C , 18-H ) :   0.9316

MP2 TOTAL ENERGY:     -385.098482035 Eh
FINAL SINGLE POINT ENERGY      -385.098482034702

DIPOLE MOMENT
-------------
                                X             Y             Z
Electronic contribution:      1.57900       1.62986      -2.03053
Nuclear contribution   :     -2.14623      -2.03480       2.31774
                        -----------------------------------------
Total Dipole Moment    :     -0.56722      -0.40494       0.28722
                        -----------------------------------------
Magnitude (a.u.)       :      0.75380
Magnitude (Debye)      :      1.91601

                             ****ORCA TERMINATED NORMALLY****
TOTAL RUN TIME: 0 days 0 hours 21 minutes 52 seconds 268 msec
