                         Program Version 3.0.3 - RELEASE   -
|  1> ! RI-MP2 RIJK def2-TZVP def2-TZVP/C def2-TZVP/JK TIGHTSCF
|  2> % maxcore 2000
|  3> % mp2 density relaxed end
|  4> *xyz 0 1
|  5>  C        0.0070553792    -1.2465088800     0.0289700911
|  6>  C       -0.0229010695    -0.0455848868     0.0670065962
|  7>  C       -0.0176819090     1.4108088349     0.1051316024
|  8>  C        1.3991639946     2.0061189805    -0.1049834471
|  9>  C        1.4092388777     3.5026898831    -0.0514095337
| 10>  C        1.5195238329     4.3997020260    -1.0681724652
| 11>  O        1.4664429589     5.6589359501    -0.6103785940
| 12>  N        1.3134777967     5.6278629639     0.7713474080
| 13>  C        1.2809793938     4.3575313499     1.0850840945
| 14>  H        0.0168737935    -2.3078380907    -0.0015020558
| 15>  H       -0.6906551361     1.8077129617    -0.6646013065
| 16>  H       -0.4189209639     1.7576449348     1.0655512497
| 17>  H        2.0671100675     1.5951884716     0.6594566193
| 18>  H        1.7851166250     1.6646049091    -1.0699387177
| 19>  H        1.6449684122     4.2919737017    -2.1348791994
| 20>  H        1.1719941465     4.0795113502     2.1248080782
| 21> *
| 22>
| 23>                          ****END OF INPUT****

CARTESIAN COORDINATES (ANGSTROEM)
---------------------------------
  C      0.007055   -1.246509    0.028970
  C     -0.022901   -0.045585    0.067007
  C     -0.017682    1.410809    0.105132
  C      1.399164    2.006119   -0.104983
  C      1.409239    3.502690   -0.051410
  C      1.519524    4.399702   -1.068172
  O      1.466443    5.658936   -0.610379
  N      1.313478    5.627863    0.771347
  C      1.280979    4.357531    1.085084
  H      0.016874   -2.307838   -0.001502
  H     -0.690655    1.807713   -0.664601
  H     -0.418921    1.757645    1.065551
  H      2.067110    1.595188    0.659457
  H      1.785117    1.664605   -1.069939
  H      1.644968    4.291974   -2.134879
  H      1.171994    4.079511    2.124808

 Total Charge           Charge          ....    0
 Multiplicity           Mult            ....    1
 Number of Electrons    NEL             ....   64
 Basis Dimension        Dim             ....  321

ORBITAL ENERGIES
----------------

  NO   OCC          E(Eh)            E(eV)
   0   2.0000     -20.648055      -561.8621
   1   2.0000     -15.627960      -425.2584
   2   2.0000     -11.315183      -307.9018
   3   2.0000     -11.283341      -307.0353
   4   2.0000     -11.267064      -306.5924
   5   2.0000     -11.259507      -306.3868
   6   2.0000     -11.250548      -306.1430
   7   2.0000     -11.241475      -305.8961
   8   2.0000     -11.228973      -305.5559
   9   2.0000      -1.498273       -40.7701
  10   2.0000      -1.170172       -31.8420
  11   2.0000      -1.120155       -30.4810
  12   2.0000      -1.069028       -29.0897
  13   2.0000      -1.000607       -27.2279
  14   2.0000      -0.905199       -24.6317
  15   2.0000      -0.826475       -22.4895
  16   2.0000      -0.813075       -22.1249
  17   2.0000      -0.731032       -19.8924
  18   2.0000      -0.724796       -19.7227
  19   2.0000      -0.665229       -18.1018
  20   2.0000      -0.650968       -17.7137
  21   2.0000      -0.648565       -17.6484
  22   2.0000      -0.591836       -16.1047
  23   2.0000      -0.590253       -16.0616
  24   2.0000      -0.565380       -15.3848
  25   2.0000      -0.552256       -15.0277
  26   2.0000      -0.528392       -14.3783
  27   2.0000      -0.479634       -13.0515
  28   2.0000      -0.427595       -11.6354
  29   2.0000      -0.397885       -10.8270
  30   2.0000      -0.394433       -10.7331
  31   2.0000      -0.362461        -9.8631
  32   0.0000       0.113538         3.0895
  33   0.0000       0.126877         3.4525
  34   0.0000       0.152549         4.1511
  35   0.0000       0.161332         4.3901
  36   0.0000       0.163630         4.4526

MULLIKEN ATOMIC CHARGES
-----------------------
   0 C :   -0.120565
   1 C :   -0.019329
   2 C :   -0.376737
   3 C :   -0.221584
   4 C :    0.007910
   5 C :   -0.031692
   6 O :   -0.101768
   7 N :   -0.106450
   8 C :   -0.122987
   9 H :    0.192694
  10 H :    0.150963
  11 H :    0.149434
  12 H :    0.144550
  13 H :    0.140167
  14 H :    0.163285
  15 H :    0.152109
Sum of atomic charges:   -0.0000000

LOEWDIN ATOMIC CHARGES
----------------------
   0 C :   -0.102186
   1 C :   -0.113937
   2 C :   -0.238714
   3 C :   -0.206435
   4 C :   -0.203067
   5 C :   -0.238611
   6 O :    0.277795
   7 N :    0.034744
   8 C :   -0.244812
   9 H :    0.127107
  10 H :    0.158748
  11 H :    0.157873
  12 H :    0.153306
  13 H :    0.152700
  14 H :    0.140751
  15 H :    0.144738

  Mayer bond orders larger than 0.1
B(  0-C ,  1-C ) :   2.6268 B(  0-C ,  2-C ) :  -0.1052 B(  0-C ,  9-H ) :   0.8947
B(  1-C ,  2-C ) :   1.0682 B(  2-C ,  3-C ) :   0.9001 B(  2-C , 10-H ) :   0.9265
B(  2-C , 11-H ) :   0.9316 B(  3-C ,  4-C ) :   0.8516 B(  3-C , 12-H ) :   0.9361
B(  3-C , 13-H ) :   0.9393 B(  4-C ,  5-C ) :   1.5146 B(  4-C ,  8-C ) :   1.2030
B(  5-C ,  6-O ) :   1.1231 B(  5-C ,  7-N ) :   0.1092 B(  5-C , 14-H ) :   0.9156
B(  6-O ,  7-N ) :   0.8967 B(  7-N ,  8-C ) :   1.5894 B(  8-C , 15-H ) :   0.9250

MP2 TOTAL ENERGY:     -400.000943875 Eh
FINAL SINGLE POINT ENERGY      -400.000943875395

DIPOLE MOMENT
-------------
                                X             Y             Z
Electronic contribution:      1.00906       6.09790      -0.17491
Nuclear contribution   :     -0.96294      -7.10552      -0.12017
                        -----------------------------------------
Total Dipole Moment    :      0.04612      -1.00761      -0.29508
                        -----------------------------------------
Magnitude (a.u.)       :      1.05094
Magnitude (Debye)      :      2.67128

                             ****ORCA TERMINATED NORMALLY****
TOTAL RUN TIME: 0 days 0 hours 13 minutes 8 seconds 383 msec
