                         Program Version 3.0.3 - RELEASE   -
|  1> ! RI-MP2 RIJK def2-TZVP def2-TZVP/C def2-TZVP/JK TIGHTSCF
|  2> % maxcore 2000
|  3> % mp2 density relaxed end
|  4> *xyz 0 1
|  5>  C       -0.0452697147     1.3939750636    -0.2932304987
|  6>  O       -0.1120972355     0.1537597230     0.3735216549
|  7>  C       -1.3148796929    -0.5351851020     0.1462585033
|  8>  C       -1.4044594441    -1.3276666182    -1.1865958112
|  9>  N       -1.1486473294    -2.5852115208    -0.4517259108
| 10>  C       -1.9938890250    -3.7206194883    -0.7662811104
| 11>  C       -1.3492604996    -1.9132799296     0.8581200435
| 12>  C       -0.2572300905    -2.2549961598     1.8709189888
| 13>  O       -0.0840277631    -3.6630269702     1.9499779303
| 14>  H        0.9114855153     1.8516314810    -0.0314824992
| 15>  H       -0.0946245550     1.2799589653    -1.3864502647
| 16>  H       -0.8605872386     2.0651175816     0.0199274767
| 17>  H       -2.1702401567     0.1221544130     0.3520195191
| 18>  H       -2.4063591746    -1.2829302961    -1.6406203573
| 19>  H       -0.6565166868    -1.0870633354    -1.9505678451
| 20>  H       -1.7512063719    -4.1036114736    -1.7635638035
| 21>  H       -1.8206842078    -4.5181975225    -0.0386231317
| 22>  H       -3.0728121298    -3.4732509265    -0.7492108346
| 23>  H       -2.3429517738    -2.1231677745     1.2827495854
| 24>  H        0.6750374232    -1.7537396828     1.5871876648
| 25>  H       -0.5361293701    -1.9126056718     2.8725550570
| 26>  H        0.2167923112    -3.9295322255     1.0730197636
| 27> *
| 28>
| 29>                          ****END OF INPUT****

CARTESIAN COORDINATES (ANGSTROEM)
---------------------------------
  C     -0.045270    1.393975   -0.293230
  O     -0.112097    0.153760    0.373522
  C     -1.314880   -0.535185    0.146259
  C     -1.404459   -1.327667   -1.186596
  N     -1.148647   -2.585212   -0.451726
  C     -1.993889   -3.720619   -0.766281
  C     -1.349260   -1.913280    0.858120
  C     -0.257230   -2.254996    1.870919
  O     -0.084028   -3.663027    1.949978
  H      0.911486    1.851631   -0.031482
  H     -0.094625    1.279959   -1.386450
  H     -0.860587    2.065118    0.019927
  H     -2.170240    0.122154    0.352020
  H     -2.406359   -1.282930   -1.640620
  H     -0.656517   -1.087063   -1.950568
  H     -1.751206   -4.103611   -1.763564
  H     -1.820684   -4.518198   -0.038623
  H     -3.072812   -3.473251   -0.749211
  H     -2.342952   -2.123168    1.282750
  H      0.675037   -1.753740    1.587188
  H     -0.536129   -1.912606    2.872555
  H      0.216792   -3.929532    1.073020

 Total Charge           Charge          ....    0
 Multiplicity           Mult            ....    1
 Number of Electrons    NEL             ....   72
 Basis Dimension        Dim             ....  357

ORBITAL ENERGIES
----------------

  NO   OCC          E(Eh)            E(eV)
   0   2.0000     -20.563328      -559.5566
   1   2.0000     -20.542226      -558.9824
   2   2.0000     -15.548714      -423.1020
   3   2.0000     -11.287269      -307.1422
   4   2.0000     -11.277429      -306.8744
   5   2.0000     -11.260155      -306.4044
   6   2.0000     -11.254372      -306.2470
   7   2.0000     -11.253997      -306.2368
   8   2.0000     -11.244319      -305.9735
   9   2.0000      -1.388086       -37.7717
  10   2.0000      -1.347987       -36.6806
  11   2.0000      -1.245222       -33.8842
  12   2.0000      -1.030862       -28.0512
  13   2.0000      -0.970583       -26.4109
  14   2.0000      -0.937336       -25.5062
  15   2.0000      -0.865034       -23.5388
  16   2.0000      -0.856838       -23.3158
  17   2.0000      -0.745490       -20.2858
  18   2.0000      -0.706292       -19.2192
  19   2.0000      -0.679086       -18.4789
  20   2.0000      -0.667729       -18.1698
  21   2.0000      -0.642681       -17.4882
  22   2.0000      -0.618850       -16.8398
  23   2.0000      -0.609476       -16.5847
  24   2.0000      -0.601059       -16.3556
  25   2.0000      -0.581268       -15.8171
  26   2.0000      -0.557335       -15.1659
  27   2.0000      -0.544797       -14.8247
  28   2.0000      -0.525147       -14.2900
  29   2.0000      -0.510410       -13.8890
  30   2.0000      -0.491814       -13.3829
  31   2.0000      -0.476687       -12.9713
  32   2.0000      -0.457725       -12.4553
  33   2.0000      -0.436561       -11.8794
  34   2.0000      -0.412081       -11.2133
  35   2.0000      -0.359698        -9.7879
  36   0.0000       0.137054         3.7294
  37   0.0000       0.149801         4.0763
  38   0.0000       0.161470         4.3938
  39   0.0000       0.173468         4.7203
  40   0.0000       0.191543         5.2121

MULLIKEN ATOMIC CHARGES
-----------------------
   0 C :   -0.225590
   1 O :   -0.306170
   2 C :    0.090516
   3 C :   -0.201434
   4 N :   -0.191745
   5 C :   -0.325008
   6 C :    0.000180
   7 C :   -0.044403
   8 O :   -0.483132
   9 H :    0.143784
  10 H :    0.113142
  11 H :    0.113868
  12 H :    0.088254
  13 H :    0.102504
  14 H :    0.108946
  15 H :    0.137529
  16 H :    0.142622
  17 H :    0.104008
  18 H :    0.078667
  19 H :    0.126701
  20 H :    0.101370
  21 H :    0.325390
Sum of atomic charges:    0.0000000

LOEWDIN ATOMIC CHARGES
----------------------
   0 C :   -0.352714
   1 O :    0.162336
   2 C :   -0.285325
   3 C :   -0.237614
   4 N :    0.074179
   5 C :   -0.344517
   6 C :   -0.236382
   7 C :   -0.325081
   8 O :   -0.048303
   9 H :    0.115127
  10 H :    0.102261
  11 H :    0.102661
  12 H :    0.126947
  13 H :    0.121495
  14 H :    0.123961
  15 H :    0.117444
  16 H :    0.118583
  17 H :    0.101367
  18 H :    0.138835
  19 H :    0.123384
  20 H :    0.127070
  21 H :    0.174285

  Mayer bond orders larger than 0.1
B(  0-C ,  1-O ) :   0.9140 B(  0-C ,  9-H ) :   0.9399 B(  0-C , 10-H ) :   0.9336
B(  0-C , 11-H ) :   0.9362 B(  1-O ,  2-C ) :   0.9300 B(  2-C ,  3-C ) :   0.9419
B(  2-C ,  6-C ) :   0.9131 B(  2-C , 12-H ) :   0.9175 B(  3-C ,  4-N ) :   0.9696
B(  3-C , 13-H ) :   0.9207 B(  3-C , 14-H ) :   0.9041 B(  4-N ,  5-C ) :   0.8897
B(  4-N ,  6-C ) :   0.9434 B(  5-C , 15-H ) :   0.9360 B(  5-C , 16-H ) :   0.9330
B(  5-C , 17-H ) :   0.9255 B(  6-C ,  7-C ) :   0.9154 B(  6-C , 18-H ) :   0.9123
B(  7-C ,  8-O ) :   0.9203 B(  7-C , 19-H ) :   0.9311 B(  7-C , 20-H ) :   0.9264
B(  8-O , 21-H ) :   0.8338

MP2 TOTAL ENERGY:     -440.720786722 Eh
FINAL SINGLE POINT ENERGY      -440.720786722088

DIPOLE MOMENT
-------------
                                X             Y             Z
Electronic contribution:      2.28284      -1.19838       3.03730
Nuclear contribution   :     -2.82948       1.98019      -3.86398
                        -----------------------------------------
Total Dipole Moment    :     -0.54664       0.78181      -0.82669
                        -----------------------------------------
Magnitude (a.u.)       :      1.26232
Magnitude (Debye)      :      3.20856

                             ****ORCA TERMINATED NORMALLY****
TOTAL RUN TIME: 0 days 0 hours 29 minutes 1 seconds 981 msec
