                         Program Version 3.0.3 - RELEASE   -
|  1> ! RI-MP2 RIJK def2-TZVP def2-TZVP/C def2-TZVP/JK TIGHTSCF
|  2> % maxcore 2000
|  3> % mp2 density relaxed end
|  4> *xyz 0 1
|  5>  N        0.0550106184    -1.1231007473    -0.0751337503
|  6>  C        0.0409685577     0.0330617949    -0.0293233408
|  7>  C        0.0230143284     1.4710991971     0.0218731285
|  8>  C       -0.4414534558     2.2626815384     1.2815460229
|  9>  C        0.3649377271     3.3871188098     0.6369517265
| 10>  C        1.3610408252     2.3618286567     0.0308305787
| 11>  C        1.3395579071     3.2103431915    -1.2309819117
| 12>  N       -0.0777853149     3.5921597702    -0.8495964356
| 13>  C       -0.7457183364     2.2788611566    -1.0624861351
| 14>  H       -1.5165608813     2.3669546730     1.4464415290
| 15>  H        0.0542937424     1.9196097678     2.1928883788
| 16>  H        0.6431051489     4.3147944477     1.1306618509
| 17>  H        2.2342140450     1.9520613157     0.5372640177
| 18>  H        1.9948858215     4.0819878800    -1.1499345801
| 19>  H        1.4468663578     2.7559390338    -2.2200465276
| 20>  H       -0.5976604221     1.9257125489    -2.0842726332
| 21>  H       -1.8159778688     2.3294024852    -0.8524024586
| 22> *
| 23>
| 24>                          ****END OF INPUT****

CARTESIAN COORDINATES (ANGSTROEM)
---------------------------------
  N      0.055011   -1.123101   -0.075134
  C      0.040969    0.033062   -0.029323
  C      0.023014    1.471099    0.021873
  C     -0.441453    2.262682    1.281546
  C      0.364938    3.387119    0.636952
  C      1.361041    2.361829    0.030831
  C      1.339558    3.210343   -1.230982
  N     -0.077785    3.592160   -0.849596
  C     -0.745718    2.278861   -1.062486
  H     -1.516561    2.366955    1.446442
  H      0.054294    1.919610    2.192888
  H      0.643105    4.314794    1.130662
  H      2.234214    1.952061    0.537264
  H      1.994886    4.081988   -1.149935
  H      1.446866    2.755939   -2.220047
  H     -0.597660    1.925713   -2.084273
  H     -1.815978    2.329402   -0.852402

 Total Charge           Charge          ....    0
 Multiplicity           Mult            ....    1
 Number of Electrons    NEL             ....   64
 Basis Dimension        Dim             ....  327

ORBITAL ENERGIES
----------------

  NO   OCC          E(Eh)            E(eV)
   0   2.0000     -15.577842      -423.8946
   1   2.0000     -15.571787      -423.7299
   2   2.0000     -11.294517      -307.3394
   3   2.0000     -11.285461      -307.0930
   4   2.0000     -11.275834      -306.8310
   5   2.0000     -11.274091      -306.7836
   6   2.0000     -11.271838      -306.7223
   7   2.0000     -11.267808      -306.6126
   8   2.0000     -11.259468      -306.3857
   9   2.0000      -1.312306       -35.7097
  10   2.0000      -1.218234       -33.1498
  11   2.0000      -1.100722       -29.9522
  12   2.0000      -1.022809       -27.8320
  13   2.0000      -0.974071       -26.5058
  14   2.0000      -0.866781       -23.5863
  15   2.0000      -0.844080       -22.9686
  16   2.0000      -0.777000       -21.1432
  17   2.0000      -0.730535       -19.8789
  18   2.0000      -0.678511       -18.4632
  19   2.0000      -0.653482       -17.7821
  20   2.0000      -0.629527       -17.1303
  21   2.0000      -0.579107       -15.7583
  22   2.0000      -0.556655       -15.1474
  23   2.0000      -0.542034       -14.7495
  24   2.0000      -0.537040       -14.6136
  25   2.0000      -0.518662       -14.1135
  26   2.0000      -0.507207       -13.8018
  27   2.0000      -0.491478       -13.3738
  28   2.0000      -0.455239       -12.3877
  29   2.0000      -0.450465       -12.2578
  30   2.0000      -0.436558       -11.8793
  31   2.0000      -0.386303       -10.5118
  32   0.0000       0.130683         3.5561
  33   0.0000       0.140028         3.8103
  34   0.0000       0.151610         4.1255
  35   0.0000       0.158337         4.3086
  36   0.0000       0.172654         4.6982

MULLIKEN ATOMIC CHARGES
-----------------------
   0 N :   -0.035354
   1 C :   -0.239629
   2 C :    0.105522
   3 C :   -0.237760
   4 C :   -0.074118
   5 C :   -0.106667
   6 C :   -0.182515
   7 N :   -0.186327
   8 C :   -0.136089
   9 H :    0.137465
  10 H :    0.140348
  11 H :    0.140005
  12 H :    0.143452
  13 H :    0.130444
  14 H :    0.129605
  15 H :    0.140104
  16 H :    0.131513
Sum of atomic charges:    0.0000000

LOEWDIN ATOMIC CHARGES
----------------------
   0 N :    0.067181
   1 C :   -0.159715
   2 C :   -0.212881
   3 C :   -0.164014
   4 C :   -0.169273
   5 C :   -0.132344
   6 C :   -0.232983
   7 N :    0.105363
   8 C :   -0.207488
   9 H :    0.134689
  10 H :    0.152839
  11 H :    0.135974
  12 H :    0.141192
  13 H :    0.139397
  14 H :    0.125727
  15 H :    0.138052
  16 H :    0.138282

  Mayer bond orders larger than 0.1
B(  0-N ,  1-C ) :   2.9035 B(  1-C ,  2-C ) :   0.8570 B(  2-C ,  3-C ) :   0.9095
B(  2-C ,  5-C ) :   0.8109 B(  2-C ,  8-C ) :   0.9154 B(  3-C ,  4-C ) :   0.9374
B(  3-C ,  9-H ) :   0.9159 B(  3-C , 10-H ) :   0.9148 B(  4-C ,  5-C ) :   0.9107
B(  4-C ,  7-N ) :   0.9065 B(  4-C , 11-H ) :   0.9189 B(  5-C ,  6-C ) :   0.9743
B(  5-C , 12-H ) :   0.9103 B(  6-C ,  7-N ) :   0.9195 B(  6-C , 13-H ) :   0.9218
B(  6-C , 14-H ) :   0.9219 B(  7-N ,  8-C ) :   0.9352 B(  8-C , 15-H ) :   0.9362
B(  8-C , 16-H ) :   0.9184

MP2 TOTAL ENERGY:     -380.157204534 Eh
FINAL SINGLE POINT ENERGY      -380.157204534210

DIPOLE MOMENT
-------------
                                X             Y             Z
Electronic contribution:     -0.34708      -4.34855       0.12176
Nuclear contribution   :      0.69849       5.51923       0.19475
                        -----------------------------------------
Total Dipole Moment    :      0.35141       1.17068       0.31651
                        -----------------------------------------
Magnitude (a.u.)       :      1.26260
Magnitude (Debye)      :      3.20928

                             ****ORCA TERMINATED NORMALLY****
TOTAL RUN TIME: 0 days 0 hours 17 minutes 39 seconds 399 msec
