                         Program Version 3.0.3 - RELEASE   -
|  1> ! RI-MP2 RIJK def2-TZVP def2-TZVP/C def2-TZVP/JK TIGHTSCF
|  2> % maxcore 2000
|  3> % mp2 density relaxed end
|  4> *xyz 0 1
|  5>  N       -0.0410731806    -1.2163347170    -0.2481509157
|  6>  C       -0.0525582728    -0.0662548595    -0.1428161724
|  7>  C       -0.0208501000     1.3887200513     0.0297066381
|  8>  C       -0.5884163500     1.8432967541     1.4293881700
|  9>  C        0.6084821030     2.5748627700     2.0732223006
| 10>  O        1.4186445908     3.0008791965     0.9882567600
| 11>  C        1.4655053519     1.9235328974     0.0955511663
| 12>  C       -0.7508336378     2.0365789512    -1.0663083517
| 13>  N       -1.3142009114     2.5745295532    -1.9190175035
| 14>  H       -1.4336554366     2.5142682501     1.2759234978
| 15>  H       -0.9277049698     0.9871028225     2.0128636379
| 16>  H        0.3177365515     3.4573755979     2.6451355601
| 17>  H        1.1711985790     1.8944067869     2.7295796228
| 18>  H        2.1060148924     1.1085804836     0.4639296114
| 19>  H        1.8298530703     2.2705287518    -0.8714539114
| 20> *
| 21>
| 22>                          ****END OF INPUT****

CARTESIAN COORDINATES (ANGSTROEM)
---------------------------------
  N     -0.041073   -1.216335   -0.248151
  C     -0.052558   -0.066255   -0.142816
  C     -0.020850    1.388720    0.029707
  C     -0.588416    1.843297    1.429388
  C      0.608482    2.574863    2.073222
  O      1.418645    3.000879    0.988257
  C      1.465505    1.923533    0.095551
  C     -0.750834    2.036579   -1.066308
  N     -1.314201    2.574530   -1.919018
  H     -1.433655    2.514268    1.275923
  H     -0.927705    0.987103    2.012864
  H      0.317737    3.457376    2.645136
  H      1.171199    1.894407    2.729580
  H      2.106015    1.108580    0.463930
  H      1.829853    2.270529   -0.871454

 Total Charge           Charge          ....    0
 Multiplicity           Mult            ....    1
 Number of Electrons    NEL             ....   64
 Basis Dimension        Dim             ....  315

ORBITAL ENERGIES
----------------

  NO   OCC          E(Eh)            E(eV)
   0   2.0000     -20.601267      -560.5890
   1   2.0000     -15.601661      -424.5428
   2   2.0000     -15.597327      -424.4248
   3   2.0000     -11.356912      -309.0373
   4   2.0000     -11.334286      -308.4216
   5   2.0000     -11.317134      -307.9549
   6   2.0000     -11.303781      -307.5915
   7   2.0000     -11.299764      -307.4822
   8   2.0000     -11.287159      -307.1392
   9   2.0000      -1.434551       -39.0361
  10   2.0000      -1.257369       -34.2147
  11   2.0000      -1.240290       -33.7500
  12   2.0000      -1.143255       -31.1095
  13   2.0000      -1.052433       -28.6382
  14   2.0000      -0.924053       -25.1447
  15   2.0000      -0.876270       -23.8445
  16   2.0000      -0.808310       -21.9952
  17   2.0000      -0.746235       -20.3061
  18   2.0000      -0.705014       -19.1844
  19   2.0000      -0.671011       -18.2591
  20   2.0000      -0.626978       -17.0609
  21   2.0000      -0.609837       -16.5945
  22   2.0000      -0.587220       -15.9791
  23   2.0000      -0.584353       -15.9011
  24   2.0000      -0.573925       -15.6173
  25   2.0000      -0.550547       -14.9811
  26   2.0000      -0.539761       -14.6876
  27   2.0000      -0.501114       -13.6360
  28   2.0000      -0.495096       -13.4722
  29   2.0000      -0.484579       -13.1861
  30   2.0000      -0.480831       -13.0841
  31   2.0000      -0.454601       -12.3703
  32   0.0000       0.107984         2.9384
  33   0.0000       0.129282         3.5180
  34   0.0000       0.135060         3.6752
  35   0.0000       0.148593         4.0434
  36   0.0000       0.153857         4.1867

MULLIKEN ATOMIC CHARGES
-----------------------
   0 N :   -0.035748
   1 C :   -0.245859
   2 C :    0.420402
   3 C :   -0.286362
   4 C :   -0.066355
   5 O :   -0.295897
   6 C :   -0.068090
   7 C :   -0.258604
   8 N :   -0.033346
   9 H :    0.162498
  10 H :    0.163324
  11 H :    0.139518
  12 H :    0.113328
  13 H :    0.131523
  14 H :    0.159668
Sum of atomic charges:   -0.0000000

LOEWDIN ATOMIC CHARGES
----------------------
   0 N :    0.090939
   1 C :   -0.140374
   2 C :   -0.234067
   3 C :   -0.168612
   4 C :   -0.289688
   5 O :    0.179856
   6 C :   -0.236222
   7 C :   -0.138835
   8 N :    0.090802
   9 H :    0.153453
  10 H :    0.151000
  11 H :    0.135062
  12 H :    0.126291
  13 H :    0.135980
  14 H :    0.144414

  Mayer bond orders larger than 0.1
B(  0-N ,  1-C ) :   2.8411 B(  1-C ,  2-C ) :   0.9004 B(  2-C ,  3-C ) :   0.8141
B(  2-C ,  6-C ) :   0.8399 B(  2-C ,  7-C ) :   0.8897 B(  3-C ,  4-C ) :   0.9527
B(  3-C ,  9-H ) :   0.9196 B(  3-C , 10-H ) :   0.9153 B(  4-C ,  5-O ) :   0.9275
B(  4-C , 11-H ) :   0.9208 B(  4-C , 12-H ) :   0.9309 B(  5-O ,  6-C ) :   0.9534
B(  6-C , 13-H ) :   0.9202 B(  6-C , 14-H ) :   0.9089 B(  7-C ,  8-N ) :   2.8473

MP2 TOTAL ENERGY:     -416.122121128 Eh
FINAL SINGLE POINT ENERGY      -416.122121128398

DIPOLE MOMENT
-------------
                                X             Y             Z
Electronic contribution:     -1.71879      -2.02021      -5.19706
Nuclear contribution   :      2.20484       2.45798       6.69118
                        -----------------------------------------
Total Dipole Moment    :      0.48605       0.43777       1.49413
                        -----------------------------------------
Magnitude (a.u.)       :      1.63104
Magnitude (Debye)      :      4.14578

                             ****ORCA TERMINATED NORMALLY****
TOTAL RUN TIME: 0 days 0 hours 14 minutes 44 seconds 546 msec
