                         Program Version 3.0.3 - RELEASE   -
|  1> ! RI-MP2 RIJK def2-TZVP def2-TZVP/C def2-TZVP/JK TIGHTSCF
|  2> % maxcore 2000
|  3> % mp2 density relaxed end
|  4> *xyz 0 1
|  5>  C       -0.1278089259     1.5588824685    -0.0000882853
|  6>  C        0.0106597744     0.0370038060     0.0235061449
|  7>  O       -1.2805764890    -0.5573454258    -0.1018262276
|  8>  C        0.9038447989    -0.5323027503    -1.0757016439
|  9>  C        2.2936359726    -0.6012935577    -0.5415941750
| 10>  C        2.2705023417    -0.0956682669     0.8983911446
| 11>  C        0.8320279194    -0.5631197190     1.2074667330
| 12>  C        0.9261991680    -2.0276421787     0.7405015028
| 13>  N        1.4644434202    -1.8301488554    -0.6329319969
| 14>  H        0.8352115219     2.0733219448     0.0106704763
| 15>  H       -0.6663815184     1.8627917666    -0.9026188086
| 16>  H       -0.7022687819     1.9075714223     0.8673369846
| 17>  H       -1.8469677097    -0.1754066296     0.5772919786
| 18>  H        0.6525056231    -0.4238523510    -2.1239458533
| 19>  H        3.1757315293    -0.5552288561    -1.1687226659
| 20>  H        3.0168182792    -0.5893339735     1.5294281298
| 21>  H        2.4188959966     0.9836944975     0.9791080110
| 22>  H        0.4466534994    -0.3711714867     2.2088547945
| 23>  H        1.6244175968    -2.6275723555     1.3315616981
| 24>  H       -0.0408991764    -2.5281383597     0.6879098483
| 25> *
| 26>
| 27>                          ****END OF INPUT****

CARTESIAN COORDINATES (ANGSTROEM)
---------------------------------
  C     -0.127809    1.558882   -0.000088
  C      0.010660    0.037004    0.023506
  O     -1.280576   -0.557345   -0.101826
  C      0.903845   -0.532303   -1.075702
  C      2.293636   -0.601294   -0.541594
  C      2.270502   -0.095668    0.898391
  C      0.832028   -0.563120    1.207467
  C      0.926199   -2.027642    0.740502
  N      1.464443   -1.830149   -0.632932
  H      0.835212    2.073322    0.010670
  H     -0.666382    1.862792   -0.902619
  H     -0.702269    1.907571    0.867337
  H     -1.846968   -0.175407    0.577292
  H      0.652506   -0.423852   -2.123946
  H      3.175732   -0.555229   -1.168723
  H      3.016818   -0.589334    1.529428
  H      2.418896    0.983694    0.979108
  H      0.446653   -0.371171    2.208855
  H      1.624418   -2.627572    1.331562
  H     -0.040899   -2.528138    0.687910

 Total Charge           Charge          ....    0
 Multiplicity           Mult            ....    1
 Number of Electrons    NEL             ....   68
 Basis Dimension        Dim             ....  345

ORBITAL ENERGIES
----------------

  NO   OCC          E(Eh)            E(eV)
   0   2.0000     -20.556520      -559.3714
   1   2.0000     -15.553316      -423.2272
   2   2.0000     -11.291521      -307.2579
   3   2.0000     -11.253881      -306.2337
   4   2.0000     -11.248350      -306.0832
   5   2.0000     -11.240699      -305.8750
   6   2.0000     -11.231460      -305.6236
   7   2.0000     -11.230145      -305.5878
   8   2.0000     -11.224841      -305.4435
   9   2.0000      -1.369228       -37.2586
  10   2.0000      -1.291495       -35.1434
  11   2.0000      -1.064882       -28.9769
  12   2.0000      -1.012549       -27.5529
  13   2.0000      -0.983036       -26.7498
  14   2.0000      -0.912417       -24.8281
  15   2.0000      -0.791973       -21.5507
  16   2.0000      -0.771369       -20.9900
  17   2.0000      -0.752820       -20.4853
  18   2.0000      -0.705656       -19.2019
  19   2.0000      -0.665464       -18.1082
  20   2.0000      -0.652550       -17.7568
  21   2.0000      -0.606003       -16.4902
  22   2.0000      -0.590519       -16.0688
  23   2.0000      -0.570397       -15.5213
  24   2.0000      -0.559367       -15.2211
  25   2.0000      -0.536626       -14.6023
  26   2.0000      -0.512199       -13.9376
  27   2.0000      -0.508749       -13.8438
  28   2.0000      -0.503435       -13.6992
  29   2.0000      -0.466894       -12.7048
  30   2.0000      -0.446042       -12.1374
  31   2.0000      -0.428191       -11.6517
  32   2.0000      -0.416584       -11.3358
  33   2.0000      -0.374504       -10.1908
  34   0.0000       0.125734         3.4214
  35   0.0000       0.154777         4.2117
  36   0.0000       0.165737         4.5099
  37   0.0000       0.182960         4.9786
  38   0.0000       0.186131         5.0649

MULLIKEN ATOMIC CHARGES
-----------------------
   0 C :   -0.435877
   1 C :    0.184299
   2 O :   -0.463552
   3 C :   -0.081078
   4 C :   -0.096597
   5 C :   -0.285700
   6 C :   -0.078975
   7 C :   -0.123349
   8 N :   -0.223600
   9 H :    0.131279
  10 H :    0.150506
  11 H :    0.125028
  12 H :    0.313124
  13 H :    0.132908
  14 H :    0.130015
  15 H :    0.122901
  16 H :    0.125813
  17 H :    0.132820
  18 H :    0.118464
  19 H :    0.121569
Sum of atomic charges:   -0.0000000

LOEWDIN ATOMIC CHARGES
----------------------
   0 C :   -0.272205
   1 C :   -0.355263
   2 O :    0.014987
   3 C :   -0.181696
   4 C :   -0.212003
   5 C :   -0.214044
   6 C :   -0.205092
   7 C :   -0.238771
   8 N :    0.136154
   9 H :    0.128823
  10 H :    0.131863
  11 H :    0.124044
  12 H :    0.175112
  13 H :    0.143503
  14 H :    0.137520
  15 H :    0.139871
  16 H :    0.136962
  17 H :    0.142978
  18 H :    0.130967
  19 H :    0.136292

  Mayer bond orders larger than 0.1
B(  0-C ,  1-C ) :   0.9034 B(  0-C ,  9-H ) :   0.9324 B(  0-C , 10-H ) :   0.9461
B(  0-C , 11-H ) :   0.9220 B(  1-C ,  2-O ) :   0.9993 B(  1-C ,  3-C ) :   0.9120
B(  1-C ,  6-C ) :   0.8948 B(  2-O , 12-H ) :   0.8408 B(  3-C ,  4-C ) :   0.8946
B(  3-C ,  8-N ) :   0.8951 B(  3-C , 13-H ) :   0.9176 B(  4-C ,  5-C ) :   0.9492
B(  4-C ,  8-N ) :   0.9110 B(  4-C , 14-H ) :   0.9291 B(  5-C ,  6-C ) :   0.8934
B(  5-C , 15-H ) :   0.9105 B(  5-C , 16-H ) :   0.9235 B(  6-C ,  7-C ) :   0.9361
B(  6-C , 17-H ) :   0.9003 B(  7-C ,  8-N ) :   0.9483 B(  7-C , 18-H ) :   0.9292
B(  7-C , 19-H ) :   0.9168

MP2 TOTAL ENERGY:     -402.468720757 Eh
FINAL SINGLE POINT ENERGY      -402.468720756723

DIPOLE MOMENT
-------------
                                X             Y             Z
Electronic contribution:     -0.54684      -3.70370      -2.21432
Nuclear contribution   :      0.55378       4.66380       3.03618
                        -----------------------------------------
Total Dipole Moment    :      0.00693       0.96009       0.82186
                        -----------------------------------------
Magnitude (a.u.)       :      1.26384
Magnitude (Debye)      :      3.21241

                             ****ORCA TERMINATED NORMALLY****
TOTAL RUN TIME: 0 days 0 hours 22 minutes 14 seconds 297 msec
