                         Program Version 3.0.3 - RELEASE   -
|  1> ! RI-MP2 RIJK def2-TZVP def2-TZVP/C def2-TZVP/JK TIGHTSCF
|  2> % maxcore 2000
|  3> % mp2 density relaxed end
|  4> *xyz 0 1
|  5>  C       -0.3398478494     1.4462446989     0.0718112974
|  6>  C       -0.1397187415    -0.0662768253     0.0645414255
|  7>  C        0.9388346914    -0.5735176006    -0.9432329901
|  8>  C        1.9524916645    -0.6750192189     0.2121365201
|  9>  C        3.1570044474    -1.6225350561     0.3185470342
| 10>  C        3.9795157897    -0.3443514948     0.5606983002
| 11>  O        2.8136652649     0.4927129095     0.3613108217
| 12>  C        0.7761659084    -0.6038403594     1.2217578031
| 13>  O        0.9985232228     0.1703296015     2.3636490989
| 14>  H        0.6176054119     1.9768431368     0.0712449940
| 15>  H       -0.8970762187     1.7661602736    -0.8149153838
| 16>  H       -0.8970118449     1.7600616042     0.9595355958
| 17>  H       -1.1077754755    -0.5704232572    -0.0059358058
| 18>  H        0.7081874600    -1.5550505706    -1.3681215578
| 19>  H        1.2237109664     0.1076686344    -1.7490684460
| 20>  H        3.1192990751    -2.3333572619     1.1463890357
| 21>  H        3.3969232072    -2.1541804368    -0.6045951451
| 22>  H        4.3897300875    -0.2316416408     1.5705178633
| 23>  H        4.7611084753    -0.1198658324    -0.1728172200
| 24>  H        0.4600120139    -1.6028685628     1.5424368390
| 25>  H        1.6608724835     0.8251138389     2.0973547096
| 26> *
| 27>
| 28>                          ****END OF INPUT****

CARTESIAN COORDINATES (ANGSTROEM)
---------------------------------
  C     -0.339848    1.446245    0.071811
  C     -0.139719   -0.066277    0.064541
  C      0.938835   -0.573518   -0.943233
  C      1.952492   -0.675019    0.212137
  C      3.157004   -1.622535    0.318547
  C      3.979516   -0.344351    0.560698
  O      2.813665    0.492713    0.361311
  C      0.776166   -0.603840    1.221758
  O      0.998523    0.170330    2.363649
  H      0.617605    1.976843    0.071245
  H     -0.897076    1.766160   -0.814915
  H     -0.897012    1.760062    0.959536
  H     -1.107775   -0.570423   -0.005936
  H      0.708187   -1.555051   -1.368122
  H      1.223711    0.107669   -1.749068
  H      3.119299   -2.333357    1.146389
  H      3.396923   -2.154180   -0.604595
  H      4.389730   -0.231642    1.570518
  H      4.761108   -0.119866   -0.172817
  H      0.460012   -1.602869    1.542437
  H      1.660872    0.825114    2.097355

 Total Charge           Charge          ....    0
 Multiplicity           Mult            ....    1
 Number of Electrons    NEL             ....   70
 Basis Dimension        Dim             ....  351

ORBITAL ENERGIES
----------------

  NO   OCC          E(Eh)            E(eV)
   0   2.0000     -20.557394      -559.3951
   1   2.0000     -20.546797      -559.1068
   2   2.0000     -11.288321      -307.1708
   3   2.0000     -11.285690      -307.0992
   4   2.0000     -11.272623      -306.7437
   5   2.0000     -11.234374      -305.7028
   6   2.0000     -11.225542      -305.4625
   7   2.0000     -11.222961      -305.3923
   8   2.0000     -11.207273      -304.9654
   9   2.0000      -1.391699       -37.8701
  10   2.0000      -1.352151       -36.7939
  11   2.0000      -1.119894       -30.4739
  12   2.0000      -1.018540       -27.7159
  13   2.0000      -0.969703       -26.3870
  14   2.0000      -0.890221       -24.2242
  15   2.0000      -0.882714       -24.0199
  16   2.0000      -0.778937       -21.1959
  17   2.0000      -0.743951       -20.2439
  18   2.0000      -0.699712       -19.0401
  19   2.0000      -0.677659       -18.4400
  20   2.0000      -0.652279       -17.7494
  21   2.0000      -0.606271       -16.4975
  22   2.0000      -0.596885       -16.2421
  23   2.0000      -0.589884       -16.0516
  24   2.0000      -0.571251       -15.5445
  25   2.0000      -0.551338       -15.0027
  26   2.0000      -0.542550       -14.7635
  27   2.0000      -0.526778       -14.3344
  28   2.0000      -0.516214       -14.0469
  29   2.0000      -0.489595       -13.3226
  30   2.0000      -0.477651       -12.9975
  31   2.0000      -0.463430       -12.6106
  32   2.0000      -0.428574       -11.6621
  33   2.0000      -0.407480       -11.0881
  34   2.0000      -0.394657       -10.7392
  35   0.0000       0.138073         3.7571
  36   0.0000       0.147894         4.0244
  37   0.0000       0.156548         4.2599
  38   0.0000       0.172487         4.6936
  39   0.0000       0.185047         5.0354

MULLIKEN ATOMIC CHARGES
-----------------------
   0 C :   -0.480868
   1 C :    0.017677
   2 C :   -0.241813
   3 C :    0.183009
   4 C :   -0.263801
   5 C :   -0.041915
   6 O :   -0.383088
   7 C :    0.010878
   8 O :   -0.469143
   9 H :    0.143290
  10 H :    0.129441
  11 H :    0.142927
  12 H :    0.103474
  13 H :    0.123649
  14 H :    0.117950
  15 H :    0.130379
  16 H :    0.128801
  17 H :    0.107139
  18 H :    0.106583
  19 H :    0.102746
  20 H :    0.332684
Sum of atomic charges:   -0.0000000

LOEWDIN ATOMIC CHARGES
----------------------
   0 C :   -0.300637
   1 C :   -0.233961
   2 C :   -0.184228
   3 C :   -0.275838
   4 C :   -0.212794
   5 C :   -0.265895
   6 O :    0.138892
   7 C :   -0.286017
   8 O :   -0.003078
   9 H :    0.126295
  10 H :    0.123607
  11 H :    0.127676
  12 H :    0.137915
  13 H :    0.139193
  14 H :    0.137446
  15 H :    0.136148
  16 H :    0.135711
  17 H :    0.117921
  18 H :    0.117555
  19 H :    0.142751
  20 H :    0.181336

  Mayer bond orders larger than 0.1
B(  0-C ,  1-C ) :   0.8618 B(  0-C ,  9-H ) :   0.9357 B(  0-C , 10-H ) :   0.9365
B(  0-C , 11-H ) :   0.9370 B(  1-C ,  2-C ) :   0.9266 B(  1-C ,  7-C ) :   0.8711
B(  1-C , 12-H ) :   0.9228 B(  2-C ,  3-C ) :   0.9116 B(  2-C , 13-H ) :   0.9140
B(  2-C , 14-H ) :   0.9070 B(  3-C ,  4-C ) :   0.8798 B(  3-C ,  6-O ) :   0.8655
B(  3-C ,  7-C ) :   0.9275 B(  4-C ,  5-C ) :   0.9926 B(  4-C , 15-H ) :   0.9162
B(  4-C , 16-H ) :   0.9233 B(  5-C ,  6-O ) :   0.9203 B(  5-C , 17-H ) :   0.9230
B(  5-C , 18-H ) :   0.9170 B(  7-C ,  8-O ) :   1.0210 B(  7-C , 19-H ) :   0.9336
B(  8-O , 20-H ) :   0.8112

MP2 TOTAL ENERGY:     -423.498138429 Eh
FINAL SINGLE POINT ENERGY      -423.498138428858

DIPOLE MOMENT
-------------
                                X             Y             Z
Electronic contribution:      1.87851      -0.44343       2.53756
Nuclear contribution   :     -1.42607      -0.15472      -3.12280
                        -----------------------------------------
Total Dipole Moment    :      0.45243      -0.59815      -0.58524
                        -----------------------------------------
Magnitude (a.u.)       :      0.95131
Magnitude (Debye)      :      2.41803

                             ****ORCA TERMINATED NORMALLY****
TOTAL RUN TIME: 0 days 0 hours 18 minutes 34 seconds 4 msec
