                         Program Version 3.0.3 - RELEASE   -
|  1> ! RI-MP2 RIJK def2-TZVP def2-TZVP/C def2-TZVP/JK TIGHTSCF
|  2> % maxcore 2000
|  3> % mp2 density relaxed end
|  4> *xyz 0 1
|  5>  C        0.2926402957     1.3952840722    -0.2489304925
|  6>  C       -0.1337253419    -0.0376286435     0.1141491783
|  7>  C        0.5965105467    -0.5736320758     1.2987887210
|  8>  N        0.1115416847    -0.9030697466     2.4580484106
|  9>  C        1.2439274691    -1.3131708268     3.1355191021
| 10>  N        1.1661822825    -1.7971576777     4.4049199295
| 11>  C        2.3726895793    -1.9870062228     5.1892564834
| 12>  N        2.3658493577    -1.2299342337     2.4514455348
| 13>  O        1.9177892954    -0.7382922520     1.1993911909
| 14>  H        1.3608544075     1.4389084316    -0.4756401741
| 15>  H       -0.2600855321     1.7424852421    -1.1259683108
| 16>  H        0.0910215447     2.0840788282     0.5765037265
| 17>  H       -1.2004964128    -0.0811688498     0.3441281395
| 18>  H        0.0491173963    -0.7025478287    -0.7378379997
| 19>  H        0.3276683038    -1.5248937742     4.8921607650
| 20>  H        2.9029839975    -1.0465910698     5.3941180628
| 21>  H        2.1080403528    -2.4616821334     6.1362356946
| 22>  H        3.0572692633    -2.6454665693     4.6483508281
| 23> *
| 24>
| 25>                          ****END OF INPUT****

CARTESIAN COORDINATES (ANGSTROEM)
---------------------------------
  C      0.292640    1.395284   -0.248930
  C     -0.133725   -0.037629    0.114149
  C      0.596511   -0.573632    1.298789
  N      0.111542   -0.903070    2.458048
  C      1.243927   -1.313171    3.135519
  N      1.166182   -1.797158    4.404920
  C      2.372690   -1.987006    5.189256
  N      2.365849   -1.229934    2.451446
  O      1.917789   -0.738292    1.199391
  H      1.360854    1.438908   -0.475640
  H     -0.260086    1.742485   -1.125968
  H      0.091022    2.084079    0.576504
  H     -1.200496   -0.081169    0.344128
  H      0.049117   -0.702548   -0.737838
  H      0.327668   -1.524894    4.892161
  H      2.902984   -1.046591    5.394118
  H      2.108040   -2.461682    6.136236
  H      3.057269   -2.645467    4.648351

 Total Charge           Charge          ....    0
 Multiplicity           Mult            ....    1
 Number of Electrons    NEL             ....   68
 Basis Dimension        Dim             ....  333

ORBITAL ENERGIES
----------------

  NO   OCC          E(Eh)            E(eV)
   0   2.0000     -20.635374      -561.5171
   1   2.0000     -15.591102      -424.2555
   2   2.0000     -15.581874      -424.0043
   3   2.0000     -15.562146      -423.4675
   4   2.0000     -11.354626      -308.9751
   5   2.0000     -11.336470      -308.4810
   6   2.0000     -11.260904      -306.4248
   7   2.0000     -11.255938      -306.2897
   8   2.0000     -11.235243      -305.7265
   9   2.0000      -1.498248       -40.7694
  10   2.0000      -1.284909       -34.9642
  11   2.0000      -1.214693       -33.0535
  12   2.0000      -1.136157       -30.9164
  13   2.0000      -1.052017       -28.6268
  14   2.0000      -0.950945       -25.8765
  15   2.0000      -0.903188       -24.5770
  16   2.0000      -0.819961       -22.3123
  17   2.0000      -0.790384       -21.5075
  18   2.0000      -0.728629       -19.8270
  19   2.0000      -0.681818       -18.5532
  20   2.0000      -0.656558       -17.8659
  21   2.0000      -0.628999       -17.1159
  22   2.0000      -0.619121       -16.8471
  23   2.0000      -0.602118       -16.3845
  24   2.0000      -0.585080       -15.9208
  25   2.0000      -0.552068       -15.0225
  26   2.0000      -0.541493       -14.7348
  27   2.0000      -0.532532       -14.4909
  28   2.0000      -0.515790       -14.0354
  29   2.0000      -0.498479       -13.5643
  30   2.0000      -0.493909       -13.4400
  31   2.0000      -0.453874       -12.3505
  32   2.0000      -0.415653       -11.3105
  33   2.0000      -0.353149        -9.6097
  34   0.0000       0.125562         3.4167
  35   0.0000       0.140645         3.8271
  36   0.0000       0.154582         4.2064
  37   0.0000       0.174238         4.7413
  38   0.0000       0.176541         4.8039

MULLIKEN ATOMIC CHARGES
-----------------------
   0 C :   -0.397482
   1 C :   -0.230063
   2 C :    0.225557
   3 N :   -0.317411
   4 C :    0.284891
   5 N :   -0.344589
   6 C :   -0.271794
   7 N :   -0.214348
   8 O :   -0.113872
   9 H :    0.146214
  10 H :    0.137615
  11 H :    0.136193
  12 H :    0.146278
  13 H :    0.137978
  14 H :    0.249067
  15 H :    0.132646
  16 H :    0.138583
  17 H :    0.154536
Sum of atomic charges:   -0.0000000

LOEWDIN ATOMIC CHARGES
----------------------
   0 C :   -0.302116
   1 C :   -0.248531
   2 C :   -0.372669
   3 N :    0.118342
   4 C :   -0.453409
   5 N :    0.060908
   6 C :   -0.317170
   7 N :    0.004335
   8 O :    0.277851
   9 H :    0.127037
  10 H :    0.124085
  11 H :    0.125831
  12 H :    0.155203
  13 H :    0.153502
  14 H :    0.190458
  15 H :    0.111890
  16 H :    0.118718
  17 H :    0.125737

  Mayer bond orders larger than 0.1
B(  0-C ,  1-C ) :   0.9154 B(  0-C ,  9-H ) :   0.9347 B(  0-C , 10-H ) :   0.9362
B(  0-C , 11-H ) :   0.9344 B(  1-C ,  2-C ) :   0.8900 B(  1-C , 12-H ) :   0.9440
B(  1-C , 13-H ) :   0.9265 B(  2-C ,  3-N ) :   1.6653 B(  2-C ,  8-O ) :   1.1802
B(  3-N ,  4-C ) :   1.1828 B(  4-C ,  5-N ) :   1.1395 B(  4-C ,  7-N ) :   1.5786
B(  5-N ,  6-C ) :   0.8902 B(  5-N , 14-H ) :   0.8668 B(  6-C , 15-H ) :   0.9350
B(  6-C , 16-H ) :   0.9331 B(  6-C , 17-H ) :   0.9321 B(  7-N ,  8-O ) :   0.8335

MP2 TOTAL ENERGY:     -434.551875220 Eh
FINAL SINGLE POINT ENERGY      -434.551875219785

DIPOLE MOMENT
-------------
                                X             Y             Z
Electronic contribution:      1.02080      -3.35255       0.64608
Nuclear contribution   :     -1.55065       3.65401      -0.38605
                        -----------------------------------------
Total Dipole Moment    :     -0.52985       0.30146       0.26002
                        -----------------------------------------
Magnitude (a.u.)       :      0.66274
Magnitude (Debye)      :      1.68456

                             ****ORCA TERMINATED NORMALLY****
TOTAL RUN TIME: 0 days 0 hours 17 minutes 44 seconds 116 msec
