                         Program Version 3.0.3 - RELEASE   -
|  1> ! RI-MP2 RIJK def2-TZVP def2-TZVP/C def2-TZVP/JK TIGHTSCF
|  2> % maxcore 2000
|  3> % mp2 density relaxed end
|  4> *xyz 0 1
|  5>  C        0.0920502868     1.4976446615    -0.3977413943
|  6>  C        0.1685401203     0.0186904419    -0.0828588909
|  7>  C        1.4794897633    -0.6711962573     0.0906016008
|  8>  N        0.5722174033    -0.5104243366     1.2220396002
|  9>  C        0.9631467335     0.4031012073     2.2927685787
| 10>  C        1.6763138594    -0.3550311788     3.3901053686
| 11>  C        3.1841660353    -0.5264234669     3.3506248252
| 12>  C        2.5638612122     0.3704807027     4.3749296474
| 13>  O        2.8136361370     1.7415521839     4.2195820959
| 14>  H        0.9575936903     2.0512395269    -0.0262912965
| 15>  H        0.0480014774     1.6434525408    -1.4823780311
| 16>  H       -0.8100929729     1.9490502192     0.0307004251
| 17>  H       -0.6439549058    -0.5584366860    -0.5241607042
| 18>  H        1.6363146072    -1.6877244285    -0.2615854931
| 19>  H        2.3690790131    -0.0416959481     0.0592282378
| 20>  H        1.6023389393     1.2326983286     1.9565998402
| 21>  H        0.0413761692     0.8483320059     2.6920920617
| 22>  H        1.1070826448    -1.1920934438     3.7843743455
| 23>  H        3.6210156753    -1.4662514451     3.6681797986
| 24>  H        3.7155909120    -0.0253274866     2.5484703426
| 25>  H        2.5512090882     0.0277561315     5.4095402529
| 26>  H        2.0505006907     2.2214430875     4.5585585291
| 27> *
| 28>
| 29>                          ****END OF INPUT****

CARTESIAN COORDINATES (ANGSTROEM)
---------------------------------
  C      0.092050    1.497645   -0.397741
  C      0.168540    0.018690   -0.082859
  C      1.479490   -0.671196    0.090602
  N      0.572217   -0.510424    1.222040
  C      0.963147    0.403101    2.292769
  C      1.676314   -0.355031    3.390105
  C      3.184166   -0.526423    3.350625
  C      2.563861    0.370481    4.374930
  O      2.813636    1.741552    4.219582
  H      0.957594    2.051240   -0.026291
  H      0.048001    1.643453   -1.482378
  H     -0.810093    1.949050    0.030700
  H     -0.643955   -0.558437   -0.524161
  H      1.636315   -1.687724   -0.261585
  H      2.369079   -0.041696    0.059228
  H      1.602339    1.232698    1.956600
  H      0.041376    0.848332    2.692092
  H      1.107083   -1.192093    3.784374
  H      3.621016   -1.466251    3.668180
  H      3.715591   -0.025327    2.548470
  H      2.551209    0.027756    5.409540
  H      2.050501    2.221443    4.558559

 Total Charge           Charge          ....    0
 Multiplicity           Mult            ....    1
 Number of Electrons    NEL             ....   70
 Basis Dimension        Dim             ....  357

ORBITAL ENERGIES
----------------

  NO   OCC          E(Eh)            E(eV)
   0   2.0000     -20.562136      -559.5242
   1   2.0000     -15.549460      -423.1223
   2   2.0000     -11.279251      -306.9240
   3   2.0000     -11.255116      -306.2673
   4   2.0000     -11.249772      -306.1219
   5   2.0000     -11.244939      -305.9904
   6   2.0000     -11.225761      -305.4685
   7   2.0000     -11.221693      -305.3578
   8   2.0000     -11.219637      -305.3019
   9   2.0000      -1.369895       -37.2767
  10   2.0000      -1.265778       -34.4436
  11   2.0000      -1.130925       -30.7740
  12   2.0000      -1.010769       -27.5044
  13   2.0000      -0.967234       -26.3198
  14   2.0000      -0.841466       -22.8975
  15   2.0000      -0.814639       -22.1675
  16   2.0000      -0.796724       -21.6800
  17   2.0000      -0.763504       -20.7760
  18   2.0000      -0.698760       -19.0142
  19   2.0000      -0.680906       -18.5284
  20   2.0000      -0.647869       -17.6294
  21   2.0000      -0.627851       -17.0847
  22   2.0000      -0.610252       -16.6058
  23   2.0000      -0.583235       -15.8706
  24   2.0000      -0.570302       -15.5187
  25   2.0000      -0.548776       -14.9330
  26   2.0000      -0.542006       -14.7487
  27   2.0000      -0.510155       -13.8820
  28   2.0000      -0.504249       -13.7213
  29   2.0000      -0.499367       -13.5885
  30   2.0000      -0.452066       -12.3013
  31   2.0000      -0.444448       -12.0941
  32   2.0000      -0.406199       -11.0532
  33   2.0000      -0.393155       -10.6983
  34   2.0000      -0.359213        -9.7747
  35   0.0000       0.132681         3.6104
  36   0.0000       0.149700         4.0735
  37   0.0000       0.164766         4.4835
  38   0.0000       0.167535         4.5589
  39   0.0000       0.185036         5.0351

MULLIKEN ATOMIC CHARGES
-----------------------
   0 C :   -0.391920
   1 C :   -0.018807
   2 C :   -0.195817
   3 N :   -0.212950
   4 C :   -0.212227
   5 C :   -0.070466
   6 C :   -0.256259
   7 C :    0.018486
   8 O :   -0.463638
   9 H :    0.126791
  10 H :    0.140144
  11 H :    0.130821
  12 H :    0.113322
  13 H :    0.124727
  14 H :    0.112496
  15 H :    0.136312
  16 H :    0.111421
  17 H :    0.116321
  18 H :    0.133673
  19 H :    0.126699
  20 H :    0.109643
  21 H :    0.321230
Sum of atomic charges:   -0.0000000

LOEWDIN ATOMIC CHARGES
----------------------
   0 C :   -0.303322
   1 C :   -0.283726
   2 C :   -0.249861
   3 N :    0.111972
   4 C :   -0.280538
   5 C :   -0.216650
   6 C :   -0.208590
   7 C :   -0.321761
   8 O :   -0.008693
   9 H :    0.123998
  10 H :    0.130136
  11 H :    0.125448
  12 H :    0.139847
  13 H :    0.122292
  14 H :    0.123002
  15 H :    0.129902
  16 H :    0.135678
  17 H :    0.149718
  18 H :    0.132012
  19 H :    0.139752
  20 H :    0.129280
  21 H :    0.180102

  Mayer bond orders larger than 0.1
B(  0-C ,  1-C ) :   0.9082 B(  0-C ,  9-H ) :   0.9364 B(  0-C , 10-H ) :   0.9317
B(  0-C , 11-H ) :   0.9377 B(  1-C ,  2-C ) :   0.9442 B(  1-C ,  3-N ) :   0.8921
B(  1-C , 12-H ) :   0.9249 B(  2-C ,  3-N ) :   0.8941 B(  2-C , 13-H ) :   0.9213
B(  2-C , 14-H ) :   0.9208 B(  3-N ,  4-C ) :   0.8963 B(  4-C ,  5-C ) :   0.9083
B(  4-C , 15-H ) :   0.9281 B(  4-C , 16-H ) :   0.9230 B(  5-C ,  6-C ) :   0.8754
B(  5-C ,  7-C ) :   0.8600 B(  5-C , 17-H ) :   0.9266 B(  6-C ,  7-C ) :   0.8844
B(  6-C , 18-H ) :   0.9221 B(  6-C , 19-H ) :   0.9239 B(  7-C ,  8-O ) :   1.0155
B(  7-C , 20-H ) :   0.9555 B(  8-O , 21-H ) :   0.8446

MP2 TOTAL ENERGY:     -403.600692830 Eh
FINAL SINGLE POINT ENERGY      -403.600692830354

DIPOLE MOMENT
-------------
                                X             Y             Z
Electronic contribution:      1.05151      -1.14612       4.22965
Nuclear contribution   :     -1.38150       1.39162      -4.22095
                        -----------------------------------------
Total Dipole Moment    :     -0.32999       0.24550       0.00870
                        -----------------------------------------
Magnitude (a.u.)       :      0.41139
Magnitude (Debye)      :      1.04566

                             ****ORCA TERMINATED NORMALLY****
TOTAL RUN TIME: 0 days 0 hours 17 minutes 20 seconds 772 msec
