                         Program Version 3.0.3 - RELEASE   -
|  1> ! RI-MP2 RIJK def2-TZVP def2-TZVP/C def2-TZVP/JK TIGHTSCF
|  2> % maxcore 2000
|  3> % mp2 density relaxed end
|  4> *xyz 0 1
|  5>  O       -0.2604634807     1.3470605570    -0.0229351449
|  6>  C       -0.1129282982    -0.0687234304     0.0200504701
|  7>  C        0.6062304099    -0.6167218368    -1.2222978694
|  8>  C       -0.0403388369    -0.2205042948    -2.5326789716
|  9>  C        0.3919613157     1.0206330983    -3.2704365773
| 10>  C        0.7187547401    -0.3423281007    -3.8299494356
| 11>  C        0.5615130472    -0.5342017039     1.3047354320
| 12>  C        1.6694117491     0.2689214694     1.9406830611
| 13>  C        0.3150952098     0.1826779803     2.6029994979
| 14>  H        0.5685337768     1.7209869031    -0.3378486411
| 15>  H       -1.1440851729    -0.4495152254     0.0188948103
| 16>  H        1.6533833498    -0.2793818577    -1.2061582429
| 17>  H        0.6426338202    -1.7113117062    -1.1384896642
| 18>  H       -1.1024877167    -0.4476396152    -2.5869773459
| 19>  H       -0.3634905070     1.6198561842    -3.7659953773
| 20>  H        1.2113379625     1.6013129904    -2.8573786058
| 21>  H        1.7511420973    -0.6745470250    -3.7839419308
| 22>  H        0.1855354430    -0.6803037906    -4.7116489232
| 23>  H        0.6656779784    -1.6149251156     1.3646250207
| 24>  H        2.5042137348    -0.2635338640     2.3825954391
| 25>  H        1.9375041184     1.2210387029     1.4945355406
| 26>  H       -0.3053219473     1.0703703460     2.5588342452
| 27>  H        0.2163175968    -0.4044802854     3.5091955431
| 28> *
| 29>
| 30>                          ****END OF INPUT****

CARTESIAN COORDINATES (ANGSTROEM)
---------------------------------
  O     -0.260463    1.347061   -0.022935
  C     -0.112928   -0.068723    0.020050
  C      0.606230   -0.616722   -1.222298
  C     -0.040339   -0.220504   -2.532679
  C      0.391961    1.020633   -3.270437
  C      0.718755   -0.342328   -3.829949
  C      0.561513   -0.534202    1.304735
  C      1.669412    0.268921    1.940683
  C      0.315095    0.182678    2.602999
  H      0.568534    1.720987   -0.337849
  H     -1.144085   -0.449515    0.018895
  H      1.653383   -0.279382   -1.206158
  H      0.642634   -1.711312   -1.138490
  H     -1.102488   -0.447640   -2.586977
  H     -0.363491    1.619856   -3.765995
  H      1.211338    1.601313   -2.857379
  H      1.751142   -0.674547   -3.783942
  H      0.185535   -0.680304   -4.711649
  H      0.665678   -1.614925    1.364625
  H      2.504214   -0.263534    2.382595
  H      1.937504    1.221039    1.494536
  H     -0.305322    1.070370    2.558834
  H      0.216318   -0.404480    3.509196

 Total Charge           Charge          ....    0
 Multiplicity           Mult            ....    1
 Number of Electrons    NEL             ....   70
 Basis Dimension        Dim             ....  363

ORBITAL ENERGIES
----------------

  NO   OCC          E(Eh)            E(eV)
   0   2.0000     -20.550429      -559.2056
   1   2.0000     -11.278452      -306.9023
   2   2.0000     -11.229819      -305.5789
   3   2.0000     -11.226620      -305.4919
   4   2.0000     -11.225786      -305.4692
   5   2.0000     -11.223116      -305.3965
   6   2.0000     -11.222293      -305.3741
   7   2.0000     -11.222213      -305.3719
   8   2.0000     -11.217015      -305.2305
   9   2.0000      -1.358498       -36.9666
  10   2.0000      -1.143968       -31.1289
  11   2.0000      -1.135070       -30.8868
  12   2.0000      -1.015863       -27.6430
  13   2.0000      -0.890669       -24.2363
  14   2.0000      -0.821378       -22.3508
  15   2.0000      -0.818924       -22.2840
  16   2.0000      -0.780121       -21.2282
  17   2.0000      -0.774469       -21.0744
  18   2.0000      -0.679356       -18.4862
  19   2.0000      -0.674307       -18.3488
  20   2.0000      -0.645998       -17.5785
  21   2.0000      -0.633170       -17.2294
  22   2.0000      -0.622666       -16.9436
  23   2.0000      -0.592565       -16.1245
  24   2.0000      -0.549554       -14.9541
  25   2.0000      -0.524744       -14.2790
  26   2.0000      -0.512894       -13.9566
  27   2.0000      -0.510624       -13.8948
  28   2.0000      -0.506070       -13.7709
  29   2.0000      -0.484001       -13.1703
  30   2.0000      -0.451567       -12.2878
  31   2.0000      -0.426294       -11.6001
  32   2.0000      -0.411007       -11.1841
  33   2.0000      -0.405236       -11.0270
  34   2.0000      -0.390365       -10.6224
  35   0.0000       0.132457         3.6043
  36   0.0000       0.147946         4.0258
  37   0.0000       0.162952         4.4341
  38   0.0000       0.163765         4.4563
  39   0.0000       0.181131         4.9288

MULLIKEN ATOMIC CHARGES
-----------------------
   0 O :   -0.467871
   1 C :    0.072384
   2 C :   -0.335875
   3 C :   -0.000347
   4 C :   -0.287352
   5 C :   -0.261433
   6 C :   -0.076775
   7 C :   -0.310690
   8 C :   -0.223799
   9 H :    0.309678
  10 H :    0.092710
  11 H :    0.130804
  12 H :    0.120981
  13 H :    0.114818
  14 H :    0.131444
  15 H :    0.112289
  16 H :    0.125208
  17 H :    0.130243
  18 H :    0.113789
  19 H :    0.128075
  20 H :    0.112731
  21 H :    0.140457
  22 H :    0.128534
Sum of atomic charges:   -0.0000000

LOEWDIN ATOMIC CHARGES
----------------------
   0 O :   -0.002999
   1 C :   -0.326695
   2 C :   -0.239032
   3 C :   -0.230249
   4 C :   -0.235929
   5 C :   -0.232683
   6 C :   -0.223283
   7 C :   -0.236593
   8 C :   -0.227570
   9 H :    0.172017
  10 H :    0.148634
  11 H :    0.145024
  12 H :    0.147875
  13 H :    0.149617
  14 H :    0.131176
  15 H :    0.126363
  16 H :    0.131375
  17 H :    0.130482
  18 H :    0.149822
  19 H :    0.128947
  20 H :    0.126771
  21 H :    0.138187
  22 H :    0.128744

  Mayer bond orders larger than 0.1
B(  0-O ,  1-C ) :   0.9203 B(  0-O ,  9-H ) :   0.8450 B(  1-C ,  2-C ) :   0.9581
B(  1-C ,  6-C ) :   0.9272 B(  1-C , 10-H ) :   0.9210 B(  2-C ,  3-C ) :   0.8971
B(  2-C , 11-H ) :   0.9295 B(  2-C , 12-H ) :   0.9223 B(  3-C ,  4-C ) :   0.8877
B(  3-C ,  5-C ) :   0.8796 B(  3-C , 13-H ) :   0.9266 B(  4-C ,  5-C ) :   0.9006
B(  4-C , 14-H ) :   0.9295 B(  4-C , 15-H ) :   0.9324 B(  5-C , 16-H ) :   0.9280
B(  5-C , 17-H ) :   0.9314 B(  6-C ,  7-C ) :   0.8778 B(  6-C ,  8-C ) :   0.8924
B(  6-C , 18-H ) :   0.9203 B(  7-C ,  8-C ) :   0.9008 B(  7-C , 19-H ) :   0.9277
B(  7-C , 20-H ) :   0.9314 B(  8-C , 21-H ) :   0.9202 B(  8-C , 22-H ) :   0.9320

MP2 TOTAL ENERGY:     -387.582625452 Eh
FINAL SINGLE POINT ENERGY      -387.582625452067

DIPOLE MOMENT
-------------
                                X             Y             Z
Electronic contribution:     -1.88745       0.89105       1.07707
Nuclear contribution   :      2.30298      -1.24757      -1.26922
                        -----------------------------------------
Total Dipole Moment    :      0.41553      -0.35652      -0.19215
                        -----------------------------------------
Magnitude (a.u.)       :      0.58025
Magnitude (Debye)      :      1.47489

                             ****ORCA TERMINATED NORMALLY****
TOTAL RUN TIME: 0 days 0 hours 19 minutes 54 seconds 806 msec
