                         Program Version 3.0.3 - RELEASE   -
|  1> ! RI-MP2 RIJK def2-TZVP def2-TZVP/C def2-TZVP/JK TIGHTSCF
|  2> % maxcore 2000
|  3> % mp2 density relaxed end
|  4> *xyz 0 1
|  5>  C        0.0513137544     1.4284187116     0.0806639657
|  6>  C        0.0153259640    -0.0546174997    -0.0352238160
|  7>  C        0.0557090042    -0.8758412512    -1.0884256380
|  8>  C       -0.0187015592    -2.2316015680    -0.4201249166
|  9>  O        0.9676149778    -2.0732679314     0.7171777771
| 10>  C       -0.0592100013    -1.0583915905     1.1362584649
| 11>  C       -1.0414241513    -0.6460725283     2.2689847023
| 12>  N       -2.1188668326    -1.0546871165     1.2509932641
| 13>  C       -1.1061927595    -2.0348768678     0.7365966090
| 14>  H        0.8842481743     1.7627976577     0.7118464278
| 15>  H        0.1637363531     1.8954248876    -0.9015872796
| 16>  H       -0.8700598471     1.8148739465     0.5318911407
| 17>  H        0.1238934615    -0.6700479904    -2.1463373085
| 18>  H        0.1252638286    -3.1585005668    -0.9753467462
| 19>  H       -1.0057476217    -1.2966388572     3.1492358959
| 20>  H       -1.0805841072     0.4055434854     2.5661455386
| 21>  H       -2.9382848089    -1.4890681776     1.6703718150
| 22>  H       -1.0854816591    -2.9403493533     1.3542963536
| 23> *
| 24>
| 25>                          ****END OF INPUT****

CARTESIAN COORDINATES (ANGSTROEM)
---------------------------------
  C      0.051314    1.428419    0.080664
  C      0.015326   -0.054617   -0.035224
  C      0.055709   -0.875841   -1.088426
  C     -0.018702   -2.231602   -0.420125
  O      0.967615   -2.073268    0.717178
  C     -0.059210   -1.058392    1.136258
  C     -1.041424   -0.646073    2.268985
  N     -2.118867   -1.054687    1.250993
  C     -1.106193   -2.034877    0.736597
  H      0.884248    1.762798    0.711846
  H      0.163736    1.895425   -0.901587
  H     -0.870060    1.814874    0.531891
  H      0.123893   -0.670048   -2.146337
  H      0.125264   -3.158501   -0.975347
  H     -1.005748   -1.296639    3.149236
  H     -1.080584    0.405543    2.566146
  H     -2.938285   -1.489068    1.670372
  H     -1.085482   -2.940349    1.354296

 Total Charge           Charge          ....    0
 Multiplicity           Mult            ....    1
 Number of Electrons    NEL             ....   66
 Basis Dimension        Dim             ....  333

ORBITAL ENERGIES
----------------

  NO   OCC          E(Eh)            E(eV)
   0   2.0000     -20.553470      -559.2884
   1   2.0000     -15.567897      -423.6240
   2   2.0000     -11.306046      -307.6532
   3   2.0000     -11.287911      -307.1597
   4   2.0000     -11.283093      -307.0286
   5   2.0000     -11.260268      -306.4075
   6   2.0000     -11.237201      -305.7798
   7   2.0000     -11.226216      -305.4809
   8   2.0000     -11.219289      -305.2924
   9   2.0000      -1.375773       -37.4367
  10   2.0000      -1.231635       -33.5145
  11   2.0000      -1.091942       -29.7132
  12   2.0000      -0.991799       -26.9882
  13   2.0000      -0.957245       -26.0480
  14   2.0000      -0.916652       -24.9434
  15   2.0000      -0.867086       -23.5946
  16   2.0000      -0.761408       -20.7190
  17   2.0000      -0.704923       -19.1819
  18   2.0000      -0.683947       -18.6112
  19   2.0000      -0.651327       -17.7235
  20   2.0000      -0.621831       -16.9209
  21   2.0000      -0.610772       -16.6200
  22   2.0000      -0.570927       -15.5357
  23   2.0000      -0.563214       -15.3258
  24   2.0000      -0.549454       -14.9514
  25   2.0000      -0.536911       -14.6101
  26   2.0000      -0.518424       -14.1070
  27   2.0000      -0.499445       -13.5906
  28   2.0000      -0.473610       -12.8876
  29   2.0000      -0.427968       -11.6456
  30   2.0000      -0.417333       -11.3562
  31   2.0000      -0.372359       -10.1324
  32   2.0000      -0.335236        -9.1222
  33   0.0000       0.126687         3.4473
  34   0.0000       0.137874         3.7517
  35   0.0000       0.151560         4.1242
  36   0.0000       0.164351         4.4722
  37   0.0000       0.171913         4.6780

MULLIKEN ATOMIC CHARGES
-----------------------
   0 C :   -0.477189
   1 C :    0.031681
   2 C :   -0.270786
   3 C :    0.075396
   4 O :   -0.290015
   5 C :    0.219071
   6 C :   -0.175626
   7 N :   -0.343675
   8 C :   -0.065693
   9 H :    0.150119
  10 H :    0.143349
  11 H :    0.153613
  12 H :    0.134849
  13 H :    0.139947
  14 H :    0.133494
  15 H :    0.129905
  16 H :    0.204891
  17 H :    0.106669
Sum of atomic charges:    0.0000000

LOEWDIN ATOMIC CHARGES
----------------------
   0 C :   -0.273014
   1 C :   -0.132033
   2 C :   -0.111958
   3 C :   -0.190794
   4 O :    0.133069
   5 C :   -0.227931
   6 C :   -0.204235
   7 N :   -0.006032
   8 C :   -0.206480
   9 H :    0.134267
  10 H :    0.134063
  11 H :    0.135140
  12 H :    0.136390
  13 H :    0.130313
  14 H :    0.127981
  15 H :    0.123396
  16 H :    0.153062
  17 H :    0.144797

  Mayer bond orders larger than 0.1
B(  0-C ,  1-C ) :   0.8555 B(  0-C ,  9-H ) :   0.9336 B(  0-C , 10-H ) :   0.9457
B(  0-C , 11-H ) :   0.9349 B(  1-C ,  2-C ) :   1.7247 B(  1-C ,  5-C ) :   0.9200
B(  2-C ,  3-C ) :   0.9729 B(  2-C , 12-H ) :   0.9165 B(  3-C ,  4-O ) :   0.8790
B(  3-C ,  8-C ) :   0.8790 B(  3-C , 13-H ) :   0.8964 B(  4-O ,  5-C ) :   0.9256
B(  5-C ,  6-C ) :   0.8739 B(  5-C ,  8-C ) :   0.9452 B(  6-C ,  7-N ) :   0.9352
B(  6-C , 14-H ) :   0.9200 B(  6-C , 15-H ) :   0.9110 B(  7-N ,  8-C ) :   0.9656
B(  7-N , 16-H ) :   0.8689 B(  8-C , 17-H ) :   0.9319

MP2 TOTAL ENERGY:     -401.102134989 Eh
FINAL SINGLE POINT ENERGY      -401.102134988862

DIPOLE MOMENT
-------------
                                X             Y             Z
Electronic contribution:      1.57114      -4.48383      -0.77234
Nuclear contribution   :     -2.22347       4.58214       0.99259
                        -----------------------------------------
Total Dipole Moment    :     -0.65233       0.09830       0.22025
                        -----------------------------------------
Magnitude (a.u.)       :      0.69549
Magnitude (Debye)      :      1.76781

                             ****ORCA TERMINATED NORMALLY****
TOTAL RUN TIME: 0 days 0 hours 20 minutes 22 seconds 860 msec
