                         Program Version 3.0.3 - RELEASE   -
|  1> ! RI-MP2 RIJK def2-TZVP def2-TZVP/C def2-TZVP/JK TIGHTSCF
|  2> % maxcore 2000
|  3> % mp2 density relaxed end
|  4> *xyz 0 1
|  5>  C        0.0229583547     1.4580345884    -0.1694158419
|  6>  C        0.0263303554    -0.0230801019     0.1578503281
|  7>  O        0.2461926944    -0.8192676889    -1.0061716968
|  8>  C        1.4206767082    -1.5891272414    -0.8020642393
|  9>  C        1.5988313942    -1.6055120039     0.7261495046
| 10>  C        0.7687312542    -2.7135919379     1.3869092488
| 11>  C        3.0535067362    -1.6398248323     1.1756880739
| 12>  O        1.0680165316    -0.3130593508     1.0632934448
| 13>  H        0.9845961739     1.7466871261    -0.6016776919
| 14>  H       -0.7730964071     1.6783356930    -0.8855161461
| 15>  H       -0.1492281538     2.0425455671     0.7388699697
| 16>  H       -0.9466019788    -0.3256001274     0.5815536607
| 17>  H        1.2688547217    -2.5846920881    -1.2308819685
| 18>  H        2.2871132195    -1.1210715720    -1.2917427028
| 19>  H        1.2019358749    -3.6978316474     1.1815656273
| 20>  H        0.7410017631    -2.5668170105     2.4702605763
| 21>  H       -0.2581600872    -2.7121158881     1.0101551121
| 22>  H        3.6040236653    -0.7971923376     0.7492918411
| 23>  H        3.1197315998    -1.5780675857     2.2657132847
| 24>  H        3.5334700699    -2.5710153607     0.8584018552
| 25> *
| 26>
| 27>                          ****END OF INPUT****

CARTESIAN COORDINATES (ANGSTROEM)
---------------------------------
  C      0.022958    1.458035   -0.169416
  C      0.026330   -0.023080    0.157850
  O      0.246193   -0.819268   -1.006172
  C      1.420677   -1.589127   -0.802064
  C      1.598831   -1.605512    0.726150
  C      0.768731   -2.713592    1.386909
  C      3.053507   -1.639825    1.175688
  O      1.068017   -0.313059    1.063293
  H      0.984596    1.746687   -0.601678
  H     -0.773096    1.678336   -0.885516
  H     -0.149228    2.042546    0.738870
  H     -0.946602   -0.325600    0.581554
  H      1.268855   -2.584692   -1.230882
  H      2.287113   -1.121072   -1.291743
  H      1.201936   -3.697832    1.181566
  H      0.741002   -2.566817    2.470261
  H     -0.258160   -2.712116    1.010155
  H      3.604024   -0.797192    0.749292
  H      3.119732   -1.578068    2.265713
  H      3.533470   -2.571015    0.858402

 Total Charge           Charge          ....    0
 Multiplicity           Mult            ....    1
 Number of Electrons    NEL             ....   64
 Basis Dimension        Dim             ....  320

ORBITAL ENERGIES
----------------

  NO   OCC          E(Eh)            E(eV)
   0   2.0000     -20.556899      -559.3817
   1   2.0000     -20.555395      -559.3407
   2   2.0000     -11.327325      -308.2322
   3   2.0000     -11.291167      -307.2483
   4   2.0000     -11.275809      -306.8304
   5   2.0000     -11.220335      -305.3208
   6   2.0000     -11.218622      -305.2742
   7   2.0000     -11.212133      -305.0977
   8   2.0000      -1.432171       -38.9714
   9   2.0000      -1.326548       -36.0972
  10   2.0000      -1.086503       -29.5652
  11   2.0000      -0.994835       -27.0708
  12   2.0000      -0.946099       -25.7447
  13   2.0000      -0.921048       -25.0630
  14   2.0000      -0.816663       -22.2225
  15   2.0000      -0.785824       -21.3833
  16   2.0000      -0.702133       -19.1060
  17   2.0000      -0.671474       -18.2717
  18   2.0000      -0.638295       -17.3689
  19   2.0000      -0.612721       -16.6730
  20   2.0000      -0.590919       -16.0797
  21   2.0000      -0.573999       -15.6193
  22   2.0000      -0.562230       -15.2991
  23   2.0000      -0.553431       -15.0596
  24   2.0000      -0.535161       -14.5625
  25   2.0000      -0.529327       -14.4037
  26   2.0000      -0.516562       -14.0564
  27   2.0000      -0.508226       -13.8295
  28   2.0000      -0.502196       -13.6654
  29   2.0000      -0.467722       -12.7274
  30   2.0000      -0.432041       -11.7564
  31   2.0000      -0.409105       -11.1323
  32   0.0000       0.131579         3.5805
  33   0.0000       0.160495         4.3673
  34   0.0000       0.169255         4.6057
  35   0.0000       0.190521         5.1843
  36   0.0000       0.193022         5.2524

MULLIKEN ATOMIC CHARGES
-----------------------
   0 C :   -0.359798
   1 C :    0.213063
   2 O :   -0.332584
   3 C :   -0.030024
   4 C :    0.195414
   5 C :   -0.449245
   6 C :   -0.391060
   7 O :   -0.317072
   8 H :    0.121893
   9 H :    0.130237
  10 H :    0.130450
  11 H :    0.070060
  12 H :    0.109875
  13 H :    0.089488
  14 H :    0.129662
  15 H :    0.138865
  16 H :    0.147674
  17 H :    0.136213
  18 H :    0.138528
  19 H :    0.128360
Sum of atomic charges:    0.0000000

LOEWDIN ATOMIC CHARGES
----------------------
   0 C :   -0.292648
   1 C :   -0.410824
   2 O :    0.160987
   3 C :   -0.270431
   4 C :   -0.397031
   5 C :   -0.270461
   6 C :   -0.267927
   7 O :    0.213219
   8 H :    0.126087
   9 H :    0.127903
  10 H :    0.128146
  11 H :    0.122893
  12 H :    0.130186
  13 H :    0.123147
  14 H :    0.127661
  15 H :    0.129114
  16 H :    0.130805
  17 H :    0.128955
  18 H :    0.130658
  19 H :    0.129560

  Mayer bond orders larger than 0.1
B(  0-C ,  1-C ) :   0.9228 B(  0-C ,  8-H ) :   0.9328 B(  0-C ,  9-H ) :   0.9331
B(  0-C , 10-H ) :   0.9339 B(  1-C ,  2-O ) :   0.9176 B(  1-C ,  7-O ) :   0.9793
B(  1-C , 11-H ) :   0.9259 B(  2-O ,  3-C ) :   0.9596 B(  3-C ,  4-C ) :   0.9347
B(  3-C , 12-H ) :   0.9103 B(  3-C , 13-H ) :   0.9179 B(  4-C ,  5-C ) :   0.9304
B(  4-C ,  6-C ) :   0.8991 B(  4-C ,  7-O ) :   0.9000 B(  5-C , 14-H ) :   0.9323
B(  5-C , 15-H ) :   0.9369 B(  5-C , 16-H ) :   0.9262 B(  6-C , 17-H ) :   0.9368
B(  6-C , 18-H ) :   0.9353 B(  6-C , 19-H ) :   0.9328

MP2 TOTAL ENERGY:     -385.528143301 Eh
FINAL SINGLE POINT ENERGY      -385.528143300611

DIPOLE MOMENT
-------------
                                X             Y             Z
Electronic contribution:     -1.94692       1.26282      -1.80822
Nuclear contribution   :      2.21212      -1.61317       1.93515
                        -----------------------------------------
Total Dipole Moment    :      0.26519      -0.35034       0.12693
                        -----------------------------------------
Magnitude (a.u.)       :      0.45736
Magnitude (Debye)      :      1.16253

                             ****ORCA TERMINATED NORMALLY****
TOTAL RUN TIME: 0 days 0 hours 13 minutes 38 seconds 342 msec
