                         Program Version 3.0.3 - RELEASE   -
|  1> ! RI-MP2 RIJK def2-TZVP def2-TZVP/C def2-TZVP/JK TIGHTSCF
|  2> % maxcore 2000
|  3> % mp2 density relaxed end
|  4> *xyz 0 1
|  5>  C        0.3700034580     1.1706947669     0.4199157130
|  6>  O        0.2899435097    -0.2127764392     0.1718346317
|  7>  C        0.4872601060    -0.5686234463    -1.1878810765
|  8>  C        1.9486699370    -0.5145716550    -1.5929800923
|  9>  C        2.5069650514    -1.7236903125    -1.5745523658
| 10>  C        1.5220808907    -2.8072319251    -1.2171241662
| 11>  C        0.1550111481    -2.0796327271    -1.3771508448
| 12>  C       -0.9211515431    -2.5909892012    -0.5447816388
| 13>  C       -1.8127836249    -3.0485709492     0.1184609420
| 14>  H        1.3782112891     1.5739183884     0.2422725152
| 15>  H       -0.3419508148     1.7366261767    -0.2023135077
| 16>  H        0.1157269457     1.3235921002     1.4716149300
| 17>  H       -0.1604850553     0.0606202053    -1.8178692258
| 18>  H        2.4658737469     0.4144286020    -1.8020335697
| 19>  H        3.5536777754    -1.9327041194    -1.7686705292
| 20>  H        1.5894606688    -3.6880379299    -1.8635645913
| 21>  H        1.6711853070    -3.1547536173    -0.1878239144
| 22>  H       -0.1385991706    -2.1871566034    -2.4288093726
| 23>  H       -2.5983395651    -3.4378345642     0.7169751832
| 24> *
| 25>
| 26>                          ****END OF INPUT****

CARTESIAN COORDINATES (ANGSTROEM)
---------------------------------
  C      0.370003    1.170695    0.419916
  O      0.289944   -0.212776    0.171835
  C      0.487260   -0.568623   -1.187881
  C      1.948670   -0.514572   -1.592980
  C      2.506965   -1.723690   -1.574552
  C      1.522081   -2.807232   -1.217124
  C      0.155011   -2.079633   -1.377151
  C     -0.921152   -2.590989   -0.544782
  C     -1.812784   -3.048571    0.118461
  H      1.378211    1.573918    0.242273
  H     -0.341951    1.736626   -0.202314
  H      0.115727    1.323592    1.471615
  H     -0.160485    0.060620   -1.817869
  H      2.465874    0.414429   -1.802034
  H      3.553678   -1.932704   -1.768671
  H      1.589461   -3.688038   -1.863565
  H      1.671185   -3.154754   -0.187824
  H     -0.138599   -2.187157   -2.428809
  H     -2.598340   -3.437835    0.716975

 Total Charge           Charge          ....    0
 Multiplicity           Mult            ....    1
 Number of Electrons    NEL             ....   66
 Basis Dimension        Dim             ....  339

ORBITAL ENERGIES
----------------

  NO   OCC          E(Eh)            E(eV)
   0   2.0000     -20.552301      -559.2566
   1   2.0000     -11.290661      -307.2345
   2   2.0000     -11.269447      -306.6573
   3   2.0000     -11.255519      -306.2783
   4   2.0000     -11.237978      -305.8009
   5   2.0000     -11.234473      -305.7056
   6   2.0000     -11.227054      -305.5037
   7   2.0000     -11.224335      -305.4297
   8   2.0000     -11.211041      -305.0679
   9   2.0000      -1.375246       -37.4223
  10   2.0000      -1.144118       -31.1330
  11   2.0000      -1.039470       -28.2854
  12   2.0000      -0.973773       -26.4977
  13   2.0000      -0.964293       -26.2398
  14   2.0000      -0.904760       -24.6198
  15   2.0000      -0.814109       -22.1530
  16   2.0000      -0.744611       -20.2619
  17   2.0000      -0.718907       -19.5624
  18   2.0000      -0.693466       -18.8702
  19   2.0000      -0.672432       -18.2978
  20   2.0000      -0.635882       -17.3032
  21   2.0000      -0.617655       -16.8073
  22   2.0000      -0.605903       -16.4875
  23   2.0000      -0.549364       -14.9490
  24   2.0000      -0.542464       -14.7612
  25   2.0000      -0.521656       -14.1950
  26   2.0000      -0.520403       -14.1609
  27   2.0000      -0.504346       -13.7239
  28   2.0000      -0.474622       -12.9151
  29   2.0000      -0.420823       -11.4512
  30   2.0000      -0.375613       -10.2209
  31   2.0000      -0.374386       -10.1876
  32   2.0000      -0.363377        -9.8880
  33   0.0000       0.134033         3.6472
  34   0.0000       0.145026         3.9464
  35   0.0000       0.156434         4.2568
  36   0.0000       0.167556         4.5594
  37   0.0000       0.171031         4.6540

MULLIKEN ATOMIC CHARGES
-----------------------
   0 C :   -0.233231
   1 O :   -0.294432
   2 C :    0.153813
   3 C :   -0.229867
   4 C :   -0.155910
   5 C :   -0.183301
   6 C :   -0.180166
   7 C :    0.009066
   8 C :   -0.174346
   9 H :    0.111787
  10 H :    0.110839
  11 H :    0.143035
  12 H :    0.086693
  13 H :    0.136342
  14 H :    0.130625
  15 H :    0.129961
  16 H :    0.131529
  17 H :    0.120725
  18 H :    0.186838
Sum of atomic charges:   -0.0000000

LOEWDIN ATOMIC CHARGES
----------------------
   0 C :   -0.358220
   1 O :    0.170836
   2 C :   -0.269909
   3 C :   -0.147066
   4 C :   -0.140709
   5 C :   -0.197914
   6 C :   -0.195187
   7 C :   -0.085768
   8 C :   -0.100534
   9 H :    0.101100
  10 H :    0.101700
  11 H :    0.114972
  12 H :    0.135915
  13 H :    0.137216
  14 H :    0.138277
  15 H :    0.140598
  16 H :    0.151777
  17 H :    0.177780
  18 H :    0.125136

  Mayer bond orders larger than 0.1
B(  0-C ,  1-O ) :   0.9211 B(  0-C ,  9-H ) :   0.9316 B(  0-C , 10-H ) :   0.9350
B(  0-C , 11-H ) :   0.9414 B(  1-O ,  2-C ) :   0.9728 B(  1-O ,  6-C ) :  -0.1179
B(  2-C ,  3-C ) :   0.9224 B(  2-C ,  6-C ) :   0.9153 B(  2-C , 12-H ) :   0.9311
B(  3-C ,  4-C ) :   1.7883 B(  3-C , 13-H ) :   0.9218 B(  4-C ,  5-C ) :   0.9496
B(  4-C , 14-H ) :   0.9284 B(  5-C ,  6-C ) :   0.9357 B(  5-C , 15-H ) :   0.9237
B(  5-C , 16-H ) :   0.9008 B(  6-C ,  7-C ) :   1.1560 B(  6-C , 17-H ) :   0.9120
B(  7-C ,  8-C ) :   2.6006 B(  8-C , 18-H ) :   0.8920

MP2 TOTAL ENERGY:     -385.161417983 Eh
FINAL SINGLE POINT ENERGY      -385.161417983489

DIPOLE MOMENT
-------------
                                X             Y             Z
Electronic contribution:     -1.85706      -3.15036       0.00637
Nuclear contribution   :      2.20036       3.49841      -0.35816
                        -----------------------------------------
Total Dipole Moment    :      0.34330       0.34805      -0.35180
                        -----------------------------------------
Magnitude (a.u.)       :      0.60229
Magnitude (Debye)      :      1.53090

                             ****ORCA TERMINATED NORMALLY****
TOTAL RUN TIME: 0 days 0 hours 31 minutes 4 seconds 603 msec
