                         Program Version 3.0.3 - RELEASE   -
|  1> ! RI-MP2 RIJK def2-TZVP def2-TZVP/C def2-TZVP/JK TIGHTSCF
|  2> % maxcore 2000
|  3> % mp2 density relaxed end
|  4> *xyz 0 1
|  5>  O       -0.1842257825     1.4310988467    -0.0010345119
|  6>  C       -0.0530222494     0.0239075136     0.0168087654
|  7>  C       -1.3922488751    -0.6425911134    -0.0894398506
|  8>  C       -2.5261536631    -0.4168990194    -1.1223406359
|  9>  C       -3.0783412809    -1.2206046490     0.0924198946
| 10>  C       -1.8206743310    -2.1252389748     0.0525658211
| 11>  O       -2.3664378079    -0.2903485761     0.9969896922
| 12>  C       -4.5002784716    -1.5534986784     0.4107516488
| 13>  O       -5.0727486210    -2.5126528880    -0.0380649189
| 14>  H       -0.8391897819     1.6558135708     0.6705818321
| 15>  H        0.5689471619    -0.2543653092    -0.8406606590
| 16>  H        0.4510262271    -0.3329047815     0.9291547287
| 17>  H       -2.8871044645     0.6079633337    -1.1997232773
| 18>  H       -2.4617816022    -0.9325497970    -2.0822833661
| 19>  H       -1.6951762086    -2.7833796432    -0.8084959443
| 20>  H       -1.5669656436    -2.5975290047     1.0018536369
| 21>  H       -4.9932688758    -0.8240472802     1.0905436541
| 22> *
| 23>
| 24>                          ****END OF INPUT****

CARTESIAN COORDINATES (ANGSTROEM)
---------------------------------
  O     -0.184226    1.431099   -0.001035
  C     -0.053022    0.023908    0.016809
  C     -1.392249   -0.642591   -0.089440
  C     -2.526154   -0.416899   -1.122341
  C     -3.078341   -1.220605    0.092420
  C     -1.820674   -2.125239    0.052566
  O     -2.366438   -0.290349    0.996990
  C     -4.500278   -1.553499    0.410752
  O     -5.072749   -2.512653   -0.038065
  H     -0.839190    1.655814    0.670582
  H      0.568947   -0.254365   -0.840661
  H      0.451026   -0.332905    0.929155
  H     -2.887104    0.607963   -1.199723
  H     -2.461782   -0.932550   -2.082283
  H     -1.695176   -2.783380   -0.808496
  H     -1.566966   -2.597529    1.001854
  H     -4.993269   -0.824047    1.090544

 Total Charge           Charge          ....    0
 Multiplicity           Mult            ....    1
 Number of Electrons    NEL             ....   68
 Basis Dimension        Dim             ....  327

ORBITAL ENERGIES
----------------

  NO   OCC          E(Eh)            E(eV)
   0   2.0000     -20.574636      -559.8643
   1   2.0000     -20.570554      -559.7532
   2   2.0000     -20.567769      -559.6775
   3   2.0000     -11.347474      -308.7805
   4   2.0000     -11.327419      -308.2347
   5   2.0000     -11.324692      -308.1605
   6   2.0000     -11.295098      -307.3552
   7   2.0000     -11.260385      -306.4107
   8   2.0000     -11.259803      -306.3948
   9   2.0000      -1.423877       -38.7457
  10   2.0000      -1.408418       -38.3250
  11   2.0000      -1.371997       -37.3339
  12   2.0000      -1.102940       -30.0125
  13   2.0000      -1.006820       -27.3970
  14   2.0000      -0.948953       -25.8223
  15   2.0000      -0.934873       -25.4392
  16   2.0000      -0.789463       -21.4824
  17   2.0000      -0.765756       -20.8373
  18   2.0000      -0.724588       -19.7171
  19   2.0000      -0.680234       -18.5101
  20   2.0000      -0.670134       -18.2353
  21   2.0000      -0.648400       -17.6439
  22   2.0000      -0.647206       -17.6114
  23   2.0000      -0.624960       -17.0060
  24   2.0000      -0.589654       -16.0453
  25   2.0000      -0.559251       -15.2180
  26   2.0000      -0.542416       -14.7599
  27   2.0000      -0.526119       -14.3164
  28   2.0000      -0.513084       -13.9617
  29   2.0000      -0.501858       -13.6563
  30   2.0000      -0.475071       -12.9273
  31   2.0000      -0.466539       -12.6952
  32   2.0000      -0.434717       -11.8292
  33   2.0000      -0.419724       -11.4213
  34   0.0000       0.105590         2.8732
  35   0.0000       0.135137         3.6773
  36   0.0000       0.158378         4.3097
  37   0.0000       0.166503         4.5308
  38   0.0000       0.175720         4.7816

MULLIKEN ATOMIC CHARGES
-----------------------
   0 O :   -0.464260
   1 C :    0.014135
   2 C :   -0.062300
   3 C :   -0.098980
   4 C :    0.087799
   5 C :   -0.093665
   6 O :   -0.331845
   7 C :    0.026285
   8 O :   -0.251913
   9 H :    0.329083
  10 H :    0.118425
  11 H :    0.116753
  12 H :    0.121256
  13 H :    0.132363
  14 H :    0.132203
  15 H :    0.122514
  16 H :    0.102146
Sum of atomic charges:    0.0000000

LOEWDIN ATOMIC CHARGES
----------------------
   0 O :   -0.032149
   1 C :   -0.315129
   2 C :   -0.274858
   3 C :   -0.136245
   4 C :   -0.275295
   5 C :   -0.139523
   6 O :    0.147002
   7 C :   -0.253737
   8 O :    0.152495
   9 H :    0.181889
  10 H :    0.140376
  11 H :    0.130926
  12 H :    0.138917
  13 H :    0.136672
  14 H :    0.138103
  15 H :    0.138818
  16 H :    0.121740

  Mayer bond orders larger than 0.1
B(  0-O ,  1-C ) :   0.9390 B(  0-O ,  9-H ) :   0.8322 B(  1-C ,  2-C ) :   0.8784
B(  1-C , 10-H ) :   0.9186 B(  1-C , 11-H ) :   0.9471 B(  2-C ,  3-C ) :   0.8968
B(  2-C ,  5-C ) :   0.8538 B(  2-C ,  6-O ) :   0.8710 B(  3-C ,  4-C ) :   0.8861
B(  3-C , 12-H ) :   0.9067 B(  3-C , 13-H ) :   0.9164 B(  4-C ,  5-C ) :   0.8879
B(  4-C ,  6-O ) :   0.9224 B(  4-C ,  7-C ) :   0.7547 B(  4-C , 16-H ) :  -0.1042
B(  5-C , 14-H ) :   0.9044 B(  5-C , 15-H ) :   0.9101 B(  7-C ,  8-O ) :   2.0405
B(  7-C , 16-H ) :   0.9831

MP2 TOTAL ENERGY:     -458.163798817 Eh
FINAL SINGLE POINT ENERGY      -458.163798817343

DIPOLE MOMENT
-------------
                                X             Y             Z
Electronic contribution:     -4.29079      -0.74198       1.44241
Nuclear contribution   :      4.74070       0.67439      -1.52529
                        -----------------------------------------
Total Dipole Moment    :      0.44991      -0.06758      -0.08288
                        -----------------------------------------
Magnitude (a.u.)       :      0.46245
Magnitude (Debye)      :      1.17545

                             ****ORCA TERMINATED NORMALLY****
TOTAL RUN TIME: 0 days 0 hours 14 minutes 52 seconds 3 msec
