                         Program Version 3.0.3 - RELEASE   -
|  1> ! RI-MP2 RIJK def2-TZVP def2-TZVP/C def2-TZVP/JK TIGHTSCF
|  2> % maxcore 2000
|  3> % mp2 density relaxed end
|  4> *xyz 0 1
|  5>  C       -0.0448925367     1.5781227191    -0.0423290377
|  6>  C       -0.0149884028     0.0550884759    -0.0175136810
|  7>  C       -1.3994553043    -0.5607903328     0.2020963955
|  8>  O       -1.9299965870    -0.3035213436     1.4912520130
|  9>  C        0.7240463141    -0.6377380166    -1.1781493726
| 10>  O        2.0983070240    -0.2251247443    -1.1294606490
| 11>  C        1.6722807881    -1.3030248780    -0.2719970557
| 12>  C        1.0605160807    -0.6148650359     0.9560496330
| 13>  O        1.9156812168     0.2200377350     1.6838987358
| 14>  H        0.9237884176     1.9825464870    -0.3448424380
| 15>  H       -0.7980995792     1.9471200671    -0.7484503142
| 16>  H       -0.2693066050     1.9843398959     0.9497893009
| 17>  H       -2.0860173494    -0.2179726560    -0.5897040179
| 18>  H       -1.3387177620    -1.6527758071     0.1240013334
| 19>  H       -2.0419183358     0.6476014062     1.5845908158
| 20>  H        0.3432568385    -0.9581531773    -2.1419352233
| 21>  H        2.2093374396    -2.2403898049    -0.3613225529
| 22>  H        0.5812947644    -1.2908211047     1.6665862626
| 23>  H        2.4689884785     0.6716509449     1.0339065122
| 24> *
| 25>
| 26>                          ****END OF INPUT****

CARTESIAN COORDINATES (ANGSTROEM)
---------------------------------
  C     -0.044893    1.578123   -0.042329
  C     -0.014988    0.055088   -0.017514
  C     -1.399455   -0.560790    0.202096
  O     -1.929997   -0.303521    1.491252
  C      0.724046   -0.637738   -1.178149
  O      2.098307   -0.225125   -1.129461
  C      1.672281   -1.303025   -0.271997
  C      1.060516   -0.614865    0.956050
  O      1.915681    0.220038    1.683899
  H      0.923788    1.982546   -0.344842
  H     -0.798100    1.947120   -0.748450
  H     -0.269307    1.984340    0.949789
  H     -2.086017   -0.217973   -0.589704
  H     -1.338718   -1.652776    0.124001
  H     -2.041918    0.647601    1.584591
  H      0.343257   -0.958153   -2.141935
  H      2.209337   -2.240390   -0.361323
  H      0.581295   -1.290821    1.666586
  H      2.468988    0.671651    1.033907

 Total Charge           Charge          ....    0
 Multiplicity           Mult            ....    1
 Number of Electrons    NEL             ....   70
 Basis Dimension        Dim             ....  339

ORBITAL ENERGIES
----------------

  NO   OCC          E(Eh)            E(eV)
   0   2.0000     -20.582761      -560.0854
   1   2.0000     -20.564484      -559.5881
   2   2.0000     -20.559520      -559.4530
   3   2.0000     -11.298494      -307.4477
   4   2.0000     -11.293270      -307.3055
   5   2.0000     -11.291850      -307.2669
   6   2.0000     -11.287004      -307.1350
   7   2.0000     -11.251279      -306.1629
   8   2.0000     -11.225088      -305.4502
   9   2.0000      -1.433567       -39.0093
  10   2.0000      -1.370047       -37.2809
  11   2.0000      -1.365326       -37.1524
  12   2.0000      -1.109498       -30.1910
  13   2.0000      -0.989671       -26.9303
  14   2.0000      -0.934571       -25.4310
  15   2.0000      -0.887859       -24.1599
  16   2.0000      -0.841500       -22.8984
  17   2.0000      -0.774774       -21.0827
  18   2.0000      -0.730923       -19.8894
  19   2.0000      -0.687892       -18.7185
  20   2.0000      -0.670402       -18.2426
  21   2.0000      -0.643477       -17.5099
  22   2.0000      -0.625272       -17.0145
  23   2.0000      -0.610551       -16.6139
  24   2.0000      -0.595574       -16.2064
  25   2.0000      -0.562073       -15.2948
  26   2.0000      -0.553596       -15.0641
  27   2.0000      -0.546145       -14.8614
  28   2.0000      -0.533887       -14.5278
  29   2.0000      -0.505942       -13.7674
  30   2.0000      -0.492485       -13.4012
  31   2.0000      -0.473395       -12.8817
  32   2.0000      -0.442905       -12.0521
  33   2.0000      -0.419510       -11.4155
  34   2.0000      -0.408325       -11.1111
  35   0.0000       0.129144         3.5142
  36   0.0000       0.147412         4.0113
  37   0.0000       0.165583         4.5058
  38   0.0000       0.170492         4.6393
  39   0.0000       0.181220         4.9313

MULLIKEN ATOMIC CHARGES
-----------------------
   0 C :   -0.469283
   1 C :    0.133949
   2 C :   -0.076079
   3 O :   -0.466103
   4 C :   -0.035575
   5 O :   -0.338298
   6 C :   -0.066674
   7 C :    0.051161
   8 O :   -0.454282
   9 H :    0.141964
  10 H :    0.138071
  11 H :    0.145102
  12 H :    0.111668
  13 H :    0.119519
  14 H :    0.318712
  15 H :    0.142107
  16 H :    0.137250
  17 H :    0.137338
  18 H :    0.329455
Sum of atomic charges:   -0.0000000

LOEWDIN ATOMIC CHARGES
----------------------
   0 C :   -0.279551
   1 C :   -0.265277
   2 C :   -0.305878
   3 O :   -0.035054
   4 C :   -0.205928
   5 O :    0.163315
   6 C :   -0.222504
   7 C :   -0.273791
   8 O :    0.003969
   9 H :    0.131467
  10 H :    0.128219
  11 H :    0.128747
  12 H :    0.122434
  13 H :    0.136400
  14 H :    0.174908
  15 H :    0.134546
  16 H :    0.130959
  17 H :    0.150561
  18 H :    0.182457

  Mayer bond orders larger than 0.1
B(  0-C ,  1-C ) :   0.8877 B(  0-C ,  9-H ) :   0.9319 B(  0-C , 10-H ) :   0.9363
B(  0-C , 11-H ) :   0.9311 B(  1-C ,  2-C ) :   0.9111 B(  1-C ,  4-C ) :   0.8415
B(  1-C ,  7-C ) :   0.8506 B(  2-C ,  3-O ) :   0.9340 B(  2-C , 12-H ) :   0.9355
B(  2-C , 13-H ) :   0.9178 B(  3-O , 14-H ) :   0.8455 B(  4-C ,  5-O ) :   0.9057
B(  4-C ,  6-C ) :   0.9160 B(  4-C , 15-H ) :   0.9196 B(  5-O ,  6-C ) :   0.8666
B(  6-C ,  7-C ) :   0.9191 B(  6-C , 16-H ) :   0.9396 B(  7-C ,  8-O ) :   1.0037
B(  7-C , 17-H ) :   0.9211 B(  8-O , 18-H ) :   0.8270

MP2 TOTAL ENERGY:     -459.389336244 Eh
FINAL SINGLE POINT ENERGY      -459.389336243535

DIPOLE MOMENT
-------------
                                X             Y             Z
Electronic contribution:      3.74218      -2.36205       0.26768
Nuclear contribution   :     -4.12821       2.39878      -1.01968
                        -----------------------------------------
Total Dipole Moment    :     -0.38603       0.03673      -0.75200
                        -----------------------------------------
Magnitude (a.u.)       :      0.84609
Magnitude (Debye)      :      2.15059

                             ****ORCA TERMINATED NORMALLY****
TOTAL RUN TIME: 0 days 0 hours 17 minutes 52 seconds 91 msec
