                         Program Version 3.0.3 - RELEASE   -
|  1> ! RI-MP2 RIJK def2-TZVP def2-TZVP/C def2-TZVP/JK TIGHTSCF
|  2> % maxcore 2000
|  3> % mp2 density relaxed end
|  4> *xyz 0 1
|  5>  O        0.1682243797     1.3301130037    -0.3777516843
|  6>  C        0.0544542810    -0.0416183909    -0.0298080638
|  7>  C       -1.4252126621    -0.3829096574     0.0737664259
|  8>  C       -2.2052036380    -0.1587099459    -1.2436065793
|  9>  C       -3.3420786125    -1.1849726176    -1.1911096232
| 10>  C       -2.6392049202    -2.4423565169    -0.6252900637
| 11>  C       -1.6755317543    -1.8703832067     0.4593757746
| 12>  C       -3.5378158686    -3.4773991011    -0.1378324630
| 13>  C       -4.2883365421    -4.3212210952     0.2759952888
| 14>  H        1.1017472574     1.5460282628    -0.4576874476
| 15>  H        0.5245516936    -0.6871042044    -0.7921478979
| 16>  H        0.5541911771    -0.2519195927     0.9298018369
| 17>  H       -1.8531561973     0.2651962554     0.8466308345
| 18>  H       -2.5519297248     0.8704778967    -1.3544366430
| 19>  H       -1.5534655803    -0.3712890622    -2.1014137295
| 20>  H       -4.1250521644    -0.8624692277    -0.4951375688
| 21>  H       -3.8158049147    -1.3718057756    -2.1583985495
| 22>  H       -2.0296725437    -2.8683016828    -1.4337144750
| 23>  H       -0.7487778411    -2.4517306195     0.5008259451
| 24>  H       -2.1402826135    -1.9464514410     1.4452314236
| 25>  H       -4.9492176614    -5.0695671611     0.6368113590
| 26> *
| 27>
| 28>                          ****END OF INPUT****

CARTESIAN COORDINATES (ANGSTROEM)
---------------------------------
  O      0.168224    1.330113   -0.377752
  C      0.054454   -0.041618   -0.029808
  C     -1.425213   -0.382910    0.073766
  C     -2.205204   -0.158710   -1.243607
  C     -3.342079   -1.184973   -1.191110
  C     -2.639205   -2.442357   -0.625290
  C     -1.675532   -1.870383    0.459376
  C     -3.537816   -3.477399   -0.137832
  C     -4.288337   -4.321221    0.275995
  H      1.101747    1.546028   -0.457687
  H      0.524552   -0.687104   -0.792148
  H      0.554191   -0.251920    0.929802
  H     -1.853156    0.265196    0.846631
  H     -2.551930    0.870478   -1.354437
  H     -1.553466   -0.371289   -2.101414
  H     -4.125052   -0.862469   -0.495138
  H     -3.815805   -1.371806   -2.158399
  H     -2.029673   -2.868302   -1.433714
  H     -0.748778   -2.451731    0.500826
  H     -2.140283   -1.946451    1.445231
  H     -4.949218   -5.069567    0.636811

 Total Charge           Charge          ....    0
 Multiplicity           Mult            ....    1
 Number of Electrons    NEL             ....   68
 Basis Dimension        Dim             ....  351

ORBITAL ENERGIES
----------------

  NO   OCC          E(Eh)            E(eV)
   0   2.0000     -20.556970      -559.3836
   1   2.0000     -11.276528      -306.8499
   2   2.0000     -11.250796      -306.1497
   3   2.0000     -11.227786      -305.5236
   4   2.0000     -11.227147      -305.5062
   5   2.0000     -11.225814      -305.4699
   6   2.0000     -11.223155      -305.3976
   7   2.0000     -11.216127      -305.2063
   8   2.0000     -11.214947      -305.1742
   9   2.0000      -1.361386       -37.0452
  10   2.0000      -1.137878       -30.9632
  11   2.0000      -1.043597       -28.3977
  12   2.0000      -0.992641       -27.0111
  13   2.0000      -0.962822       -26.1997
  14   2.0000      -0.887440       -24.1485
  15   2.0000      -0.808956       -22.0128
  16   2.0000      -0.766382       -20.8543
  17   2.0000      -0.715748       -19.4765
  18   2.0000      -0.697155       -18.9706
  19   2.0000      -0.665469       -18.1083
  20   2.0000      -0.649425       -17.6717
  21   2.0000      -0.634941       -17.2776
  22   2.0000      -0.583514       -15.8782
  23   2.0000      -0.577709       -15.7203
  24   2.0000      -0.536466       -14.5980
  25   2.0000      -0.507774       -13.8172
  26   2.0000      -0.500173       -13.6104
  27   2.0000      -0.482595       -13.1321
  28   2.0000      -0.477795       -13.0015
  29   2.0000      -0.472240       -12.8503
  30   2.0000      -0.457095       -12.4382
  31   2.0000      -0.438616       -11.9353
  32   2.0000      -0.378951       -10.3118
  33   2.0000      -0.375037       -10.2053
  34   0.0000       0.128464         3.4957
  35   0.0000       0.141785         3.8582
  36   0.0000       0.153185         4.1684
  37   0.0000       0.164841         4.4856
  38   0.0000       0.168012         4.5718

MULLIKEN ATOMIC CHARGES
-----------------------
   0 O :   -0.464820
   1 C :   -0.110084
   2 C :    0.006988
   3 C :   -0.232298
   4 C :   -0.196618
   5 C :   -0.221585
   6 C :   -0.287743
   7 C :   -0.002644
   8 C :   -0.141181
   9 H :    0.314463
  10 H :    0.092359
  11 H :    0.105302
  12 H :    0.095094
  13 H :    0.137718
  14 H :    0.103429
  15 H :    0.116328
  16 H :    0.126653
  17 H :    0.110988
  18 H :    0.123978
  19 H :    0.135675
  20 H :    0.187998
Sum of atomic charges:   -0.0000000

LOEWDIN ATOMIC CHARGES
----------------------
   0 O :   -0.044856
   1 C :   -0.339575
   2 C :   -0.244191
   3 C :   -0.231095
   4 C :   -0.218658
   5 C :   -0.232410
   6 C :   -0.185194
   7 C :   -0.091058
   8 C :   -0.107460
   9 H :    0.172072
  10 H :    0.115886
  11 H :    0.117334
  12 H :    0.154286
  13 H :    0.138414
  14 H :    0.140641
  15 H :    0.143330
  16 H :    0.136376
  17 H :    0.169621
  18 H :    0.138397
  19 H :    0.142814
  20 H :    0.125328

  Mayer bond orders larger than 0.1
B(  0-O ,  1-C ) :   1.0199 B(  0-O ,  9-H ) :   0.8483 B(  1-C ,  2-C ) :   0.9194
B(  1-C , 10-H ) :   0.9181 B(  1-C , 11-H ) :   0.9385 B(  2-C ,  3-C ) :   0.9348
B(  2-C ,  6-C ) :   0.8834 B(  2-C , 12-H ) :   0.9224 B(  3-C ,  4-C ) :   0.9174
B(  3-C , 13-H ) :   0.9299 B(  3-C , 14-H ) :   0.9246 B(  4-C ,  5-C ) :   0.9225
B(  4-C , 15-H ) :   0.9257 B(  4-C , 16-H ) :   0.9266 B(  5-C ,  6-C ) :   0.9114
B(  5-C ,  7-C ) :   1.1580 B(  5-C ,  8-C ) :  -0.1147 B(  5-C , 17-H ) :   0.9153
B(  6-C , 18-H ) :   0.9300 B(  6-C , 19-H ) :   0.9300 B(  7-C ,  8-C ) :   2.5923
B(  8-C , 20-H ) :   0.8900

MP2 TOTAL ENERGY:     -386.391815132 Eh
FINAL SINGLE POINT ENERGY      -386.391815132244

DIPOLE MOMENT
-------------
                                X             Y             Z
Electronic contribution:     -1.61763      -2.08751       0.57925
Nuclear contribution   :      2.26142       2.04585      -0.57386
                        -----------------------------------------
Total Dipole Moment    :      0.64379      -0.04166       0.00538
                        -----------------------------------------
Magnitude (a.u.)       :      0.64516
Magnitude (Debye)      :      1.63987

                             ****ORCA TERMINATED NORMALLY****
TOTAL RUN TIME: 0 days 0 hours 29 minutes 52 seconds 453 msec
