                         Program Version 3.0.3 - RELEASE   -
|  1> ! RI-MP2 RIJK def2-TZVP def2-TZVP/C def2-TZVP/JK TIGHTSCF
|  2> % maxcore 2000
|  3> % mp2 density relaxed end
|  4> *xyz 0 1
|  5>  C       -0.3316363772     1.5154372001    -0.0308860717
|  6>  C        0.0030262908     0.0311421208    -0.0124410496
|  7>  C        1.1502138925    -0.4229737014    -1.0555832180
|  8>  C        2.1577052511    -0.1974386678     0.1246977047
|  9>  C        2.9030895563    -0.8640914596     1.3533538929
| 10>  O        1.9108024692    -0.1212968915     2.2046878727
| 11>  C        1.0188929603    -0.5037097623     1.0464607921
| 12>  C        1.0425172622    -2.0382222715     1.1894445180
| 13>  C        2.3366798210    -2.2818668192     1.3915545703
| 14>  H        0.5609037525     2.1420982104     0.0510280117
| 15>  H       -0.8432508527     1.7781981175    -0.9626483128
| 16>  H       -0.9961527927     1.7730145307     0.7997451261
| 17>  H       -0.9186503233    -0.5584278478    -0.0689069392
| 18>  H        1.0191579296    -1.4646958963    -1.3530857934
| 19>  H        1.2822348865     0.2080031098    -1.9380051824
| 20>  H        2.3915008055     0.8684832889     0.1664298767
| 21>  H        3.9376743115    -0.6601294196     1.6302634884
| 22>  H        0.1880044002    -2.6979417751     1.1362125529
| 23>  H        2.8789174467    -3.1991065861     1.5668680805
| 24> *
| 25>
| 26>                          ****END OF INPUT****

CARTESIAN COORDINATES (ANGSTROEM)
---------------------------------
  C     -0.331636    1.515437   -0.030886
  C      0.003026    0.031142   -0.012441
  C      1.150214   -0.422974   -1.055583
  C      2.157705   -0.197439    0.124698
  C      2.903090   -0.864091    1.353354
  O      1.910802   -0.121297    2.204688
  C      1.018893   -0.503710    1.046461
  C      1.042517   -2.038222    1.189445
  C      2.336680   -2.281867    1.391555
  H      0.560904    2.142098    0.051028
  H     -0.843251    1.778198   -0.962648
  H     -0.996153    1.773015    0.799745
  H     -0.918650   -0.558428   -0.068907
  H      1.019158   -1.464696   -1.353086
  H      1.282235    0.208003   -1.938005
  H      2.391501    0.868483    0.166430
  H      3.937674   -0.660129    1.630263
  H      0.188004   -2.697942    1.136213
  H      2.878917   -3.199107    1.566868

 Total Charge           Charge          ....    0
 Multiplicity           Mult            ....    1
 Number of Electrons    NEL             ....   66
 Basis Dimension        Dim             ....  339

ORBITAL ENERGIES
----------------

  NO   OCC          E(Eh)            E(eV)
   0   2.0000     -20.546158      -559.0894
   1   2.0000     -11.304698      -307.6165
   2   2.0000     -11.285436      -307.0923
   3   2.0000     -11.256206      -306.2969
   4   2.0000     -11.245874      -306.0158
   5   2.0000     -11.233800      -305.6872
   6   2.0000     -11.230259      -305.5909
   7   2.0000     -11.227353      -305.5118
   8   2.0000     -11.222402      -305.3771
   9   2.0000      -1.367896       -37.2223
  10   2.0000      -1.143825       -31.1251
  11   2.0000      -1.067694       -29.0534
  12   2.0000      -0.983124       -26.7522
  13   2.0000      -0.931445       -25.3459
  14   2.0000      -0.880852       -23.9692
  15   2.0000      -0.820015       -22.3137
  16   2.0000      -0.751430       -20.4475
  17   2.0000      -0.730385       -19.8748
  18   2.0000      -0.671278       -18.2664
  19   2.0000      -0.630823       -17.1656
  20   2.0000      -0.618177       -16.8215
  21   2.0000      -0.597108       -16.2481
  22   2.0000      -0.576414       -15.6850
  23   2.0000      -0.553160       -15.0522
  24   2.0000      -0.541155       -14.7256
  25   2.0000      -0.537341       -14.6218
  26   2.0000      -0.505228       -13.7480
  27   2.0000      -0.484705       -13.1895
  28   2.0000      -0.465908       -12.6780
  29   2.0000      -0.443840       -12.0775
  30   2.0000      -0.421126       -11.4594
  31   2.0000      -0.371418       -10.1068
  32   2.0000      -0.349291        -9.5047
  33   0.0000       0.125350         3.4109
  34   0.0000       0.140785         3.8310
  35   0.0000       0.153407         4.1744
  36   0.0000       0.165240         4.4964
  37   0.0000       0.177457         4.8288

MULLIKEN ATOMIC CHARGES
-----------------------
   0 C :   -0.424931
   1 C :   -0.070899
   2 C :   -0.220980
   3 C :   -0.147454
   4 C :    0.064037
   5 O :   -0.294880
   6 C :    0.246258
   7 C :   -0.268449
   8 C :   -0.186770
   9 H :    0.133085
  10 H :    0.137346
  11 H :    0.140968
  12 H :    0.110882
  13 H :    0.137940
  14 H :    0.125582
  15 H :    0.104472
  16 H :    0.137670
  17 H :    0.135121
  18 H :    0.141004
Sum of atomic charges:    0.0000000

LOEWDIN ATOMIC CHARGES
----------------------
   0 C :   -0.291110
   1 C :   -0.190317
   2 C :   -0.179806
   3 C :   -0.160807
   4 C :   -0.200407
   5 O :    0.125908
   6 C :   -0.224219
   7 C :   -0.108668
   8 C :   -0.121459
   9 H :    0.126977
  10 H :    0.126773
  11 H :    0.129228
  12 H :    0.142605
  13 H :    0.138315
  14 H :    0.127227
  15 H :    0.157840
  16 H :    0.130253
  17 H :    0.136634
  18 H :    0.135035

  Mayer bond orders larger than 0.1
B(  0-C ,  1-C ) :   0.9198 B(  0-C ,  9-H ) :   0.9281 B(  0-C , 10-H ) :   0.9384
B(  0-C , 11-H ) :   0.9381 B(  1-C ,  2-C ) :   0.8863 B(  1-C ,  6-C ) :   0.8690
B(  1-C , 12-H ) :   0.9205 B(  2-C ,  3-C ) :   0.8985 B(  2-C , 13-H ) :   0.9069
B(  2-C , 14-H ) :   0.9146 B(  3-C ,  4-C ) :   0.9100 B(  3-C ,  6-C ) :   0.9273
B(  3-C , 15-H ) :   0.9224 B(  4-C ,  5-O ) :   0.8912 B(  4-C ,  8-C ) :   0.9542
B(  4-C , 16-H ) :   0.8934 B(  5-O ,  6-C ) :   0.9220 B(  6-C ,  7-C ) :   0.9058
B(  7-C ,  8-C ) :   1.7423 B(  7-C , 17-H ) :   0.9324 B(  8-C , 18-H ) :   0.9205

MP2 TOTAL ENERGY:     -385.078182838 Eh
FINAL SINGLE POINT ENERGY      -385.078182838394

DIPOLE MOMENT
-------------
                                X             Y             Z
Electronic contribution:      3.49852      -3.23150       4.69063
Nuclear contribution   :     -3.64416       2.98831      -5.49720
                        -----------------------------------------
Total Dipole Moment    :     -0.14564      -0.24319      -0.80657
                        -----------------------------------------
Magnitude (a.u.)       :      0.85493
Magnitude (Debye)      :      2.17305

                             ****ORCA TERMINATED NORMALLY****
TOTAL RUN TIME: 0 days 0 hours 20 minutes 23 seconds 780 msec
