                         Program Version 3.0.3 - RELEASE   -
|  1> ! RI-MP2 RIJK def2-TZVP def2-TZVP/C def2-TZVP/JK TIGHTSCF
|  2> % maxcore 2000
|  3> % mp2 density relaxed end
|  4> *xyz 0 1
|  5>  C        0.0553873127     1.5396061355     0.0159117109
|  6>  C       -0.0033933894     0.0294378452     0.0251019853
|  7>  C       -0.6640040085    -0.7093969926     1.1803994794
|  8>  C        0.8238977482    -0.8243942459     0.9468320390
|  9>  O        1.3376662071    -1.9404962994     0.2355024608
| 10>  C        1.1273963191    -1.7684090562    -1.1539944323
| 11>  C       -0.2578292639    -2.1310574277    -1.5909669255
| 12>  O       -1.0544478287    -2.9322896562    -0.7760004449
| 13>  C        0.0988061311    -0.6638450518    -1.3228212175
| 14>  H        0.9034550569     1.9037887489    -0.5754749855
| 15>  H       -0.8592297701     1.9690462282    -0.4085361032
| 16>  H        0.1622367744     1.9330366191     1.0315197595
| 17>  H       -0.9564832758    -0.1007131932     2.0313526415
| 18>  H       -1.3177875006    -1.5415764441     0.9672658785
| 19>  H        1.5276110312    -0.4308382233     1.6741723892
| 20>  H        2.0171947838    -1.9295536840    -1.7550143612
| 21>  H       -0.3958940621    -2.3590125263    -2.6458364004
| 22>  H       -0.4730873416    -3.2663395870    -0.0789737043
| 23>  H        0.1157729161    -0.0186273693    -2.1940338492
| 24> *
| 25>
| 26>                          ****END OF INPUT****

CARTESIAN COORDINATES (ANGSTROEM)
---------------------------------
  C      0.055387    1.539606    0.015912
  C     -0.003393    0.029438    0.025102
  C     -0.664004   -0.709397    1.180399
  C      0.823898   -0.824394    0.946832
  O      1.337666   -1.940496    0.235502
  C      1.127396   -1.768409   -1.153994
  C     -0.257829   -2.131057   -1.590967
  O     -1.054448   -2.932290   -0.776000
  C      0.098806   -0.663845   -1.322821
  H      0.903455    1.903789   -0.575475
  H     -0.859230    1.969046   -0.408536
  H      0.162237    1.933037    1.031520
  H     -0.956483   -0.100713    2.031353
  H     -1.317788   -1.541576    0.967266
  H      1.527611   -0.430838    1.674172
  H      2.017195   -1.929554   -1.755014
  H     -0.395894   -2.359013   -2.645836
  H     -0.473087   -3.266340   -0.078974
  H      0.115773   -0.018627   -2.194034

 Total Charge           Charge          ....    0
 Multiplicity           Mult            ....    1
 Number of Electrons    NEL             ....   68
 Basis Dimension        Dim             ....  339

ORBITAL ENERGIES
----------------

  NO   OCC          E(Eh)            E(eV)
   0   2.0000     -20.572136      -559.7963
   1   2.0000     -20.561276      -559.5008
   2   2.0000     -11.289484      -307.2025
   3   2.0000     -11.284036      -307.0542
   4   2.0000     -11.281957      -306.9976
   5   2.0000     -11.246999      -306.0464
   6   2.0000     -11.240253      -305.8628
   7   2.0000     -11.226322      -305.4838
   8   2.0000     -11.224128      -305.4241
   9   2.0000      -1.406456       -38.2716
  10   2.0000      -1.364561       -37.1316
  11   2.0000      -1.151140       -31.3241
  12   2.0000      -1.113172       -30.2909
  13   2.0000      -0.971831       -26.4449
  14   2.0000      -0.865799       -23.5596
  15   2.0000      -0.848229       -23.0815
  16   2.0000      -0.789257       -21.4768
  17   2.0000      -0.762119       -20.7383
  18   2.0000      -0.726381       -19.7658
  19   2.0000      -0.669777       -18.2255
  20   2.0000      -0.642615       -17.4864
  21   2.0000      -0.615432       -16.7468
  22   2.0000      -0.605502       -16.4766
  23   2.0000      -0.597787       -16.2666
  24   2.0000      -0.571049       -15.5390
  25   2.0000      -0.564099       -15.3499
  26   2.0000      -0.555607       -15.1188
  27   2.0000      -0.528511       -14.3815
  28   2.0000      -0.520796       -14.1716
  29   2.0000      -0.485993       -13.2246
  30   2.0000      -0.440190       -11.9782
  31   2.0000      -0.413293       -11.2463
  32   2.0000      -0.382095       -10.3973
  33   2.0000      -0.365296        -9.9402
  34   0.0000       0.137247         3.7347
  35   0.0000       0.159323         4.3354
  36   0.0000       0.171919         4.6782
  37   0.0000       0.176761         4.8099
  38   0.0000       0.188721         5.1354

MULLIKEN ATOMIC CHARGES
-----------------------
   0 C :   -0.426679
   1 C :    0.131457
   2 C :   -0.321443
   3 C :    0.017301
   4 O :   -0.341824
   5 C :    0.009505
   6 C :    0.093520
   7 O :   -0.474167
   8 C :   -0.226115
   9 H :    0.133467
  10 H :    0.141347
  11 H :    0.131071
  12 H :    0.123161
  13 H :    0.168561
  14 H :    0.124505
  15 H :    0.121486
  16 H :    0.120236
  17 H :    0.339243
  18 H :    0.135368
Sum of atomic charges:   -0.0000000

LOEWDIN ATOMIC CHARGES
----------------------
   0 C :   -0.264636
   1 C :   -0.231639
   2 C :   -0.185964
   3 C :   -0.241686
   4 O :    0.200222
   5 C :   -0.254805
   6 C :   -0.295753
   7 O :    0.003919
   8 C :   -0.143262
   9 H :    0.128161
  10 H :    0.129537
  11 H :    0.129312
  12 H :    0.137528
  13 H :    0.139392
  14 H :    0.136309
  15 H :    0.131680
  16 H :    0.142626
  17 H :    0.184687
  18 H :    0.154372

  Mayer bond orders larger than 0.1
B(  0-C ,  1-C ) :   0.8773 B(  0-C ,  9-H ) :   0.9376 B(  0-C , 10-H ) :   0.9431
B(  0-C , 11-H ) :   0.9374 B(  1-C ,  2-C ) :   0.8627 B(  1-C ,  3-C ) :   0.8933
B(  1-C ,  8-C ) :   0.9037 B(  2-C ,  3-C ) :   0.8867 B(  2-C , 12-H ) :   0.9245
B(  2-C , 13-H ) :   0.9032 B(  3-C ,  4-O ) :   0.9133 B(  3-C , 14-H ) :   0.9382
B(  4-O ,  5-C ) :   0.9569 B(  5-C ,  6-C ) :   0.9014 B(  5-C ,  8-C ) :   0.8823
B(  5-C , 15-H ) :   0.9346 B(  6-C ,  7-O ) :   0.9635 B(  6-C ,  8-C ) :   0.8385
B(  6-C , 16-H ) :   0.9527 B(  7-O , 17-H ) :   0.8185 B(  8-C , 18-H ) :   0.9180

MP2 TOTAL ENERGY:     -422.273840269 Eh
FINAL SINGLE POINT ENERGY      -422.273840269425

DIPOLE MOMENT
-------------
                                X             Y             Z
Electronic contribution:      1.11154      -5.80963      -0.77465
Nuclear contribution   :     -0.76679       6.48663       0.65330
                        -----------------------------------------
Total Dipole Moment    :      0.34475       0.67701      -0.12135
                        -----------------------------------------
Magnitude (a.u.)       :      0.76936
Magnitude (Debye)      :      1.95556

                             ****ORCA TERMINATED NORMALLY****
TOTAL RUN TIME: 0 days 0 hours 17 minutes 9 seconds 274 msec
