                         Program Version 3.0.3 - RELEASE   -
|  1> ! RI-MP2 RIJK def2-TZVP def2-TZVP/C def2-TZVP/JK TIGHTSCF
|  2> % maxcore 2000
|  3> % mp2 density relaxed end
|  4> *xyz 0 1
|  5>  N       -0.0048154758     1.3924734299     0.1490114763
|  6>  C        0.0346812078     0.0171577024     0.0400953559
|  7>  N       -1.0753534237    -0.6981431935     0.0072451891
|  8>  O       -0.6756597351    -2.0286135227    -0.0140899675
|  9>  C        0.6651266061    -2.0793629039    -0.0104230874
| 10>  C        1.3390701602    -3.3847936454    -0.0361058477
| 11>  O        0.7782858207    -4.4520989124    -0.0613116502
| 12>  C        1.1876518004    -0.8200091908     0.0243277554
| 13>  H        0.7321335933     1.8782372532    -0.3404614014
| 14>  H       -0.9162575603     1.7826242863    -0.0494803130
| 15>  H        2.4464819897    -3.2963864230    -0.0301853926
| 16>  H        2.2263404667    -0.5330216600     0.0481460532
| 17> *
| 18>
| 19>                          ****END OF INPUT****

CARTESIAN COORDINATES (ANGSTROEM)
---------------------------------
  N     -0.004815    1.392473    0.149011
  C      0.034681    0.017158    0.040095
  N     -1.075353   -0.698143    0.007245
  O     -0.675660   -2.028614   -0.014090
  C      0.665127   -2.079363   -0.010423
  C      1.339070   -3.384794   -0.036106
  O      0.778286   -4.452099   -0.061312
  C      1.187652   -0.820009    0.024328
  H      0.732134    1.878237   -0.340461
  H     -0.916258    1.782624   -0.049480
  H      2.446482   -3.296386   -0.030185
  H      2.226340   -0.533022    0.048146

 Total Charge           Charge          ....    0
 Multiplicity           Mult            ....    1
 Number of Electrons    NEL             ....   58
 Basis Dimension        Dim             ....  272

ORBITAL ENERGIES
----------------

  NO   OCC          E(Eh)            E(eV)
   0   2.0000     -20.651653      -561.9600
   1   2.0000     -20.582022      -560.0653
   2   2.0000     -15.620477      -425.0548
   3   2.0000     -15.595424      -424.3731
   4   2.0000     -11.360383      -309.1317
   5   2.0000     -11.334269      -308.4211
   6   2.0000     -11.333564      -308.4020
   7   2.0000     -11.269151      -306.6492
   8   2.0000      -1.504665       -40.9440
   9   2.0000      -1.415916       -38.5290
  10   2.0000      -1.266119       -34.4528
  11   2.0000      -1.132759       -30.8239
  12   2.0000      -1.103104       -30.0170
  13   2.0000      -0.933599       -25.4045
  14   2.0000      -0.837443       -22.7880
  15   2.0000      -0.803466       -21.8634
  16   2.0000      -0.737862       -20.0782
  17   2.0000      -0.710554       -19.3351
  18   2.0000      -0.679393       -18.4872
  19   2.0000      -0.675695       -18.3866
  20   2.0000      -0.647851       -17.6289
  21   2.0000      -0.626293       -17.0423
  22   2.0000      -0.581212       -15.8156
  23   2.0000      -0.556627       -15.1466
  24   2.0000      -0.529866       -14.4184
  25   2.0000      -0.491668       -13.3790
  26   2.0000      -0.456055       -12.4099
  27   2.0000      -0.395170       -10.7531
  28   2.0000      -0.373652       -10.1676
  29   0.0000       0.048983         1.3329
  30   0.0000       0.118047         3.2122
  31   0.0000       0.144398         3.9293
  32   0.0000       0.176160         4.7936
  33   0.0000       0.191271         5.2047

MULLIKEN ATOMIC CHARGES
-----------------------
   0 N :   -0.512120
   1 C :    0.209942
   2 N :   -0.142967
   3 O :   -0.084146
   4 C :    0.180485
   5 C :    0.035431
   6 O :   -0.247185
   7 C :   -0.226444
   8 H :    0.259180
   9 H :    0.265691
  10 H :    0.096296
  11 H :    0.165838
Sum of atomic charges:   -0.0000000

LOEWDIN ATOMIC CHARGES
----------------------
   0 N :   -0.060179
   1 C :   -0.383581
   2 N :    0.043460
   3 O :    0.315492
   4 C :   -0.293082
   5 C :   -0.273456
   6 O :    0.151935
   7 C :   -0.127264
   8 H :    0.173946
   9 H :    0.178390
  10 H :    0.122479
  11 H :    0.151861

  Mayer bond orders larger than 0.1
B(  0-N ,  1-C ) :   1.0674 B(  0-N ,  8-H ) :   0.8689 B(  0-N ,  9-H ) :   0.8677
B(  1-C ,  2-N ) :   1.5552 B(  1-C ,  7-C ) :   1.2030 B(  2-N ,  3-O ) :   0.8788
B(  2-N ,  4-C ) :   0.1024 B(  3-O ,  4-C ) :   1.1410 B(  4-C ,  5-C ) :   0.8305
B(  4-C ,  7-C ) :   1.4552 B(  4-C , 10-H ) :  -0.1127 B(  5-C ,  6-O ) :   2.0132
B(  5-C , 10-H ) :   0.9891 B(  7-C , 11-H ) :   0.8904

MP2 TOTAL ENERGY:     -413.984623014 Eh
FINAL SINGLE POINT ENERGY      -413.984623014340

DIPOLE MOMENT
-------------
                                X             Y             Z
Electronic contribution:     -1.91870      -3.82471       0.01560
Nuclear contribution   :      3.19859       5.48279      -0.37707
                        -----------------------------------------
Total Dipole Moment    :      1.27989       1.65808      -0.36146
                        -----------------------------------------
Magnitude (a.u.)       :      2.12556
Magnitude (Debye)      :      5.40274

                             ****ORCA TERMINATED NORMALLY****
TOTAL RUN TIME: 0 days 0 hours 9 minutes 5 seconds 450 msec
