                         Program Version 3.0.3 - RELEASE   -
|  1> ! RI-MP2 RIJK def2-TZVP def2-TZVP/C def2-TZVP/JK TIGHTSCF
|  2> % maxcore 2000
|  3> % mp2 density relaxed end
|  4> *xyz 0 1
|  5>  C       -0.1268697471     1.4628681834     0.1086193840
|  6>  C       -0.0618773180    -0.0308305275    -0.0239893706
|  7>  C       -0.9088673123    -0.8449281311    -1.0071233643
|  8>  C       -1.1485358097    -1.8382618009     0.1545394502
|  9>  N       -0.3736804008    -0.9870290195     1.1306866774
| 10>  C        1.0023675585    -0.8563384021     0.5924209288
| 11>  C        1.7697204897    -1.9848074226    -0.0798027162
| 12>  C        2.0455375752    -3.1093322426     0.8991759347
| 13>  O        1.6673956262    -4.2433341066     0.7556722537
| 14>  H        0.3815961282     1.9498200434    -0.7323251943
| 15>  H       -1.1651317945     1.8118646994     0.1197236624
| 16>  H        0.3524395140     1.7957349283     1.0336758098
| 17>  H       -1.8178120241    -0.3165245427    -1.3022907844
| 18>  H       -0.4130158643    -1.2069944562    -1.9131766946
| 19>  H       -2.1896426084    -1.8910456456     0.4770474914
| 20>  H       -0.7649435891    -2.8562484768     0.0443523594
| 21>  H        1.6121004279    -0.3111265645     1.3117485596
| 22>  H        1.2590753346    -2.4025342692    -0.9486680408
| 23>  H        2.7345419843    -1.5806395786    -0.4164043293
| 24>  H        2.6278566397    -2.8088450380     1.8004315831
| 25> *
| 26>
| 27>                          ****END OF INPUT****

CARTESIAN COORDINATES (ANGSTROEM)
---------------------------------
  C     -0.126870    1.462868    0.108619
  C     -0.061877   -0.030831   -0.023989
  C     -0.908867   -0.844928   -1.007123
  C     -1.148536   -1.838262    0.154539
  N     -0.373680   -0.987029    1.130687
  C      1.002368   -0.856338    0.592421
  C      1.769720   -1.984807   -0.079803
  C      2.045538   -3.109332    0.899176
  O      1.667396   -4.243334    0.755672
  H      0.381596    1.949820   -0.732325
  H     -1.165132    1.811865    0.119724
  H      0.352440    1.795735    1.033676
  H     -1.817812   -0.316525   -1.302291
  H     -0.413016   -1.206994   -1.913177
  H     -2.189643   -1.891046    0.477047
  H     -0.764944   -2.856248    0.044352
  H      1.612100   -0.311127    1.311749
  H      1.259075   -2.402534   -0.948668
  H      2.734542   -1.580640   -0.416404
  H      2.627857   -2.808845    1.800432

 Total Charge           Charge          ....    0
 Multiplicity           Mult            ....    1
 Number of Electrons    NEL             ....   68
 Basis Dimension        Dim             ....  345

ORBITAL ENERGIES
----------------

  NO   OCC          E(Eh)            E(eV)
   0   2.0000     -20.559332      -559.4479
   1   2.0000     -15.560319      -423.4178
   2   2.0000     -11.335029      -308.4418
   3   2.0000     -11.275339      -306.8176
   4   2.0000     -11.273018      -306.7544
   5   2.0000     -11.254764      -306.2577
   6   2.0000     -11.249617      -306.1176
   7   2.0000     -11.235526      -305.7342
   8   2.0000     -11.228672      -305.5477
   9   2.0000      -1.398273       -38.0490
  10   2.0000      -1.293470       -35.1971
  11   2.0000      -1.055397       -28.7188
  12   2.0000      -1.011510       -27.5246
  13   2.0000      -0.998395       -27.1677
  14   2.0000      -0.898436       -24.4477
  15   2.0000      -0.822066       -22.3695
  16   2.0000      -0.780382       -21.2353
  17   2.0000      -0.726956       -19.7815
  18   2.0000      -0.687151       -18.6983
  19   2.0000      -0.672897       -18.3105
  20   2.0000      -0.635384       -17.2897
  21   2.0000      -0.630291       -17.1511
  22   2.0000      -0.607872       -16.5410
  23   2.0000      -0.584623       -15.9084
  24   2.0000      -0.571698       -15.5567
  25   2.0000      -0.561567       -15.2810
  26   2.0000      -0.530690       -14.4408
  27   2.0000      -0.527828       -14.3629
  28   2.0000      -0.516183       -14.0460
  29   2.0000      -0.477905       -13.0045
  30   2.0000      -0.454058       -12.3555
  31   2.0000      -0.423379       -11.5207
  32   2.0000      -0.416151       -11.3240
  33   2.0000      -0.365910        -9.9569
  34   0.0000       0.127122         3.4592
  35   0.0000       0.136557         3.7159
  36   0.0000       0.153120         4.1666
  37   0.0000       0.156783         4.2663
  38   0.0000       0.169329         4.6077

MULLIKEN ATOMIC CHARGES
-----------------------
   0 C :   -0.418920
   1 C :    0.148076
   2 C :   -0.253843
   3 C :   -0.171678
   4 N :   -0.246861
   5 C :   -0.115455
   6 C :   -0.172839
   7 C :    0.109427
   8 O :   -0.266009
   9 H :    0.134447
  10 H :    0.132398
  11 H :    0.139747
  12 H :    0.123705
  13 H :    0.124407
  14 H :    0.125860
  15 H :    0.138649
  16 H :    0.120657
  17 H :    0.130311
  18 H :    0.138407
  19 H :    0.079515
Sum of atomic charges:   -0.0000000

LOEWDIN ATOMIC CHARGES
----------------------
   0 C :   -0.271376
   1 C :   -0.252789
   2 C :   -0.213382
   3 C :   -0.243176
   4 N :    0.124411
   5 C :   -0.233065
   6 C :   -0.245595
   7 C :   -0.286494
   8 O :    0.133151
   9 H :    0.131360
  10 H :    0.129549
  11 H :    0.133179
  12 H :    0.138640
  13 H :    0.127890
  14 H :    0.128324
  15 H :    0.125264
  16 H :    0.154278
  17 H :    0.150497
  18 H :    0.157338
  19 H :    0.111998

  Mayer bond orders larger than 0.1
B(  0-C ,  1-C ) :   0.8665 B(  0-C ,  9-H ) :   0.9351 B(  0-C , 10-H ) :   0.9365
B(  0-C , 11-H ) :   0.9390 B(  1-C ,  2-C ) :   0.8961 B(  1-C ,  4-N ) :   0.8026
B(  1-C ,  5-C ) :   0.9679 B(  2-C ,  3-C ) :   0.9777 B(  2-C , 12-H ) :   0.9233
B(  2-C , 13-H ) :   0.9180 B(  3-C ,  4-N ) :   0.9241 B(  3-C , 14-H ) :   0.9177
B(  3-C , 15-H ) :   0.9350 B(  4-N ,  5-C ) :   0.9539 B(  5-C ,  6-C ) :   0.8778
B(  5-C , 16-H ) :   0.9081 B(  6-C ,  7-C ) :   0.8788 B(  6-C , 17-H ) :   0.9109
B(  6-C , 18-H ) :   0.9069 B(  7-C ,  8-O ) :   1.9876 B(  7-C , 19-H ) :   0.9310

MP2 TOTAL ENERGY:     -402.419540066 Eh
FINAL SINGLE POINT ENERGY      -402.419540065543

DIPOLE MOMENT
-------------
                                X             Y             Z
Electronic contribution:      2.35225      -6.10647       2.67508
Nuclear contribution   :     -2.06285       7.14530      -3.37807
                        -----------------------------------------
Total Dipole Moment    :      0.28940       1.03884      -0.70299
                        -----------------------------------------
Magnitude (a.u.)       :      1.28729
Magnitude (Debye)      :      3.27204

                             ****ORCA TERMINATED NORMALLY****
TOTAL RUN TIME: 0 days 0 hours 20 minutes 14 seconds 848 msec
