                         Program Version 3.0.3 - RELEASE   -
|  1> ! RI-MP2 RIJK def2-TZVP def2-TZVP/C def2-TZVP/JK TIGHTSCF
|  2> % maxcore 2000
|  3> % mp2 density relaxed end
|  4> *xyz 0 1
|  5>  N       -0.0770890831     1.2861139630     0.3062354025
|  6>  C       -0.0087931830     0.0490056654    -0.0165714369
|  7>  N        1.1381672491    -0.7039341387    -0.2652958542
|  8>  N        1.1749147789    -2.0077823492    -0.6039296966
|  9>  C        0.0270950015    -2.5973868453    -0.7019916537
| 10>  N       -1.2119347108    -2.0163049557    -0.4932534412
| 11>  C       -1.2160065241    -0.7686008790    -0.1707001924
| 12>  H        0.8455474202     1.7198217613     0.3746376363
| 13>  H        2.0467526561    -0.2684936068    -0.1957746792
| 14>  H        0.0394892222    -3.6453799661    -0.9733698382
| 15>  H       -2.1626089769    -0.2617196188     0.0050396034
| 16> *
| 17>
| 18>                          ****END OF INPUT****

CARTESIAN COORDINATES (ANGSTROEM)
---------------------------------
  N     -0.077089    1.286114    0.306235
  C     -0.008793    0.049006   -0.016571
  N      1.138167   -0.703934   -0.265296
  N      1.174915   -2.007782   -0.603930
  C      0.027095   -2.597387   -0.701992
  N     -1.211935   -2.016305   -0.493253
  C     -1.216007   -0.768601   -0.170700
  H      0.845547    1.719822    0.374638
  H      2.046753   -0.268494   -0.195775
  H      0.039489   -3.645380   -0.973370
  H     -2.162609   -0.261720    0.005040

 Total Charge           Charge          ....    0
 Multiplicity           Mult            ....    1
 Number of Electrons    NEL             ....   50
 Basis Dimension        Dim             ....  241

ORBITAL ENERGIES
----------------

  NO   OCC          E(Eh)            E(eV)
   0   2.0000     -15.649787      -425.8524
   1   2.0000     -15.635563      -425.4653
   2   2.0000     -15.604264      -424.6136
   3   2.0000     -15.545324      -423.0098
   4   2.0000     -11.346705      -308.7595
   5   2.0000     -11.319088      -308.0080
   6   2.0000     -11.314582      -307.8854
   7   2.0000      -1.396031       -37.9879
   8   2.0000      -1.263576       -34.3837
   9   2.0000      -1.232937       -33.5499
  10   2.0000      -1.108967       -30.1765
  11   2.0000      -0.955311       -25.9953
  12   2.0000      -0.904324       -24.6079
  13   2.0000      -0.786332       -21.3972
  14   2.0000      -0.764446       -20.8016
  15   2.0000      -0.679571       -18.4921
  16   2.0000      -0.646904       -17.6031
  17   2.0000      -0.640575       -17.4309
  18   2.0000      -0.613434       -16.6924
  19   2.0000      -0.527799       -14.3621
  20   2.0000      -0.498012       -13.5516
  21   2.0000      -0.484456       -13.1827
  22   2.0000      -0.477081       -12.9820
  23   2.0000      -0.423336       -11.5196
  24   2.0000      -0.333348        -9.0709
  25   0.0000       0.057630         1.5682
  26   0.0000       0.123484         3.3602
  27   0.0000       0.138725         3.7749
  28   0.0000       0.170457         4.6384
  29   0.0000       0.185872         5.0578

MULLIKEN ATOMIC CHARGES
-----------------------
   0 N :   -0.376982
   1 C :    0.085639
   2 N :   -0.158414
   3 N :   -0.149694
   4 C :    0.031020
   5 N :   -0.221094
   6 C :    0.024840
   7 H :    0.197872
   8 H :    0.254371
   9 H :    0.153616
  10 H :    0.158826
Sum of atomic charges:   -0.0000000

LOEWDIN ATOMIC CHARGES
----------------------
   0 N :   -0.084807
   1 C :   -0.394334
   2 N :    0.111157
   3 N :    0.061748
   4 C :   -0.320727
   5 N :    0.131236
   6 C :   -0.142176
   7 H :    0.155160
   8 H :    0.191248
   9 H :    0.139535
  10 H :    0.151958

  Mayer bond orders larger than 0.1
B(  0-N ,  1-C ) :   1.9522 B(  0-N ,  7-H ) :   0.8596 B(  1-C ,  2-N ) :   1.0666
B(  1-C ,  6-C ) :   1.0137 B(  2-N ,  3-N ) :   0.9813 B(  2-N ,  8-H ) :   0.8696
B(  3-N ,  4-C ) :   1.6534 B(  4-C ,  5-N ) :   1.1257 B(  4-C ,  9-H ) :   0.9295
B(  5-N ,  6-C ) :   1.6655 B(  6-C , 10-H ) :   0.9221

MP2 TOTAL ENERGY:     -335.038139387 Eh
FINAL SINGLE POINT ENERGY      -335.038139387410

DIPOLE MOMENT
-------------
                                X             Y             Z
Electronic contribution:      0.14442      -1.30337      -0.34352
Nuclear contribution   :      0.69845       1.23317       0.28552
                        -----------------------------------------
Total Dipole Moment    :      0.84287      -0.07020      -0.05799
                        -----------------------------------------
Magnitude (a.u.)       :      0.84777
Magnitude (Debye)      :      2.15487

                             ****ORCA TERMINATED NORMALLY****
TOTAL RUN TIME: 0 days 0 hours 6 minutes 49 seconds 925 msec
