                         Program Version 3.0.3 - RELEASE   -
|  1> ! RI-MP2 RIJK def2-TZVP def2-TZVP/C def2-TZVP/JK TIGHTSCF
|  2> % maxcore 2000
|  3> % mp2 density relaxed end
|  4> *xyz 0 1
|  5>  C        0.0105583226     1.3337006082     0.6642535721
|  6>  C       -0.0308150120    -0.1333627717     0.2278685445
|  7>  C       -1.4172692050    -0.5638968911    -0.2215982814
|  8>  C       -1.6945651908    -2.0680733005    -0.4147204703
|  9>  C       -2.7985855806    -1.8735561253     0.6569988711
| 10>  C       -4.2227200328    -1.9456989409     0.1151592541
| 11>  C       -2.5997110343    -2.6651298868     1.9513392567
| 12>  C       -3.4349143032    -2.1544888150     3.1298619318
| 13>  O       -2.3999452118    -0.4788570820     0.8401230662
| 14>  H        1.0058871730     1.6153122560     1.0205062298
| 15>  H       -0.2498145250     2.0009531030    -0.1650745247
| 16>  H       -0.7057964352     1.5080818014     1.4719719444
| 17>  H        0.6694958476    -0.3072680626    -0.6004961275
| 18>  H        0.2888670143    -0.7791305701     1.0551905289
| 19>  H       -1.7331282521     0.0524245711    -1.0770961800
| 20>  H       -2.0416450211    -2.3715443484    -1.4040181267
| 21>  H       -0.8739497051    -2.7200520567    -0.1049637859
| 22>  H       -4.5169604205    -2.9847269630    -0.0708773447
| 23>  H       -4.9323716678    -1.5073885027     0.8221516450
| 24>  H       -4.3031176334    -1.3922247569    -0.8249220186
| 25>  H       -2.8223387197    -3.7219249517     1.7513041212
| 26>  H       -1.5373237378    -2.6138698329     2.2164060745
| 27>  H       -3.2596025773    -1.0853978393     3.2810509890
| 28>  H       -4.5069555717    -2.3034432032     2.9690380897
| 29>  H       -3.1646905107    -2.6782179189     4.0517003110
| 30> *
| 31>
| 32>                          ****END OF INPUT****

CARTESIAN COORDINATES (ANGSTROEM)
---------------------------------
  C      0.010558    1.333701    0.664254
  C     -0.030815   -0.133363    0.227869
  C     -1.417269   -0.563897   -0.221598
  C     -1.694565   -2.068073   -0.414720
  C     -2.798586   -1.873556    0.656999
  C     -4.222720   -1.945699    0.115159
  C     -2.599711   -2.665130    1.951339
  C     -3.434914   -2.154489    3.129862
  O     -2.399945   -0.478857    0.840123
  H      1.005887    1.615312    1.020506
  H     -0.249815    2.000953   -0.165075
  H     -0.705796    1.508082    1.471972
  H      0.669496   -0.307268   -0.600496
  H      0.288867   -0.779131    1.055191
  H     -1.733128    0.052425   -1.077096
  H     -2.041645   -2.371544   -1.404018
  H     -0.873950   -2.720052   -0.104964
  H     -4.516960   -2.984727   -0.070877
  H     -4.932372   -1.507389    0.822152
  H     -4.303118   -1.392225   -0.824922
  H     -2.822339   -3.721925    1.751304
  H     -1.537324   -2.613870    2.216406
  H     -3.259603   -1.085398    3.281051
  H     -4.506956   -2.303443    2.969038
  H     -3.164691   -2.678218    4.051700

 Total Charge           Charge          ....    0
 Multiplicity           Mult            ....    1
 Number of Electrons    NEL             ....   72
 Basis Dimension        Dim             ....  375

ORBITAL ENERGIES
----------------

  NO   OCC          E(Eh)            E(eV)
   0   2.0000     -20.533631      -558.7485
   1   2.0000     -11.281922      -306.9967
   2   2.0000     -11.274186      -306.7862
   3   2.0000     -11.220750      -305.3321
   4   2.0000     -11.218157      -305.2616
   5   2.0000     -11.217952      -305.2560
   6   2.0000     -11.211894      -305.0912
   7   2.0000     -11.207521      -304.9721
   8   2.0000     -11.207294      -304.9660
   9   2.0000      -1.366783       -37.1921
  10   2.0000      -1.066869       -29.0310
  11   2.0000      -1.046753       -28.4836
  12   2.0000      -0.995945       -27.1010
  13   2.0000      -0.961669       -26.1683
  14   2.0000      -0.887888       -24.1606
  15   2.0000      -0.849650       -23.1202
  16   2.0000      -0.784270       -21.3411
  17   2.0000      -0.721725       -19.6391
  18   2.0000      -0.665465       -18.1082
  19   2.0000      -0.644431       -17.5359
  20   2.0000      -0.630518       -17.1573
  21   2.0000      -0.598832       -16.2950
  22   2.0000      -0.588751       -16.0207
  23   2.0000      -0.570112       -15.5135
  24   2.0000      -0.546405       -14.8684
  25   2.0000      -0.542904       -14.7732
  26   2.0000      -0.530880       -14.4460
  27   2.0000      -0.524263       -14.2659
  28   2.0000      -0.507931       -13.8215
  29   2.0000      -0.503608       -13.7039
  30   2.0000      -0.485234       -13.2039
  31   2.0000      -0.480729       -13.0813
  32   2.0000      -0.469283       -12.7698
  33   2.0000      -0.442117       -12.0306
  34   2.0000      -0.422835       -11.5059
  35   2.0000      -0.398863       -10.8536
  36   0.0000       0.135454         3.6859
  37   0.0000       0.152476         4.1491
  38   0.0000       0.159197         4.3320
  39   0.0000       0.162358         4.4180
  40   0.0000       0.184252         5.0138

MULLIKEN ATOMIC CHARGES
-----------------------
   0 C :   -0.400314
   1 C :   -0.210566
   2 C :    0.094299
   3 C :   -0.285961
   4 C :    0.288534
   5 C :   -0.457109
   6 C :   -0.193539
   7 C :   -0.435765
   8 O :   -0.362275
   9 H :    0.130948
  10 H :    0.117817
  11 H :    0.145421
  12 H :    0.106189
  13 H :    0.104255
  14 H :    0.078731
  15 H :    0.132340
  16 H :    0.122400
  17 H :    0.126618
  18 H :    0.143072
  19 H :    0.132933
  20 H :    0.108482
  21 H :    0.104915
  22 H :    0.150138
  23 H :    0.125047
  24 H :    0.133391
Sum of atomic charges:    0.0000000

LOEWDIN ATOMIC CHARGES
----------------------
   0 C :   -0.316914
   1 C :   -0.281797
   2 C :   -0.283901
   3 C :   -0.186030
   4 C :   -0.335920
   5 C :   -0.270278
   6 C :   -0.256991
   7 C :   -0.315410
   8 O :    0.169574
   9 H :    0.119841
  10 H :    0.120285
  11 H :    0.126870
  12 H :    0.139433
  13 H :    0.136962
  14 H :    0.134376
  15 H :    0.131720
  16 H :    0.135429
  17 H :    0.127933
  18 H :    0.128736
  19 H :    0.127972
  20 H :    0.140498
  21 H :    0.139692
  22 H :    0.128227
  23 H :    0.118785
  24 H :    0.120908

  Mayer bond orders larger than 0.1
B(  0-C ,  1-C ) :   0.9261 B(  0-C ,  9-H ) :   0.9401 B(  0-C , 10-H ) :   0.9366
B(  0-C , 11-H ) :   0.9361 B(  1-C ,  2-C ) :   0.9347 B(  1-C , 12-H ) :   0.9269
B(  1-C , 13-H ) :   0.9282 B(  2-C ,  3-C ) :   0.9299 B(  2-C ,  8-O ) :   0.9185
B(  2-C , 14-H ) :   0.9122 B(  3-C ,  4-C ) :   0.8731 B(  3-C , 15-H ) :   0.9302
B(  3-C , 16-H ) :   0.9310 B(  4-C ,  5-C ) :   0.9093 B(  4-C ,  6-C ) :   0.9221
B(  4-C ,  8-O ) :   0.8527 B(  5-C , 17-H ) :   0.9332 B(  5-C , 18-H ) :   0.9420
B(  5-C , 19-H ) :   0.9334 B(  6-C ,  7-C ) :   0.9190 B(  6-C , 20-H ) :   0.9274
B(  6-C , 21-H ) :   0.9278 B(  7-C , 22-H ) :   0.9357 B(  7-C , 23-H ) :   0.9395
B(  7-C , 24-H ) :   0.9391

MP2 TOTAL ENERGY:     -388.819418039 Eh
FINAL SINGLE POINT ENERGY      -388.819418039019

DIPOLE MOMENT
-------------
                                X             Y             Z
Electronic contribution:     -0.25654       0.26401      -1.97854
Nuclear contribution   :      0.44815      -0.75166       1.64015
                        -----------------------------------------
Total Dipole Moment    :      0.19162      -0.48765      -0.33839
                        -----------------------------------------
Magnitude (a.u.)       :      0.62372
Magnitude (Debye)      :      1.58537

                             ****ORCA TERMINATED NORMALLY****
TOTAL RUN TIME: 0 days 0 hours 33 minutes 38 seconds 245 msec
