                         Program Version 3.0.3 - RELEASE   -
|  1> ! RI-MP2 RIJK def2-TZVP def2-TZVP/C def2-TZVP/JK TIGHTSCF
|  2> % maxcore 2000
|  3> % mp2 density relaxed end
|  4> *xyz 0 1
|  5>  C       -0.0501008339     1.1258817630     0.6396705997
|  6>  C       -0.3159263575    -0.3811528675     0.7430012031
|  7>  C       -1.5226471472    -0.7810160260    -0.0706972214
|  8>  O       -1.3585408455    -0.8591112618    -1.4922520525
|  9>  C       -1.6999059255    -2.0581947154    -0.7875554113
| 10>  C       -0.7091005750    -3.1828138195    -0.8505933764
| 11>  O        0.3124930348    -3.3015890936     0.1439335852
| 12>  C       -0.7122108586    -4.3012909138     0.1076731360
| 13>  C       -1.6382818881    -4.3810889649     1.2943329581
| 14>  H        0.8233836735     1.4102757437     1.2335115157
| 15>  H        0.1369570254     1.4141476045    -0.3992673451
| 16>  H       -0.9041880541     1.7101292283     1.0005027246
| 17>  H        0.5539614548    -0.9497445482     0.4112800839
| 18>  H       -0.4936623634    -0.6609296679     1.7892878069
| 19>  H       -2.4462255415    -0.2723291427     0.2224198275
| 20>  H       -2.7268084150    -2.3850452553    -0.9736586856
| 21>  H       -0.3596264706    -3.3853493003    -1.8650441210
| 22>  H       -0.3606186551    -5.2656480063    -0.2641168073
| 23>  H       -1.9861710485    -3.3904740318     1.5955384445
| 24>  H       -2.5097250503    -5.0009135758     1.0567626940
| 25>  H       -1.1250571888    -4.8389237085     2.1461355915
| 26> *
| 27>
| 28>                          ****END OF INPUT****

CARTESIAN COORDINATES (ANGSTROEM)
---------------------------------
  C     -0.050101    1.125882    0.639671
  C     -0.315926   -0.381153    0.743001
  C     -1.522647   -0.781016   -0.070697
  O     -1.358541   -0.859111   -1.492252
  C     -1.699906   -2.058195   -0.787555
  C     -0.709101   -3.182814   -0.850593
  O      0.312493   -3.301589    0.143934
  C     -0.712211   -4.301291    0.107673
  C     -1.638282   -4.381089    1.294333
  H      0.823384    1.410276    1.233512
  H      0.136957    1.414148   -0.399267
  H     -0.904188    1.710129    1.000503
  H      0.553961   -0.949745    0.411280
  H     -0.493662   -0.660930    1.789288
  H     -2.446226   -0.272329    0.222420
  H     -2.726808   -2.385045   -0.973659
  H     -0.359626   -3.385349   -1.865044
  H     -0.360619   -5.265648   -0.264117
  H     -1.986171   -3.390474    1.595538
  H     -2.509725   -5.000914    1.056763
  H     -1.125057   -4.838924    2.146136

 Total Charge           Charge          ....    0
 Multiplicity           Mult            ....    1
 Number of Electrons    NEL             ....   70
 Basis Dimension        Dim             ....  351

ORBITAL ENERGIES
----------------

  NO   OCC          E(Eh)            E(eV)
   0   2.0000     -20.570207      -559.7438
   1   2.0000     -20.564467      -559.5876
   2   2.0000     -11.294603      -307.3418
   3   2.0000     -11.292676      -307.2893
   4   2.0000     -11.291238      -307.2502
   5   2.0000     -11.287818      -307.1572
   6   2.0000     -11.232814      -305.6604
   7   2.0000     -11.220201      -305.3172
   8   2.0000     -11.211349      -305.0763
   9   2.0000      -1.420791       -38.6617
  10   2.0000      -1.404556       -38.2199
  11   2.0000      -1.045938       -28.4614
  12   2.0000      -1.021251       -27.7897
  13   2.0000      -0.979341       -26.6492
  14   2.0000      -0.910949       -24.7882
  15   2.0000      -0.855477       -23.2787
  16   2.0000      -0.821762       -22.3613
  17   2.0000      -0.762792       -20.7566
  18   2.0000      -0.705238       -19.1905
  19   2.0000      -0.694765       -18.9055
  20   2.0000      -0.655172       -17.8281
  21   2.0000      -0.610263       -16.6061
  22   2.0000      -0.598499       -16.2860
  23   2.0000      -0.585291       -15.9266
  24   2.0000      -0.569643       -15.5008
  25   2.0000      -0.549579       -14.9548
  26   2.0000      -0.542871       -14.7723
  27   2.0000      -0.531422       -14.4607
  28   2.0000      -0.514322       -13.9954
  29   2.0000      -0.496448       -13.5090
  30   2.0000      -0.482535       -13.1304
  31   2.0000      -0.456171       -12.4130
  32   2.0000      -0.436495       -11.8776
  33   2.0000      -0.432895       -11.7797
  34   2.0000      -0.424508       -11.5514
  35   0.0000       0.132875         3.6157
  36   0.0000       0.151974         4.1354
  37   0.0000       0.163523         4.4497
  38   0.0000       0.174344         4.7441
  39   0.0000       0.189838         5.1657

MULLIKEN ATOMIC CHARGES
-----------------------
   0 C :   -0.394436
   1 C :   -0.192381
   2 C :    0.042998
   3 O :   -0.337415
   4 C :   -0.008338
   5 C :    0.057855
   6 O :   -0.338081
   7 C :    0.021736
   8 C :   -0.390127
   9 H :    0.135045
  10 H :    0.141306
  11 H :    0.118380
  12 H :    0.141691
  13 H :    0.103876
  14 H :    0.108421
  15 H :    0.123169
  16 H :    0.140780
  17 H :    0.108692
  18 H :    0.141391
  19 H :    0.132670
  20 H :    0.142768
Sum of atomic charges:    0.0000000

LOEWDIN ATOMIC CHARGES
----------------------
   0 C :   -0.313157
   1 C :   -0.278826
   2 C :   -0.263714
   3 O :    0.165094
   4 C :   -0.258892
   5 C :   -0.255554
   6 O :    0.167662
   7 C :   -0.287285
   8 C :   -0.292424
   9 H :    0.121708
  10 H :    0.126178
  11 H :    0.119459
  12 H :    0.148313
  13 H :    0.142119
  14 H :    0.138556
  15 H :    0.144581
  16 H :    0.146139
  17 H :    0.137134
  18 H :    0.130774
  19 H :    0.131119
  20 H :    0.131017

  Mayer bond orders larger than 0.1
B(  0-C ,  1-C ) :   0.9104 B(  0-C ,  9-H ) :   0.9419 B(  0-C , 10-H ) :   0.9372
B(  0-C , 11-H ) :   0.9369 B(  1-C ,  2-C ) :   0.9123 B(  1-C , 12-H ) :   0.9336
B(  1-C , 13-H ) :   0.9233 B(  2-C ,  3-O ) :   0.8947 B(  2-C ,  4-C ) :   1.0110
B(  2-C , 14-H ) :   0.9152 B(  3-O ,  4-C ) :   0.8756 B(  4-C ,  5-C ) :   0.8805
B(  4-C , 15-H ) :   0.9171 B(  5-C ,  6-O ) :   0.8533 B(  5-C ,  7-C ) :   0.9589
B(  5-C , 16-H ) :   0.9152 B(  6-O ,  7-C ) :   0.9241 B(  7-C ,  8-C ) :   0.8864
B(  7-C , 17-H ) :   0.9191 B(  8-C , 18-H ) :   0.9384 B(  8-C , 19-H ) :   0.9257
B(  8-C , 20-H ) :   0.9358

MP2 TOTAL ENERGY:     -423.478592186 Eh
FINAL SINGLE POINT ENERGY      -423.478592186004

DIPOLE MOMENT
-------------
                                X             Y             Z
Electronic contribution:      0.55612      -2.81178      -5.31487
Nuclear contribution   :     -1.19063       2.20739       5.79864
                        -----------------------------------------
Total Dipole Moment    :     -0.63451      -0.60439       0.48377
                        -----------------------------------------
Magnitude (a.u.)       :      1.00096
Magnitude (Debye)      :      2.54424

                             ****ORCA TERMINATED NORMALLY****
TOTAL RUN TIME: 0 days 0 hours 26 minutes 38 seconds 945 msec
