                         Program Version 3.0.3 - RELEASE   -
|  1> ! RI-MP2 RIJK def2-TZVP def2-TZVP/C def2-TZVP/JK TIGHTSCF
|  2> % maxcore 2000
|  3> % mp2 density relaxed end
|  4> *xyz 0 1
|  5>  O        0.0573237285     1.3838509351    -0.1785289857
|  6>  C        0.0038201305    -0.0043755576    -0.0562209873
|  7>  C        0.3488311558    -0.6912644169     1.2987048479
|  8>  C       -0.8139752751    -1.6883785152     1.0296612090
|  9>  C       -1.7561906293    -2.0755138099     2.1597976088
| 10>  O       -2.4901143697    -0.9459171644     2.6244868674
| 11>  C       -3.1522401782    -0.3160819640     1.5670769119
| 12>  O       -2.2633001957     0.2744426501     0.6487161590
| 13>  C       -1.4001223561    -0.6666593347     0.0112201905
| 14>  H       -0.6838956474     1.7211551583     0.3416535417
| 15>  H        0.5942160016    -0.4313994765    -0.8726103560
| 16>  H        1.3536934765    -1.0993062548     1.4228242353
| 17>  H        0.1167919841    -0.0322422445     2.1390152687
| 18>  H       -0.4619284512    -2.5850816700     0.5111783972
| 19>  H       -2.4607231188    -2.8520879017     1.8171300321
| 20>  H       -1.2114438408    -2.4673624832     3.0236673600
| 21>  H       -3.8063477054    -1.0380579069     1.0431020602
| 22>  H       -3.7473495791     0.4948802883     1.9911471496
| 23>  H       -1.8689941701    -1.0399619514    -0.9076246704
| 24> *
| 25>
| 26>                          ****END OF INPUT****

CARTESIAN COORDINATES (ANGSTROEM)
---------------------------------
  O      0.057324    1.383851   -0.178529
  C      0.003820   -0.004376   -0.056221
  C      0.348831   -0.691264    1.298705
  C     -0.813975   -1.688379    1.029661
  C     -1.756191   -2.075514    2.159798
  O     -2.490114   -0.945917    2.624487
  C     -3.152240   -0.316082    1.567077
  O     -2.263300    0.274443    0.648716
  C     -1.400122   -0.666659    0.011220
  H     -0.683896    1.721155    0.341654
  H      0.594216   -0.431399   -0.872610
  H      1.353693   -1.099306    1.422824
  H      0.116792   -0.032242    2.139015
  H     -0.461928   -2.585082    0.511178
  H     -2.460723   -2.852088    1.817130
  H     -1.211444   -2.467362    3.023667
  H     -3.806348   -1.038058    1.043102
  H     -3.747350    0.494880    1.991147
  H     -1.868994   -1.039962   -0.907625

 Total Charge           Charge          ....    0
 Multiplicity           Mult            ....    1
 Number of Electrons    NEL             ....   70
 Basis Dimension        Dim             ....  339

ORBITAL ENERGIES
----------------

  NO   OCC          E(Eh)            E(eV)
   0   2.0000     -20.573069      -559.8217
   1   2.0000     -20.569358      -559.7207
   2   2.0000     -20.548921      -559.1646
   3   2.0000     -11.335957      -308.4671
   4   2.0000     -11.288001      -307.1621
   5   2.0000     -11.287648      -307.1525
   6   2.0000     -11.281666      -306.9897
   7   2.0000     -11.242123      -305.9137
   8   2.0000     -11.223815      -305.4155
   9   2.0000      -1.433115       -38.9970
  10   2.0000      -1.369018       -37.2529
  11   2.0000      -1.347429       -36.6654
  12   2.0000      -1.132645       -30.8208
  13   2.0000      -0.985266       -26.8104
  14   2.0000      -0.937717       -25.5166
  15   2.0000      -0.883520       -24.0418
  16   2.0000      -0.838828       -22.8257
  17   2.0000      -0.758493       -20.6396
  18   2.0000      -0.714317       -19.4376
  19   2.0000      -0.706574       -19.2269
  20   2.0000      -0.685186       -18.6448
  21   2.0000      -0.661793       -18.0083
  22   2.0000      -0.637937       -17.3591
  23   2.0000      -0.604419       -16.4471
  24   2.0000      -0.598975       -16.2989
  25   2.0000      -0.580163       -15.7870
  26   2.0000      -0.559333       -15.2202
  27   2.0000      -0.540199       -14.6996
  28   2.0000      -0.524759       -14.2794
  29   2.0000      -0.501989       -13.6598
  30   2.0000      -0.474527       -12.9125
  31   2.0000      -0.465745       -12.6736
  32   2.0000      -0.434971       -11.8362
  33   2.0000      -0.423597       -11.5267
  34   2.0000      -0.407723       -11.0947
  35   0.0000       0.131655         3.5825
  36   0.0000       0.156047         4.2462
  37   0.0000       0.166657         4.5350
  38   0.0000       0.170228         4.6321
  39   0.0000       0.194966         5.3053

MULLIKEN ATOMIC CHARGES
-----------------------
   0 O :   -0.465539
   1 C :    0.057982
   2 C :   -0.256596
   3 C :   -0.086526
   4 C :   -0.065531
   5 O :   -0.308383
   6 C :    0.054281
   7 O :   -0.347430
   8 C :    0.064951
   9 H :    0.331474
  10 H :    0.098921
  11 H :    0.122427
  12 H :    0.121725
  13 H :    0.115360
  14 H :    0.107669
  15 H :    0.128157
  16 H :    0.088416
  17 H :    0.134283
  18 H :    0.104358
Sum of atomic charges:    0.0000000

LOEWDIN ATOMIC CHARGES
----------------------
   0 O :   -0.005838
   1 C :   -0.320605
   2 C :   -0.202562
   3 C :   -0.223824
   4 C :   -0.296517
   5 O :    0.159332
   6 C :   -0.393964
   7 O :    0.166952
   8 C :   -0.251295
   9 H :    0.181439
  10 H :    0.143714
  11 H :    0.125130
  12 H :    0.143413
  13 H :    0.156136
  14 H :    0.124745
  15 H :    0.135051
  16 H :    0.108650
  17 H :    0.124690
  18 H :    0.125353

  Mayer bond orders larger than 0.1
B(  0-O ,  1-C ) :   1.0149 B(  0-O ,  9-H ) :   0.8193 B(  1-C ,  2-C ) :   0.8905
B(  1-C ,  8-C ) :   0.9163 B(  1-C , 10-H ) :   0.9386 B(  2-C ,  3-C ) :   0.9043
B(  2-C , 11-H ) :   0.9207 B(  2-C , 12-H ) :   0.9048 B(  3-C ,  4-C ) :   0.9152
B(  3-C ,  8-C ) :   0.9364 B(  3-C , 13-H ) :   0.9056 B(  4-C ,  5-O ) :   0.9022
B(  4-C , 14-H ) :   0.9383 B(  4-C , 15-H ) :   0.9300 B(  5-O ,  6-C ) :   0.9862
B(  6-C ,  7-O ) :   0.9623 B(  6-C , 16-H ) :   0.9335 B(  6-C , 17-H ) :   0.9300
B(  7-O ,  8-C ) :   0.8815 B(  8-C , 18-H ) :   0.9379

MP2 TOTAL ENERGY:     -459.420984320 Eh
FINAL SINGLE POINT ENERGY      -459.420984320114

DIPOLE MOMENT
-------------
                                X             Y             Z
Electronic contribution:     -1.08815       3.12744      -0.30745
Nuclear contribution   :      0.72749      -4.15203       0.32357
                        -----------------------------------------
Total Dipole Moment    :     -0.36065      -1.02460       0.01612
                        -----------------------------------------
Magnitude (a.u.)       :      1.08634
Magnitude (Debye)      :      2.76125

                             ****ORCA TERMINATED NORMALLY****
TOTAL RUN TIME: 0 days 0 hours 16 minutes 28 seconds 991 msec
