                         Program Version 3.0.3 - RELEASE   -
|  1> ! RI-MP2 RIJK def2-TZVP def2-TZVP/C def2-TZVP/JK TIGHTSCF
|  2> % maxcore 2000
|  3> % mp2 density relaxed end
|  4> *xyz 0 1
|  5>  C        0.0082327199     1.4252836872    -0.1150919477
|  6>  C       -0.1822284619    -0.0858865930     0.0414212551
|  7>  C       -1.6045958145    -0.4428674978     0.4566470193
|  8>  O       -1.7310448801    -1.8531172669     0.6853534130
|  9>  C       -2.3804607534    -2.5883101180    -0.2339363184
| 10>  O       -2.5011433615    -3.7733558897    -0.1513648954
| 11>  H        1.0342045829     1.6602097755    -0.4106572031
| 12>  H       -0.6599495889     1.8369523134    -0.8795066806
| 13>  H       -0.1961910901     1.9520382646     0.8233291271
| 14>  H        0.0516037592    -0.5976704972    -0.8998760163
| 15>  H        0.5090258643    -0.4825421188     0.7930028893
| 16>  H       -1.8725256326     0.0452433960     1.3989501485
| 17>  H       -2.3284029596    -0.1215834056    -0.3047801315
| 18>  H       -2.7917820937    -1.9742033997    -1.0605167693
| 19> *
| 20>
| 21>                          ****END OF INPUT****

CARTESIAN COORDINATES (ANGSTROEM)
---------------------------------
  C      0.008233    1.425284   -0.115092
  C     -0.182228   -0.085887    0.041421
  C     -1.604596   -0.442867    0.456647
  O     -1.731045   -1.853117    0.685353
  C     -2.380461   -2.588310   -0.233936
  O     -2.501143   -3.773356   -0.151365
  H      1.034205    1.660210   -0.410657
  H     -0.659950    1.836952   -0.879507
  H     -0.196191    1.952038    0.823329
  H      0.051604   -0.597670   -0.899876
  H      0.509026   -0.482542    0.793003
  H     -1.872526    0.045243    1.398950
  H     -2.328403   -0.121583   -0.304780
  H     -2.791782   -1.974203   -1.060517

 Total Charge           Charge          ....    0
 Multiplicity           Mult            ....    1
 Number of Electrons    NEL             ....   48
 Basis Dimension        Dim             ....  234

ORBITAL ENERGIES
----------------

  NO   OCC          E(Eh)            E(eV)
   0   2.0000     -20.607623      -560.7619
   1   2.0000     -20.548526      -559.1538
   2   2.0000     -11.382274      -309.7274
   3   2.0000     -11.306255      -307.6588
   4   2.0000     -11.242061      -305.9120
   5   2.0000     -11.234146      -305.6966
   6   2.0000      -1.461303       -39.7641
   7   2.0000      -1.371786       -37.3282
   8   2.0000      -1.079241       -29.3677
   9   2.0000      -0.958554       -26.0836
  10   2.0000      -0.853603       -23.2277
  11   2.0000      -0.834609       -22.7109
  12   2.0000      -0.727806       -19.8046
  13   2.0000      -0.688228       -18.7276
  14   2.0000      -0.655735       -17.8435
  15   2.0000      -0.635909       -17.3040
  16   2.0000      -0.597862       -16.2687
  17   2.0000      -0.571813       -15.5598
  18   2.0000      -0.543249       -14.7825
  19   2.0000      -0.530509       -14.4359
  20   2.0000      -0.515857       -14.0372
  21   2.0000      -0.496730       -13.5167
  22   2.0000      -0.456833       -12.4311
  23   2.0000      -0.452783       -12.3208
  24   0.0000       0.123180         3.3519
  25   0.0000       0.143583         3.9071
  26   0.0000       0.158399         4.3102
  27   0.0000       0.173719         4.7271
  28   0.0000       0.181330         4.9342

MULLIKEN ATOMIC CHARGES
-----------------------
   0 C :   -0.403939
   1 C :   -0.179018
   2 C :   -0.088116
   3 O :   -0.204001
   4 C :    0.200853
   5 O :   -0.274247
   6 H :    0.143543
   7 H :    0.127315
   8 H :    0.129003
   9 H :    0.112390
  10 H :    0.127126
  11 H :    0.131838
  12 H :    0.108535
  13 H :    0.068717
Sum of atomic charges:    0.0000000

LOEWDIN ATOMIC CHARGES
----------------------
   0 C :   -0.315503
   1 C :   -0.297717
   2 C :   -0.297135
   3 O :    0.245032
   4 C :   -0.457367
   5 O :    0.117363
   6 H :    0.125888
   7 H :    0.121874
   8 H :    0.123045
   9 H :    0.137474
  10 H :    0.141743
  11 H :    0.132398
  12 H :    0.122978
  13 H :    0.099927

  Mayer bond orders larger than 0.1
B(  0-C ,  1-C ) :   0.9154 B(  0-C ,  6-H ) :   0.9372 B(  0-C ,  7-H ) :   0.9367
B(  0-C ,  8-H ) :   0.9355 B(  1-C ,  2-C ) :   0.9358 B(  1-C ,  9-H ) :   0.9257
B(  1-C , 10-H ) :   0.9293 B(  2-C ,  3-O ) :   0.8564 B(  2-C , 11-H ) :   0.9286
B(  2-C , 12-H ) :   0.9401 B(  3-O ,  4-C ) :   1.0785 B(  4-C ,  5-O ) :   2.0186
B(  4-C , 13-H ) :   0.9155

MP2 TOTAL ENERGY:     -307.099341431 Eh
FINAL SINGLE POINT ENERGY      -307.099341430750

DIPOLE MOMENT
-------------
                                X             Y             Z
Electronic contribution:     -4.44826      -9.66917       1.01833
Nuclear contribution   :      4.67212      11.32834      -1.33595
                        -----------------------------------------
Total Dipole Moment    :      0.22386       1.65917      -0.31762
                        -----------------------------------------
Magnitude (a.u.)       :      1.70406
Magnitude (Debye)      :      4.33138

                             ****ORCA TERMINATED NORMALLY****
TOTAL RUN TIME: 0 days 0 hours 4 minutes 20 seconds 759 msec
