                         Program Version 3.0.3 - RELEASE   -
|  1> ! RI-MP2 RIJK def2-TZVP def2-TZVP/C def2-TZVP/JK TIGHTSCF
|  2> % maxcore 2000
|  3> % mp2 density relaxed end
|  4> *xyz 0 1
|  5>  C       -0.0377487361     1.5757901433    -0.0211701303
|  6>  C        1.4482077347     1.9611860787     0.0035085158
|  7>  C        2.1022427123     0.8270563927    -0.3153889161
|  8>  C        2.4445470975    -0.2589753602     0.6657682170
|  9>  C        1.6939380186    -1.3321096371    -0.0615891279
| 10>  C        0.8685729749    -0.6359323539     0.9735488061
| 11>  N       -0.0074337075     0.0602985352    -0.0054830900
| 12>  C        1.1147993554    -0.2045604834    -0.9551391948
| 13>  H       -0.5403557937     1.9976444316     0.8560932614
| 14>  H       -0.6236321332     1.8572582270    -0.9046710029
| 15>  H        1.8209611640     2.6895985465     0.7173353271
| 16>  H        3.1677539226    -0.3324336227     1.4679943062
| 17>  H        1.8909555629    -2.3779364932    -0.2495984371
| 18>  H        0.5503739877    -0.9400548702     1.9625365041
| 19>  H        0.9111880898    -0.2400845743    -2.0246845288
| 20> *
| 21>
| 22>                          ****END OF INPUT****

CARTESIAN COORDINATES (ANGSTROEM)
---------------------------------
  C     -0.037749    1.575790   -0.021170
  C      1.448208    1.961186    0.003509
  C      2.102243    0.827056   -0.315389
  C      2.444547   -0.258975    0.665768
  C      1.693938   -1.332110   -0.061589
  C      0.868573   -0.635932    0.973549
  N     -0.007434    0.060299   -0.005483
  C      1.114799   -0.204560   -0.955139
  H     -0.540356    1.997644    0.856093
  H     -0.623632    1.857258   -0.904671
  H      1.820961    2.689599    0.717335
  H      3.167754   -0.332434    1.467994
  H      1.890956   -2.377936   -0.249598
  H      0.550374   -0.940055    1.962537
  H      0.911188   -0.240085   -2.024685

 Total Charge           Charge          ....    0
 Multiplicity           Mult            ....    1
 Number of Electrons    NEL             ....   56
 Basis Dimension        Dim             ....  290

ORBITAL ENERGIES
----------------

  NO   OCC          E(Eh)            E(eV)
   0   2.0000     -15.562559      -423.4788
   1   2.0000     -11.272887      -306.7509
   2   2.0000     -11.264780      -306.5302
   3   2.0000     -11.263620      -306.4987
   4   2.0000     -11.262920      -306.4796
   5   2.0000     -11.244990      -305.9917
   6   2.0000     -11.236687      -305.7658
   7   2.0000     -11.229940      -305.5822
   8   2.0000      -1.309449       -35.6319
   9   2.0000      -1.110906       -30.2293
  10   2.0000      -1.050348       -28.5814
  11   2.0000      -0.929985       -25.3062
  12   2.0000      -0.870105       -23.6768
  13   2.0000      -0.833412       -22.6783
  14   2.0000      -0.730969       -19.8907
  15   2.0000      -0.717949       -19.5364
  16   2.0000      -0.687685       -18.7129
  17   2.0000      -0.654504       -17.8100
  18   2.0000      -0.603337       -16.4176
  19   2.0000      -0.583978       -15.8909
  20   2.0000      -0.552074       -15.0227
  21   2.0000      -0.513627       -13.9765
  22   2.0000      -0.486598       -13.2410
  23   2.0000      -0.467698       -12.7267
  24   2.0000      -0.460573       -12.5328
  25   2.0000      -0.410121       -11.1600
  26   2.0000      -0.352891        -9.6027
  27   2.0000      -0.299887        -8.1603
  28   0.0000       0.084149         2.2898
  29   0.0000       0.151431         4.1207
  30   0.0000       0.164238         4.4691
  31   0.0000       0.173069         4.7094
  32   0.0000       0.188900         5.1402

MULLIKEN ATOMIC CHARGES
-----------------------
   0 C :   -0.159757
   1 C :   -0.202676
   2 C :    0.003601
   3 C :   -0.219502
   4 C :   -0.185677
   5 C :   -0.066004
   6 N :   -0.183602
   7 C :    0.034741
   8 H :    0.132699
   9 H :    0.132693
  10 H :    0.124730
  11 H :    0.140320
  12 H :    0.159360
  13 H :    0.139971
  14 H :    0.149102
Sum of atomic charges:    0.0000000

LOEWDIN ATOMIC CHARGES
----------------------
   0 C :   -0.244725
   1 C :   -0.138577
   2 C :   -0.133092
   3 C :   -0.124514
   4 C :   -0.140342
   5 C :   -0.160856
   6 N :    0.135422
   7 C :   -0.141536
   8 H :    0.137078
   9 H :    0.137137
  10 H :    0.133594
  11 H :    0.137385
  12 H :    0.135070
  13 H :    0.131490
  14 H :    0.136466

  Mayer bond orders larger than 0.1
B(  0-C ,  1-C ) :   0.9490 B(  0-C ,  6-N ) :   0.9199 B(  0-C ,  8-H ) :   0.9172
B(  0-C ,  9-H ) :   0.9140 B(  1-C ,  2-C ) :   1.7121 B(  1-C , 10-H ) :   0.9261
B(  2-C ,  3-C ) :   0.9488 B(  2-C ,  7-C ) :   0.8846 B(  3-C ,  4-C ) :   0.8612
B(  3-C ,  5-C ) :   0.7841 B(  3-C , 11-H ) :   0.9205 B(  4-C ,  5-C ) :   0.8518
B(  4-C ,  7-C ) :   0.9148 B(  4-C , 12-H ) :   0.8902 B(  5-C ,  6-N ) :   0.9689
B(  5-C , 13-H ) :   0.9203 B(  6-N ,  7-C ) :   0.9370 B(  7-C , 14-H ) :   0.8906

MP2 TOTAL ENERGY:     -324.774427213 Eh
FINAL SINGLE POINT ENERGY      -324.774427213201

DIPOLE MOMENT
-------------
                                X             Y             Z
Electronic contribution:      1.06935      -0.89896      -0.98821
Nuclear contribution   :     -0.94646       0.81921       1.38454
                        -----------------------------------------
Total Dipole Moment    :      0.12288      -0.07975       0.39633
                        -----------------------------------------
Magnitude (a.u.)       :      0.42254
Magnitude (Debye)      :      1.07401

                             ****ORCA TERMINATED NORMALLY****
TOTAL RUN TIME: 0 days 0 hours 14 minutes 3 seconds 803 msec
