                         Program Version 3.0.3 - RELEASE   -
|  1> ! RI-MP2 RIJK def2-TZVP def2-TZVP/C def2-TZVP/JK TIGHTSCF
|  2> % maxcore 2000
|  3> % mp2 density relaxed end
|  4> *xyz 0 1
|  5>  O        0.0179413009     1.4748886061     0.2408671758
|  6>  C       -0.1121508359     0.0930569097     0.5369659356
|  7>  C       -1.0189736749    -0.6103970657    -0.4762913111
|  8>  C       -1.1725401697    -2.0951258129    -0.2817671721
|  9>  N       -2.0581430610    -2.7277792216    -1.0752129199
| 10>  C       -2.1551078817    -4.0315958356    -0.8835600453
| 11>  C       -1.3795376703    -4.6713365741     0.0861145347
| 12>  N       -0.5270000932    -3.9931555240     0.8442085875
| 13>  N       -0.4206505494    -2.6795097999     0.6565673394
| 14>  H       -0.8357098492     1.8934206288     0.3902580796
| 15>  H        0.8960197100    -0.3253046994     0.4946248386
| 16>  H       -0.4797827192    -0.0748232449     1.5587811001
| 17>  H       -2.0235212462    -0.1665240457    -0.4633845355
| 18>  H       -0.6363236482    -0.4299904122    -1.4887065011
| 19>  H       -2.8583079281    -4.5833621348    -1.5039973589
| 20>  H       -1.4402349339    -5.7401801739     0.2640479025
| 21> *
| 22>
| 23>                          ****END OF INPUT****

CARTESIAN COORDINATES (ANGSTROEM)
---------------------------------
  O      0.017941    1.474889    0.240867
  C     -0.112151    0.093057    0.536966
  C     -1.018974   -0.610397   -0.476291
  C     -1.172540   -2.095126   -0.281767
  N     -2.058143   -2.727779   -1.075213
  C     -2.155108   -4.031596   -0.883560
  C     -1.379538   -4.671337    0.086115
  N     -0.527000   -3.993156    0.844209
  N     -0.420651   -2.679510    0.656567
  H     -0.835710    1.893421    0.390258
  H      0.896020   -0.325305    0.494625
  H     -0.479783   -0.074823    1.558781
  H     -2.023521   -0.166524   -0.463385
  H     -0.636324   -0.429990   -1.488707
  H     -2.858308   -4.583362   -1.503997
  H     -1.440235   -5.740180    0.264048

 Total Charge           Charge          ....    0
 Multiplicity           Mult            ....    1
 Number of Electrons    NEL             ....   66
 Basis Dimension        Dim             ....  321

ORBITAL ENERGIES
----------------

  NO   OCC          E(Eh)            E(eV)
   0   2.0000     -20.556654      -559.3750
   1   2.0000     -15.640002      -425.5861
   2   2.0000     -15.614588      -424.8945
   3   2.0000     -15.601733      -424.5447
   4   2.0000     -11.331456      -308.3446
   5   2.0000     -11.316988      -307.9509
   6   2.0000     -11.291095      -307.2463
   7   2.0000     -11.276320      -306.8443
   8   2.0000     -11.241872      -305.9069
   9   2.0000      -1.381887       -37.6030
  10   2.0000      -1.360705       -37.0267
  11   2.0000      -1.257925       -34.2299
  12   2.0000      -1.147293       -31.2194
  13   2.0000      -1.031449       -28.0671
  14   2.0000      -0.952217       -25.9111
  15   2.0000      -0.913424       -24.8555
  16   2.0000      -0.844959       -22.9925
  17   2.0000      -0.747878       -20.3508
  18   2.0000      -0.722935       -19.6721
  19   2.0000      -0.694975       -18.9112
  20   2.0000      -0.664860       -18.0918
  21   2.0000      -0.637539       -17.3483
  22   2.0000      -0.617590       -16.8055
  23   2.0000      -0.597292       -16.2531
  24   2.0000      -0.564713       -15.3666
  25   2.0000      -0.551623       -15.0104
  26   2.0000      -0.519334       -14.1318
  27   2.0000      -0.501810       -13.6549
  28   2.0000      -0.485570       -13.2130
  29   2.0000      -0.458556       -12.4779
  30   2.0000      -0.446608       -12.1528
  31   2.0000      -0.407038       -11.0761
  32   2.0000      -0.391937       -10.6652
  33   0.0000       0.058871         1.6020
  34   0.0000       0.100146         2.7251
  35   0.0000       0.130996         3.5646
  36   0.0000       0.154056         4.1921
  37   0.0000       0.168954         4.5975

MULLIKEN ATOMIC CHARGES
-----------------------
   0 O :   -0.465760
   1 C :   -0.017183
   2 C :   -0.215696
   3 C :    0.139097
   4 N :   -0.230875
   5 C :   -0.020951
   6 C :   -0.022718
   7 N :   -0.176185
   8 N :   -0.105311
   9 H :    0.312775
  10 H :    0.125276
  11 H :    0.113278
  12 H :    0.120704
  13 H :    0.140893
  14 H :    0.148275
  15 H :    0.154382
Sum of atomic charges:    0.0000000

LOEWDIN ATOMIC CHARGES
----------------------
   0 O :   -0.049985
   1 C :   -0.343451
   2 C :   -0.242385
   3 C :   -0.299663
   4 N :    0.174475
   5 C :   -0.200155
   6 C :   -0.217466
   7 N :    0.065711
   8 N :    0.089208
   9 H :    0.172296
  10 H :    0.133652
  11 H :    0.119609
  12 H :    0.149226
  13 H :    0.156788
  14 H :    0.145016
  15 H :    0.147124

  Mayer bond orders larger than 0.1
B(  0-O ,  1-C ) :   0.9337 B(  0-O ,  9-H ) :   0.8487 B(  1-C ,  2-C ) :   0.9397
B(  1-C , 10-H ) :   0.9182 B(  1-C , 11-H ) :   0.9468 B(  2-C ,  3-C ) :   0.9115
B(  2-C , 12-H ) :   0.9193 B(  2-C , 13-H ) :   0.8954 B(  3-C ,  4-N ) :   1.2907
B(  3-C ,  8-N ) :   1.4402 B(  4-N ,  5-C ) :   1.4437 B(  5-C ,  6-C ) :   1.2692
B(  5-C , 14-H ) :   0.9248 B(  6-C ,  7-N ) :   1.4666 B(  6-C , 15-H ) :   0.9220
B(  7-N ,  8-N ) :   1.0758

MP2 TOTAL ENERGY:     -433.341776556 Eh
FINAL SINGLE POINT ENERGY      -433.341776556487

DIPOLE MOMENT
-------------
                                X             Y             Z
Electronic contribution:     -0.53507      -5.12645       0.10793
Nuclear contribution   :     -0.64296       4.49322      -0.52885
                        -----------------------------------------
Total Dipole Moment    :     -1.17803      -0.63324      -0.42092
                        -----------------------------------------
Magnitude (a.u.)       :      1.40211
Magnitude (Debye)      :      3.56389

                             ****ORCA TERMINATED NORMALLY****
TOTAL RUN TIME: 0 days 0 hours 15 minutes 15 seconds 892 msec
