                         Program Version 3.0.3 - RELEASE   -
|  1> ! RI-MP2 RIJK def2-TZVP def2-TZVP/C def2-TZVP/JK TIGHTSCF
|  2> % maxcore 2000
|  3> % mp2 density relaxed end
|  4> *xyz 0 1
|  5>  C       -0.0682503515     1.6647659638    -0.1306363568
|  6>  C       -0.0137237521     0.1738754925     0.2214072181
|  7>  C       -1.3728995231    -0.5036342549     0.0705466154
|  8>  C       -1.8629461770    -0.7877548789    -1.3688151016
|  9>  O       -1.8940268521    -2.2114140512    -1.1287797093
| 10>  C       -1.4939261609    -2.0448466336     0.2416213396
| 11>  C       -0.2318709413    -2.8515031435     0.5771463406
| 12>  C       -0.4841025255    -4.2907820607     0.5688791201
| 13>  N       -0.6904075315    -5.4274833970     0.5747469106
| 14>  H        0.9153199910     2.1314843904    -0.0258713226
| 15>  H       -0.3996386115     1.8179528818    -1.1634676572
| 16>  H       -0.7650981164     2.1994059878     0.5238493414
| 17>  H        0.7252310502    -0.3217833422    -0.4204422147
| 18>  H        0.3422789541     0.0567004460     1.2530449687
| 19>  H       -2.1113457107     0.0294046163     0.6762705504
| 20>  H       -2.8539282656    -0.3962667138    -1.6256858162
| 21>  H       -1.1583449102    -0.5259903843    -2.1687869912
| 22>  H       -2.2971851941    -2.3485926733     0.9256191272
| 23>  H        0.5608661439    -2.6286661314    -0.1431281895
| 24>  H        0.1328014543    -2.5678293839     1.5715378870
| 25> *
| 26>
| 27>                          ****END OF INPUT****

CARTESIAN COORDINATES (ANGSTROEM)
---------------------------------
  C     -0.068250    1.664766   -0.130636
  C     -0.013724    0.173875    0.221407
  C     -1.372900   -0.503634    0.070547
  C     -1.862946   -0.787755   -1.368815
  O     -1.894027   -2.211414   -1.128780
  C     -1.493926   -2.044847    0.241621
  C     -0.231871   -2.851503    0.577146
  C     -0.484103   -4.290782    0.568879
  N     -0.690408   -5.427483    0.574747
  H      0.915320    2.131484   -0.025871
  H     -0.399639    1.817953   -1.163468
  H     -0.765098    2.199406    0.523849
  H      0.725231   -0.321783   -0.420442
  H      0.342279    0.056700    1.253045
  H     -2.111346    0.029405    0.676271
  H     -2.853928   -0.396267   -1.625686
  H     -1.158345   -0.525990   -2.168787
  H     -2.297185   -2.348593    0.925619
  H      0.560866   -2.628666   -0.143128
  H      0.132801   -2.567829    1.571538

 Total Charge           Charge          ....    0
 Multiplicity           Mult            ....    1
 Number of Electrons    NEL             ....   68
 Basis Dimension        Dim             ....  345

ORBITAL ENERGIES
----------------

  NO   OCC          E(Eh)            E(eV)
   0   2.0000     -20.562822      -559.5428
   1   2.0000     -15.564630      -423.5351
   2   2.0000     -11.310047      -307.7620
   3   2.0000     -11.291088      -307.2461
   4   2.0000     -11.283678      -307.0445
   5   2.0000     -11.269614      -306.6618
   6   2.0000     -11.253545      -306.2245
   7   2.0000     -11.246615      -306.0359
   8   2.0000     -11.234196      -305.6980
   9   2.0000      -1.396875       -38.0109
  10   2.0000      -1.214112       -33.0377
  11   2.0000      -1.097475       -29.8638
  12   2.0000      -1.065796       -29.0018
  13   2.0000      -0.986541       -26.8452
  14   2.0000      -0.918585       -24.9960
  15   2.0000      -0.862979       -23.4829
  16   2.0000      -0.761007       -20.7081
  17   2.0000      -0.725771       -19.7492
  18   2.0000      -0.691562       -18.8184
  19   2.0000      -0.673995       -18.3403
  20   2.0000      -0.639301       -17.3963
  21   2.0000      -0.627744       -17.0818
  22   2.0000      -0.591663       -16.1000
  23   2.0000      -0.574534       -15.6339
  24   2.0000      -0.570217       -15.5164
  25   2.0000      -0.556160       -15.1339
  26   2.0000      -0.543125       -14.7792
  27   2.0000      -0.525648       -14.3036
  28   2.0000      -0.502453       -13.6724
  29   2.0000      -0.479587       -13.0502
  30   2.0000      -0.464509       -12.6399
  31   2.0000      -0.452141       -12.3034
  32   2.0000      -0.449239       -12.2244
  33   2.0000      -0.424651       -11.5553
  34   0.0000       0.116757         3.1771
  35   0.0000       0.134169         3.6509
  36   0.0000       0.142890         3.8882
  37   0.0000       0.155646         4.2354
  38   0.0000       0.175887         4.7861

MULLIKEN ATOMIC CHARGES
-----------------------
   0 C :   -0.388793
   1 C :   -0.246851
   2 C :   -0.066386
   3 C :   -0.040878
   4 O :   -0.313243
   5 C :    0.052174
   6 C :   -0.129011
   7 C :   -0.178290
   8 N :   -0.050265
   9 H :    0.142167
  10 H :    0.129955
  11 H :    0.128797
  12 H :    0.114961
  13 H :    0.114664
  14 H :    0.117328
  15 H :    0.104830
  16 H :    0.098244
  17 H :    0.102765
  18 H :    0.152213
  19 H :    0.155620
Sum of atomic charges:   -0.0000000

LOEWDIN ATOMIC CHARGES
----------------------
   0 C :   -0.311201
   1 C :   -0.278769
   2 C :   -0.219069
   3 C :   -0.243821
   4 O :    0.147070
   5 C :   -0.252011
   6 C :   -0.228583
   7 C :   -0.188552
   8 N :    0.060373
   9 H :    0.123949
  10 H :    0.122837
  11 H :    0.123054
  12 H :    0.138854
  13 H :    0.138931
  14 H :    0.150714
  15 H :    0.118915
  16 H :    0.119975
  17 H :    0.142890
  18 H :    0.166192
  19 H :    0.168252

  Mayer bond orders larger than 0.1
B(  0-C ,  1-C ) :   0.9179 B(  0-C ,  9-H ) :   0.9414 B(  0-C , 10-H ) :   0.9396
B(  0-C , 11-H ) :   0.9384 B(  1-C ,  2-C ) :   0.9306 B(  1-C , 12-H ) :   0.9322
B(  1-C , 13-H ) :   0.9286 B(  2-C ,  3-C ) :   0.9531 B(  2-C ,  5-C ) :   0.9273
B(  2-C , 14-H ) :   0.9246 B(  3-C ,  4-O ) :   0.9470 B(  3-C , 15-H ) :   0.9145
B(  3-C , 16-H ) :   0.9055 B(  4-O ,  5-C ) :   0.9901 B(  5-C ,  6-C ) :   0.8780
B(  5-C , 17-H ) :   0.9246 B(  6-C ,  7-C ) :   0.9536 B(  6-C , 18-H ) :   0.9030
B(  6-C , 19-H ) :   0.9002 B(  7-C ,  8-N ) :   2.8837

MP2 TOTAL ENERGY:     -402.454126915 Eh
FINAL SINGLE POINT ENERGY      -402.454126915203

DIPOLE MOMENT
-------------
                                X             Y             Z
Electronic contribution:     -2.45167     -13.25712       0.23018
Nuclear contribution   :      2.84842      15.52933       0.12411
                        -----------------------------------------
Total Dipole Moment    :      0.39675       2.27221       0.35430
                        -----------------------------------------
Magnitude (a.u.)       :      2.33364
Magnitude (Debye)      :      5.93165

                             ****ORCA TERMINATED NORMALLY****
TOTAL RUN TIME: 0 days 0 hours 18 minutes 25 seconds 35 msec
