                         Program Version 3.0.3 - RELEASE   -
|  1> ! RI-MP2 RIJK def2-TZVP def2-TZVP/C def2-TZVP/JK TIGHTSCF
|  2> % maxcore 2000
|  3> % mp2 density relaxed end
|  4> *xyz 0 1
|  5>  C       -0.1094485342     1.9708837322    -0.2191649024
|  6>  N        0.1173988225     0.5514573447    -0.4015080692
|  7>  C       -0.7268155037    -0.3418930323    -0.1021317675
|  8>  N       -0.3046220390    -1.6600033257    -0.4657458184
|  9>  C       -0.5190235804    -2.9006755091     0.0555293487
| 10>  O       -1.2592641099    -3.2183216772     0.9677162221
| 11>  C       -2.1505006123    -0.0655201571     0.4100335492
| 12>  N       -2.6543746915    -0.9041931485     1.3357132185
| 13>  O       -2.7234378210     0.9262764408    -0.0077032037
| 14>  H        0.8593205538     2.4434223208    -0.0312759112
| 15>  H       -0.5103369766     2.3911119636    -1.1484893537
| 16>  H       -0.8107777728     2.2237645763     0.5798999376
| 17>  H        0.4862480676    -1.5952965925    -1.0954874978
| 18>  H        0.0913959238    -3.6518562917    -0.4755489837
| 19>  H       -2.2320682041    -1.8188127752     1.4907554787
| 20>  H       -3.6067928424    -0.7321049791     1.6193170228
| 21> *
| 22>
| 23>                          ****END OF INPUT****

CARTESIAN COORDINATES (ANGSTROEM)
---------------------------------
  C     -0.109449    1.970884   -0.219165
  N      0.117399    0.551457   -0.401508
  C     -0.726816   -0.341893   -0.102132
  N     -0.304622   -1.660003   -0.465746
  C     -0.519024   -2.900676    0.055529
  O     -1.259264   -3.218322    0.967716
  C     -2.150501   -0.065520    0.410034
  N     -2.654375   -0.904193    1.335713
  O     -2.723438    0.926276   -0.007703
  H      0.859321    2.443422   -0.031276
  H     -0.510337    2.391112   -1.148489
  H     -0.810778    2.223765    0.579900
  H      0.486248   -1.595297   -1.095487
  H      0.091396   -3.651856   -0.475549
  H     -2.232068   -1.818813    1.490755
  H     -3.606793   -0.732105    1.619317

 Total Charge           Charge          ....    0
 Multiplicity           Mult            ....    1
 Number of Electrons    NEL             ....   68
 Basis Dimension        Dim             ....  321

ORBITAL ENERGIES
----------------

  NO   OCC          E(Eh)            E(eV)
   0   2.0000     -20.564216      -559.5808
   1   2.0000     -20.532018      -558.7046
   2   2.0000     -15.629893      -425.3110
   3   2.0000     -15.582296      -424.0158
   4   2.0000     -15.576976      -423.8711
   5   2.0000     -11.390623      -309.9546
   6   2.0000     -11.373277      -309.4826
   7   2.0000     -11.347206      -308.7732
   8   2.0000     -11.248206      -306.0792
   9   2.0000      -1.424533       -38.7635
  10   2.0000      -1.398253       -38.0484
  11   2.0000      -1.305305       -35.5192
  12   2.0000      -1.219993       -33.1977
  13   2.0000      -1.212535       -32.9947
  14   2.0000      -0.991236       -26.9729
  15   2.0000      -0.893584       -24.3157
  16   2.0000      -0.875380       -23.8203
  17   2.0000      -0.784940       -21.3593
  18   2.0000      -0.744511       -20.2592
  19   2.0000      -0.742257       -20.1978
  20   2.0000      -0.693302       -18.8657
  21   2.0000      -0.663608       -18.0577
  22   2.0000      -0.642420       -17.4811
  23   2.0000      -0.624193       -16.9852
  24   2.0000      -0.620333       -16.8801
  25   2.0000      -0.591761       -16.1026
  26   2.0000      -0.572967       -15.5912
  27   2.0000      -0.557928       -15.1820
  28   2.0000      -0.498020       -13.5518
  29   2.0000      -0.477614       -12.9965
  30   2.0000      -0.473045       -12.8722
  31   2.0000      -0.419407       -11.4126
  32   2.0000      -0.411497       -11.1974
  33   2.0000      -0.390717       -10.6320
  34   0.0000       0.093259         2.5377
  35   0.0000       0.127966         3.4821
  36   0.0000       0.148445         4.0394
  37   0.0000       0.154646         4.2081
  38   0.0000       0.169539         4.6134

MULLIKEN ATOMIC CHARGES
-----------------------
   0 C :   -0.271956
   1 N :   -0.243292
   2 C :    0.183930
   3 N :   -0.280227
   4 C :    0.226584
   5 O :   -0.393239
   6 C :    0.236249
   7 N :   -0.459237
   8 O :   -0.345665
   9 H :    0.139216
  10 H :    0.145797
  11 H :    0.137260
  12 H :    0.255281
  13 H :    0.112411
  14 H :    0.299241
  15 H :    0.257648
Sum of atomic charges:   -0.0000000

LOEWDIN ATOMIC CHARGES
----------------------
   0 C :   -0.324240
   1 N :    0.110737
   2 C :   -0.257756
   3 N :    0.136825
   4 C :   -0.407927
   5 O :    0.059449
   6 C :   -0.465573
   7 N :    0.010953
   8 O :    0.098394
   9 H :    0.116298
  10 H :    0.128291
  11 H :    0.116253
  12 H :    0.207444
  13 H :    0.123689
  14 H :    0.169507
  15 H :    0.177655

  Mayer bond orders larger than 0.1
B(  0-C ,  1-N ) :   0.8880 B(  0-C ,  9-H ) :   0.9309 B(  0-C , 10-H ) :   0.9246
B(  0-C , 11-H ) :   0.9301 B(  1-N ,  2-C ) :   1.8582 B(  2-C ,  3-N ) :   0.9116
B(  2-C ,  6-C ) :   0.8817 B(  3-N ,  4-C ) :   1.1571 B(  3-N , 12-H ) :   0.8438
B(  4-C ,  5-O ) :   1.7859 B(  4-C , 13-H ) :   0.9245 B(  6-C ,  7-N ) :   1.2389
B(  6-C ,  8-O ) :   1.9096 B(  7-N , 14-H ) :   0.7969 B(  7-N , 15-H ) :   0.8565

MP2 TOTAL ENERGY:     -470.499858226 Eh
FINAL SINGLE POINT ENERGY      -470.499858225597

DIPOLE MOMENT
-------------
                                X             Y             Z
Electronic contribution:     -1.74134      -3.96108       0.18545
Nuclear contribution   :      2.31071       3.44402      -0.36212
                        -----------------------------------------
Total Dipole Moment    :      0.56937      -0.51706      -0.17667
                        -----------------------------------------
Magnitude (a.u.)       :      0.78915
Magnitude (Debye)      :      2.00585

                             ****ORCA TERMINATED NORMALLY****
TOTAL RUN TIME: 0 days 0 hours 13 minutes 44 seconds 666 msec
