                         Program Version 3.0.3 - RELEASE   -
|  1> ! RI-MP2 RIJK def2-TZVP def2-TZVP/C def2-TZVP/JK TIGHTSCF
|  2> % maxcore 2000
|  3> % mp2 density relaxed end
|  4> *xyz 0 1
|  5>  C        0.6774972909     1.5462973615     0.1554046490
|  6>  C        0.0958150443     0.1400034765     0.0278125433
|  7>  C        0.8460358817    -0.8217964707    -0.9519304334
|  8>  O        1.6840700358    -0.2848498709    -1.9487803820
|  9>  C        1.4767140684    -1.5845246542     0.2597948083
| 10>  C        2.9495841829    -1.2911815047     0.5370978347
| 11>  C        0.4496706987    -0.8517267113     1.1849839766
| 12>  O        0.8718384525    -0.3461816084     2.4301832533
| 13>  H        1.7562269205     1.5551455389     0.3556159192
| 14>  H        0.5185177369     2.1121034823    -0.7672636585
| 15>  H        0.1954176117     2.0876989623     0.9746791444
| 16>  H       -0.9769008154     0.2272156889    -0.1699386110
| 17>  H        0.1417370961    -1.4585567624    -1.4931318763
| 18>  H        2.3314708016     0.2901756698    -1.5293385040
| 19>  H        1.3428913538    -2.6698452020     0.2197713680
| 20>  H        3.1771589131    -0.2193817865     0.5943130556
| 21>  H        3.2562528926    -1.7347935343     1.4888800523
| 22>  H        3.5793578423    -1.7104059847    -0.2530678673
| 23>  H       -0.3986446235    -1.4993603103     1.4202099667
| 24>  H        1.6237384052     0.2366711501     2.2865074211
| 25> *
| 26>
| 27>                          ****END OF INPUT****

CARTESIAN COORDINATES (ANGSTROEM)
---------------------------------
  C      0.677497    1.546297    0.155405
  C      0.095815    0.140003    0.027813
  C      0.846036   -0.821796   -0.951930
  O      1.684070   -0.284850   -1.948780
  C      1.476714   -1.584525    0.259795
  C      2.949584   -1.291182    0.537098
  C      0.449671   -0.851727    1.184984
  O      0.871838   -0.346182    2.430183
  H      1.756227    1.555146    0.355616
  H      0.518518    2.112103   -0.767264
  H      0.195418    2.087699    0.974679
  H     -0.976901    0.227216   -0.169939
  H      0.141737   -1.458557   -1.493132
  H      2.331471    0.290176   -1.529339
  H      1.342891   -2.669845    0.219771
  H      3.177159   -0.219382    0.594313
  H      3.256253   -1.734794    1.488880
  H      3.579358   -1.710406   -0.253068
  H     -0.398645   -1.499360    1.420210
  H      1.623738    0.236671    2.286507

 Total Charge           Charge          ....    0
 Multiplicity           Mult            ....    1
 Number of Electrons    NEL             ....   64
 Basis Dimension        Dim             ....  320

ORBITAL ENERGIES
----------------

  NO   OCC          E(Eh)            E(eV)
   0   2.0000     -20.559352      -559.4484
   1   2.0000     -20.559351      -559.4484
   2   2.0000     -11.279084      -306.9195
   3   2.0000     -11.279078      -306.9193
   4   2.0000     -11.229360      -305.5664
   5   2.0000     -11.229342      -305.5659
   6   2.0000     -11.228105      -305.5323
   7   2.0000     -11.228097      -305.5321
   8   2.0000      -1.369328       -37.2613
   9   2.0000      -1.363413       -37.1004
  10   2.0000      -1.123260       -30.5655
  11   2.0000      -1.017803       -27.6958
  12   2.0000      -0.955189       -25.9920
  13   2.0000      -0.879259       -23.9259
  14   2.0000      -0.825561       -22.4647
  15   2.0000      -0.767444       -20.8832
  16   2.0000      -0.700836       -19.0707
  17   2.0000      -0.664267       -18.0756
  18   2.0000      -0.646983       -17.6053
  19   2.0000      -0.629968       -17.1423
  20   2.0000      -0.592634       -16.1264
  21   2.0000      -0.586616       -15.9626
  22   2.0000      -0.560821       -15.2607
  23   2.0000      -0.555758       -15.1229
  24   2.0000      -0.550046       -14.9675
  25   2.0000      -0.531551       -14.4642
  26   2.0000      -0.528224       -14.3737
  27   2.0000      -0.515816       -14.0361
  28   2.0000      -0.474946       -12.9239
  29   2.0000      -0.426837       -11.6148
  30   2.0000      -0.412640       -11.2285
  31   2.0000      -0.406203       -11.0534
  32   0.0000       0.116637         3.1739
  33   0.0000       0.137808         3.7500
  34   0.0000       0.164660         4.4806
  35   0.0000       0.174249         4.7416
  36   0.0000       0.194603         5.2954

MULLIKEN ATOMIC CHARGES
-----------------------
   0 C :   -0.527246
   1 C :    0.012589
   2 C :   -0.004565
   3 O :   -0.438465
   4 C :    0.012586
   5 C :   -0.527211
   6 C :   -0.004565
   7 O :   -0.438465
   8 H :    0.106723
   9 H :    0.159864
  10 H :    0.159864
  11 H :    0.108850
  12 H :    0.105824
  13 H :    0.316558
  14 H :    0.108847
  15 H :    0.106712
  16 H :    0.159859
  17 H :    0.159859
  18 H :    0.105824
  19 H :    0.316558
Sum of atomic charges:   -0.0000000

LOEWDIN ATOMIC CHARGES
----------------------
   0 C :   -0.309300
   1 C :   -0.228223
   2 C :   -0.289158
   3 O :   -0.004689
   4 C :   -0.228223
   5 C :   -0.309294
   6 C :   -0.289158
   7 O :   -0.004689
   8 H :    0.112233
   9 H :    0.131286
  10 H :    0.131287
  11 H :    0.143292
  12 H :    0.141923
  13 H :    0.171349
  14 H :    0.143291
  15 H :    0.112232
  16 H :    0.131285
  17 H :    0.131286
  18 H :    0.141923
  19 H :    0.171349

  Mayer bond orders larger than 0.1
B(  0-C ,  1-C ) :   0.8447 B(  0-C ,  8-H ) :   0.9378 B(  0-C ,  9-H ) :   0.9356
B(  0-C , 10-H ) :   0.9356 B(  1-C ,  2-C ) :   0.8903 B(  1-C ,  6-C ) :   0.8903
B(  1-C , 11-H ) :   0.9161 B(  2-C ,  3-O ) :   1.0160 B(  2-C ,  4-C ) :   0.8903
B(  2-C , 12-H ) :   0.9330 B(  3-O , 13-H ) :   0.8376 B(  4-C ,  5-C ) :   0.8447
B(  4-C ,  6-C ) :   0.8903 B(  4-C , 14-H ) :   0.9161 B(  5-C , 15-H ) :   0.9378
B(  5-C , 16-H ) :   0.9356 B(  5-C , 17-H ) :   0.9356 B(  6-C ,  7-O ) :   1.0160
B(  6-C , 18-H ) :   0.9330 B(  7-O , 19-H ) :   0.8376

MP2 TOTAL ENERGY:     -385.500390106 Eh
FINAL SINGLE POINT ENERGY      -385.500390106115

DIPOLE MOMENT
-------------
                                X             Y             Z
Electronic contribution:     -2.08232      -1.72270      -0.41037
Nuclear contribution   :      2.38654       1.97457       0.47033
                        -----------------------------------------
Total Dipole Moment    :      0.30422       0.25187       0.05996
                        -----------------------------------------
Magnitude (a.u.)       :      0.39948
Magnitude (Debye)      :      1.01540

                             ****ORCA TERMINATED NORMALLY****
TOTAL RUN TIME: 0 days 0 hours 13 minutes 52 seconds 564 msec
