                         Program Version 3.0.3 - RELEASE   -
|  1> ! RI-MP2 RIJK def2-TZVP def2-TZVP/C def2-TZVP/JK TIGHTSCF
|  2> % maxcore 2000
|  3> % mp2 density relaxed end
|  4> *xyz 0 1
|  5>  O       -0.0651225211    -0.0365307970    -0.2161667395
|  6>  C        0.0148468926     1.1452328315     0.0071769758
|  7>  C        1.3209711667     1.8969393850    -0.0065989198
|  8>  C        1.2296904314     3.2769977009    -0.7235656512
|  9>  O        0.5417229581     3.8019122960     0.4656480269
| 10>  C        1.4651193404     2.9028119522     1.1742464165
| 11>  C        2.8204288703     3.6049414174     0.8943935292
| 12>  O        3.6436191475     2.9574438339    -0.0856565473
| 13>  C        2.6438467638     3.8856420384    -0.5287558862
| 14>  H       -0.8801863258     1.7576744804     0.2391710828
| 15>  H        2.1519371116     1.2361105041    -0.2399855753
| 16>  H        0.6957570328     3.4448280099    -1.6575562048
| 17>  H        1.1742765734     2.6841004546     2.2004833348
| 18>  H        3.3158648967     4.2418656505     1.6174527066
| 19>  H        2.9842247515     4.7690818321    -1.0556471586
| 20> *
| 21>
| 22>                          ****END OF INPUT****

CARTESIAN COORDINATES (ANGSTROEM)
---------------------------------
  O     -0.065123   -0.036531   -0.216167
  C      0.014847    1.145233    0.007177
  C      1.320971    1.896939   -0.006599
  C      1.229690    3.276998   -0.723566
  O      0.541723    3.801912    0.465648
  C      1.465119    2.902812    1.174246
  C      2.820429    3.604941    0.894394
  O      3.643619    2.957444   -0.085657
  C      2.643847    3.885642   -0.528756
  H     -0.880186    1.757674    0.239171
  H      2.151937    1.236111   -0.239986
  H      0.695757    3.444828   -1.657556
  H      1.174277    2.684100    2.200483
  H      3.315865    4.241866    1.617453
  H      2.984225    4.769082   -1.055647

 Total Charge           Charge          ....    0
 Multiplicity           Mult            ....    1
 Number of Electrons    NEL             ....   66
 Basis Dimension        Dim             ....  315

ORBITAL ENERGIES
----------------

  NO   OCC          E(Eh)            E(eV)
   0   2.0000     -20.595812      -560.4405
   1   2.0000     -20.580736      -560.0303
   2   2.0000     -20.562013      -559.5208
   3   2.0000     -11.335781      -308.4623
   4   2.0000     -11.327540      -308.2380
   5   2.0000     -11.327524      -308.2376
   6   2.0000     -11.311190      -307.7931
   7   2.0000     -11.310344      -307.7701
   8   2.0000     -11.263511      -306.4957
   9   2.0000      -1.455486       -39.6058
  10   2.0000      -1.404197       -38.2101
  11   2.0000      -1.396583       -38.0029
  12   2.0000      -1.074649       -29.2427
  13   2.0000      -0.990123       -26.9426
  14   2.0000      -0.984327       -26.7849
  15   2.0000      -0.853811       -23.2334
  16   2.0000      -0.818742       -22.2791
  17   2.0000      -0.773674       -21.0527
  18   2.0000      -0.751375       -20.4460
  19   2.0000      -0.710836       -19.3428
  20   2.0000      -0.668486       -18.1904
  21   2.0000      -0.645718       -17.5709
  22   2.0000      -0.618061       -16.8183
  23   2.0000      -0.612239       -16.6599
  24   2.0000      -0.567418       -15.4402
  25   2.0000      -0.556493       -15.1430
  26   2.0000      -0.552546       -15.0355
  27   2.0000      -0.541691       -14.7402
  28   2.0000      -0.494954       -13.4684
  29   2.0000      -0.471537       -12.8312
  30   2.0000      -0.454993       -12.3810
  31   2.0000      -0.444148       -12.0859
  32   2.0000      -0.411264       -11.1911
  33   0.0000       0.118196         3.2163
  34   0.0000       0.143924         3.9164
  35   0.0000       0.152736         4.1562
  36   0.0000       0.157893         4.2965
  37   0.0000       0.170348         4.6354

MULLIKEN ATOMIC CHARGES
-----------------------
   0 O :   -0.255540
   1 C :    0.002209
   2 C :    0.011476
   3 C :   -0.002876
   4 O :   -0.307189
   5 C :   -0.002885
   6 C :   -0.003741
   7 O :   -0.315435
   8 C :   -0.003751
   9 H :    0.115789
  10 H :    0.163797
  11 H :    0.150539
  12 H :    0.150538
  13 H :    0.148533
  14 H :    0.148536
Sum of atomic charges:    0.0000000

LOEWDIN ATOMIC CHARGES
----------------------
   0 O :    0.137004
   1 C :   -0.276419
   2 C :   -0.179423
   3 C :   -0.201624
   4 O :    0.154247
   5 C :   -0.201606
   6 C :   -0.224215
   7 O :    0.178970
   8 C :   -0.224191
   9 H :    0.122042
  10 H :    0.159513
  11 H :    0.138550
  12 H :    0.138550
  13 H :    0.139302
  14 H :    0.139301

  Mayer bond orders larger than 0.1
B(  0-O ,  1-C ) :   1.9947 B(  1-C ,  2-C ) :   0.8148 B(  1-C ,  9-H ) :   0.9602
B(  2-C ,  3-C ) :   0.8986 B(  2-C ,  5-C ) :   0.8986 B(  2-C ,  9-H ) :  -0.1030
B(  2-C , 10-H ) :   0.8890 B(  3-C ,  4-O ) :   0.9054 B(  3-C ,  8-C ) :   0.8761
B(  3-C , 11-H ) :   0.9029 B(  4-O ,  5-C ) :   0.9054 B(  5-C ,  6-C ) :   0.8761
B(  5-C , 12-H ) :   0.9029 B(  6-C ,  7-O ) :   0.9389 B(  6-C ,  8-C ) :   0.9555
B(  6-C , 13-H ) :   0.9221 B(  7-O ,  8-C ) :   0.9389 B(  8-C , 14-H ) :   0.9221

MP2 TOTAL ENERGY:     -456.959858665 Eh
FINAL SINGLE POINT ENERGY      -456.959858664685

DIPOLE MOMENT
-------------
                                X             Y             Z
Electronic contribution:     -0.10732      -1.34848      -0.25282
Nuclear contribution   :      0.39483       2.42033       0.42871
                        -----------------------------------------
Total Dipole Moment    :      0.28752       1.07184       0.17589
                        -----------------------------------------
Magnitude (a.u.)       :      1.12359
Magnitude (Debye)      :      2.85594

                             ****ORCA TERMINATED NORMALLY****
TOTAL RUN TIME: 0 days 0 hours 14 minutes 33 seconds 392 msec
