                         Program Version 3.0.3 - RELEASE   -
|  1> ! RI-MP2 RIJK def2-TZVP def2-TZVP/C def2-TZVP/JK TIGHTSCF
|  2> % maxcore 2000
|  3> % mp2 density relaxed end
|  4> *xyz 0 1
|  5>  C       -1.4141365427     0.4801879623    -0.3774600480
|  6>  O       -0.0325622127     0.3286089966    -0.1020338536
|  7>  C        0.6400149563    -0.6520695976    -0.8651398951
|  8>  C        0.6384968535    -0.2993087557    -2.3655574557
|  9>  C        1.0547025120     1.1372150882    -2.5946614293
| 10>  O        0.3864508387     1.9520138724    -3.1786055062
| 11>  C        2.0516914907    -0.9383681923    -0.2866735039
| 12>  C        1.7818411912    -2.4577305254    -0.4509822954
| 13>  C        0.2678038768    -2.1436559496    -0.5913156404
| 14>  H       -1.5951365695     0.9371079596    -1.3588726197
| 15>  H       -1.9471584719    -0.4800242871    -0.3269180707
| 16>  H       -1.8149294893     1.1425317220     0.3932847523
| 17>  H        1.3471098451    -0.9583911409    -2.8846179349
| 18>  H       -0.3467587109    -0.4500237515    -2.8158405101
| 19>  H        2.0483096046     1.4112555532    -2.1745769447
| 20>  H        2.9136547585    -0.5099641869    -0.8035760053
| 21>  H        2.0795689784    -0.6354089233     0.7621868628
| 22>  H        2.2090978234    -2.8620393025    -1.3724235758
| 23>  H        2.0791238100    -3.1048577513     0.3757818536
| 24>  H       -0.2540726949    -2.2275310238     0.3655518623
| 25>  H       -0.2974438273    -2.6795025565    -1.3578891821
| 26> *
| 27>
| 28>                          ****END OF INPUT****

CARTESIAN COORDINATES (ANGSTROEM)
---------------------------------
  C     -1.414137    0.480188   -0.377460
  O     -0.032562    0.328609   -0.102034
  C      0.640015   -0.652070   -0.865140
  C      0.638497   -0.299309   -2.365557
  C      1.054703    1.137215   -2.594661
  O      0.386451    1.952014   -3.178606
  C      2.051691   -0.938368   -0.286674
  C      1.781841   -2.457731   -0.450982
  C      0.267804   -2.143656   -0.591316
  H     -1.595137    0.937108   -1.358873
  H     -1.947158   -0.480024   -0.326918
  H     -1.814929    1.142532    0.393285
  H      1.347110   -0.958391   -2.884618
  H     -0.346759   -0.450024   -2.815841
  H      2.048310    1.411256   -2.174577
  H      2.913655   -0.509964   -0.803576
  H      2.079569   -0.635409    0.762187
  H      2.209098   -2.862039   -1.372424
  H      2.079124   -3.104858    0.375782
  H     -0.254073   -2.227531    0.365552
  H     -0.297444   -2.679503   -1.357889

 Total Charge           Charge          ....    0
 Multiplicity           Mult            ....    1
 Number of Electrons    NEL             ....   70
 Basis Dimension        Dim             ....  351

ORBITAL ENERGIES
----------------

  NO   OCC          E(Eh)            E(eV)
   0   2.0000     -20.560888      -559.4902
   1   2.0000     -20.554019      -559.3033
   2   2.0000     -11.330230      -308.3112
   3   2.0000     -11.300191      -307.4938
   4   2.0000     -11.271360      -306.7093
   5   2.0000     -11.241885      -305.9072
   6   2.0000     -11.233234      -305.6718
   7   2.0000     -11.231353      -305.6207
   8   2.0000     -11.229428      -305.5683
   9   2.0000      -1.393994       -37.9325
  10   2.0000      -1.381760       -37.5996
  11   2.0000      -1.140759       -31.0416
  12   2.0000      -1.027585       -27.9620
  13   2.0000      -0.946670       -25.7602
  14   2.0000      -0.914140       -24.8750
  15   2.0000      -0.858508       -23.3612
  16   2.0000      -0.801118       -21.7995
  17   2.0000      -0.742399       -20.2017
  18   2.0000      -0.696745       -18.9594
  19   2.0000      -0.673932       -18.3386
  20   2.0000      -0.653288       -17.7769
  21   2.0000      -0.645242       -17.5579
  22   2.0000      -0.623198       -16.9581
  23   2.0000      -0.613174       -16.6853
  24   2.0000      -0.582866       -15.8606
  25   2.0000      -0.569297       -15.4914
  26   2.0000      -0.544602       -14.8194
  27   2.0000      -0.527476       -14.3534
  28   2.0000      -0.507481       -13.8093
  29   2.0000      -0.487404       -13.2629
  30   2.0000      -0.480668       -13.0796
  31   2.0000      -0.473774       -12.8920
  32   2.0000      -0.441791       -12.0217
  33   2.0000      -0.427936       -11.6447
  34   2.0000      -0.402791       -10.9605
  35   0.0000       0.128780         3.5043
  36   0.0000       0.138567         3.7706
  37   0.0000       0.149838         4.0773
  38   0.0000       0.162320         4.4170
  39   0.0000       0.165519         4.5040

MULLIKEN ATOMIC CHARGES
-----------------------
   0 C :   -0.240220
   1 O :   -0.316059
   2 C :    0.216081
   3 C :   -0.249270
   4 C :    0.101387
   5 O :   -0.268219
   6 C :   -0.245551
   7 C :   -0.248261
   8 C :   -0.252930
   9 H :    0.139861
  10 H :    0.117602
  11 H :    0.144404
  12 H :    0.143194
  13 H :    0.134165
  14 H :    0.081838
  15 H :    0.118605
  16 H :    0.129358
  17 H :    0.122207
  18 H :    0.122676
  19 H :    0.126049
  20 H :    0.123082
Sum of atomic charges:    0.0000000

LOEWDIN ATOMIC CHARGES
----------------------
   0 C :   -0.345295
   1 O :    0.177814
   2 C :   -0.345502
   3 C :   -0.229370
   4 C :   -0.286089
   5 O :    0.130330
   6 C :   -0.198806
   7 C :   -0.240790
   8 C :   -0.207555
   9 H :    0.108067
  10 H :    0.104825
  11 H :    0.115520
  12 H :    0.159361
  13 H :    0.149169
  14 H :    0.112300
  15 H :    0.125558
  16 H :    0.144052
  17 H :    0.131507
  18 H :    0.125920
  19 H :    0.142086
  20 H :    0.126897

  Mayer bond orders larger than 0.1
B(  0-C ,  1-O ) :   0.8881 B(  0-C ,  9-H ) :   0.9283 B(  0-C , 10-H ) :   0.9298
B(  0-C , 11-H ) :   0.9405 B(  1-O ,  2-C ) :   0.9991 B(  2-C ,  3-C ) :   0.9032
B(  2-C ,  6-C ) :   0.8636 B(  2-C ,  8-C ) :   0.8973 B(  3-C ,  4-C ) :   0.8733
B(  3-C , 12-H ) :   0.9005 B(  3-C , 13-H ) :   0.9068 B(  4-C ,  5-O ) :   1.9880
B(  4-C , 14-H ) :   0.9387 B(  6-C ,  7-C ) :   0.9332 B(  6-C , 15-H ) :   0.9311
B(  6-C , 16-H ) :   0.9189 B(  7-C ,  8-C ) :   0.9499 B(  7-C , 17-H ) :   0.9284
B(  7-C , 18-H ) :   0.9282 B(  8-C , 19-H ) :   0.9172 B(  8-C , 20-H ) :   0.9275

MP2 TOTAL ENERGY:     -423.505261067 Eh
FINAL SINGLE POINT ENERGY      -423.505261066851

DIPOLE MOMENT
-------------
                                X             Y             Z
Electronic contribution:      0.50516       5.77303      -2.75245
Nuclear contribution   :     -0.34954      -6.87244       3.02929
                        -----------------------------------------
Total Dipole Moment    :      0.15562      -1.09941       0.27683
                        -----------------------------------------
Magnitude (a.u.)       :      1.14436
Magnitude (Debye)      :      2.90873

                             ****ORCA TERMINATED NORMALLY****
TOTAL RUN TIME: 0 days 0 hours 19 minutes 24 seconds 726 msec
