                         Program Version 3.0.3 - RELEASE   -
|  1> ! RI-MP2 RIJK def2-TZVP def2-TZVP/C def2-TZVP/JK TIGHTSCF
|  2> % maxcore 2000
|  3> % mp2 density relaxed end
|  4> *xyz 0 1
|  5>  C        0.0038882847     1.4973303290     0.0344961496
|  6>  C       -0.0346719506    -0.0145600518    -0.0136244601
|  7>  O       -1.2483166080    -0.4181931087    -0.5607662986
|  8>  C        1.2942322002    -0.6981632533    -0.2822018461
|  9>  C        0.6679431950    -0.7271010598     1.1283268667
| 10>  C        0.5149414641    -2.2537999728     1.2558823196
| 11>  C        1.8953954974    -2.7864676675     0.7864920678
| 12>  C        1.3094295937    -2.2170933186    -0.5334227780
| 13>  O       -0.0098162621    -2.6614717106    -0.0568988148
| 14>  H        0.9417166843     1.8653219907     0.4586317182
| 15>  H       -0.1077816905     1.9030496507    -0.9755531172
| 16>  H       -0.8263577019     1.8698668442     0.6421012004
| 17>  H       -1.2198941704    -1.3872296927    -0.5680352698
| 18>  H        2.1778530382    -0.1222736345    -0.5359276983
| 19>  H        1.0637364608    -0.1737564750     1.9732933475
| 20>  H       -0.0387280434    -2.6699395652     2.0966412281
| 21>  H        2.7989965707    -2.3301543379     1.1970709180
| 22>  H        1.9474663912    -3.8767236345     0.7872487802
| 23>  H        1.5678398366    -2.5957141018    -1.5215867232
| 24> *
| 25>
| 26>                          ****END OF INPUT****

CARTESIAN COORDINATES (ANGSTROEM)
---------------------------------
  C      0.003888    1.497330    0.034496
  C     -0.034672   -0.014560   -0.013624
  O     -1.248317   -0.418193   -0.560766
  C      1.294232   -0.698163   -0.282202
  C      0.667943   -0.727101    1.128327
  C      0.514941   -2.253800    1.255882
  C      1.895395   -2.786468    0.786492
  C      1.309430   -2.217093   -0.533423
  O     -0.009816   -2.661472   -0.056899
  H      0.941717    1.865322    0.458632
  H     -0.107782    1.903050   -0.975553
  H     -0.826358    1.869867    0.642101
  H     -1.219894   -1.387230   -0.568035
  H      2.177853   -0.122274   -0.535928
  H      1.063736   -0.173756    1.973293
  H     -0.038728   -2.669940    2.096641
  H      2.798997   -2.330154    1.197071
  H      1.947466   -3.876724    0.787249
  H      1.567840   -2.595714   -1.521587

 Total Charge           Charge          ....    0
 Multiplicity           Mult            ....    1
 Number of Electrons    NEL             ....   68
 Basis Dimension        Dim             ....  339

ORBITAL ENERGIES
----------------

  NO   OCC          E(Eh)            E(eV)
   0   2.0000     -20.566286      -559.6371
   1   2.0000     -20.537468      -558.8529
   2   2.0000     -11.303956      -307.5963
   3   2.0000     -11.303943      -307.5959
   4   2.0000     -11.296296      -307.3878
   5   2.0000     -11.241545      -305.8980
   6   2.0000     -11.234653      -305.7105
   7   2.0000     -11.234068      -305.6945
   8   2.0000     -11.214713      -305.1678
   9   2.0000      -1.409747       -38.3612
  10   2.0000      -1.352356       -36.7995
  11   2.0000      -1.146830       -31.2068
  12   2.0000      -1.026968       -27.9452
  13   2.0000      -0.962883       -26.2014
  14   2.0000      -0.958775       -26.0896
  15   2.0000      -0.807845       -21.9826
  16   2.0000      -0.777191       -21.1484
  17   2.0000      -0.761059       -20.7095
  18   2.0000      -0.719107       -19.5679
  19   2.0000      -0.684518       -18.6267
  20   2.0000      -0.669359       -18.2142
  21   2.0000      -0.606691       -16.5089
  22   2.0000      -0.570502       -15.5241
  23   2.0000      -0.563813       -15.3421
  24   2.0000      -0.563179       -15.3249
  25   2.0000      -0.544182       -14.8080
  26   2.0000      -0.534678       -14.5493
  27   2.0000      -0.524747       -14.2791
  28   2.0000      -0.507678       -13.8146
  29   2.0000      -0.495548       -13.4845
  30   2.0000      -0.479522       -13.0485
  31   2.0000      -0.427575       -11.6349
  32   2.0000      -0.392247       -10.6736
  33   2.0000      -0.376347       -10.2409
  34   0.0000       0.137195         3.7333
  35   0.0000       0.160447         4.3660
  36   0.0000       0.162864         4.4318
  37   0.0000       0.167729         4.5641
  38   0.0000       0.189333         5.1520

MULLIKEN ATOMIC CHARGES
-----------------------
   0 C :   -0.444722
   1 C :    0.195790
   2 O :   -0.460199
   3 C :   -0.170419
   4 C :   -0.170434
   5 C :    0.055219
   6 C :   -0.244260
   7 C :    0.055217
   8 O :   -0.360717
   9 H :    0.125165
  10 H :    0.140809
  11 H :    0.140817
  12 H :    0.340256
  13 H :    0.132288
  14 H :    0.132288
  15 H :    0.143041
  16 H :    0.120772
  17 H :    0.126048
  18 H :    0.143041
Sum of atomic charges:    0.0000000

LOEWDIN ATOMIC CHARGES
----------------------
   0 C :   -0.258662
   1 C :   -0.349560
   2 O :    0.025990
   3 C :   -0.153646
   4 C :   -0.153647
   5 C :   -0.225116
   6 C :   -0.194486
   7 C :   -0.225117
   8 O :    0.147386
   9 H :    0.127844
  10 H :    0.131220
  11 H :    0.131223
  12 H :    0.171353
  13 H :    0.144545
  14 H :    0.144544
  15 H :    0.134286
  16 H :    0.130990
  17 H :    0.136566
  18 H :    0.134286

  Mayer bond orders larger than 0.1
B(  0-C ,  1-C ) :   0.8957 B(  0-C ,  9-H ) :   0.9418 B(  0-C , 10-H ) :   0.9394
B(  0-C , 11-H ) :   0.9394 B(  1-C ,  2-O ) :   1.0471 B(  1-C ,  3-C ) :   0.8756
B(  1-C ,  4-C ) :   0.8756 B(  2-O , 12-H ) :   0.7899 B(  3-C ,  4-C ) :   0.8009
B(  3-C ,  7-C ) :   0.9031 B(  3-C , 13-H ) :   0.9049 B(  4-C ,  5-C ) :   0.9031
B(  4-C , 14-H ) :   0.9049 B(  5-C ,  6-C ) :   0.9373 B(  5-C ,  8-O ) :   0.8576
B(  5-C , 15-H ) :   0.9120 B(  6-C ,  7-C ) :   0.9373 B(  6-C , 16-H ) :   0.9125
B(  6-C , 17-H ) :   0.9259 B(  7-C ,  8-O ) :   0.8576 B(  7-C , 18-H ) :   0.9120

MP2 TOTAL ENERGY:     -422.279365906 Eh
FINAL SINGLE POINT ENERGY      -422.279365906294

DIPOLE MOMENT
-------------
                                X             Y             Z
Electronic contribution:     -2.45281      -3.80178      -1.16705
Nuclear contribution   :      3.58629       3.59404       1.66606
                        -----------------------------------------
Total Dipole Moment    :      1.13348      -0.20774       0.49901
                        -----------------------------------------
Magnitude (a.u.)       :      1.25576
Magnitude (Debye)      :      3.19190

                             ****ORCA TERMINATED NORMALLY****
TOTAL RUN TIME: 0 days 0 hours 19 minutes 8 seconds 600 msec
