                         Program Version 3.0.3 - RELEASE   -
|  1> ! RI-MP2 RIJK def2-TZVP def2-TZVP/C def2-TZVP/JK TIGHTSCF
|  2> % maxcore 2000
|  3> % mp2 density relaxed end
|  4> *xyz 0 1
|  5>  C        0.0418696971     1.5056447922     0.1262493800
|  6>  C        0.0492722965     0.0115692118     0.0024034686
|  7>  C       -0.9273522757    -0.9098641725     0.7616981445
|  8>  O       -1.0618435303    -2.1367772598     0.0423431416
|  9>  C        0.3706297653    -2.0409816270    -0.1978912511
| 10>  C        0.5381272985    -1.0371667274     1.0017994725
| 11>  C        0.5180088813    -0.8449958429    -1.1951963641
| 12>  C       -0.3646121209    -0.8742587433    -2.4395734820
| 13>  C        1.9849044967    -0.5904121553    -1.5436028145
| 14>  H        1.0334653567     1.9309271109    -0.0668994667
| 15>  H       -0.6606756810     1.9600202617    -0.5819609703
| 16>  H       -0.2580951574     1.8187614593     1.1325745401
| 17>  H       -1.7469275357    -0.5683382508     1.3810088524
| 18>  H        0.8532120458    -3.0042917312    -0.3575202667
| 19>  H        1.1603919209    -0.9957956617     1.8849756784
| 20>  H       -1.3903613031    -1.1412335557    -2.1791624843
| 21>  H       -0.3718793890     0.1038704911    -2.9343456299
| 22>  H        0.0063768368    -1.6051953102    -3.1677529440
| 23>  H        2.3577806928    -1.3568474550    -2.2326431884
| 24>  H        2.1108595863     0.3798952987    -2.0366433941
| 25>  H        2.6210580482    -0.5971669731    -0.6524403921
| 26> *
| 27>
| 28>                          ****END OF INPUT****

CARTESIAN COORDINATES (ANGSTROEM)
---------------------------------
  C      0.041870    1.505645    0.126249
  C      0.049272    0.011569    0.002403
  C     -0.927352   -0.909864    0.761698
  O     -1.061844   -2.136777    0.042343
  C      0.370630   -2.040982   -0.197891
  C      0.538127   -1.037167    1.001799
  C      0.518009   -0.844996   -1.195196
  C     -0.364612   -0.874259   -2.439573
  C      1.984904   -0.590412   -1.543603
  H      1.033465    1.930927   -0.066899
  H     -0.660676    1.960020   -0.581961
  H     -0.258095    1.818761    1.132575
  H     -1.746928   -0.568338    1.381009
  H      0.853212   -3.004292   -0.357520
  H      1.160392   -0.995796    1.884976
  H     -1.390361   -1.141234   -2.179162
  H     -0.371879    0.103870   -2.934346
  H      0.006377   -1.605195   -3.167753
  H      2.357781   -1.356847   -2.232643
  H      2.110860    0.379895   -2.036643
  H      2.621058   -0.597167   -0.652440

 Total Charge           Charge          ....    0
 Multiplicity           Mult            ....    1
 Number of Electrons    NEL             ....   68
 Basis Dimension        Dim             ....  351

ORBITAL ENERGIES
----------------

  NO   OCC          E(Eh)            E(eV)
   0   2.0000     -20.547536      -559.1269
   1   2.0000     -11.288714      -307.1815
   2   2.0000     -11.284085      -307.0556
   3   2.0000     -11.241725      -305.9029
   4   2.0000     -11.238420      -305.8129
   5   2.0000     -11.232884      -305.6623
   6   2.0000     -11.225977      -305.4744
   7   2.0000     -11.216415      -305.2142
   8   2.0000     -11.203946      -304.8749
   9   2.0000      -1.398093       -38.0440
  10   2.0000      -1.159643       -31.5555
  11   2.0000      -1.046144       -28.4670
  12   2.0000      -0.981518       -26.7085
  13   2.0000      -0.931203       -25.3393
  14   2.0000      -0.910508       -24.7762
  15   2.0000      -0.825856       -22.4727
  16   2.0000      -0.752025       -20.4636
  17   2.0000      -0.705538       -19.1987
  18   2.0000      -0.693388       -18.8680
  19   2.0000      -0.633700       -17.2438
  20   2.0000      -0.623796       -16.9744
  21   2.0000      -0.598969       -16.2988
  22   2.0000      -0.572492       -15.5783
  23   2.0000      -0.559798       -15.2329
  24   2.0000      -0.548784       -14.9332
  25   2.0000      -0.543731       -14.7957
  26   2.0000      -0.531849       -14.4723
  27   2.0000      -0.523941       -14.2572
  28   2.0000      -0.513167       -13.9640
  29   2.0000      -0.477044       -12.9810
  30   2.0000      -0.442159       -12.0318
  31   2.0000      -0.421537       -11.4706
  32   2.0000      -0.379589       -10.3291
  33   2.0000      -0.365122        -9.9355
  34   0.0000       0.130256         3.5444
  35   0.0000       0.158012         4.2997
  36   0.0000       0.165970         4.5163
  37   0.0000       0.178984         4.8704
  38   0.0000       0.185604         5.0505

MULLIKEN ATOMIC CHARGES
-----------------------
   0 C :   -0.439096
   1 C :    0.011692
   2 C :   -0.021775
   3 O :   -0.333620
   4 C :    0.084251
   5 C :   -0.235477
   6 C :    0.181323
   7 C :   -0.450643
   8 C :   -0.456506
   9 H :    0.140025
  10 H :    0.144190
  11 H :    0.135663
  12 H :    0.136819
  13 H :    0.134884
  14 H :    0.151805
  15 H :    0.158061
  16 H :    0.125415
  17 H :    0.124232
  18 H :    0.134998
  19 H :    0.134275
  20 H :    0.139484
Sum of atomic charges:    0.0000000

LOEWDIN ATOMIC CHARGES
----------------------
   0 C :   -0.271606
   1 C :   -0.177851
   2 C :   -0.215168
   3 O :    0.168759
   4 C :   -0.159352
   5 C :   -0.120970
   6 C :   -0.255519
   7 C :   -0.268884
   8 C :   -0.261513
   9 H :    0.129088
  10 H :    0.131822
  11 H :    0.132462
  12 H :    0.135134
  13 H :    0.130420
  14 H :    0.132928
  15 H :    0.132772
  16 H :    0.125884
  17 H :    0.126151
  18 H :    0.126978
  19 H :    0.127223
  20 H :    0.131243

  Mayer bond orders larger than 0.1
B(  0-C ,  1-C ) :   0.8650 B(  0-C ,  9-H ) :   0.9382 B(  0-C , 10-H ) :   0.9421
B(  0-C , 11-H ) :   0.9332 B(  1-C ,  2-C ) :   0.8579 B(  1-C ,  5-C ) :   0.8124
B(  1-C ,  6-C ) :   0.8929 B(  2-C ,  3-O ) :   0.9580 B(  2-C ,  5-C ) :   0.8901
B(  2-C , 12-H ) :   0.9271 B(  3-O ,  4-C ) :   0.8747 B(  4-C ,  5-C ) :   0.9338
B(  4-C ,  6-C ) :   0.9551 B(  4-C , 13-H ) :   0.9075 B(  5-C , 14-H ) :   0.8986
B(  6-C ,  7-C ) :   0.8906 B(  6-C ,  8-C ) :   0.8827 B(  7-C , 15-H ) :   0.9371
B(  7-C , 16-H ) :   0.9322 B(  7-C , 17-H ) :   0.9324 B(  8-C , 18-H ) :   0.9377
B(  8-C , 19-H ) :   0.9356 B(  8-C , 20-H ) :   0.9359

MP2 TOTAL ENERGY:     -386.356568605 Eh
FINAL SINGLE POINT ENERGY      -386.356568604664

DIPOLE MOMENT
-------------
                                X             Y             Z
Electronic contribution:     -3.43625      -5.12877       4.70506
Nuclear contribution   :      3.95484       5.68008      -4.56863
                        -----------------------------------------
Total Dipole Moment    :      0.51859       0.55131       0.13642
                        -----------------------------------------
Magnitude (a.u.)       :      0.76908
Magnitude (Debye)      :      1.95485

                             ****ORCA TERMINATED NORMALLY****
TOTAL RUN TIME: 0 days 0 hours 20 minutes 2 seconds 669 msec
