                         Program Version 3.0.3 - RELEASE   -
|  1> ! RI-MP2 RIJK def2-TZVP def2-TZVP/C def2-TZVP/JK TIGHTSCF
|  2> % maxcore 2000
|  3> % mp2 density relaxed end
|  4> *xyz 0 1
|  5>  C       -0.1273223684     1.5251008289    -0.0301014294
|  6>  C       -0.0006042023     0.0165601795     0.0225511579
|  7>  C        1.3114618194    -0.7345172872    -0.2724388886
|  8>  C        2.5883178332    -0.0003013123    -0.4120501053
|  9>  C        3.1053704163     0.7687436548     0.5502267272
| 10>  C        2.4346080078     0.9704588032     1.8823949869
| 11>  C        1.4611720930    -0.1684226592     2.2518240139
| 12>  C        0.6742697457    -0.7938621385     1.1037806526
| 13>  C       -0.0114163156    -2.0888937859     1.5027485839
| 14>  H        0.8436911063     2.0234625267    -0.0475393314
| 15>  H       -0.6589100366     1.8235935162    -0.9398726786
| 16>  H       -0.6973118637     1.9122296332     0.8226659490
| 17>  H       -0.8738013970    -0.4871620554    -0.3869158695
| 18>  H        1.2131305813    -1.6124500816    -0.9051301830
| 19>  H        3.1109202487    -0.1005624387    -1.3602147609
| 20>  H        4.0402708309     1.2954038059     0.3775306814
| 21>  H        3.1910102095     1.0612721102     2.6715491316
| 22>  H        1.9051837073     1.9326341013     1.8845812796
| 23>  H        2.0457997695    -0.9798224029     2.7048821792
| 24>  H        0.7719988886     0.1759643920     3.0330873354
| 25>  H       -0.7485730232    -1.9184990520     2.2973267688
| 26>  H       -0.5363968575    -2.5414193729     0.6557451632
| 27>  H        0.7132580468    -2.8220321355     1.8768046462
| 28> *
| 29>
| 30>                          ****END OF INPUT****

CARTESIAN COORDINATES (ANGSTROEM)
---------------------------------
  C     -0.127322    1.525101   -0.030101
  C     -0.000604    0.016560    0.022551
  C      1.311462   -0.734517   -0.272439
  C      2.588318   -0.000301   -0.412050
  C      3.105370    0.768744    0.550227
  C      2.434608    0.970459    1.882395
  C      1.461172   -0.168423    2.251824
  C      0.674270   -0.793862    1.103781
  C     -0.011416   -2.088894    1.502749
  H      0.843691    2.023463   -0.047539
  H     -0.658910    1.823594   -0.939873
  H     -0.697312    1.912230    0.822666
  H     -0.873801   -0.487162   -0.386916
  H      1.213131   -1.612450   -0.905130
  H      3.110920   -0.100562   -1.360215
  H      4.040271    1.295404    0.377531
  H      3.191010    1.061272    2.671549
  H      1.905184    1.932634    1.884581
  H      2.045800   -0.979822    2.704882
  H      0.771999    0.175964    3.033087
  H     -0.748573   -1.918499    2.297327
  H     -0.536397   -2.541419    0.655745
  H      0.713258   -2.822032    1.876805

 Total Charge           Charge          ....    0
 Multiplicity           Mult            ....    1
 Number of Electrons    NEL             ....   68
 Basis Dimension        Dim             ....  363

ORBITAL ENERGIES
----------------

  NO   OCC          E(Eh)            E(eV)
   0   2.0000     -11.230536      -305.5984
   1   2.0000     -11.226573      -305.4906
   2   2.0000     -11.221827      -305.3614
   3   2.0000     -11.221704      -305.3581
   4   2.0000     -11.220208      -305.3174
   5   2.0000     -11.219976      -305.3111
   6   2.0000     -11.216783      -305.2242
   7   2.0000     -11.212915      -305.1189
   8   2.0000     -11.209664      -305.0305
   9   2.0000      -1.168188       -31.7880
  10   2.0000      -1.060860       -28.8675
  11   2.0000      -1.013368       -27.5752
  12   2.0000      -0.976210       -26.5640
  13   2.0000      -0.924918       -25.1683
  14   2.0000      -0.867266       -23.5995
  15   2.0000      -0.807866       -21.9831
  16   2.0000      -0.737428       -20.0664
  17   2.0000      -0.682455       -18.5706
  18   2.0000      -0.655757       -17.8441
  19   2.0000      -0.619261       -16.8509
  20   2.0000      -0.606607       -16.5066
  21   2.0000      -0.596470       -16.2308
  22   2.0000      -0.568246       -15.4627
  23   2.0000      -0.556733       -15.1495
  24   2.0000      -0.541687       -14.7400
  25   2.0000      -0.537009       -14.6128
  26   2.0000      -0.525533       -14.3005
  27   2.0000      -0.504887       -13.7387
  28   2.0000      -0.488090       -13.2816
  29   2.0000      -0.467806       -12.7296
  30   2.0000      -0.450881       -12.2691
  31   2.0000      -0.415249       -11.2995
  32   2.0000      -0.379073       -10.3151
  33   2.0000      -0.323080        -8.7915
  34   0.0000       0.130203         3.5430
  35   0.0000       0.156456         4.2574
  36   0.0000       0.159400         4.3375
  37   0.0000       0.169371         4.6088
  38   0.0000       0.173648         4.7252

MULLIKEN ATOMIC CHARGES
-----------------------
   0 C :   -0.417085
   1 C :   -0.158932
   2 C :   -0.040926
   3 C :   -0.242286
   4 C :   -0.192497
   5 C :   -0.167888
   6 C :   -0.264550
   7 C :    0.152312
   8 C :   -0.412506
   9 H :    0.150985
  10 H :    0.133932
  11 H :    0.131149
  12 H :    0.111952
  13 H :    0.118248
  14 H :    0.113651
  15 H :    0.116364
  16 H :    0.126558
  17 H :    0.125625
  18 H :    0.112659
  19 H :    0.118170
  20 H :    0.129726
  21 H :    0.125689
  22 H :    0.129652
Sum of atomic charges:   -0.0000000

LOEWDIN ATOMIC CHARGES
----------------------
   0 C :   -0.291608
   1 C :   -0.180424
   2 C :   -0.158857
   3 C :   -0.156411
   4 C :   -0.178646
   5 C :   -0.252591
   6 C :   -0.205650
   7 C :   -0.231981
   8 C :   -0.265700
   9 H :    0.131285
  10 H :    0.126171
  11 H :    0.125099
  12 H :    0.151458
  13 H :    0.150120
  14 H :    0.144369
  15 H :    0.139981
  16 H :    0.141959
  17 H :    0.142888
  18 H :    0.147958
  19 H :    0.142544
  20 H :    0.126167
  21 H :    0.126271
  22 H :    0.125597

  Mayer bond orders larger than 0.1
B(  0-C ,  1-C ) :   0.9018 B(  0-C ,  9-H ) :   0.9365 B(  0-C , 10-H ) :   0.9359
B(  0-C , 11-H ) :   0.9392 B(  1-C ,  2-C ) :   0.8249 B(  1-C ,  7-C ) :   0.8781
B(  1-C , 12-H ) :   0.9301 B(  2-C ,  3-C ) :   0.9576 B(  2-C ,  7-C ) :   0.8352
B(  2-C , 13-H ) :   0.9273 B(  3-C ,  4-C ) :   1.7774 B(  3-C , 14-H ) :   0.9359
B(  4-C ,  5-C ) :   0.9474 B(  4-C , 15-H ) :   0.9334 B(  5-C ,  6-C ) :   0.9409
B(  5-C , 16-H ) :   0.9305 B(  5-C , 17-H ) :   0.9049 B(  6-C ,  7-C ) :   0.9419
B(  6-C , 18-H ) :   0.9271 B(  6-C , 19-H ) :   0.9322 B(  7-C ,  8-C ) :   0.8945
B(  8-C , 20-H ) :   0.9401 B(  8-C , 21-H ) :   0.9306 B(  8-C , 22-H ) :   0.9407

MP2 TOTAL ENERGY:     -350.513706977 Eh
FINAL SINGLE POINT ENERGY      -350.513706977407

DIPOLE MOMENT
-------------
                                X             Y             Z
Electronic contribution:      2.76066      -0.45395      -1.90490
Nuclear contribution   :     -2.87859       0.45507       2.00780
                        -----------------------------------------
Total Dipole Moment    :     -0.11793       0.00111       0.10290
                        -----------------------------------------
Magnitude (a.u.)       :      0.15652
Magnitude (Debye)      :      0.39784

                             ****ORCA TERMINATED NORMALLY****
TOTAL RUN TIME: 0 days 0 hours 22 minutes 35 seconds 406 msec
