                         Program Version 3.0.3 - RELEASE   -
|  1> ! RI-MP2 RIJK def2-TZVP def2-TZVP/C def2-TZVP/JK TIGHTSCF
|  2> % maxcore 2000
|  3> % mp2 density relaxed end
|  4> *xyz 0 1
|  5>  C       -0.0931182827     1.5121726156    -0.0390616275
|  6>  C        0.1268851640     0.0165094792     0.0193420622
|  7>  O        1.2412700494    -0.4486559306    -0.8060248208
|  8>  C        1.7704333837    -1.2227724673     0.2789517614
|  9>  C        2.1895354425    -0.2888838590     1.4002560886
| 10>  C        0.7364939106    -0.6518646156     1.2519279015
| 11>  O       -0.0121838362    -1.2745273677     2.2219901189
| 12>  C        2.2853706798    -2.5226442208     0.0488362969
| 13>  C        2.7191415159    -3.6287304637    -0.1415404441
| 14>  H        0.7900035902     2.0622392423     0.2971237476
| 15>  H       -0.3195498036     1.8227767372    -1.0637342932
| 16>  H       -0.9429866102     1.7899186163     0.5936561339
| 17>  H       -0.7809149795    -0.5258711929    -0.2750252317
| 18>  H        2.6811570263    -0.7899655069     2.2287620469
| 19>  H        2.5717353821     0.6969325978     1.1499777756
| 20>  H        0.1351222647    -0.8275793949     3.0620399559
| 21>  H        3.0999053829    -4.6048820491    -0.3133074320
| 22> *
| 23>
| 24>                          ****END OF INPUT****

CARTESIAN COORDINATES (ANGSTROEM)
---------------------------------
  C     -0.093118    1.512173   -0.039062
  C      0.126885    0.016509    0.019342
  O      1.241270   -0.448656   -0.806025
  C      1.770433   -1.222772    0.278952
  C      2.189535   -0.288884    1.400256
  C      0.736494   -0.651865    1.251928
  O     -0.012184   -1.274527    2.221990
  C      2.285371   -2.522644    0.048836
  C      2.719142   -3.628730   -0.141540
  H      0.790004    2.062239    0.297124
  H     -0.319550    1.822777   -1.063734
  H     -0.942987    1.789919    0.593656
  H     -0.780915   -0.525871   -0.275025
  H      2.681157   -0.789966    2.228762
  H      2.571735    0.696933    1.149978
  H      0.135122   -0.827579    3.062040
  H      3.099905   -4.604882   -0.313307

 Total Charge           Charge          ....    0
 Multiplicity           Mult            ....    1
 Number of Electrons    NEL             ....   66
 Basis Dimension        Dim             ....  327

ORBITAL ENERGIES
----------------

  NO   OCC          E(Eh)            E(eV)
   0   2.0000     -20.588354      -560.2376
   1   2.0000     -20.562743      -559.5407
   2   2.0000     -11.314005      -307.8697
   3   2.0000     -11.310203      -307.7663
   4   2.0000     -11.294578      -307.3411
   5   2.0000     -11.251336      -306.1644
   6   2.0000     -11.239501      -305.8424
   7   2.0000     -11.231380      -305.6214
   8   2.0000     -11.225688      -305.4665
   9   2.0000      -1.415860       -38.5275
  10   2.0000      -1.384773       -37.6816
  11   2.0000      -1.125353       -30.6224
  12   2.0000      -1.048176       -28.5223
  13   2.0000      -1.018115       -27.7043
  14   2.0000      -0.901864       -24.5410
  15   2.0000      -0.867465       -23.6049
  16   2.0000      -0.777483       -21.1564
  17   2.0000      -0.752711       -20.4823
  18   2.0000      -0.706350       -19.2208
  19   2.0000      -0.687964       -18.7204
  20   2.0000      -0.654810       -17.8183
  21   2.0000      -0.636988       -17.3333
  22   2.0000      -0.609882       -16.5957
  23   2.0000      -0.574155       -15.6236
  24   2.0000      -0.559004       -15.2113
  25   2.0000      -0.553025       -15.0486
  26   2.0000      -0.528322       -14.3764
  27   2.0000      -0.518649       -14.1132
  28   2.0000      -0.473216       -12.8769
  29   2.0000      -0.443396       -12.0654
  30   2.0000      -0.422852       -11.5064
  31   2.0000      -0.393847       -10.7171
  32   2.0000      -0.344288        -9.3686
  33   0.0000       0.126124         3.4320
  34   0.0000       0.148043         4.0285
  35   0.0000       0.156313         4.2535
  36   0.0000       0.160851         4.3770
  37   0.0000       0.163773         4.4565

MULLIKEN ATOMIC CHARGES
-----------------------
   0 C :   -0.401888
   1 C :    0.108102
   2 O :   -0.312458
   3 C :    0.003631
   4 C :   -0.314298
   5 C :    0.118424
   6 O :   -0.440174
   7 C :   -0.018337
   8 C :   -0.073669
   9 H :    0.124743
  10 H :    0.147033
  11 H :    0.132598
  12 H :    0.099426
  13 H :    0.154292
  14 H :    0.139160
  15 H :    0.336922
  16 H :    0.196494
Sum of atomic charges:    0.0000000

LOEWDIN ATOMIC CHARGES
----------------------
   0 C :   -0.291367
   1 C :   -0.251489
   2 O :    0.198828
   3 C :   -0.255911
   4 C :   -0.156758
   5 C :   -0.306188
   6 O :    0.049567
   7 C :   -0.065158
   8 C :   -0.065946
   9 H :    0.124777
  10 H :    0.132214
  11 H :    0.131216
  12 H :    0.149533
  13 H :    0.151208
  14 H :    0.136760
  15 H :    0.189979
  16 H :    0.128734

  Mayer bond orders larger than 0.1
B(  0-C ,  1-C ) :   0.9194 B(  0-C ,  9-H ) :   0.9358 B(  0-C , 10-H ) :   0.9329
B(  0-C , 11-H ) :   0.9291 B(  1-C ,  2-O ) :   0.8935 B(  1-C ,  5-C ) :   0.9506
B(  1-C , 12-H ) :   0.8986 B(  2-O ,  3-C ) :   1.0210 B(  3-C ,  4-C ) :   0.7895
B(  3-C ,  5-C ) :   0.8015 B(  3-C ,  6-O ) :  -0.1304 B(  3-C ,  7-C ) :   1.2469
B(  3-C ,  8-C ) :  -0.1701 B(  4-C ,  5-C ) :   0.9171 B(  4-C , 13-H ) :   0.9212
B(  4-C , 14-H ) :   0.8882 B(  5-C ,  6-O ) :   1.0968 B(  6-O , 15-H ) :   0.8290
B(  7-C ,  8-C ) :   2.6023 B(  8-C , 16-H ) :   0.8728

MP2 TOTAL ENERGY:     -421.031125387 Eh
FINAL SINGLE POINT ENERGY      -421.031125387269

DIPOLE MOMENT
-------------
                                X             Y             Z
Electronic contribution:      1.89719      -5.75766      -0.63346
Nuclear contribution   :     -1.92787       6.26523       1.57180
                        -----------------------------------------
Total Dipole Moment    :     -0.03068       0.50757       0.93834
                        -----------------------------------------
Magnitude (a.u.)       :      1.06726
Magnitude (Debye)      :      2.71277

                             ****ORCA TERMINATED NORMALLY****
TOTAL RUN TIME: 0 days 0 hours 16 minutes 23 seconds 664 msec
