                         Program Version 3.0.3 - RELEASE   -
|  1> ! RI-MP2 RIJK def2-TZVP def2-TZVP/C def2-TZVP/JK TIGHTSCF
|  2> % maxcore 2000
|  3> % mp2 density relaxed end
|  4> *xyz 0 1
|  5>  C       -0.2699908691     1.5267042323     0.0193987925
|  6>  C        0.1238288934     0.0513755008    -0.0344302570
|  7>  C        0.9997557613    -0.3943517960    -1.2140227102
|  8>  C        1.9328695317    -1.4148110567    -0.6063946445
|  9>  N        2.6366742202    -2.2560637706    -1.2172499929
| 10>  O        1.9165728093    -1.2751642463     0.7764922579
| 11>  C        0.9415362839    -0.3801089483     1.1795788429
| 12>  O        0.8168988179    -0.0628301242     2.3211370438
| 13>  H        0.6140009967     2.1701350087    -0.0346828226
| 14>  H       -0.9286942476     1.7812244141    -0.8152725814
| 15>  H       -0.7900246117     1.7452845589     0.9548834803
| 16>  H       -0.7860510641    -0.5632503943    -0.0010906031
| 17>  H        0.4551540942    -0.8196029055    -2.0571891633
| 18>  H        1.5953134989     0.4435590720    -1.5950465387
| 19>  H        3.1891417950    -2.8173318848    -0.5670788537
| 20> *
| 21>
| 22>                          ****END OF INPUT****

CARTESIAN COORDINATES (ANGSTROEM)
---------------------------------
  C     -0.269991    1.526704    0.019399
  C      0.123829    0.051376   -0.034430
  C      0.999756   -0.394352   -1.214023
  C      1.932870   -1.414811   -0.606395
  N      2.636674   -2.256064   -1.217250
  O      1.916573   -1.275164    0.776492
  C      0.941536   -0.380109    1.179579
  O      0.816899   -0.062830    2.321137
  H      0.614001    2.170135   -0.034683
  H     -0.928694    1.781224   -0.815273
  H     -0.790025    1.745285    0.954883
  H     -0.786051   -0.563250   -0.001091
  H      0.455154   -0.819603   -2.057189
  H      1.595313    0.443559   -1.595047
  H      3.189142   -2.817332   -0.567079

 Total Charge           Charge          ....    0
 Multiplicity           Mult            ....    1
 Number of Electrons    NEL             ....   60
 Basis Dimension        Dim             ....  290

ORBITAL ENERGIES
----------------

  NO   OCC          E(Eh)            E(eV)
   0   2.0000     -20.635370      -561.5170
   1   2.0000     -20.566160      -559.6337
   2   2.0000     -15.557177      -423.3323
   3   2.0000     -11.399914      -310.2074
   4   2.0000     -11.362071      -309.1777
   5   2.0000     -11.279255      -306.9241
   6   2.0000     -11.267775      -306.6117
   7   2.0000     -11.245619      -306.0089
   8   2.0000      -1.492568       -40.6148
   9   2.0000      -1.401119       -38.1264
  10   2.0000      -1.221539       -33.2398
  11   2.0000      -1.125987       -30.6397
  12   2.0000      -0.995895       -27.0997
  13   2.0000      -0.915140       -24.9022
  14   2.0000      -0.842903       -22.9365
  15   2.0000      -0.783535       -21.3211
  16   2.0000      -0.725718       -19.7478
  17   2.0000      -0.698170       -18.9982
  18   2.0000      -0.677052       -18.4235
  19   2.0000      -0.637617       -17.3505
  20   2.0000      -0.626128       -17.0378
  21   2.0000      -0.597248       -16.2519
  22   2.0000      -0.570856       -15.5338
  23   2.0000      -0.559373       -15.2213
  24   2.0000      -0.546047       -14.8587
  25   2.0000      -0.532051       -14.4778
  26   2.0000      -0.500215       -13.6115
  27   2.0000      -0.472199       -12.8492
  28   2.0000      -0.446228       -12.1425
  29   2.0000      -0.428174       -11.6512
  30   0.0000       0.109781         2.9873
  31   0.0000       0.144299         3.9266
  32   0.0000       0.154045         4.1918
  33   0.0000       0.157086         4.2745
  34   0.0000       0.167072         4.5463

MULLIKEN ATOMIC CHARGES
-----------------------
   0 C :   -0.414309
   1 C :   -0.060824
   2 C :   -0.184794
   3 C :    0.122211
   4 N :   -0.346818
   5 O :   -0.197997
   6 C :    0.236787
   7 O :   -0.254535
   8 H :    0.133431
   9 H :    0.143831
  10 H :    0.160035
  11 H :    0.132335
  12 H :    0.151096
  13 H :    0.143650
  14 H :    0.235901
Sum of atomic charges:   -0.0000000

LOEWDIN ATOMIC CHARGES
----------------------
   0 C :   -0.277693
   1 C :   -0.242712
   2 C :   -0.188537
   3 C :   -0.372620
   4 N :   -0.032293
   5 O :    0.298758
   6 C :   -0.411498
   7 O :    0.169007
   8 H :    0.128840
   9 H :    0.128059
  10 H :    0.135517
  11 H :    0.174675
  12 H :    0.154651
  13 H :    0.160766
  14 H :    0.175078

  Mayer bond orders larger than 0.1
B(  0-C ,  1-C ) :   0.9218 B(  0-C ,  8-H ) :   0.9301 B(  0-C ,  9-H ) :   0.9362
B(  0-C , 10-H ) :   0.9317 B(  1-C ,  2-C ) :   0.9329 B(  1-C ,  6-C ) :   0.9057
B(  1-C , 11-H ) :   0.8950 B(  2-C ,  3-C ) :   0.9131 B(  2-C , 12-H ) :   0.9128
B(  2-C , 13-H ) :   0.9059 B(  3-C ,  4-N ) :   2.0832 B(  3-C ,  5-O ) :   0.9845
B(  4-N , 14-H ) :   0.8515 B(  5-O ,  6-C ) :   1.0227 B(  6-C ,  7-O ) :   2.0644

MP2 TOTAL ENERGY:     -399.210209471 Eh
FINAL SINGLE POINT ENERGY      -399.210209471011

DIPOLE MOMENT
-------------
                                X             Y             Z
Electronic contribution:      3.71767      -4.75390       4.30436
Nuclear contribution   :     -4.32202       5.19612      -5.01747
                        -----------------------------------------
Total Dipole Moment    :     -0.60436       0.44222      -0.71312
                        -----------------------------------------
Magnitude (a.u.)       :      1.03409
Magnitude (Debye)      :      2.62844

                             ****ORCA TERMINATED NORMALLY****
TOTAL RUN TIME: 0 days 0 hours 16 minutes 39 seconds 368 msec
