                         Program Version 3.0.3 - RELEASE   -
|  1> ! RI-MP2 RIJK def2-TZVP def2-TZVP/C def2-TZVP/JK TIGHTSCF
|  2> % maxcore 2000
|  3> % mp2 density relaxed end
|  4> *xyz 0 1
|  5>  C        0.1111485431     1.5304508714     0.1219362871
|  6>  C       -0.0468838927     0.0003888135    -0.0448278927
|  7>  C       -1.4528255919    -0.3996143889    -0.1103751281
|  8>  C       -2.6100197548    -0.7172830185    -0.1825661231
|  9>  C        0.7179803666    -0.4892834070    -1.2481494228
| 10>  N        2.0117605157    -0.3195880060    -1.4647552932
| 11>  C        2.2005624219    -0.9330200447    -2.6657152891
| 12>  N        1.1170903882    -1.4682776733    -3.2042460199
| 13>  N        0.1765259112    -1.1704330201    -2.2764944359
| 14>  H        1.1731500646     1.7805205814     0.1533949294
| 15>  H       -0.3500636727     2.0567583561    -0.7174719570
| 16>  H       -0.3686985512     1.8596450395     1.0465161837
| 17>  H        0.4060466716    -0.4773037558     0.8344154271
| 18>  H       -3.6344051554    -0.9962909164    -0.2220731528
| 19>  H        3.1616221931    -0.9867320881    -3.1550140747
| 20>  H       -0.7827138973    -1.4549548133    -2.3963004483
| 21> *
| 22>
| 23>                          ****END OF INPUT****

CARTESIAN COORDINATES (ANGSTROEM)
---------------------------------
  C      0.111149    1.530451    0.121936
  C     -0.046884    0.000389   -0.044828
  C     -1.452826   -0.399614   -0.110375
  C     -2.610020   -0.717283   -0.182566
  C      0.717980   -0.489283   -1.248149
  N      2.011761   -0.319588   -1.464755
  C      2.200562   -0.933020   -2.665715
  N      1.117090   -1.468278   -3.204246
  N      0.176526   -1.170433   -2.276494
  H      1.173150    1.780521    0.153395
  H     -0.350064    2.056758   -0.717472
  H     -0.368699    1.859645    1.046516
  H      0.406047   -0.477304    0.834415
  H     -3.634405   -0.996291   -0.222073
  H      3.161622   -0.986732   -3.155014
  H     -0.782714   -1.454955   -2.396300

 Total Charge           Charge          ....    0
 Multiplicity           Mult            ....    1
 Number of Electrons    NEL             ....   64
 Basis Dimension        Dim             ....  321

ORBITAL ENERGIES
----------------

  NO   OCC          E(Eh)            E(eV)
   0   2.0000     -15.646669      -425.7675
   1   2.0000     -15.590942      -424.2511
   2   2.0000     -15.553723      -423.2383
   3   2.0000     -11.324730      -308.1616
   4   2.0000     -11.292653      -307.2887
   5   2.0000     -11.285387      -307.0910
   6   2.0000     -11.257224      -306.3246
   7   2.0000     -11.246668      -306.0374
   8   2.0000     -11.240006      -305.8561
   9   2.0000      -1.411729       -38.4151
  10   2.0000      -1.198040       -32.6003
  11   2.0000      -1.147576       -31.2271
  12   2.0000      -1.080426       -29.3999
  13   2.0000      -1.020244       -27.7623
  14   2.0000      -0.911081       -24.7918
  15   2.0000      -0.848449       -23.0875
  16   2.0000      -0.823564       -22.4103
  17   2.0000      -0.765047       -20.8180
  18   2.0000      -0.724037       -19.7020
  19   2.0000      -0.669960       -18.2305
  20   2.0000      -0.642501       -17.4833
  21   2.0000      -0.627854       -17.0848
  22   2.0000      -0.598234       -16.2788
  23   2.0000      -0.573029       -15.5929
  24   2.0000      -0.547053       -14.8861
  25   2.0000      -0.539726       -14.6867
  26   2.0000      -0.498030       -13.5521
  27   2.0000      -0.448718       -12.2102
  28   2.0000      -0.421933       -11.4814
  29   2.0000      -0.415498       -11.3063
  30   2.0000      -0.406170       -11.0524
  31   2.0000      -0.365467        -9.9449
  32   0.0000       0.123478         3.3600
  33   0.0000       0.144754         3.9389
  34   0.0000       0.152210         4.1418
  35   0.0000       0.158667         4.3176
  36   0.0000       0.163456         4.4479

MULLIKEN ATOMIC CHARGES
-----------------------
   0 C :   -0.384296
   1 C :   -0.071238
   2 C :   -0.097439
   3 C :   -0.146458
   4 C :    0.131341
   5 N :   -0.318867
   6 C :    0.037351
   7 N :   -0.232445
   8 N :   -0.107234
   9 H :    0.163440
  10 H :    0.132786
  11 H :    0.141317
  12 H :    0.137521
  13 H :    0.199326
  14 H :    0.142461
  15 H :    0.272435
Sum of atomic charges:   -0.0000000

LOEWDIN ATOMIC CHARGES
----------------------
   0 C :   -0.254240
   1 C :   -0.230417
   2 C :   -0.087856
   3 C :   -0.093325
   4 C :   -0.302922
   5 N :    0.099820
   6 C :   -0.342577
   7 N :    0.017698
   8 N :    0.156083
   9 H :    0.134298
  10 H :    0.129686
  11 H :    0.128042
  12 H :    0.186067
  13 H :    0.130272
  14 H :    0.130565
  15 H :    0.198808

  Mayer bond orders larger than 0.1
B(  0-C ,  1-C ) :   0.8907 B(  0-C ,  9-H ) :   0.9300 B(  0-C , 10-H ) :   0.9268
B(  0-C , 11-H ) :   0.9322 B(  1-C ,  2-C ) :   1.1342 B(  1-C ,  4-C ) :   0.9317
B(  1-C , 12-H ) :   0.9173 B(  2-C ,  3-C ) :   2.6054 B(  3-C , 13-H ) :   0.8924
B(  4-C ,  5-N ) :   1.5148 B(  4-C ,  8-N ) :   1.2509 B(  5-N ,  6-C ) :   1.2909
B(  6-C ,  7-N ) :   1.5150 B(  6-C , 14-H ) :   0.9369 B(  7-N ,  8-N ) :   1.0521
B(  8-N , 15-H ) :   0.8516

MP2 TOTAL ENERGY:     -396.230239844 Eh
FINAL SINGLE POINT ENERGY      -396.230239843751

DIPOLE MOMENT
-------------
                                X             Y             Z
Electronic contribution:      1.14063      -4.37420      -3.55416
Nuclear contribution   :     -2.14197       4.46779       4.00776
                        -----------------------------------------
Total Dipole Moment    :     -1.00134       0.09359       0.45359
                        -----------------------------------------
Magnitude (a.u.)       :      1.10326
Magnitude (Debye)      :      2.80426

                             ****ORCA TERMINATED NORMALLY****
TOTAL RUN TIME: 0 days 0 hours 16 minutes 19 seconds 120 msec
