                         Program Version 3.0.3 - RELEASE   -
|  1> ! RI-MP2 RIJK def2-TZVP def2-TZVP/C def2-TZVP/JK TIGHTSCF
|  2> % maxcore 2000
|  3> % mp2 density relaxed end
|  4> *xyz 0 1
|  5>  C       -0.2284566659     1.4817625498    -0.0690513769
|  6>  C        0.0073427774    -0.0171171956    -0.0107581174
|  7>  C       -1.1529601376    -0.8844737964     0.5279579949
|  8>  O       -0.3108007258    -1.4698176080     1.5461415960
|  9>  C        0.8123462615    -0.6401467595     1.1682509999
| 10>  C        1.9546351959    -1.4600631237     0.5690666103
| 11>  C        1.4215859168    -1.8530382859    -0.8200005449
| 12>  C        0.6616243280    -0.5936964977    -1.2822273015
| 13>  O       -0.3358670831    -0.8158426193    -2.2663959568
| 14>  H        0.7106714245     2.0256576388    -0.2230854127
| 15>  H       -0.8967788269     1.7308102255    -0.9006879332
| 16>  H       -0.6844292061     1.8526514292     0.8544620417
| 17>  H       -1.9795671714    -0.3106016501     0.9663837804
| 18>  H       -1.5583402384    -1.6307825112    -0.1625123242
| 19>  H        1.1161497933     0.0197975130     1.9893252548
| 20>  H        2.8476398664    -0.8281975458     0.4813139323
| 21>  H        2.2125224967    -2.3172604519     1.1970796648
| 22>  H        2.2076741564    -2.1542290048    -1.5192371817
| 23>  H        0.7133150070    -2.6833326275    -0.7319616308
| 24>  H        1.3927709684     0.1468214572    -1.6495646988
| 25>  H        0.0885418130    -1.1810618261    -3.0486820562
| 26> *
| 27>
| 28>                          ****END OF INPUT****

CARTESIAN COORDINATES (ANGSTROEM)
---------------------------------
  C     -0.228457    1.481763   -0.069051
  C      0.007343   -0.017117   -0.010758
  C     -1.152960   -0.884474    0.527958
  O     -0.310801   -1.469818    1.546142
  C      0.812346   -0.640147    1.168251
  C      1.954635   -1.460063    0.569067
  C      1.421586   -1.853038   -0.820001
  C      0.661624   -0.593696   -1.282227
  O     -0.335867   -0.815843   -2.266396
  H      0.710671    2.025658   -0.223085
  H     -0.896779    1.730810   -0.900688
  H     -0.684429    1.852651    0.854462
  H     -1.979567   -0.310602    0.966384
  H     -1.558340   -1.630783   -0.162512
  H      1.116150    0.019798    1.989325
  H      2.847640   -0.828198    0.481314
  H      2.212522   -2.317260    1.197080
  H      2.207674   -2.154229   -1.519237
  H      0.713315   -2.683333   -0.731962
  H      1.392771    0.146821   -1.649565
  H      0.088542   -1.181062   -3.048682

 Total Charge           Charge          ....    0
 Multiplicity           Mult            ....    1
 Number of Electrons    NEL             ....   70
 Basis Dimension        Dim             ....  351

ORBITAL ENERGIES
----------------

  NO   OCC          E(Eh)            E(eV)
   0   2.0000     -20.560233      -559.4724
   1   2.0000     -20.539301      -558.9028
   2   2.0000     -11.281775      -306.9927
   3   2.0000     -11.275367      -306.8183
   4   2.0000     -11.266273      -306.5709
   5   2.0000     -11.233257      -305.6725
   6   2.0000     -11.223537      -305.4080
   7   2.0000     -11.222233      -305.3725
   8   2.0000     -11.218305      -305.2656
   9   2.0000      -1.374644       -37.4060
  10   2.0000      -1.362993       -37.0889
  11   2.0000      -1.108747       -30.1705
  12   2.0000      -1.031816       -28.0771
  13   2.0000      -0.949965       -25.8499
  14   2.0000      -0.904919       -24.6241
  15   2.0000      -0.884068       -24.0567
  16   2.0000      -0.798983       -21.7414
  17   2.0000      -0.722635       -19.6639
  18   2.0000      -0.706696       -19.2302
  19   2.0000      -0.672056       -18.2876
  20   2.0000      -0.632506       -17.2114
  21   2.0000      -0.621542       -16.9130
  22   2.0000      -0.599451       -16.3119
  23   2.0000      -0.587435       -15.9849
  24   2.0000      -0.580462       -15.7952
  25   2.0000      -0.557017       -15.1572
  26   2.0000      -0.549570       -14.9546
  27   2.0000      -0.529619       -14.4117
  28   2.0000      -0.502568       -13.6756
  29   2.0000      -0.487183       -13.2569
  30   2.0000      -0.475521       -12.9396
  31   2.0000      -0.444976       -12.1084
  32   2.0000      -0.426120       -11.5953
  33   2.0000      -0.422611       -11.4998
  34   2.0000      -0.406574       -11.0634
  35   0.0000       0.127481         3.4689
  36   0.0000       0.144897         3.9429
  37   0.0000       0.157702         4.2913
  38   0.0000       0.177189         4.8216
  39   0.0000       0.191683         5.2160

MULLIKEN ATOMIC CHARGES
-----------------------
   0 C :   -0.440466
   1 C :    0.162128
   2 C :   -0.075478
   3 O :   -0.338370
   4 C :    0.038727
   5 C :   -0.225888
   6 C :   -0.244016
   7 C :   -0.005961
   8 O :   -0.462658
   9 H :    0.126639
  10 H :    0.151241
  11 H :    0.137312
  12 H :    0.092893
  13 H :    0.114422
  14 H :    0.092908
  15 H :    0.108507
  16 H :    0.126554
  17 H :    0.122452
  18 H :    0.128401
  19 H :    0.073046
  20 H :    0.317607
Sum of atomic charges:    0.0000000

LOEWDIN ATOMIC CHARGES
----------------------
   0 C :   -0.273230
   1 C :   -0.243179
   2 C :   -0.223484
   3 O :    0.133653
   4 C :   -0.229779
   5 C :   -0.237139
   6 C :   -0.241629
   7 C :   -0.304042
   8 O :   -0.014027
   9 H :    0.125553
  10 H :    0.133892
  11 H :    0.127310
  12 H :    0.119165
  13 H :    0.122713
  14 H :    0.131715
  15 H :    0.140830
  16 H :    0.141350
  17 H :    0.130523
  18 H :    0.145649
  19 H :    0.138304
  20 H :    0.175852

  Mayer bond orders larger than 0.1
B(  0-C ,  1-C ) :   0.8963 B(  0-C ,  9-H ) :   0.9327 B(  0-C , 10-H ) :   0.9383
B(  0-C , 11-H ) :   0.9402 B(  1-C ,  2-C ) :   0.9620 B(  1-C ,  4-C ) :   0.9183
B(  1-C ,  7-C ) :   0.8758 B(  2-C ,  3-O ) :   0.9419 B(  2-C , 12-H ) :   0.9087
B(  2-C , 13-H ) :   0.9034 B(  3-O ,  4-C ) :   0.9730 B(  4-C ,  5-C ) :   0.9261
B(  4-C , 14-H ) :   0.9215 B(  5-C ,  6-C ) :   0.9452 B(  5-C , 15-H ) :   0.9160
B(  5-C , 16-H ) :   0.9138 B(  6-C ,  7-C ) :   0.9313 B(  6-C , 17-H ) :   0.9257
B(  6-C , 18-H ) :   0.9153 B(  7-C ,  8-O ) :   1.0481 B(  7-C , 19-H ) :   0.9402
B(  8-O , 20-H ) :   0.8444

MP2 TOTAL ENERGY:     -423.528157172 Eh
FINAL SINGLE POINT ENERGY      -423.528157172251

DIPOLE MOMENT
-------------
                                X             Y             Z
Electronic contribution:     -1.76134      -2.52928       0.76620
Nuclear contribution   :      2.46559       2.85555      -1.41732
                        -----------------------------------------
Total Dipole Moment    :      0.70426       0.32627      -0.65113
                        -----------------------------------------
Magnitude (a.u.)       :      1.01311
Magnitude (Debye)      :      2.57512

                             ****ORCA TERMINATED NORMALLY****
TOTAL RUN TIME: 0 days 0 hours 21 minutes 18 seconds 219 msec
