                         Program Version 3.0.3 - RELEASE   -
|  1> ! RI-MP2 RIJK def2-TZVP def2-TZVP/C def2-TZVP/JK TIGHTSCF
|  2> % maxcore 2000
|  3> % mp2 density relaxed end
|  4> *xyz 0 1
|  5>  C       -0.2712281751     1.5736213432    -0.0172038910
|  6>  C       -0.0420623233     0.0634155279     0.0100377371
|  7>  C        1.1283376876    -0.4694563743    -0.8842847881
|  8>  C        1.6071459178     0.3103909843    -2.1000822580
|  9>  C        2.0340279142    -0.5456660389     0.3801733555
| 10>  C        2.9562794817    -1.7458275797     0.5398908967
| 11>  O        2.7811786904     0.6678356074     0.4569923137
| 12>  C        0.7338001986    -0.4934278359     1.2513061062
| 13>  C        0.7561744646     0.2704395414     2.5671873575
| 14>  H        0.6548343569     2.1286763058     0.1495964811
| 15>  H       -0.6812839258     1.8855631124    -0.9838838610
| 16>  H       -0.9902270428     1.8723051950     0.7536608922
| 17>  H       -0.9977681010    -0.4398849018    -0.1710905519
| 18>  H        0.8916221169    -1.4964190530    -1.1855424795
| 19>  H        1.9090442565     1.3252431885    -1.8347829007
| 20>  H        2.4705279554    -0.1801567880    -2.5628539375
| 21>  H        0.8178578383     0.3711332790    -2.8576051860
| 22>  H        3.7509833260    -1.7238756943    -0.2129817612
| 23>  H        3.4317154992    -1.7467319339     1.5297908214
| 24>  H        2.4060098467    -2.6863355716     0.4382562425
| 25>  H        3.2374398184     0.6792448746     1.3051922415
| 26>  H        0.4047090931    -1.5223203361     1.4382609474
| 27>  H        1.1226152735     1.2920884337     2.4348928395
| 28>  H       -0.2454924260     0.3299321754     3.0062357055
| 29>  H        1.4009329383    -0.2274000811     3.3018731072
| 30> *
| 31>
| 32>                          ****END OF INPUT****

CARTESIAN COORDINATES (ANGSTROEM)
---------------------------------
  C     -0.271228    1.573621   -0.017204
  C     -0.042062    0.063416    0.010038
  C      1.128338   -0.469456   -0.884285
  C      1.607146    0.310391   -2.100082
  C      2.034028   -0.545666    0.380173
  C      2.956279   -1.745828    0.539891
  O      2.781179    0.667836    0.456992
  C      0.733800   -0.493428    1.251306
  C      0.756174    0.270440    2.567187
  H      0.654834    2.128676    0.149596
  H     -0.681284    1.885563   -0.983884
  H     -0.990227    1.872305    0.753661
  H     -0.997768   -0.439885   -0.171091
  H      0.891622   -1.496419   -1.185542
  H      1.909044    1.325243   -1.834783
  H      2.470528   -0.180157   -2.562854
  H      0.817858    0.371133   -2.857605
  H      3.750983   -1.723876   -0.212982
  H      3.431715   -1.746732    1.529791
  H      2.406010   -2.686336    0.438256
  H      3.237440    0.679245    1.305192
  H      0.404709   -1.522320    1.438261
  H      1.122615    1.292088    2.434893
  H     -0.245492    0.329932    3.006236
  H      1.400933   -0.227400    3.301873

 Total Charge           Charge          ....    0
 Multiplicity           Mult            ....    1
 Number of Electrons    NEL             ....   72
 Basis Dimension        Dim             ....  375

ORBITAL ENERGIES
----------------

  NO   OCC          E(Eh)            E(eV)
   0   2.0000     -20.549867      -559.1903
   1   2.0000     -11.275444      -306.8204
   2   2.0000     -11.219342      -305.2938
   3   2.0000     -11.217840      -305.2530
   4   2.0000     -11.216872      -305.2266
   5   2.0000     -11.214345      -305.1579
   6   2.0000     -11.212325      -305.1029
   7   2.0000     -11.201456      -304.8071
   8   2.0000     -11.201295      -304.8027
   9   2.0000      -1.359312       -36.9888
  10   2.0000      -1.128285       -30.7022
  11   2.0000      -1.004593       -27.3364
  12   2.0000      -0.998240       -27.1635
  13   2.0000      -0.954816       -25.9819
  14   2.0000      -0.914604       -24.8876
  15   2.0000      -0.808191       -21.9920
  16   2.0000      -0.797750       -21.7079
  17   2.0000      -0.718774       -19.5588
  18   2.0000      -0.659050       -17.9337
  19   2.0000      -0.654087       -17.7986
  20   2.0000      -0.606882       -16.5141
  21   2.0000      -0.599813       -16.3217
  22   2.0000      -0.581710       -15.8291
  23   2.0000      -0.555810       -15.1243
  24   2.0000      -0.549180       -14.9439
  25   2.0000      -0.547950       -14.9105
  26   2.0000      -0.532935       -14.5019
  27   2.0000      -0.530824       -14.4445
  28   2.0000      -0.522744       -14.2246
  29   2.0000      -0.511772       -13.9260
  30   2.0000      -0.488656       -13.2970
  31   2.0000      -0.484856       -13.1936
  32   2.0000      -0.446110       -12.1393
  33   2.0000      -0.422727       -11.5030
  34   2.0000      -0.405578       -11.0363
  35   2.0000      -0.392395       -10.6776
  36   0.0000       0.119816         3.2603
  37   0.0000       0.154009         4.1908
  38   0.0000       0.158478         4.3124
  39   0.0000       0.165366         4.4998
  40   0.0000       0.186307         5.0697

MULLIKEN ATOMIC CHARGES
-----------------------
   0 C :   -0.491916
   1 C :   -0.003722
   2 C :   -0.027985
   3 C :   -0.435915
   4 C :    0.156637
   5 C :   -0.429354
   6 O :   -0.477918
   7 C :   -0.023281
   8 C :   -0.494687
   9 H :    0.158372
  10 H :    0.132698
  11 H :    0.130096
  12 H :    0.099897
  13 H :    0.095000
  14 H :    0.148002
  15 H :    0.127104
  16 H :    0.129673
  17 H :    0.143771
  18 H :    0.118342
  19 H :    0.125155
  20 H :    0.312691
  21 H :    0.090651
  22 H :    0.144921
  23 H :    0.137739
  24 H :    0.134030
Sum of atomic charges:   -0.0000000

LOEWDIN ATOMIC CHARGES
----------------------
   0 C :   -0.298282
   1 C :   -0.207428
   2 C :   -0.198462
   3 C :   -0.296903
   4 C :   -0.339743
   5 C :   -0.286361
   6 O :    0.016267
   7 C :   -0.205322
   8 C :   -0.307592
   9 H :    0.127245
  10 H :    0.124155
  11 H :    0.122911
  12 H :    0.137841
  13 H :    0.154682
  14 H :    0.128289
  15 H :    0.124894
  16 H :    0.123972
  17 H :    0.128576
  18 H :    0.122447
  19 H :    0.126512
  20 H :    0.174225
  21 H :    0.153205
  22 H :    0.124734
  23 H :    0.127380
  24 H :    0.122758

  Mayer bond orders larger than 0.1
B(  0-C ,  1-C ) :   0.8629 B(  0-C ,  9-H ) :   0.9453 B(  0-C , 10-H ) :   0.9375
B(  0-C , 11-H ) :   0.9367 B(  1-C ,  2-C ) :   0.9166 B(  1-C ,  7-C ) :   0.9067
B(  1-C , 12-H ) :   0.9155 B(  2-C ,  3-C ) :   0.8789 B(  2-C ,  4-C ) :   0.9060
B(  2-C , 13-H ) :   0.9171 B(  3-C , 14-H ) :   0.9371 B(  3-C , 15-H ) :   0.9360
B(  3-C , 16-H ) :   0.9416 B(  4-C ,  5-C ) :   0.9014 B(  4-C ,  6-O ) :   0.9480
B(  4-C ,  7-C ) :   0.9466 B(  5-C , 17-H ) :   0.9442 B(  5-C , 18-H ) :   0.9235
B(  5-C , 19-H ) :   0.9362 B(  6-O , 20-H ) :   0.8413 B(  7-C ,  8-C ) :   0.8436
B(  7-C , 21-H ) :   0.9057 B(  8-C , 22-H ) :   0.9458 B(  8-C , 23-H ) :   0.9392
B(  8-C , 24-H ) :   0.9403

MP2 TOTAL ENERGY:     -388.825345427 Eh
FINAL SINGLE POINT ENERGY      -388.825345427018

DIPOLE MOMENT
-------------
                                X             Y             Z
Electronic contribution:      1.63939      -0.50488      -0.01057
Nuclear contribution   :     -1.64490       0.10276       0.42127
                        -----------------------------------------
Total Dipole Moment    :     -0.00551      -0.40212       0.41070
                        -----------------------------------------
Magnitude (a.u.)       :      0.57481
Magnitude (Debye)      :      1.46105

                             ****ORCA TERMINATED NORMALLY****
TOTAL RUN TIME: 0 days 0 hours 23 minutes 28 seconds 853 msec
