                         Program Version 3.0.3 - RELEASE   -
|  1> ! RI-MP2 RIJK def2-TZVP def2-TZVP/C def2-TZVP/JK TIGHTSCF
|  2> % maxcore 2000
|  3> % mp2 density relaxed end
|  4> *xyz 0 1
|  5>  C       -0.1132804227     1.5959592286     0.0153463651
|  6>  C        0.0351770474     0.0968573150     0.0492251777
|  7>  O       -1.0785496386    -0.6258087975    -0.4161272908
|  8>  C        1.3381238988    -0.6282498298    -0.2194755528
|  9>  O        2.5501457434     0.0983785910    -0.0571702136
| 10>  C        2.5852877850     0.4373625877     1.2677867139
| 11>  N        3.6401599587     1.2374623457     1.6102811992
| 12>  N        1.6344143494     0.0441064581     2.0287962225
| 13>  C        0.7157603544    -0.6624657130     1.1727976049
| 14>  H        0.7317231284     2.1044237118     0.4821687012
| 15>  H       -0.1916268268     1.9542882518    -1.0184267105
| 16>  H       -1.0241777695     1.8848973713     0.5483468347
| 17>  H       -1.1628722713    -0.4607166321    -1.3627434327
| 18>  H        1.4096048456    -1.4416744621    -0.9307198115
| 19>  H        4.4704187168     1.1142910485     1.0504654034
| 20>  H        3.8042020836     1.2860067793     2.6041467426
| 21>  H        0.1988600275    -1.5206604445     1.5861888765
| 22> *
| 23>
| 24>                          ****END OF INPUT****

CARTESIAN COORDINATES (ANGSTROEM)
---------------------------------
  C     -0.113280    1.595959    0.015346
  C      0.035177    0.096857    0.049225
  O     -1.078550   -0.625809   -0.416127
  C      1.338124   -0.628250   -0.219476
  O      2.550146    0.098379   -0.057170
  C      2.585288    0.437363    1.267787
  N      3.640160    1.237462    1.610281
  N      1.634414    0.044106    2.028796
  C      0.715760   -0.662466    1.172798
  H      0.731723    2.104424    0.482169
  H     -0.191627    1.954288   -1.018427
  H     -1.024178    1.884897    0.548347
  H     -1.162872   -0.460717   -1.362743
  H      1.409605   -1.441674   -0.930720
  H      4.470419    1.114291    1.050465
  H      3.804202    1.286007    2.604147
  H      0.198860   -1.520660    1.586189

 Total Charge           Charge          ....    0
 Multiplicity           Mult            ....    1
 Number of Electrons    NEL             ....   68
 Basis Dimension        Dim             ....  327

ORBITAL ENERGIES
----------------

  NO   OCC          E(Eh)            E(eV)
   0   2.0000     -20.607418      -560.7564
   1   2.0000     -20.568968      -559.7101
   2   2.0000     -15.587785      -424.1652
   3   2.0000     -15.531393      -422.6307
   4   2.0000     -11.369192      -309.3714
   5   2.0000     -11.293201      -307.3036
   6   2.0000     -11.289325      -307.1981
   7   2.0000     -11.259395      -306.3837
   8   2.0000     -11.220414      -305.3230
   9   2.0000      -1.458235       -39.6806
  10   2.0000      -1.378995       -37.5244
  11   2.0000      -1.247179       -33.9375
  12   2.0000      -1.205677       -32.8082
  13   2.0000      -1.091419       -29.6990
  14   2.0000      -0.976107       -26.5612
  15   2.0000      -0.860732       -23.4217
  16   2.0000      -0.830625       -22.6025
  17   2.0000      -0.756324       -20.5806
  18   2.0000      -0.736151       -20.0317
  19   2.0000      -0.705214       -19.1899
  20   2.0000      -0.693538       -18.8721
  21   2.0000      -0.648951       -17.6589
  22   2.0000      -0.631890       -17.1946
  23   2.0000      -0.606510       -16.5040
  24   2.0000      -0.588844       -16.0233
  25   2.0000      -0.569823       -15.5057
  26   2.0000      -0.555307       -15.1107
  27   2.0000      -0.542059       -14.7502
  28   2.0000      -0.513592       -13.9756
  29   2.0000      -0.493571       -13.4308
  30   2.0000      -0.459899       -12.5145
  31   2.0000      -0.444266       -12.0891
  32   2.0000      -0.380257       -10.3473
  33   2.0000      -0.342618        -9.3231
  34   0.0000       0.130521         3.5517
  35   0.0000       0.136752         3.7212
  36   0.0000       0.179115         4.8740
  37   0.0000       0.180858         4.9214
  38   0.0000       0.191538         5.2120

MULLIKEN ATOMIC CHARGES
-----------------------
   0 C :   -0.398380
   1 C :    0.162315
   2 O :   -0.460706
   3 C :   -0.028441
   4 O :   -0.281977
   5 C :    0.307399
   6 N :   -0.512572
   7 N :   -0.317903
   8 C :   -0.028885
   9 H :    0.147155
  10 H :    0.121058
  11 H :    0.146014
  12 H :    0.320974
  13 H :    0.145778
  14 H :    0.267007
  15 H :    0.272791
  16 H :    0.138372
Sum of atomic charges:   -0.0000000

LOEWDIN ATOMIC CHARGES
----------------------
   0 C :   -0.268991
   1 C :   -0.362077
   2 O :    0.029442
   3 C :   -0.223209
   4 O :    0.260610
   5 C :   -0.488094
   6 N :   -0.041539
   7 N :    0.079810
   8 C :   -0.212190
   9 H :    0.138953
  10 H :    0.126311
  11 H :    0.134714
  12 H :    0.182199
  13 H :    0.138216
  14 H :    0.177466
  15 H :    0.182376
  16 H :    0.146005

  Mayer bond orders larger than 0.1
B(  0-C ,  1-C ) :   0.9236 B(  0-C ,  9-H ) :   0.9201 B(  0-C , 10-H ) :   0.9261
B(  0-C , 11-H ) :   0.9384 B(  1-C ,  2-O ) :   0.9427 B(  1-C ,  3-C ) :   0.8528
B(  1-C ,  8-C ) :   0.8547 B(  2-O , 12-H ) :   0.8391 B(  3-C ,  4-O ) :   0.8947
B(  3-C ,  8-C ) :   0.8668 B(  3-C , 13-H ) :   0.9264 B(  4-O ,  5-C ) :   1.0782
B(  5-C ,  6-N ) :   1.0985 B(  5-C ,  7-N ) :   1.7829 B(  6-N , 14-H ) :   0.8647
B(  6-N , 15-H ) :   0.8655 B(  7-N ,  8-C ) :   0.9764 B(  8-C , 16-H ) :   0.9297

MP2 TOTAL ENERGY:     -454.413501477 Eh
FINAL SINGLE POINT ENERGY      -454.413501476614

DIPOLE MOMENT
-------------
                                X             Y             Z
Electronic contribution:      2.42466      -2.99114       0.88380
Nuclear contribution   :     -1.67514       3.16974      -1.55895
                        -----------------------------------------
Total Dipole Moment    :      0.74952       0.17859      -0.67515
                        -----------------------------------------
Magnitude (a.u.)       :      1.02445
Magnitude (Debye)      :      2.60395

                             ****ORCA TERMINATED NORMALLY****
TOTAL RUN TIME: 0 days 0 hours 16 minutes 4 seconds 867 msec
