                         Program Version 3.0.3 - RELEASE   -
|  1> ! RI-MP2 RIJK def2-TZVP def2-TZVP/C def2-TZVP/JK TIGHTSCF
|  2> % maxcore 2000
|  3> % mp2 density relaxed end
|  4> *xyz 0 1
|  5>  C       -0.1303081894     1.4588789055     0.0204049152
|  6>  C        0.0434120282    -0.0548152527     0.0390734113
|  7>  C        0.8451220292    -0.6028787637    -1.1436508795
|  8>  C        2.1475865871    -0.5175967525    -0.3768814520
|  9>  C        1.2326779289    -0.5492974986     0.9160087638
| 10>  C        1.1823440446    -2.0939310438     0.7830332292
| 11>  C        1.5688979278    -1.8815135159    -0.6829273223
| 12>  C        2.0608402301    -2.9144482315    -1.6524845080
| 13>  H        0.8252882194     1.9613989970    -0.1661863592
| 14>  H       -0.8293150523     1.7693015372    -0.7642129440
| 15>  H       -0.5227597789     1.8210646227     0.9772414178
| 16>  H       -0.9194294364    -0.5410550666     0.2486308047
| 17>  H        0.6867626363    -0.4118300636    -2.1990795956
| 18>  H        3.1027288535    -0.0703499362    -0.6125555943
| 19>  H        1.4480911770    -0.0721124204     1.8710634179
| 20>  H        1.9948587568    -2.5802325806     1.3325997577
| 21>  H        0.2323318375    -2.5907846597     1.0189160623
| 22>  H        1.2682212925    -3.6246433974    -1.9174425944
| 23>  H        2.4118317431    -2.4509379561    -2.5810576863
| 24>  H        2.8947312550    -3.4890965332    -1.2328479244
| 25> *
| 26>
| 27>                          ****END OF INPUT****

CARTESIAN COORDINATES (ANGSTROEM)
---------------------------------
  C     -0.130308    1.458879    0.020405
  C      0.043412   -0.054815    0.039073
  C      0.845122   -0.602879   -1.143651
  C      2.147587   -0.517597   -0.376881
  C      1.232678   -0.549297    0.916009
  C      1.182344   -2.093931    0.783033
  C      1.568898   -1.881514   -0.682927
  C      2.060840   -2.914448   -1.652485
  H      0.825288    1.961399   -0.166186
  H     -0.829315    1.769302   -0.764213
  H     -0.522760    1.821065    0.977241
  H     -0.919429   -0.541055    0.248631
  H      0.686763   -0.411830   -2.199080
  H      3.102729   -0.070350   -0.612556
  H      1.448091   -0.072112    1.871063
  H      1.994859   -2.580233    1.332600
  H      0.232332   -2.590785    1.018916
  H      1.268221   -3.624643   -1.917443
  H      2.411832   -2.450938   -2.581058
  H      2.894731   -3.489097   -1.232848

 Total Charge           Charge          ....    0
 Multiplicity           Mult            ....    1
 Number of Electrons    NEL             ....   60
 Basis Dimension        Dim             ....  320

ORBITAL ENERGIES
----------------

  NO   OCC          E(Eh)            E(eV)
   0   2.0000     -11.232502      -305.6519
   1   2.0000     -11.229630      -305.5738
   2   2.0000     -11.223702      -305.4125
   3   2.0000     -11.222855      -305.3894
   4   2.0000     -11.222028      -305.3669
   5   2.0000     -11.216957      -305.2289
   6   2.0000     -11.215887      -305.1998
   7   2.0000     -11.207993      -304.9850
   8   2.0000      -1.225352       -33.3435
   9   2.0000      -1.028859       -27.9967
  10   2.0000      -0.973744       -26.4969
  11   2.0000      -0.951326       -25.8869
  12   2.0000      -0.860387       -23.4123
  13   2.0000      -0.835478       -22.7345
  14   2.0000      -0.721958       -19.6455
  15   2.0000      -0.706479       -19.2243
  16   2.0000      -0.665355       -18.1052
  17   2.0000      -0.610824       -16.6214
  18   2.0000      -0.603290       -16.4164
  19   2.0000      -0.578084       -15.7305
  20   2.0000      -0.552140       -15.0245
  21   2.0000      -0.548568       -14.9273
  22   2.0000      -0.535334       -14.5672
  23   2.0000      -0.505405       -13.7528
  24   2.0000      -0.497451       -13.5363
  25   2.0000      -0.465213       -12.6591
  26   2.0000      -0.430465       -11.7135
  27   2.0000      -0.422956       -11.5092
  28   2.0000      -0.373641       -10.1673
  29   2.0000      -0.357130        -9.7180
  30   0.0000       0.142972         3.8905
  31   0.0000       0.150573         4.0973
  32   0.0000       0.170574         4.6416
  33   0.0000       0.175237         4.7684
  34   0.0000       0.191852         5.2206

MULLIKEN ATOMIC CHARGES
-----------------------
   0 C :   -0.440858
   1 C :    0.015876
   2 C :   -0.183834
   3 C :   -0.240404
   4 C :   -0.087307
   5 C :   -0.169057
   6 C :    0.056868
   7 C :   -0.426007
   8 H :    0.132819
   9 H :    0.128971
  10 H :    0.128463
  11 H :    0.089710
  12 H :    0.124085
  13 H :    0.141523
  14 H :    0.125736
  15 H :    0.106217
  16 H :    0.100828
  17 H :    0.134407
  18 H :    0.131091
  19 H :    0.130873
Sum of atomic charges:   -0.0000000

LOEWDIN ATOMIC CHARGES
----------------------
   0 C :   -0.290641
   1 C :   -0.218349
   2 C :   -0.134089
   3 C :   -0.112754
   4 C :   -0.139368
   5 C :   -0.177143
   6 C :   -0.212983
   7 C :   -0.275089
   8 H :    0.127984
   9 H :    0.123051
  10 H :    0.122415
  11 H :    0.138509
  12 H :    0.138542
  13 H :    0.131616
  14 H :    0.130597
  15 H :    0.138277
  16 H :    0.123653
  17 H :    0.128243
  18 H :    0.130642
  19 H :    0.126887

  Mayer bond orders larger than 0.1
B(  0-C ,  1-C ) :   0.8899 B(  0-C ,  8-H ) :   0.9395 B(  0-C ,  9-H ) :   0.9403
B(  0-C , 10-H ) :   0.9398 B(  1-C ,  2-C ) :   0.9210 B(  1-C ,  4-C ) :   0.8896
B(  1-C , 11-H ) :   0.9119 B(  2-C ,  3-C ) :   0.8810 B(  2-C ,  6-C ) :   0.8183
B(  2-C , 12-H ) :   0.9292 B(  3-C ,  4-C ) :   0.9151 B(  3-C ,  6-C ) :   0.8470
B(  3-C , 13-H ) :   0.9081 B(  4-C ,  5-C ) :   0.9238 B(  4-C , 14-H ) :   0.9170
B(  5-C ,  6-C ) :   0.9462 B(  5-C , 15-H ) :   0.9238 B(  5-C , 16-H ) :   0.9151
B(  6-C ,  7-C ) :   0.8854 B(  7-C , 17-H ) :   0.9430 B(  7-C , 18-H ) :   0.9366
B(  7-C , 19-H ) :   0.9408

MP2 TOTAL ENERGY:     -311.249641803 Eh
FINAL SINGLE POINT ENERGY      -311.249641803130

DIPOLE MOMENT
-------------
                                X             Y             Z
Electronic contribution:      0.76211      -0.40508       0.68985
Nuclear contribution   :     -0.69372       0.37841      -0.73228
                        -----------------------------------------
Total Dipole Moment    :      0.06839      -0.02666      -0.04243
                        -----------------------------------------
Magnitude (a.u.)       :      0.08479
Magnitude (Debye)      :      0.21551

                             ****ORCA TERMINATED NORMALLY****
TOTAL RUN TIME: 0 days 0 hours 14 minutes 47 seconds 693 msec
