                         Program Version 3.0.3 - RELEASE   -
|  1> ! RI-MP2 RIJK def2-TZVP def2-TZVP/C def2-TZVP/JK TIGHTSCF
|  2> % maxcore 2000
|  3> % mp2 density relaxed end
|  4> *xyz 0 1
|  5>  O        0.2247156654     1.4030491016    -0.0242522836
|  6>  C        0.0103869783     0.0179907610     0.0166453163
|  7>  C       -1.3515560002    -0.3856129195     0.6065502157
|  8>  O       -0.7234070672    -1.3079171824     1.5236237172
|  9>  C        0.5985420083    -0.8484001351     1.1748109441
| 10>  C        1.5222479517    -1.9256447562     0.5785209805
| 11>  C        1.3130467429    -1.8415964892    -0.9249841293
| 12>  O       -0.0426071761    -2.0527628452    -1.3297419742
| 13>  C        0.4292520995    -0.7064112727    -1.2577814917
| 14>  H        1.1190839244     1.5714950842    -0.3411322382
| 15>  H       -1.8420782755     0.4459892888     1.1259348821
| 16>  H       -2.0532487483    -0.8884088198    -0.0645492972
| 17>  H        1.0583331972    -0.2919280684     2.0002346531
| 18>  H        2.5711104723    -1.7190538581     0.8211323821
| 19>  H        1.2720731461    -2.9148670127     0.9732899483
| 20>  H        2.0645311607    -2.2247569447    -1.6121315089
| 21>  H        0.4587073106    -0.1578566713    -2.1977212162
| 22> *
| 23>
| 24>                          ****END OF INPUT****

CARTESIAN COORDINATES (ANGSTROEM)
---------------------------------
  O      0.224716    1.403049   -0.024252
  C      0.010387    0.017991    0.016645
  C     -1.351556   -0.385613    0.606550
  O     -0.723407   -1.307917    1.523624
  C      0.598542   -0.848400    1.174811
  C      1.522248   -1.925645    0.578521
  C      1.313047   -1.841596   -0.924984
  O     -0.042607   -2.052763   -1.329742
  C      0.429252   -0.706411   -1.257781
  H      1.119084    1.571495   -0.341132
  H     -1.842078    0.445989    1.125935
  H     -2.053249   -0.888409   -0.064549
  H      1.058333   -0.291928    2.000235
  H      2.571110   -1.719054    0.821132
  H      1.272073   -2.914867    0.973290
  H      2.064531   -2.224757   -1.612132
  H      0.458707   -0.157857   -2.197721

 Total Charge           Charge          ....    0
 Multiplicity           Mult            ....    1
 Number of Electrons    NEL             ....   68
 Basis Dimension        Dim             ....  327

ORBITAL ENERGIES
----------------

  NO   OCC          E(Eh)            E(eV)
   0   2.0000     -20.580853      -560.0335
   1   2.0000     -20.578128      -559.9593
   2   2.0000     -20.549036      -559.1677
   3   2.0000     -11.300227      -307.4948
   4   2.0000     -11.297884      -307.4310
   5   2.0000     -11.294815      -307.3475
   6   2.0000     -11.286922      -307.1328
   7   2.0000     -11.275647      -306.8260
   8   2.0000     -11.239118      -305.8320
   9   2.0000      -1.430868       -38.9359
  10   2.0000      -1.395698       -37.9789
  11   2.0000      -1.368744       -37.2454
  12   2.0000      -1.071792       -29.1649
  13   2.0000      -1.007446       -27.4140
  14   2.0000      -0.914908       -24.8959
  15   2.0000      -0.907278       -24.6883
  16   2.0000      -0.814010       -22.1503
  17   2.0000      -0.763694       -20.7812
  18   2.0000      -0.749795       -20.4030
  19   2.0000      -0.687771       -18.7152
  20   2.0000      -0.663080       -18.0433
  21   2.0000      -0.647404       -17.6167
  22   2.0000      -0.615717       -16.7545
  23   2.0000      -0.603421       -16.4199
  24   2.0000      -0.588808       -16.0223
  25   2.0000      -0.562798       -15.3145
  26   2.0000      -0.556416       -15.1408
  27   2.0000      -0.526728       -14.3330
  28   2.0000      -0.517711       -14.0876
  29   2.0000      -0.478929       -13.0323
  30   2.0000      -0.471759       -12.8372
  31   2.0000      -0.429636       -11.6910
  32   2.0000      -0.422270       -11.4905
  33   2.0000      -0.406855       -11.0711
  34   0.0000       0.124776         3.3953
  35   0.0000       0.150711         4.1010
  36   0.0000       0.170892         4.6502
  37   0.0000       0.173240         4.7141
  38   0.0000       0.187394         5.0993

MULLIKEN ATOMIC CHARGES
-----------------------
   0 O :   -0.450843
   1 C :    0.268591
   2 C :   -0.051131
   3 O :   -0.328383
   4 C :    0.020651
   5 C :   -0.182917
   6 C :    0.008077
   7 O :   -0.311574
   8 C :   -0.125580
   9 H :    0.319665
  10 H :    0.107447
  11 H :    0.113880
  12 H :    0.098957
  13 H :    0.117676
  14 H :    0.131022
  15 H :    0.125092
  16 H :    0.139368
Sum of atomic charges:   -0.0000000

LOEWDIN ATOMIC CHARGES
----------------------
   0 O :    0.026420
   1 C :   -0.336923
   2 C :   -0.222584
   3 O :    0.141206
   4 C :   -0.227133
   5 C :   -0.220450
   6 C :   -0.252373
   7 O :    0.188809
   8 C :   -0.234705
   9 H :    0.181000
  10 H :    0.125759
  11 H :    0.125394
  12 H :    0.134796
  13 H :    0.144995
  14 H :    0.153264
  15 H :    0.134596
  16 H :    0.137929

  Mayer bond orders larger than 0.1
B(  0-O ,  1-C ) :   0.9980 B(  0-O ,  9-H ) :   0.8373 B(  1-C ,  2-C ) :   0.9422
B(  1-C ,  4-C ) :   0.9127 B(  1-C ,  8-C ) :   0.9066 B(  2-C ,  3-O ) :   0.9468
B(  2-C , 10-H ) :   0.9047 B(  2-C , 11-H ) :   0.9086 B(  3-O ,  4-C ) :   0.9914
B(  4-C ,  5-C ) :   0.9026 B(  4-C , 12-H ) :   0.9148 B(  5-C ,  6-C ) :   0.9467
B(  5-C , 13-H ) :   0.9105 B(  5-C , 14-H ) :   0.8921 B(  6-C ,  7-O ) :   0.9370
B(  6-C ,  8-C ) :   0.9129 B(  6-C , 15-H ) :   0.9298 B(  7-O ,  8-C ) :   0.8922
B(  8-C , 16-H ) :   0.9367

MP2 TOTAL ENERGY:     -458.195773534 Eh
FINAL SINGLE POINT ENERGY      -458.195773534334

DIPOLE MOMENT
-------------
                                X             Y             Z
Electronic contribution:     -1.58521       0.03865      -0.75145
Nuclear contribution   :      2.80246       0.41304       0.32505
                        -----------------------------------------
Total Dipole Moment    :      1.21725       0.45168      -0.42640
                        -----------------------------------------
Magnitude (a.u.)       :      1.36657
Magnitude (Debye)      :      3.47355

                             ****ORCA TERMINATED NORMALLY****
TOTAL RUN TIME: 0 days 0 hours 16 minutes 57 seconds 305 msec
