                         Program Version 3.0.3 - RELEASE   -
|  1> ! RI-MP2 RIJK def2-TZVP def2-TZVP/C def2-TZVP/JK TIGHTSCF
|  2> % maxcore 2000
|  3> % mp2 density relaxed end
|  4> *xyz 0 1
|  5>  C       -0.0301034664     1.4863638848     0.1035428401
|  6>  C        1.3580720093     2.1660086242    -0.0278903460
|  7>  C        2.1626024011     1.4184676752    -1.0389743525
|  8>  C        1.9842152846     0.0810883579    -1.3224417904
|  9>  C        0.9301346156    -0.6876535520    -0.6865815433
| 10>  C        0.0017654921    -0.0289646875     0.0210577966
| 11>  N        2.9357778059    -0.3149158871    -2.2161999876
| 12>  N        3.6939733359     0.7040050098    -2.5035117367
| 13>  N        3.2326002614     1.7610173533    -1.7835314170
| 14>  H       -0.4989162010     1.8074310832     1.0386900057
| 15>  H       -0.6830898362     1.8566855118    -0.7017831334
| 16>  H        1.2361884746     3.2232048320    -0.2843991885
| 17>  H        1.8814768111     2.1359521358     0.9389412734
| 18>  H        0.9207752805    -1.7662908101    -0.7948392282
| 19>  H       -0.8077997852    -0.5675392842     0.5032771167
| 20>  H        3.6967830465     2.6508108030    -1.8737440291
| 21> *
| 22>
| 23>                          ****END OF INPUT****

CARTESIAN COORDINATES (ANGSTROEM)
---------------------------------
  C     -0.030103    1.486364    0.103543
  C      1.358072    2.166009   -0.027890
  C      2.162602    1.418468   -1.038974
  C      1.984215    0.081088   -1.322442
  C      0.930135   -0.687654   -0.686582
  C      0.001765   -0.028965    0.021058
  N      2.935778   -0.314916   -2.216200
  N      3.693973    0.704005   -2.503512
  N      3.232600    1.761017   -1.783531
  H     -0.498916    1.807431    1.038690
  H     -0.683090    1.856686   -0.701783
  H      1.236188    3.223205   -0.284399
  H      1.881477    2.135952    0.938941
  H      0.920775   -1.766291   -0.794839
  H     -0.807800   -0.567539    0.503277
  H      3.696783    2.650811   -1.873744

 Total Charge           Charge          ....    0
 Multiplicity           Mult            ....    1
 Number of Electrons    NEL             ....   64
 Basis Dimension        Dim             ....  321

ORBITAL ENERGIES
----------------

  NO   OCC          E(Eh)            E(eV)
   0   2.0000     -15.654499      -425.9806
   1   2.0000     -15.633817      -425.4178
   2   2.0000     -15.594505      -424.3480
   3   2.0000     -11.283491      -307.0394
   4   2.0000     -11.261886      -306.4515
   5   2.0000     -11.248862      -306.0971
   6   2.0000     -11.247479      -306.0595
   7   2.0000     -11.239141      -305.8326
   8   2.0000     -11.237257      -305.7813
   9   2.0000      -1.428235       -38.8642
  10   2.0000      -1.201382       -32.6913
  11   2.0000      -1.147423       -31.2230
  12   2.0000      -1.045658       -28.4538
  13   2.0000      -1.025480       -27.9047
  14   2.0000      -0.893894       -24.3241
  15   2.0000      -0.862443       -23.4683
  16   2.0000      -0.834173       -22.6990
  17   2.0000      -0.738388       -20.0926
  18   2.0000      -0.726688       -19.7742
  19   2.0000      -0.657871       -17.9016
  20   2.0000      -0.631210       -17.1761
  21   2.0000      -0.619738       -16.8639
  22   2.0000      -0.605189       -16.4680
  23   2.0000      -0.594818       -16.1858
  24   2.0000      -0.537963       -14.6387
  25   2.0000      -0.528188       -14.3727
  26   2.0000      -0.507759       -13.8168
  27   2.0000      -0.483808       -13.1651
  28   2.0000      -0.439119       -11.9490
  29   2.0000      -0.433138       -11.7863
  30   2.0000      -0.399335       -10.8665
  31   2.0000      -0.301297        -8.1987
  32   0.0000       0.114476         3.1150
  33   0.0000       0.122171         3.3244
  34   0.0000       0.136461         3.7133
  35   0.0000       0.147831         4.0227
  36   0.0000       0.170929         4.6512

MULLIKEN ATOMIC CHARGES
-----------------------
   0 C :   -0.202451
   1 C :   -0.202898
   2 C :   -0.028366
   3 C :    0.088743
   4 C :   -0.266723
   5 C :   -0.112273
   6 N :   -0.124664
   7 N :   -0.130946
   8 N :   -0.081525
   9 H :    0.135427
  10 H :    0.126759
  11 H :    0.139091
  12 H :    0.131955
  13 H :    0.134087
  14 H :    0.132326
  15 H :    0.261458
Sum of atomic charges:   -0.0000000

LOEWDIN ATOMIC CHARGES
----------------------
   0 C :   -0.231717
   1 C :   -0.215928
   2 C :   -0.219012
   3 C :   -0.252246
   4 C :   -0.130082
   5 C :   -0.150984
   6 N :    0.028199
   7 N :   -0.049572
   8 N :    0.143717
   9 H :    0.143518
  10 H :    0.150728
  11 H :    0.145209
  12 H :    0.151235
  13 H :    0.153017
  14 H :    0.142921
  15 H :    0.190997

  Mayer bond orders larger than 0.1
B(  0-C ,  1-C ) :   0.9443 B(  0-C ,  5-C ) :   0.9272 B(  0-C ,  9-H ) :   0.9364
B(  0-C , 10-H ) :   0.9067 B(  1-C ,  2-C ) :   0.9040 B(  1-C , 11-H ) :   0.9279
B(  1-C , 12-H ) :   0.9061 B(  2-C ,  3-C ) :   1.3559 B(  2-C ,  7-N ) :   0.1287
B(  2-C ,  8-N ) :   1.2050 B(  3-C ,  4-C ) :   1.0366 B(  3-C ,  6-N ) :   1.4277
B(  4-C ,  5-C ) :   1.7448 B(  4-C , 13-H ) :   0.9315 B(  5-C , 14-H ) :   0.9258
B(  6-N ,  7-N ) :   1.2963 B(  7-N ,  8-N ) :   1.0217 B(  8-N , 15-H ) :   0.8568

MP2 TOTAL ENERGY:     -396.253939546 Eh
FINAL SINGLE POINT ENERGY      -396.253939546495

DIPOLE MOMENT
-------------
                                X             Y             Z
Electronic contribution:      5.78293      -2.19324      -4.71278
Nuclear contribution   :     -6.55985       3.73103       5.80421
                        -----------------------------------------
Total Dipole Moment    :     -0.77692       1.53779       1.09143
                        -----------------------------------------
Magnitude (a.u.)       :      2.03952
Magnitude (Debye)      :      5.18404

                             ****ORCA TERMINATED NORMALLY****
TOTAL RUN TIME: 0 days 0 hours 17 minutes 50 seconds 749 msec
