                         Program Version 3.0.3 - RELEASE   -
|  1> ! RI-MP2 RIJK def2-TZVP def2-TZVP/C def2-TZVP/JK TIGHTSCF
|  2> % maxcore 2000
|  3> % mp2 density relaxed end
|  4> *xyz 0 1
|  5>  C       -0.1744788803     1.5904814959     0.4627623113
|  6>  C       -0.1333438759     0.0707313813     0.3503837197
|  7>  O        0.3053454776    -0.4278518577     1.6045896584
|  8>  C       -1.5025879051    -0.5166731808    -0.0341586673
|  9>  C       -1.4256084304    -1.9997974057    -0.3660340711
| 10>  O       -0.8710116957    -2.8043681932     0.7227423706
| 11>  C       -2.1411676646    -3.4491316626     0.9643714347
| 12>  C       -2.7422207497    -2.8128616474    -0.3107629820
| 13>  O       -3.8964018571    -2.0243169352    -0.1766465248
| 14>  H        0.7964973841     1.9632854651     0.8002494239
| 15>  H       -0.4104089150     2.0512752373    -0.5014197039
| 16>  H       -0.9289637901     1.8981266856     1.1940125416
| 17>  H        0.5918075984    -0.1996248514    -0.4403155423
| 18>  H        0.1233343978    -1.3780615167     1.6099378987
| 19>  H       -2.2044349862    -0.3458962415     0.7883976826
| 20>  H       -1.9012418723     0.0036684000    -0.9136695701
| 21>  H       -0.8276759945    -2.1555637086    -1.2725550882
| 22>  H       -2.0426171317    -4.5397117003     0.9917311604
| 23>  H       -2.6211246925    -3.0936582423     1.8843687315
| 24>  H       -2.8349133957    -3.5230562795    -1.1410311040
| 25>  H       -4.6695107610    -2.5895061824    -0.2636154599
| 26> *
| 27>
| 28>                          ****END OF INPUT****

CARTESIAN COORDINATES (ANGSTROEM)
---------------------------------
  C     -0.174479    1.590481    0.462762
  C     -0.133344    0.070731    0.350384
  O      0.305345   -0.427852    1.604590
  C     -1.502588   -0.516673   -0.034159
  C     -1.425608   -1.999797   -0.366034
  O     -0.871012   -2.804368    0.722742
  C     -2.141168   -3.449132    0.964371
  C     -2.742221   -2.812862   -0.310763
  O     -3.896402   -2.024317   -0.176647
  H      0.796497    1.963285    0.800249
  H     -0.410409    2.051275   -0.501420
  H     -0.928964    1.898127    1.194013
  H      0.591808   -0.199625   -0.440316
  H      0.123334   -1.378062    1.609938
  H     -2.204435   -0.345896    0.788398
  H     -1.901242    0.003668   -0.913670
  H     -0.827676   -2.155564   -1.272555
  H     -2.042617   -4.539712    0.991731
  H     -2.621125   -3.093658    1.884369
  H     -2.834913   -3.523056   -1.141031
  H     -4.669511   -2.589506   -0.263615

 Total Charge           Charge          ....    0
 Multiplicity           Mult            ....    1
 Number of Electrons    NEL             ....   72
 Basis Dimension        Dim             ....  351

ORBITAL ENERGIES
----------------

  NO   OCC          E(Eh)            E(eV)
   0   2.0000     -20.578337      -559.9650
   1   2.0000     -20.563130      -559.5512
   2   2.0000     -20.525378      -558.5239
   3   2.0000     -11.300705      -307.5078
   4   2.0000     -11.292179      -307.2758
   5   2.0000     -11.288055      -307.1636
   6   2.0000     -11.269356      -306.6548
   7   2.0000     -11.219271      -305.2919
   8   2.0000     -11.202523      -304.8362
   9   2.0000      -1.403585       -38.1935
  10   2.0000      -1.373934       -37.3866
  11   2.0000      -1.336112       -36.3575
  12   2.0000      -1.056235       -28.7416
  13   2.0000      -1.003504       -27.3067
  14   2.0000      -0.974837       -26.5267
  15   2.0000      -0.891048       -24.2466
  16   2.0000      -0.795717       -21.6526
  17   2.0000      -0.769893       -20.9499
  18   2.0000      -0.730864       -19.8878
  19   2.0000      -0.700061       -19.0496
  20   2.0000      -0.679255       -18.4835
  21   2.0000      -0.652023       -17.7425
  22   2.0000      -0.625195       -17.0124
  23   2.0000      -0.602805       -16.4032
  24   2.0000      -0.591550       -16.0969
  25   2.0000      -0.565585       -15.3904
  26   2.0000      -0.548786       -14.9332
  27   2.0000      -0.524567       -14.2742
  28   2.0000      -0.522877       -14.2282
  29   2.0000      -0.520185       -14.1549
  30   2.0000      -0.508200       -13.8288
  31   2.0000      -0.494112       -13.4455
  32   2.0000      -0.459385       -12.5005
  33   2.0000      -0.436170       -11.8688
  34   2.0000      -0.419253       -11.4085
  35   2.0000      -0.415564       -11.3081
  36   0.0000       0.119299         3.2463
  37   0.0000       0.147763         4.0208
  38   0.0000       0.158853         4.3226
  39   0.0000       0.166500         4.5307
  40   0.0000       0.185921         5.0592

MULLIKEN ATOMIC CHARGES
-----------------------
   0 C :   -0.372134
   1 C :    0.137605
   2 O :   -0.486251
   3 C :   -0.326707
   4 C :    0.138564
   5 O :   -0.380946
   6 C :   -0.028096
   7 C :    0.003730
   8 O :   -0.448416
   9 H :    0.139511
  10 H :    0.114628
  11 H :    0.121843
  12 H :    0.065719
  13 H :    0.326918
  14 H :    0.140027
  15 H :    0.115137
  16 H :    0.104984
  17 H :    0.108818
  18 H :    0.102205
  19 H :    0.100795
  20 H :    0.322066
Sum of atomic charges:    0.0000000

LOEWDIN ATOMIC CHARGES
----------------------
   0 C :   -0.295919
   1 C :   -0.377959
   2 O :   -0.027190
   3 C :   -0.236891
   4 C :   -0.253363
   5 O :    0.115718
   6 C :   -0.258718
   7 C :   -0.321806
   8 O :   -0.004658
   9 H :    0.127126
  10 H :    0.121317
  11 H :    0.124827
  12 H :    0.131436
  13 H :    0.166699
  14 H :    0.150086
  15 H :    0.151634
  16 H :    0.137972
  17 H :    0.117433
  18 H :    0.122590
  19 H :    0.130305
  20 H :    0.179363

  Mayer bond orders larger than 0.1
B(  0-C ,  1-C ) :   0.9077 B(  0-C ,  9-H ) :   0.9402 B(  0-C , 10-H ) :   0.9367
B(  0-C , 11-H ) :   0.9351 B(  1-C ,  2-O ) :   0.9695 B(  1-C ,  3-C ) :   0.9124
B(  1-C , 12-H ) :   0.9377 B(  2-O , 13-H ) :   0.8123 B(  3-C ,  4-C ) :   0.9699
B(  3-C , 14-H ) :   0.9108 B(  3-C , 15-H ) :   0.9114 B(  4-C ,  5-O ) :   0.8417
B(  4-C ,  7-C ) :   0.9065 B(  4-C , 16-H ) :   0.9110 B(  5-O ,  6-C ) :   0.9194
B(  6-C ,  7-C ) :   0.9538 B(  6-C , 17-H ) :   0.9150 B(  6-C , 18-H ) :   0.9086
B(  7-C ,  8-O ) :   1.0753 B(  7-C , 19-H ) :   0.9407 B(  8-O , 20-H ) :   0.8413

MP2 TOTAL ENERGY:     -460.613755135 Eh
FINAL SINGLE POINT ENERGY      -460.613755134542

DIPOLE MOMENT
-------------
                                X             Y             Z
Electronic contribution:     -1.15851      -5.26262       0.78785
Nuclear contribution   :     -0.04364       4.27958      -1.67541
                        -----------------------------------------
Total Dipole Moment    :     -1.20215      -0.98304      -0.88756
                        -----------------------------------------
Magnitude (a.u.)       :      1.78866
Magnitude (Debye)      :      4.54640

                             ****ORCA TERMINATED NORMALLY****
TOTAL RUN TIME: 0 days 0 hours 17 minutes 19 seconds 632 msec
