                         Program Version 3.0.3 - RELEASE   -
|  1> ! RI-MP2 RIJK def2-TZVP def2-TZVP/C def2-TZVP/JK TIGHTSCF
|  2> % maxcore 2000
|  3> % mp2 density relaxed end
|  4> *xyz 0 1
|  5>  C       -0.1456919094     1.4941748854     0.0500906390
|  6>  C        0.1191566623    -0.0121106626     0.1054900957
|  7>  C        0.6682379237    -0.5773080391    -1.2104749107
|  8>  O        1.8724511251     0.0833024555    -1.6007726483
|  9>  C        0.8686049997    -2.1009128443    -1.1512519068
| 10>  C        1.3425841774    -2.6893394199    -2.4651938121
| 11>  C        1.1879356522    -4.1419835186    -2.7651160545
| 12>  N        0.4432999227    -3.1490287427    -3.5297653436
| 13>  C       -0.9989038468    -3.1059066534    -3.3539343880
| 14>  H        0.7595903892     2.0332845597    -0.2405713636
| 15>  H       -0.9207323647     1.7288658319    -0.6878464553
| 16>  H       -0.4806235097     1.8750108550     1.0194901229
| 17>  H        0.8370148321    -0.2385014360     0.9082522025
| 18>  H       -0.8022488600    -0.5492483960     0.3638646336
| 19>  H       -0.0372863919    -0.3427500689    -2.0181549004
| 20>  H        2.5254315094    -0.0733193855    -0.9085337525
| 21>  H        1.6204516732    -2.3206189899    -0.3778292115
| 22>  H       -0.0564600766    -2.5791005645    -0.8132388364
| 23>  H        2.2174888508    -2.1780004697    -2.8609288657
| 24>  H        1.9559594215    -4.6918255203    -3.3040231337
| 25>  H        0.6364701004    -4.7365909721    -2.0354490093
| 26>  H       -1.3553594411    -3.3850268422    -2.3492872200
| 27>  H       -1.3658897001    -2.0994355601    -3.5817272240
| 28>  H       -1.4558987692    -3.7988546319    -4.0681482673
| 29> *
| 30>
| 31>                          ****END OF INPUT****

CARTESIAN COORDINATES (ANGSTROEM)
---------------------------------
  C     -0.145692    1.494175    0.050091
  C      0.119157   -0.012111    0.105490
  C      0.668238   -0.577308   -1.210475
  O      1.872451    0.083302   -1.600773
  C      0.868605   -2.100913   -1.151252
  C      1.342584   -2.689339   -2.465194
  C      1.187936   -4.141984   -2.765116
  N      0.443300   -3.149029   -3.529765
  C     -0.998904   -3.105907   -3.353934
  H      0.759590    2.033285   -0.240571
  H     -0.920732    1.728866   -0.687846
  H     -0.480624    1.875011    1.019490
  H      0.837015   -0.238501    0.908252
  H     -0.802249   -0.549248    0.363865
  H     -0.037286   -0.342750   -2.018155
  H      2.525432   -0.073319   -0.908534
  H      1.620452   -2.320619   -0.377829
  H     -0.056460   -2.579101   -0.813239
  H      2.217489   -2.178000   -2.860929
  H      1.955959   -4.691826   -3.304023
  H      0.636470   -4.736591   -2.035449
  H     -1.355359   -3.385027   -2.349287
  H     -1.365890   -2.099436   -3.581727
  H     -1.455899   -3.798855   -4.068148

 Total Charge           Charge          ....    0
 Multiplicity           Mult            ....    1
 Number of Electrons    NEL             ....   72
 Basis Dimension        Dim             ....  369

ORBITAL ENERGIES
----------------

  NO   OCC          E(Eh)            E(eV)
   0   2.0000     -20.553864      -559.2991
   1   2.0000     -15.551206      -423.1698
   2   2.0000     -11.279588      -306.9332
   3   2.0000     -11.251907      -306.1800
   4   2.0000     -11.245818      -306.0143
   5   2.0000     -11.243659      -305.9555
   6   2.0000     -11.229237      -305.5631
   7   2.0000     -11.225835      -305.4705
   8   2.0000     -11.212647      -305.1116
   9   2.0000      -1.360370       -37.0175
  10   2.0000      -1.264624       -34.4122
  11   2.0000      -1.065901       -29.0046
  12   2.0000      -1.014196       -27.5977
  13   2.0000      -0.977694       -26.6044
  14   2.0000      -0.886211       -24.1150
  15   2.0000      -0.827294       -22.5118
  16   2.0000      -0.809395       -22.0248
  17   2.0000      -0.772710       -21.0265
  18   2.0000      -0.680902       -18.5283
  19   2.0000      -0.654844       -17.8192
  20   2.0000      -0.647401       -17.6167
  21   2.0000      -0.625706       -17.0263
  22   2.0000      -0.615071       -16.7369
  23   2.0000      -0.595687       -16.2095
  24   2.0000      -0.575516       -15.6606
  25   2.0000      -0.552407       -15.0318
  26   2.0000      -0.536063       -14.5870
  27   2.0000      -0.528967       -14.3939
  28   2.0000      -0.523016       -14.2320
  29   2.0000      -0.498959       -13.5774
  30   2.0000      -0.486956       -13.2507
  31   2.0000      -0.470684       -12.8080
  32   2.0000      -0.462369       -12.5817
  33   2.0000      -0.437822       -11.9138
  34   2.0000      -0.422572       -11.4988
  35   2.0000      -0.360668        -9.8143
  36   0.0000       0.127038         3.4569
  37   0.0000       0.146385         3.9833
  38   0.0000       0.157452         4.2845
  39   0.0000       0.174533         4.7493
  40   0.0000       0.181275         4.9327

MULLIKEN ATOMIC CHARGES
-----------------------
   0 C :   -0.368511
   1 C :   -0.205398
   2 C :    0.057237
   3 O :   -0.470655
   4 C :   -0.271088
   5 C :   -0.009887
   6 C :   -0.176216
   7 N :   -0.224793
   8 C :   -0.296468
   9 H :    0.133924
  10 H :    0.120328
  11 H :    0.132027
  12 H :    0.099037
  13 H :    0.108806
  14 H :    0.088789
  15 H :    0.308509
  16 H :    0.122619
  17 H :    0.119515
  18 H :    0.120096
  19 H :    0.124788
  20 H :    0.109158
  21 H :    0.101469
  22 H :    0.132590
  23 H :    0.144125
Sum of atomic charges:    0.0000000

LOEWDIN ATOMIC CHARGES
----------------------
   0 C :   -0.318950
   1 C :   -0.286509
   2 C :   -0.345050
   3 O :   -0.017428
   4 C :   -0.247960
   5 C :   -0.256421
   6 C :   -0.252486
   7 N :    0.085326
   8 C :   -0.337430
   9 H :    0.123855
  10 H :    0.121689
  11 H :    0.119813
  12 H :    0.134319
  13 H :    0.139309
  14 H :    0.147234
  15 H :    0.173945
  16 H :    0.145020
  17 H :    0.143550
  18 H :    0.146235
  19 H :    0.122440
  20 H :    0.122135
  21 H :    0.101077
  22 H :    0.116474
  23 H :    0.119814

  Mayer bond orders larger than 0.1
B(  0-C ,  1-C ) :   0.9321 B(  0-C ,  9-H ) :   0.9348 B(  0-C , 10-H ) :   0.9371
B(  0-C , 11-H ) :   0.9416 B(  1-C ,  2-C ) :   0.9461 B(  1-C , 12-H ) :   0.9138
B(  1-C , 13-H ) :   0.9321 B(  2-C ,  3-O ) :   0.8876 B(  2-C ,  4-C ) :   0.9278
B(  2-C , 14-H ) :   0.9234 B(  3-O , 15-H ) :   0.8432 B(  4-C ,  5-C ) :   0.9232
B(  4-C , 16-H ) :   0.9084 B(  4-C , 17-H ) :   0.9373 B(  5-C ,  6-C ) :   0.9184
B(  5-C ,  7-N ) :   0.9028 B(  5-C , 18-H ) :   0.9204 B(  6-C ,  7-N ) :   0.9092
B(  6-C , 19-H ) :   0.9201 B(  6-C , 20-H ) :   0.9187 B(  7-N ,  8-C ) :   0.8909
B(  8-C , 21-H ) :   0.9276 B(  8-C , 22-H ) :   0.9376 B(  8-C , 23-H ) :   0.9373

MP2 TOTAL ENERGY:     -404.826683969 Eh
FINAL SINGLE POINT ENERGY      -404.826683969382

DIPOLE MOMENT
-------------
                                X             Y             Z
Electronic contribution:      4.30803      -1.87685      -3.90203
Nuclear contribution   :     -4.52260       1.54794       4.92510
                        -----------------------------------------
Total Dipole Moment    :     -0.21458      -0.32891       1.02306
                        -----------------------------------------
Magnitude (a.u.)       :      1.09585
Magnitude (Debye)      :      2.78543

                             ****ORCA TERMINATED NORMALLY****
TOTAL RUN TIME: 0 days 0 hours 19 minutes 28 seconds 425 msec
