                         Program Version 3.0.3 - RELEASE   -
|  1> ! RI-MP2 RIJK def2-TZVP def2-TZVP/C def2-TZVP/JK TIGHTSCF
|  2> % maxcore 2000
|  3> % mp2 density relaxed end
|  4> *xyz 0 1
|  5>  C        0.0126511424     1.5486500111    -0.0266666628
|  6>  C        0.0360269479     0.0354533374    -0.0087935649
|  7>  C        0.4678040554    -0.6989815060    -1.2773774728
|  8>  C        0.3895141755    -1.9919050743    -0.9635741974
|  9>  C       -0.0853839733    -1.9809672678     0.4785304351
| 10>  C        0.6451462240    -0.7899096660     1.2006542136
| 11>  C       -0.6275812133    -0.5327336823     2.0406344861
| 12>  C       -1.1429710551    -0.8244931447     0.6120722828
| 13>  H        1.0078967772     1.9504803301    -0.2481099858
| 14>  H       -0.6697658271     1.9180373624    -0.8005386542
| 15>  H       -0.3099921376     1.9731509272     0.9282337603
| 16>  H        0.7640567494    -0.2278539634    -2.2050764192
| 17>  H        0.6041113967    -2.8645701075    -1.5642561659
| 18>  H       -0.2450235496    -2.9150057146     1.0183973164
| 19>  H        1.6884632580    -0.7762116828     1.5305977033
| 20>  H       -0.8637613799    -1.2813915035     2.8021381725
| 21>  H       -0.7773914986     0.4742069036     2.4365951356
| 22>  H       -2.1780592320    -0.8509936291     0.2578819373
| 23> *
| 24>
| 25>                          ****END OF INPUT****

CARTESIAN COORDINATES (ANGSTROEM)
---------------------------------
  C      0.012651    1.548650   -0.026667
  C      0.036027    0.035453   -0.008794
  C      0.467804   -0.698982   -1.277377
  C      0.389514   -1.991905   -0.963574
  C     -0.085384   -1.980967    0.478530
  C      0.645146   -0.789910    1.200654
  C     -0.627581   -0.532734    2.040634
  C     -1.142971   -0.824493    0.612072
  H      1.007897    1.950480   -0.248110
  H     -0.669766    1.918037   -0.800539
  H     -0.309992    1.973151    0.928234
  H      0.764057   -0.227854   -2.205076
  H      0.604111   -2.864570   -1.564256
  H     -0.245024   -2.915006    1.018397
  H      1.688463   -0.776212    1.530598
  H     -0.863761   -1.281392    2.802138
  H     -0.777391    0.474207    2.436595
  H     -2.178059   -0.850994    0.257882

 Total Charge           Charge          ....    0
 Multiplicity           Mult            ....    1
 Number of Electrons    NEL             ....   58
 Basis Dimension        Dim             ....  308

ORBITAL ENERGIES
----------------

  NO   OCC          E(Eh)            E(eV)
   0   2.0000     -11.242056      -305.9119
   1   2.0000     -11.239241      -305.8353
   2   2.0000     -11.239202      -305.8342
   3   2.0000     -11.234063      -305.6944
   4   2.0000     -11.221365      -305.3489
   5   2.0000     -11.218514      -305.2713
   6   2.0000     -11.215849      -305.1988
   7   2.0000     -11.214190      -305.1536
   8   2.0000      -1.225637       -33.3513
   9   2.0000      -1.047553       -28.5054
  10   2.0000      -0.997427       -27.1414
  11   2.0000      -0.875572       -23.8255
  12   2.0000      -0.855696       -23.2847
  13   2.0000      -0.852451       -23.1964
  14   2.0000      -0.734019       -19.9737
  15   2.0000      -0.691574       -18.8187
  16   2.0000      -0.666093       -18.1253
  17   2.0000      -0.653734       -17.7890
  18   2.0000      -0.591485       -16.0951
  19   2.0000      -0.568933       -15.4815
  20   2.0000      -0.545826       -14.8527
  21   2.0000      -0.524941       -14.2844
  22   2.0000      -0.499388       -13.5890
  23   2.0000      -0.476947       -12.9784
  24   2.0000      -0.447972       -12.1899
  25   2.0000      -0.438460       -11.9311
  26   2.0000      -0.425947       -11.5906
  27   2.0000      -0.422464       -11.4958
  28   2.0000      -0.320396        -8.7184
  29   0.0000       0.139636         3.7997
  30   0.0000       0.145832         3.9683
  31   0.0000       0.163577         4.4512
  32   0.0000       0.178777         4.8648
  33   0.0000       0.185841         5.0570

MULLIKEN ATOMIC CHARGES
-----------------------
   0 C :   -0.436573
   1 C :    0.156000
   2 C :   -0.253767
   3 C :   -0.200131
   4 C :   -0.078814
   5 C :   -0.089011
   6 C :   -0.249612
   7 C :   -0.089016
   8 H :    0.136460
   9 H :    0.136459
  10 H :    0.131821
  11 H :    0.127413
  12 H :    0.130186
  13 H :    0.120406
  14 H :    0.116988
  15 H :    0.111374
  16 H :    0.112829
  17 H :    0.116988
Sum of atomic charges:   -0.0000000

LOEWDIN ATOMIC CHARGES
----------------------
   0 C :   -0.272614
   1 C :   -0.192708
   2 C :   -0.116582
   3 C :   -0.134136
   4 C :   -0.148806
   5 C :   -0.109766
   6 C :   -0.208045
   7 C :   -0.109766
   8 H :    0.129382
   9 H :    0.129382
  10 H :    0.126563
  11 H :    0.135293
  12 H :    0.133711
  13 H :    0.137588
  14 H :    0.124966
  15 H :    0.127420
  16 H :    0.123151
  17 H :    0.124966

  Mayer bond orders larger than 0.1
B(  0-C ,  1-C ) :   0.8669 B(  0-C ,  8-H ) :   0.9413 B(  0-C ,  9-H ) :   0.9413
B(  0-C , 10-H ) :   0.9432 B(  1-C ,  2-C ) :   0.8983 B(  1-C ,  5-C ) :   0.8642
B(  1-C ,  7-C ) :   0.8642 B(  2-C ,  3-C ) :   1.7831 B(  2-C , 11-H ) :   0.9357
B(  3-C ,  4-C ) :   0.9282 B(  3-C , 12-H ) :   0.9353 B(  4-C ,  5-C ) :   0.8913
B(  4-C ,  7-C ) :   0.8913 B(  4-C , 13-H ) :   0.9118 B(  5-C ,  6-C ) :   0.9148
B(  5-C , 14-H ) :   0.8800 B(  6-C ,  7-C ) :   0.9148 B(  6-C , 15-H ) :   0.9272
B(  6-C , 16-H ) :   0.9311 B(  7-C , 17-H ) :   0.8800

MP2 TOTAL ENERGY:     -310.038063534 Eh
FINAL SINGLE POINT ENERGY      -310.038063534183

DIPOLE MOMENT
-------------
                                X             Y             Z
Electronic contribution:      0.48797      -3.27252      -1.29023
Nuclear contribution   :     -0.50817       3.34840       1.34711
                        -----------------------------------------
Total Dipole Moment    :     -0.02019       0.07588       0.05688
                        -----------------------------------------
Magnitude (a.u.)       :      0.09696
Magnitude (Debye)      :      0.24645

                             ****ORCA TERMINATED NORMALLY****
TOTAL RUN TIME: 0 days 0 hours 13 minutes 40 seconds 838 msec
