                         Program Version 3.0.3 - RELEASE   -
|  1> ! RI-MP2 RIJK def2-TZVP def2-TZVP/C def2-TZVP/JK TIGHTSCF
|  2> % maxcore 2000
|  3> % mp2 density relaxed end
|  4> *xyz 0 1
|  5>  C        0.1479020934     1.6325223517     0.0373300996
|  6>  C       -0.0051975814     0.1054068460    -0.0146617089
|  7>  C        0.5530680257    -0.4492103773    -1.3378291208
|  8>  C        0.1303717537    -1.8851614964    -1.7011538626
|  9>  C        0.3554141655    -2.9616541773    -0.6289739564
| 10>  C       -0.5020978949    -2.7880272499     0.6593620685
| 11>  C        0.7010912620    -2.0530119064     1.3190353707
| 12>  C        1.6142169985    -2.7345195153     0.2569344973
| 13>  C        0.6408271701    -0.5202010909     1.2405831842
| 14>  H        1.2027629850     1.9233806612    -0.0380657661
| 15>  H       -0.3889192150     2.1145258009    -0.7864746255
| 16>  H       -0.2405696153     2.0414127175     0.9762780365
| 17>  H       -1.0819246536    -0.1136355209     0.0105595559
| 18>  H        0.2333096026     0.2075633155    -2.1566766760
| 19>  H        1.6488583613    -0.3762209222    -1.3166493358
| 20>  H       -0.9344227050    -1.8879610243    -1.9732799888
| 21>  H        0.6737493453    -2.1745151592    -2.6099496899
| 22>  H        0.2800453847    -3.9466848160    -1.0996834589
| 23>  H       -1.4517306366    -2.2520036426     0.5733079377
| 24>  H       -0.6944598688    -3.7511270148     1.1408205236
| 25>  H        0.9153307370    -2.3378859441     2.3536603723
| 26>  H        2.0173241311    -3.6804735946     0.6296907030
| 27>  H        2.4402995602    -2.1502623496    -0.1591155249
| 28>  H        1.6647057874    -0.1300223013     1.3397158046
| 29>  H        0.0931948070    -0.1477209497     2.1164566207
| 30> *
| 31>
| 32>                          ****END OF INPUT****

CARTESIAN COORDINATES (ANGSTROEM)
---------------------------------
  C      0.147902    1.632522    0.037330
  C     -0.005198    0.105407   -0.014662
  C      0.553068   -0.449210   -1.337829
  C      0.130372   -1.885161   -1.701154
  C      0.355414   -2.961654   -0.628974
  C     -0.502098   -2.788027    0.659362
  C      0.701091   -2.053012    1.319035
  C      1.614217   -2.734520    0.256934
  C      0.640827   -0.520201    1.240583
  H      1.202763    1.923381   -0.038066
  H     -0.388919    2.114526   -0.786475
  H     -0.240570    2.041413    0.976278
  H     -1.081925   -0.113636    0.010560
  H      0.233310    0.207563   -2.156677
  H      1.648858   -0.376221   -1.316649
  H     -0.934423   -1.887961   -1.973280
  H      0.673749   -2.174515   -2.609950
  H      0.280045   -3.946685   -1.099683
  H     -1.451731   -2.252004    0.573308
  H     -0.694460   -3.751127    1.140821
  H      0.915331   -2.337886    2.353660
  H      2.017324   -3.680474    0.629691
  H      2.440300   -2.150262   -0.159116
  H      1.664706   -0.130022    1.339716
  H      0.093195   -0.147721    2.116457

 Total Charge           Charge          ....    0
 Multiplicity           Mult            ....    1
 Number of Electrons    NEL             ....   70
 Basis Dimension        Dim             ....  375

ORBITAL ENERGIES
----------------

  NO   OCC          E(Eh)            E(eV)
   0   2.0000     -11.219808      -305.3065
   1   2.0000     -11.219172      -305.2892
   2   2.0000     -11.218827      -305.2798
   3   2.0000     -11.213527      -305.1356
   4   2.0000     -11.212035      -305.0950
   5   2.0000     -11.211724      -305.0865
   6   2.0000     -11.209901      -305.0369
   7   2.0000     -11.209805      -305.0343
   8   2.0000     -11.207627      -304.9750
   9   2.0000      -1.143239       -31.1091
  10   2.0000      -1.066810       -29.0294
  11   2.0000      -1.016429       -27.6584
  12   2.0000      -0.935216       -25.4485
  13   2.0000      -0.891628       -24.2624
  14   2.0000      -0.871814       -23.7233
  15   2.0000      -0.825634       -22.4666
  16   2.0000      -0.738276       -20.0895
  17   2.0000      -0.707825       -19.2609
  18   2.0000      -0.663447       -18.0533
  19   2.0000      -0.620019       -16.8716
  20   2.0000      -0.615557       -16.7502
  21   2.0000      -0.602443       -16.3933
  22   2.0000      -0.561949       -15.2914
  23   2.0000      -0.550333       -14.9753
  24   2.0000      -0.539358       -14.6767
  25   2.0000      -0.537114       -14.6156
  26   2.0000      -0.516432       -14.0528
  27   2.0000      -0.502850       -13.6833
  28   2.0000      -0.471167       -12.8211
  29   2.0000      -0.446393       -12.1470
  30   2.0000      -0.442626       -12.0445
  31   2.0000      -0.435982       -11.8637
  32   2.0000      -0.423515       -11.5244
  33   2.0000      -0.417757       -11.3678
  34   2.0000      -0.408913       -11.1271
  35   0.0000       0.134174         3.6511
  36   0.0000       0.152240         4.1427
  37   0.0000       0.157403         4.2831
  38   0.0000       0.164173         4.4674
  39   0.0000       0.182702         4.9716

MULLIKEN ATOMIC CHARGES
-----------------------
   0 C :   -0.395043
   1 C :   -0.036524
   2 C :   -0.260336
   3 C :   -0.262295
   4 C :    0.029937
   5 C :   -0.315623
   6 C :    0.066190
   7 C :   -0.312972
   8 C :   -0.324138
   9 H :    0.122546
  10 H :    0.130337
  11 H :    0.130020
  12 H :    0.083632
  13 H :    0.120074
  14 H :    0.110566
  15 H :    0.108586
  16 H :    0.117376
  17 H :    0.099322
  18 H :    0.115888
  19 H :    0.117727
  20 H :    0.101122
  21 H :    0.118085
  22 H :    0.113475
  23 H :    0.107726
  24 H :    0.114320
Sum of atomic charges:   -0.0000000

LOEWDIN ATOMIC CHARGES
----------------------
   0 C :   -0.296243
   1 C :   -0.280035
   2 C :   -0.244531
   3 C :   -0.248202
   4 C :   -0.227694
   5 C :   -0.201464
   6 C :   -0.224853
   7 C :   -0.201252
   8 C :   -0.228581
   9 H :    0.122750
  10 H :    0.120991
  11 H :    0.122235
  12 H :    0.150058
  13 H :    0.140894
  14 H :    0.137841
  15 H :    0.139783
  16 H :    0.140273
  17 H :    0.137097
  18 H :    0.124539
  19 H :    0.134332
  20 H :    0.137765
  21 H :    0.134473
  22 H :    0.124972
  23 H :    0.142861
  24 H :    0.141991

  Mayer bond orders larger than 0.1
B(  0-C ,  1-C ) :   0.9009 B(  0-C ,  9-H ) :   0.9354 B(  0-C , 10-H ) :   0.9446
B(  0-C , 11-H ) :   0.9416 B(  1-C ,  2-C ) :   0.9065 B(  1-C ,  8-C ) :   0.9441
B(  1-C , 12-H ) :   0.9279 B(  2-C ,  3-C ) :   0.9355 B(  2-C , 13-H ) :   0.9337
B(  2-C , 14-H ) :   0.9238 B(  3-C ,  4-C ) :   0.9089 B(  3-C , 15-H ) :   0.9330
B(  3-C , 16-H ) :   0.9306 B(  4-C ,  5-C ) :   0.8933 B(  4-C ,  7-C ) :   0.9008
B(  4-C , 17-H ) :   0.9320 B(  5-C ,  6-C ) :   0.8854 B(  5-C , 18-H ) :   0.9321
B(  5-C , 19-H ) :   0.9226 B(  6-C ,  7-C ) :   0.8827 B(  6-C ,  8-C ) :   0.9048
B(  6-C , 20-H ) :   0.9307 B(  7-C , 21-H ) :   0.9225 B(  7-C , 22-H ) :   0.9315
B(  8-C , 23-H ) :   0.9253 B(  8-C , 24-H ) :   0.9259

MP2 TOTAL ENERGY:     -351.723337454 Eh
FINAL SINGLE POINT ENERGY      -351.723337453996

DIPOLE MOMENT
-------------
                                X             Y             Z
Electronic contribution:      0.04148      -3.33575       0.56470
Nuclear contribution   :     -0.06999       3.31150      -0.57007
                        -----------------------------------------
Total Dipole Moment    :     -0.02850      -0.02425      -0.00537
                        -----------------------------------------
Magnitude (a.u.)       :      0.03781
Magnitude (Debye)      :      0.09611

                             ****ORCA TERMINATED NORMALLY****
TOTAL RUN TIME: 0 days 0 hours 22 minutes 13 seconds 639 msec
