                         Program Version 3.0.3 - RELEASE   -
|  1> ! RI-MP2 RIJK def2-TZVP def2-TZVP/C def2-TZVP/JK TIGHTSCF
|  2> % maxcore 2000
|  3> % mp2 density relaxed end
|  4> *xyz 0 1
|  5>  O        0.1821117465    -0.2252156614    -0.9871444128
|  6>  C       -0.2847713766    -0.6228302656     0.2724670371
|  7>  C        0.0764501990     0.1993228097     1.5419658535
|  8>  C       -1.3336669809    -0.1122085305     2.0913577202
|  9>  C       -1.7861274350    -0.4548970726     0.6399433398
| 10>  O       -1.2432839297    -1.2246631649     2.9685239744
| 11>  C       -2.4689524216    -1.6435354539     3.5189687631
| 12>  C       -3.1810499477    -2.6958277508     2.6753108621
| 13>  O       -4.3589784455    -2.9273619706     2.7417285582
| 14>  H       -0.0794318276     0.6906246870    -1.1309123894
| 15>  H        0.0272529053    -1.6634433613     0.3893127767
| 16>  H        0.9186467628    -0.1254960765     2.1552380358
| 17>  H        0.1839562251     1.2635409811     1.3076752689
| 18>  H       -1.8729666980     0.7032623828     2.5894807013
| 19>  H       -2.2107260803     0.4309280576     0.1537585342
| 20>  H       -2.4636215436    -1.2966033101     0.4817546320
| 21>  H       -2.2406921798    -2.1172223952     4.4845472363
| 22>  H       -3.1566398170    -0.8092682601     3.7156874895
| 23>  H       -2.4964784953    -3.2672617147     2.0071453391
| 24> *
| 25>
| 26>                          ****END OF INPUT****

CARTESIAN COORDINATES (ANGSTROEM)
---------------------------------
  O      0.182112   -0.225216   -0.987144
  C     -0.284771   -0.622830    0.272467
  C      0.076450    0.199323    1.541966
  C     -1.333667   -0.112209    2.091358
  C     -1.786127   -0.454897    0.639943
  O     -1.243284   -1.224663    2.968524
  C     -2.468952   -1.643535    3.518969
  C     -3.181050   -2.695828    2.675311
  O     -4.358978   -2.927362    2.741729
  H     -0.079432    0.690625   -1.130912
  H      0.027253   -1.663443    0.389313
  H      0.918647   -0.125496    2.155238
  H      0.183956    1.263541    1.307675
  H     -1.872967    0.703262    2.589481
  H     -2.210726    0.430928    0.153759
  H     -2.463622   -1.296603    0.481755
  H     -2.240692   -2.117222    4.484547
  H     -3.156640   -0.809268    3.715687
  H     -2.496478   -3.267262    2.007145

 Total Charge           Charge          ....    0
 Multiplicity           Mult            ....    1
 Number of Electrons    NEL             ....   70
 Basis Dimension        Dim             ....  339

ORBITAL ENERGIES
----------------

  NO   OCC          E(Eh)            E(eV)
   0   2.0000     -20.580019      -560.0108
   1   2.0000     -20.566499      -559.6429
   2   2.0000     -20.565165      -559.6066
   3   2.0000     -11.339121      -308.5532
   4   2.0000     -11.300987      -307.5155
   5   2.0000     -11.299688      -307.4801
   6   2.0000     -11.290306      -307.2248
   7   2.0000     -11.236965      -305.7734
   8   2.0000     -11.233260      -305.6725
   9   2.0000      -1.410796       -38.3897
  10   2.0000      -1.397337       -38.0235
  11   2.0000      -1.373598       -37.3775
  12   2.0000      -1.131470       -30.7889
  13   2.0000      -0.999391       -27.1948
  14   2.0000      -0.922616       -25.1057
  15   2.0000      -0.886621       -24.1262
  16   2.0000      -0.817254       -22.2386
  17   2.0000      -0.790222       -21.5030
  18   2.0000      -0.710670       -19.3383
  19   2.0000      -0.692403       -18.8413
  20   2.0000      -0.669086       -18.2068
  21   2.0000      -0.662984       -18.0407
  22   2.0000      -0.652462       -17.7544
  23   2.0000      -0.628875       -17.1126
  24   2.0000      -0.595013       -16.1911
  25   2.0000      -0.583832       -15.8869
  26   2.0000      -0.564542       -15.3620
  27   2.0000      -0.549964       -14.9653
  28   2.0000      -0.536672       -14.6036
  29   2.0000      -0.513029       -13.9602
  30   2.0000      -0.495655       -13.4875
  31   2.0000      -0.462025       -12.5723
  32   2.0000      -0.440889       -11.9972
  33   2.0000      -0.428831       -11.6691
  34   2.0000      -0.410882       -11.1807
  35   0.0000       0.120859         3.2887
  36   0.0000       0.131327         3.5736
  37   0.0000       0.139831         3.8050
  38   0.0000       0.153616         4.1801
  39   0.0000       0.169229         4.6050

MULLIKEN ATOMIC CHARGES
-----------------------
   0 O :   -0.453720
   1 C :    0.047942
   2 C :   -0.197483
   3 C :   -0.001503
   4 C :   -0.248386
   5 O :   -0.309491
   6 C :    0.008768
   7 C :    0.051578
   8 O :   -0.259761
   9 H :    0.310924
  10 H :    0.105745
  11 H :    0.129548
  12 H :    0.113783
  13 H :    0.102841
  14 H :    0.114359
  15 H :    0.138899
  16 H :    0.143858
  17 H :    0.109966
  18 H :    0.092131
Sum of atomic charges:   -0.0000000

LOEWDIN ATOMIC CHARGES
----------------------
   0 O :   -0.012328
   1 C :   -0.335726
   2 C :   -0.208308
   3 C :   -0.295671
   4 C :   -0.218040
   5 O :    0.184014
   6 C :   -0.321780
   7 C :   -0.305122
   8 O :    0.135782
   9 H :    0.174282
  10 H :    0.145617
  11 H :    0.134065
  12 H :    0.137983
  13 H :    0.125038
  14 H :    0.138728
  15 H :    0.129857
  16 H :    0.147143
  17 H :    0.133245
  18 H :    0.111223

  Mayer bond orders larger than 0.1
B(  0-O ,  1-C ) :   0.9706 B(  0-O ,  9-H ) :   0.8403 B(  1-C ,  2-C ) :   0.9284
B(  1-C ,  4-C ) :   0.9136 B(  1-C , 10-H ) :   0.9216 B(  2-C ,  3-C ) :   0.9145
B(  2-C , 11-H ) :   0.9174 B(  2-C , 12-H ) :   0.9209 B(  3-C ,  4-C ) :   0.8998
B(  3-C ,  5-O ) :   0.9662 B(  3-C , 13-H ) :   0.9452 B(  4-C , 14-H ) :   0.9149
B(  4-C , 15-H ) :   0.9249 B(  5-O ,  6-C ) :   0.9070 B(  6-C ,  7-C ) :   0.8619
B(  6-C , 16-H ) :   0.9047 B(  6-C , 17-H ) :   0.9040 B(  7-C ,  8-O ) :   1.9968
B(  7-C , 18-H ) :   0.9311

MP2 TOTAL ENERGY:     -459.400588413 Eh
FINAL SINGLE POINT ENERGY      -459.400588412676

DIPOLE MOMENT
-------------
                                X             Y             Z
Electronic contribution:     -2.15655      -3.35043       1.03373
Nuclear contribution   :      2.42593       4.28816      -0.77082
                        -----------------------------------------
Total Dipole Moment    :      0.26938       0.93773       0.26291
                        -----------------------------------------
Magnitude (a.u.)       :      1.01046
Magnitude (Debye)      :      2.56839

                             ****ORCA TERMINATED NORMALLY****
TOTAL RUN TIME: 0 days 0 hours 15 minutes 2 seconds 768 msec
