                         Program Version 3.0.3 - RELEASE   -
|  1> ! RI-MP2 RIJK def2-TZVP def2-TZVP/C def2-TZVP/JK TIGHTSCF
|  2> % maxcore 2000
|  3> % mp2 density relaxed end
|  4> *xyz 0 1
|  5>  C       -0.2438270485     1.3896312017     0.4379956170
|  6>  C        0.2046526438    -0.0402182749     0.1542260078
|  7>  C        0.5950003656    -0.5319514944    -1.2515109473
|  8>  C        1.9415559280    -0.0812759098    -1.7515814235
|  9>  C        2.6195515228     1.2779864443    -1.6160754454
| 10>  O        3.9766867868     1.1618869170    -1.2326393750
| 11>  C        1.8938920185    -1.1464581678    -0.6860522447
| 12>  C        1.5794735171    -0.5916937285     0.6941366760
| 13>  O        2.5587594285     0.3287065701     1.1603903932
| 14>  H        0.5351519536     2.1286143219     0.2447435758
| 15>  H       -1.1095354932     1.6491046718    -0.1807849378
| 16>  H       -0.5503344465     1.4961432039     1.4857290312
| 17>  H       -0.5719187019    -0.7173170977     0.5282701160
| 18>  H       -0.1126153467    -1.0043047932    -1.9239556527
| 19>  H        2.1654445429    -0.5480354456    -2.7101202758
| 20>  H        2.6159520304     1.7712639862    -2.5946373463
| 21>  H        2.0745263670     1.9282049931    -0.9261748828
| 22>  H        3.9502650430     0.8437513021    -0.3204616778
| 23>  H        2.3127442985    -2.1298318693    -0.8604163486
| 24>  H        1.4301340484    -1.3817254225     1.4398311312
| 25>  H        2.2864427220     0.6708792715     2.0177173296
| 26> *
| 27>
| 28>                          ****END OF INPUT****

CARTESIAN COORDINATES (ANGSTROEM)
---------------------------------
  C     -0.243827    1.389631    0.437996
  C      0.204653   -0.040218    0.154226
  C      0.595000   -0.531951   -1.251511
  C      1.941556   -0.081276   -1.751581
  C      2.619552    1.277986   -1.616075
  O      3.976687    1.161887   -1.232639
  C      1.893892   -1.146458   -0.686052
  C      1.579474   -0.591694    0.694137
  O      2.558759    0.328707    1.160390
  H      0.535152    2.128614    0.244744
  H     -1.109535    1.649105   -0.180785
  H     -0.550334    1.496143    1.485729
  H     -0.571919   -0.717317    0.528270
  H     -0.112615   -1.004305   -1.923956
  H      2.165445   -0.548035   -2.710120
  H      2.615952    1.771264   -2.594637
  H      2.074526    1.928205   -0.926175
  H      3.950265    0.843751   -0.320462
  H      2.312744   -2.129832   -0.860416
  H      1.430134   -1.381725    1.439831
  H      2.286443    0.670879    2.017717

 Total Charge           Charge          ....    0
 Multiplicity           Mult            ....    1
 Number of Electrons    NEL             ....   70
 Basis Dimension        Dim             ....  351

ORBITAL ENERGIES
----------------

  NO   OCC          E(Eh)            E(eV)
   0   2.0000     -20.570760      -559.7588
   1   2.0000     -20.527725      -558.5878
   2   2.0000     -11.291391      -307.2544
   3   2.0000     -11.260083      -306.4024
   4   2.0000     -11.241031      -305.8840
   5   2.0000     -11.239039      -305.8298
   6   2.0000     -11.233241      -305.6720
   7   2.0000     -11.231923      -305.6362
   8   2.0000     -11.220587      -305.3277
   9   2.0000      -1.376824       -37.4653
  10   2.0000      -1.335324       -36.3360
  11   2.0000      -1.187714       -32.3193
  12   2.0000      -1.029833       -28.0232
  13   2.0000      -0.963176       -26.2094
  14   2.0000      -0.906050       -24.6549
  15   2.0000      -0.861870       -23.4527
  16   2.0000      -0.755024       -20.5453
  17   2.0000      -0.737244       -20.0614
  18   2.0000      -0.725444       -19.7403
  19   2.0000      -0.684940       -18.6382
  20   2.0000      -0.664019       -18.0689
  21   2.0000      -0.621025       -16.8989
  22   2.0000      -0.602743       -16.4015
  23   2.0000      -0.589268       -16.0348
  24   2.0000      -0.586743       -15.9661
  25   2.0000      -0.557468       -15.1695
  26   2.0000      -0.544573       -14.8186
  27   2.0000      -0.515183       -14.0188
  28   2.0000      -0.503678       -13.7058
  29   2.0000      -0.492536       -13.4026
  30   2.0000      -0.467296       -12.7158
  31   2.0000      -0.438039       -11.9196
  32   2.0000      -0.418341       -11.3836
  33   2.0000      -0.409109       -11.1324
  34   2.0000      -0.377759       -10.2793
  35   0.0000       0.120159         3.2697
  36   0.0000       0.147889         4.0243
  37   0.0000       0.157714         4.2916
  38   0.0000       0.169637         4.6160
  39   0.0000       0.192950         5.2504

MULLIKEN ATOMIC CHARGES
-----------------------
   0 C :   -0.432290
   1 C :   -0.068104
   2 C :   -0.086663
   3 C :   -0.171544
   4 C :    0.040364
   5 O :   -0.493059
   6 C :   -0.172898
   7 C :    0.067269
   8 O :   -0.506562
   9 H :    0.133430
  10 H :    0.138983
  11 H :    0.126077
  12 H :    0.098140
  13 H :    0.131199
  14 H :    0.111526
  15 H :    0.107360
  16 H :    0.079742
  17 H :    0.332422
  18 H :    0.135380
  19 H :    0.107530
  20 H :    0.321698
Sum of atomic charges:   -0.0000000

LOEWDIN ATOMIC CHARGES
----------------------
   0 C :   -0.303817
   1 C :   -0.222783
   2 C :   -0.139355
   3 C :   -0.193317
   4 C :   -0.335939
   5 O :   -0.048704
   6 C :   -0.146824
   7 C :   -0.278022
   8 O :   -0.019504
   9 H :    0.118879
  10 H :    0.129370
  11 H :    0.122354
  12 H :    0.156633
  13 H :    0.135925
  14 H :    0.162366
  15 H :    0.129037
  16 H :    0.115208
  17 H :    0.171000
  18 H :    0.137193
  19 H :    0.133966
  20 H :    0.176336

  Mayer bond orders larger than 0.1
B(  0-C ,  1-C ) :   0.8857 B(  0-C ,  9-H ) :   0.9337 B(  0-C , 10-H ) :   0.9365
B(  0-C , 11-H ) :   0.9373 B(  1-C ,  2-C ) :   0.9126 B(  1-C ,  7-C ) :   0.9366
B(  1-C , 12-H ) :   0.9226 B(  2-C ,  3-C ) :   0.8619 B(  2-C ,  6-C ) :   0.7911
B(  2-C , 13-H ) :   0.9201 B(  3-C ,  4-C ) :   0.9382 B(  3-C ,  6-C ) :   0.8829
B(  3-C , 14-H ) :   0.9276 B(  4-C ,  5-O ) :   0.9334 B(  4-C , 15-H ) :   0.9257
B(  4-C , 16-H ) :   0.9350 B(  5-O , 17-H ) :   0.8270 B(  6-C ,  7-C ) :   0.9246
B(  6-C , 18-H ) :   0.9251 B(  7-C ,  8-O ) :   0.9822 B(  7-C , 19-H ) :   0.9603
B(  8-O , 20-H ) :   0.8398

MP2 TOTAL ENERGY:     -423.488780634 Eh
FINAL SINGLE POINT ENERGY      -423.488780634181

DIPOLE MOMENT
-------------
                                X             Y             Z
Electronic contribution:      4.26259      -2.02875      -0.35087
Nuclear contribution   :     -5.43500       1.62778       1.12384
                        -----------------------------------------
Total Dipole Moment    :     -1.17240      -0.40098       0.77296
                        -----------------------------------------
Magnitude (a.u.)       :      1.46041
Magnitude (Debye)      :      3.71206

                             ****ORCA TERMINATED NORMALLY****
TOTAL RUN TIME: 0 days 0 hours 18 minutes 49 seconds 544 msec
