                         Program Version 3.0.3 - RELEASE   -
|  1> ! RI-MP2 RIJK def2-TZVP def2-TZVP/C def2-TZVP/JK TIGHTSCF
|  2> % maxcore 2000
|  3> % mp2 density relaxed end
|  4> *xyz 0 1
|  5>  C       -0.1289933447     1.5640419358    -0.0415349207
|  6>  C        0.0126672862     0.0389193715     0.0167956203
|  7>  C        0.8026302709    -0.5588504954    -1.1738427281
|  8>  C        1.5701499301    -1.7818665410    -0.5929893296
|  9>  C        2.8581773724    -2.0275142090    -1.2327931835
| 10>  C        3.9222388555    -2.2198884673    -1.7594872992
| 11>  C        1.6479498457    -1.4521521243     0.9018802077
| 12>  C        2.5363011485    -2.2216680016     1.8246392475
| 13>  C        0.7910457522    -0.4772572046     1.2054368626
| 14>  H        0.8547554671     2.0459032275    -0.0507620361
| 15>  H       -0.6667305781     1.8753157407    -0.9434856647
| 16>  H       -0.6821702080     1.9444843903     0.8237955065
| 17>  H       -1.0016479069    -0.3907435571     0.0403609234
| 18>  H        0.1717520451    -0.8283397259    -2.0245249458
| 19>  H        1.5351167133     0.1749724141    -1.5250837449
| 20>  H        0.9615777779    -2.6930750164    -0.7108154821
| 21>  H        4.8591637975    -2.3922118098    -2.2282134680
| 22>  H        3.5823053908    -2.1591727066     1.5039320478
| 23>  H        2.4619446573    -1.8526680426     2.8508990811
| 24>  H        2.2761771946    -3.2884543027     1.8258891906
| 25>  H        0.6232696826    -0.1041497456     2.2115963752
| 26> *
| 27>
| 28>                          ****END OF INPUT****

CARTESIAN COORDINATES (ANGSTROEM)
---------------------------------
  C     -0.128993    1.564042   -0.041535
  C      0.012667    0.038919    0.016796
  C      0.802630   -0.558850   -1.173843
  C      1.570150   -1.781867   -0.592989
  C      2.858177   -2.027514   -1.232793
  C      3.922239   -2.219888   -1.759487
  C      1.647950   -1.452152    0.901880
  C      2.536301   -2.221668    1.824639
  C      0.791046   -0.477257    1.205437
  H      0.854755    2.045903   -0.050762
  H     -0.666731    1.875316   -0.943486
  H     -0.682170    1.944484    0.823796
  H     -1.001648   -0.390744    0.040361
  H      0.171752   -0.828340   -2.024525
  H      1.535117    0.174972   -1.525084
  H      0.961578   -2.693075   -0.710815
  H      4.859164   -2.392212   -2.228213
  H      3.582305   -2.159173    1.503932
  H      2.461945   -1.852668    2.850899
  H      2.276177   -3.288454    1.825889
  H      0.623270   -0.104150    2.211596

 Total Charge           Charge          ....    0
 Multiplicity           Mult            ....    1
 Number of Electrons    NEL             ....   66
 Basis Dimension        Dim             ....  351

ORBITAL ENERGIES
----------------

  NO   OCC          E(Eh)            E(eV)
   0   2.0000     -11.255755      -306.2847
   1   2.0000     -11.234926      -305.7179
   2   2.0000     -11.231358      -305.6208
   3   2.0000     -11.229870      -305.5803
   4   2.0000     -11.225626      -305.4648
   5   2.0000     -11.219873      -305.3083
   6   2.0000     -11.217229      -305.2363
   7   2.0000     -11.216685      -305.2215
   8   2.0000     -11.214367      -305.1584
   9   2.0000      -1.153133       -31.3784
  10   2.0000      -1.048545       -28.5324
  11   2.0000      -1.025848       -27.9147
  12   2.0000      -0.974523       -26.5181
  13   2.0000      -0.931838       -25.3566
  14   2.0000      -0.882978       -24.0271
  15   2.0000      -0.784702       -21.3528
  16   2.0000      -0.735687       -20.0191
  17   2.0000      -0.701543       -19.0900
  18   2.0000      -0.658722       -17.9247
  19   2.0000      -0.643301       -17.5051
  20   2.0000      -0.597322       -16.2539
  21   2.0000      -0.584983       -15.9182
  22   2.0000      -0.561385       -15.2761
  23   2.0000      -0.557194       -15.1620
  24   2.0000      -0.536405       -14.5963
  25   2.0000      -0.520296       -14.1580
  26   2.0000      -0.489782       -13.3277
  27   2.0000      -0.486738       -13.2448
  28   2.0000      -0.479994       -13.0613
  29   2.0000      -0.465330       -12.6623
  30   2.0000      -0.382355       -10.4044
  31   2.0000      -0.379886       -10.3372
  32   2.0000      -0.339656        -9.2425
  33   0.0000       0.133126         3.6226
  34   0.0000       0.143222         3.8973
  35   0.0000       0.159269         4.3339
  36   0.0000       0.166705         4.5363
  37   0.0000       0.173213         4.7134

MULLIKEN ATOMIC CHARGES
-----------------------
   0 C :   -0.414575
   1 C :    0.071204
   2 C :   -0.303895
   3 C :   -0.085241
   4 C :   -0.024115
   5 C :   -0.172642
   6 C :    0.016324
   7 C :   -0.434192
   8 C :   -0.246034
   9 H :    0.128306
  10 H :    0.131819
  11 H :    0.129151
  12 H :    0.091656
  13 H :    0.128082
  14 H :    0.125609
  15 H :    0.119393
  16 H :    0.187514
  17 H :    0.155486
  18 H :    0.136288
  19 H :    0.137581
  20 H :    0.122283
Sum of atomic charges:    0.0000000

LOEWDIN ATOMIC CHARGES
----------------------
   0 C :   -0.294197
   1 C :   -0.256787
   2 C :   -0.174857
   3 C :   -0.189985
   4 C :   -0.084939
   5 C :   -0.105801
   6 C :   -0.154566
   7 C :   -0.268561
   8 C :   -0.118461
   9 H :    0.123845
  10 H :    0.123529
  11 H :    0.122569
  12 H :    0.153787
  13 H :    0.134799
  14 H :    0.148281
  15 H :    0.174794
  16 H :    0.125780
  17 H :    0.136716
  18 H :    0.130322
  19 H :    0.133370
  20 H :    0.140362

  Mayer bond orders larger than 0.1
B(  0-C ,  1-C ) :   0.8954 B(  0-C ,  9-H ) :   0.9346 B(  0-C , 10-H ) :   0.9393
B(  0-C , 11-H ) :   0.9400 B(  1-C ,  2-C ) :   0.9356 B(  1-C ,  8-C ) :   0.9083
B(  1-C , 12-H ) :   0.9139 B(  2-C ,  3-C ) :   0.9258 B(  2-C , 13-H ) :   0.9230
B(  2-C , 14-H ) :   0.9321 B(  3-C ,  4-C ) :   1.1197 B(  3-C ,  6-C ) :   0.8888
B(  3-C , 15-H ) :   0.9091 B(  4-C ,  5-C ) :   2.5937 B(  5-C , 16-H ) :   0.8957
B(  6-C ,  7-C ) :   0.8989 B(  6-C ,  8-C ) :   1.7555 B(  7-C , 17-H ) :   0.9319
B(  7-C , 18-H ) :   0.9476 B(  7-C , 19-H ) :   0.9241 B(  8-C , 20-H ) :   0.9176

MP2 TOTAL ENERGY:     -349.285752749 Eh
FINAL SINGLE POINT ENERGY      -349.285752749398

DIPOLE MOMENT
-------------
                                X             Y             Z
Electronic contribution:      2.91622      -3.79473      -2.31664
Nuclear contribution   :     -3.12814       3.80833       2.45488
                        -----------------------------------------
Total Dipole Moment    :     -0.21192       0.01359       0.13824
                        -----------------------------------------
Magnitude (a.u.)       :      0.25339
Magnitude (Debye)      :      0.64407

                             ****ORCA TERMINATED NORMALLY****
TOTAL RUN TIME: 0 days 0 hours 20 minutes 32 seconds 1 msec
