                         Program Version 3.0.3 - RELEASE   -
|  1> ! RI-MP2 RIJK def2-TZVP def2-TZVP/C def2-TZVP/JK TIGHTSCF
|  2> % maxcore 2000
|  3> % mp2 density relaxed end
|  4> *xyz 0 1
|  5>  C       -0.0091176481    -1.1642788366    -0.1100240832
|  6>  C       -0.0202807922     0.0360387145    -0.0472266086
|  7>  C        0.0015819451     1.4906400627     0.0307451375
|  8>  C        1.4344942396     2.0627887355     0.0777689800
|  9>  C        1.4437641866     3.5617857614     0.1205636616
| 10>  C        0.7634983959     4.5484491394     1.1150977963
| 11>  C        1.3093478367     5.3389041898    -0.0931853841
| 12>  C        2.6346418108     4.5494927343    -0.0140380739
| 13>  O        0.7689019001     4.2946947653    -0.9933493924
| 14>  H       -0.0155102878    -2.2242848730    -0.1683991515
| 15>  H       -0.5213822773     1.9224058750    -0.8302428435
| 16>  H       -0.5519816304     1.8187484468     0.9195573545
| 17>  H        1.9633778282     1.6776357130     0.9567634312
| 18>  H        1.9909285681     1.7276504294    -0.8041438550
| 19>  H       -0.3238817454     4.4837240906     1.1708922789
| 20>  H        1.2347305493     4.7002841096     2.0898024339
| 21>  H        1.1370910777     6.3772623670    -0.3742192586
| 22>  H        3.2789078427     4.7016495107     0.8559704706
| 23>  H        3.1878379001     4.4771603544    -0.9514153739
| 24> *
| 25>
| 26>                          ****END OF INPUT****

CARTESIAN COORDINATES (ANGSTROEM)
---------------------------------
  C     -0.009118   -1.164279   -0.110024
  C     -0.020281    0.036039   -0.047227
  C      0.001582    1.490640    0.030745
  C      1.434494    2.062789    0.077769
  C      1.443764    3.561786    0.120564
  C      0.763498    4.548449    1.115098
  C      1.309348    5.338904   -0.093185
  C      2.634642    4.549493   -0.014038
  O      0.768902    4.294695   -0.993349
  H     -0.015510   -2.224285   -0.168399
  H     -0.521382    1.922406   -0.830243
  H     -0.551982    1.818748    0.919557
  H      1.963378    1.677636    0.956763
  H      1.990929    1.727650   -0.804144
  H     -0.323882    4.483724    1.170892
  H      1.234731    4.700284    2.089802
  H      1.137091    6.377262   -0.374219
  H      3.278908    4.701650    0.855970
  H      3.187838    4.477160   -0.951415

 Total Charge           Charge          ....    0
 Multiplicity           Mult            ....    1
 Number of Electrons    NEL             ....   66
 Basis Dimension        Dim             ....  339

ORBITAL ENERGIES
----------------

  NO   OCC          E(Eh)            E(eV)
   0   2.0000     -20.546507      -559.0989
   1   2.0000     -11.308016      -307.7068
   2   2.0000     -11.301642      -307.5333
   3   2.0000     -11.252576      -306.1982
   4   2.0000     -11.239697      -305.8477
   5   2.0000     -11.239135      -305.8324
   6   2.0000     -11.238510      -305.8154
   7   2.0000     -11.231940      -305.6366
   8   2.0000     -11.217894      -305.2544
   9   2.0000      -1.394411       -37.9438
  10   2.0000      -1.095119       -29.7997
  11   2.0000      -1.074705       -29.2442
  12   2.0000      -1.009852       -27.4795
  13   2.0000      -0.931394       -25.3445
  14   2.0000      -0.917290       -24.9607
  15   2.0000      -0.826342       -22.4859
  16   2.0000      -0.747023       -20.3275
  17   2.0000      -0.718886       -19.5619
  18   2.0000      -0.675053       -18.3691
  19   2.0000      -0.644593       -17.5403
  20   2.0000      -0.629048       -17.1173
  21   2.0000      -0.625569       -17.0226
  22   2.0000      -0.610580       -16.6147
  23   2.0000      -0.564329       -15.3562
  24   2.0000      -0.544870       -14.8267
  25   2.0000      -0.510815       -13.9000
  26   2.0000      -0.504458       -13.7270
  27   2.0000      -0.477267       -12.9871
  28   2.0000      -0.461731       -12.5643
  29   2.0000      -0.451762       -12.2931
  30   2.0000      -0.411815       -11.2061
  31   2.0000      -0.383593       -10.4381
  32   2.0000      -0.381844       -10.3905
  33   0.0000       0.137985         3.7547
  34   0.0000       0.159061         4.3283
  35   0.0000       0.161209         4.3867
  36   0.0000       0.169459         4.6112
  37   0.0000       0.179515         4.8848

MULLIKEN ATOMIC CHARGES
-----------------------
   0 C :   -0.122307
   1 C :   -0.008732
   2 C :   -0.404188
   3 C :   -0.219789
   4 C :    0.053446
   5 C :   -0.160585
   6 C :   -0.064232
   7 C :   -0.125604
   8 O :   -0.321616
   9 H :    0.189594
  10 H :    0.169712
  11 H :    0.141314
  12 H :    0.128483
  13 H :    0.131085
  14 H :    0.122518
  15 H :    0.116681
  16 H :    0.140755
  17 H :    0.115710
  18 H :    0.117755
Sum of atomic charges:   -0.0000000

LOEWDIN ATOMIC CHARGES
----------------------
   0 C :   -0.109164
   1 C :   -0.112038
   2 C :   -0.237799
   3 C :   -0.213315
   4 C :   -0.273317
   5 C :   -0.182724
   6 C :   -0.233490
   7 C :   -0.179198
   8 O :    0.136190
   9 H :    0.125732
  10 H :    0.164431
  11 H :    0.157703
  12 H :    0.153242
  13 H :    0.154905
  14 H :    0.132804
  15 H :    0.129500
  16 H :    0.123186
  17 H :    0.129466
  18 H :    0.133886

  Mayer bond orders larger than 0.1
B(  0-C ,  1-C ) :   2.6213 B(  0-C ,  2-C ) :  -0.1194 B(  0-C ,  9-H ) :   0.8911
B(  1-C ,  2-C ) :   1.1131 B(  2-C ,  3-C ) :   0.9566 B(  2-C , 10-H ) :   0.9254
B(  2-C , 11-H ) :   0.9212 B(  3-C ,  4-C ) :   0.8913 B(  3-C , 12-H ) :   0.9238
B(  3-C , 13-H ) :   0.9175 B(  4-C ,  5-C ) :   0.8795 B(  4-C ,  7-C ) :   0.8666
B(  4-C ,  8-O ) :   0.8747 B(  5-C ,  6-C ) :   0.9193 B(  5-C , 14-H ) :   0.9247
B(  5-C , 15-H ) :   0.9185 B(  6-C ,  7-C ) :   0.9452 B(  6-C ,  8-O ) :   0.9086
B(  6-C , 16-H ) :   0.8939 B(  7-C , 17-H ) :   0.9226 B(  7-C , 18-H ) :   0.9221

MP2 TOTAL ENERGY:     -385.108037861 Eh
FINAL SINGLE POINT ENERGY      -385.108037860702

DIPOLE MOMENT
-------------
                                X             Y             Z
Electronic contribution:     -1.43204      -1.14515      -2.00631
Nuclear contribution   :      1.87716       1.43903       2.67561
                        -----------------------------------------
Total Dipole Moment    :      0.44511       0.29388       0.66929
                        -----------------------------------------
Magnitude (a.u.)       :      0.85583
Magnitude (Debye)      :      2.17535

                             ****ORCA TERMINATED NORMALLY****
TOTAL RUN TIME: 0 days 0 hours 17 minutes 23 seconds 462 msec
