                         Program Version 3.0.3 - RELEASE   -
|  1> ! RI-MP2 RIJK def2-TZVP def2-TZVP/C def2-TZVP/JK TIGHTSCF
|  2> % maxcore 2000
|  3> % mp2 density relaxed end
|  4> *xyz 0 1
|  5>  C       -0.0459026942     1.5123314867     0.0215095004
|  6>  C        0.0329482876     0.0134949628    -0.0143660689
|  7>  C        0.8536608101    -0.8066984538    -1.0187225621
|  8>  C       -0.1178480069    -2.0023331854    -0.7576703263
|  9>  O        0.3889454517    -2.8906408217     0.2275511841
| 10>  C        0.5432816336    -2.1226475827     1.4270935184
| 11>  C       -0.2708528239    -0.8533479565     1.2025298976
| 12>  C       -1.0854622789    -1.0255237328    -0.0475954882
| 13>  H        0.8990979730     1.9521141786     0.3627152962
| 14>  H       -0.2602071772     1.9209323812    -0.9728860980
| 15>  H       -0.8337702845     1.8552495001     0.7006654345
| 16>  H        0.7415844078    -0.4086941918    -2.0323701545
| 17>  H        1.9154786051    -0.9884417135    -0.8180487009
| 18>  H       -0.4528931340    -2.5878004552    -1.6124494116
| 19>  H        0.1596633679    -2.7094034242     2.2702145759
| 20>  H        1.6067992745    -1.9162822840     1.6116873834
| 21>  H       -0.7111255273    -0.3494415084     2.0554567699
| 22>  H       -2.1602021545    -0.9338132595    -0.1319892199
| 23> *
| 24>
| 25>                          ****END OF INPUT****

CARTESIAN COORDINATES (ANGSTROEM)
---------------------------------
  C     -0.045903    1.512331    0.021510
  C      0.032948    0.013495   -0.014366
  C      0.853661   -0.806698   -1.018723
  C     -0.117848   -2.002333   -0.757670
  O      0.388945   -2.890641    0.227551
  C      0.543282   -2.122648    1.427094
  C     -0.270853   -0.853348    1.202530
  C     -1.085462   -1.025524   -0.047595
  H      0.899098    1.952114    0.362715
  H     -0.260207    1.920932   -0.972886
  H     -0.833770    1.855250    0.700665
  H      0.741584   -0.408694   -2.032370
  H      1.915479   -0.988442   -0.818049
  H     -0.452893   -2.587800   -1.612449
  H      0.159663   -2.709403    2.270215
  H      1.606799   -1.916282    1.611687
  H     -0.711126   -0.349442    2.055457
  H     -2.160202   -0.933813   -0.131989

 Total Charge           Charge          ....    0
 Multiplicity           Mult            ....    1
 Number of Electrons    NEL             ....   60
 Basis Dimension        Dim             ....  308

ORBITAL ENERGIES
----------------

  NO   OCC          E(Eh)            E(eV)
   0   2.0000     -20.544975      -559.0572
   1   2.0000     -11.279508      -306.9310
   2   2.0000     -11.270145      -306.6762
   3   2.0000     -11.243527      -305.9519
   4   2.0000     -11.233152      -305.6696
   5   2.0000     -11.226075      -305.4770
   6   2.0000     -11.222355      -305.3758
   7   2.0000     -11.221924      -305.3641
   8   2.0000      -1.375162       -37.4201
   9   2.0000      -1.185209       -32.2512
  10   2.0000      -1.010439       -27.4954
  11   2.0000      -0.981606       -26.7108
  12   2.0000      -0.915758       -24.9191
  13   2.0000      -0.824577       -22.4379
  14   2.0000      -0.784686       -21.3524
  15   2.0000      -0.721458       -19.6319
  16   2.0000      -0.691159       -18.8074
  17   2.0000      -0.645527       -17.5657
  18   2.0000      -0.617614       -16.8061
  19   2.0000      -0.581615       -15.8265
  20   2.0000      -0.571563       -15.5530
  21   2.0000      -0.567511       -15.4428
  22   2.0000      -0.552904       -15.0453
  23   2.0000      -0.531576       -14.4649
  24   2.0000      -0.516967       -14.0674
  25   2.0000      -0.491436       -13.3726
  26   2.0000      -0.445226       -12.1152
  27   2.0000      -0.416642       -11.3374
  28   2.0000      -0.380195       -10.3456
  29   2.0000      -0.378215       -10.2917
  30   0.0000       0.136517         3.7148
  31   0.0000       0.166659         4.5350
  32   0.0000       0.171332         4.6622
  33   0.0000       0.174593         4.7509
  34   0.0000       0.195156         5.3105

MULLIKEN ATOMIC CHARGES
-----------------------
   0 C :   -0.412578
   1 C :    0.046330
   2 C :   -0.216954
   3 C :    0.066799
   4 O :   -0.313919
   5 C :   -0.030942
   6 C :   -0.166588
   7 C :   -0.188061
   8 H :    0.136575
   9 H :    0.130567
  10 H :    0.129717
  11 H :    0.109276
  12 H :    0.111137
  13 H :    0.122468
  14 H :    0.108217
  15 H :    0.093612
  16 H :    0.130913
  17 H :    0.143430
Sum of atomic charges:   -0.0000000

LOEWDIN ATOMIC CHARGES
----------------------
   0 C :   -0.274796
   1 C :   -0.211155
   2 C :   -0.175749
   3 C :   -0.255202
   4 O :    0.163479
   5 C :   -0.270768
   6 C :   -0.172607
   7 C :   -0.128418
   8 H :    0.129538
   9 H :    0.127776
  10 H :    0.129548
  11 H :    0.139020
  12 H :    0.128057
  13 H :    0.135103
  14 H :    0.126127
  15 H :    0.122279
  16 H :    0.152563
  17 H :    0.135204

  Mayer bond orders larger than 0.1
B(  0-C ,  1-C ) :   0.8859 B(  0-C ,  8-H ) :   0.9396 B(  0-C ,  9-H ) :   0.9392
B(  0-C , 10-H ) :   0.9349 B(  1-C ,  2-C ) :   0.9650 B(  1-C ,  6-C ) :   0.8738
B(  1-C ,  7-C ) :   0.8344 B(  2-C ,  3-C ) :   0.9055 B(  2-C , 11-H ) :   0.9163
B(  2-C , 12-H ) :   0.9141 B(  3-C ,  4-O ) :   0.9694 B(  3-C ,  7-C ) :   0.9413
B(  3-C , 13-H ) :   0.9347 B(  4-O ,  5-C ) :   0.9465 B(  5-C ,  6-C ) :   0.9695
B(  5-C , 14-H ) :   0.9177 B(  5-C , 15-H ) :   0.9227 B(  6-C ,  7-C ) :   0.8591
B(  6-C , 16-H ) :   0.9229 B(  7-C , 17-H ) :   0.9077

MP2 TOTAL ENERGY:     -347.174582342 Eh
FINAL SINGLE POINT ENERGY      -347.174582342023

DIPOLE MOMENT
-------------
                                X             Y             Z
Electronic contribution:     -0.54616      -5.05494      -0.00121
Nuclear contribution   :      0.33807       5.76692       0.08126
                        -----------------------------------------
Total Dipole Moment    :     -0.20809       0.71198       0.08005
                        -----------------------------------------
Magnitude (a.u.)       :      0.74608
Magnitude (Debye)      :      1.89638

                             ****ORCA TERMINATED NORMALLY****
TOTAL RUN TIME: 0 days 0 hours 13 minutes 26 seconds 460 msec
