                         Program Version 3.0.3 - RELEASE   -
|  1> ! RI-MP2 RIJK def2-TZVP def2-TZVP/C def2-TZVP/JK TIGHTSCF
|  2> % maxcore 2000
|  3> % mp2 density relaxed end
|  4> *xyz 0 1
|  5>  C        0.2531871008     1.3794827337    -0.3661058978
|  6>  C       -0.0554220580     0.0181603354     0.2805968755
|  7>  C       -1.4773723416    -0.4195089263     0.0820900245
|  8>  N       -2.3798243621    -0.2355665117     1.0671340416
|  9>  N       -3.5037104997    -0.6861675991     0.4952883725
| 10>  C       -4.9157455552    -1.0450614887     0.6777160747
| 11>  C       -4.8350519031    -1.5862598620    -0.8091427072
| 12>  C       -3.3726582056    -1.1572425828    -0.7519230807
| 13>  C       -2.0428514373    -1.0070826220    -1.0926984069
| 14>  H        1.2975788221     1.6634252369    -0.2006805016
| 15>  H        0.0764464464     1.3528559443    -1.4461893179
| 16>  H       -0.3849989226     2.1607871745     0.0574678911
| 17>  H        0.6195744821    -0.7412602867    -0.1318913155
| 18>  H        0.1394113186     0.0703097859     1.3561465376
| 19>  H       -5.0856701840    -1.8075330098     1.4425401908
| 20>  H       -5.5781618664    -0.1916317359     0.8448184654
| 21>  H       -5.0126035454    -2.6596497641    -0.9062486927
| 22>  H       -5.4656800831    -1.0504411008    -1.5222155354
| 23>  H       -1.5296522460    -1.2608220608    -2.0053952680
| 24> *
| 25>
| 26>                          ****END OF INPUT****

CARTESIAN COORDINATES (ANGSTROEM)
---------------------------------
  C      0.253187    1.379483   -0.366106
  C     -0.055422    0.018160    0.280597
  C     -1.477372   -0.419509    0.082090
  N     -2.379824   -0.235567    1.067134
  N     -3.503710   -0.686168    0.495288
  C     -4.915746   -1.045061    0.677716
  C     -4.835052   -1.586260   -0.809143
  C     -3.372658   -1.157243   -0.751923
  C     -2.042851   -1.007083   -1.092698
  H      1.297579    1.663425   -0.200681
  H      0.076446    1.352856   -1.446189
  H     -0.384999    2.160787    0.057468
  H      0.619574   -0.741260   -0.131891
  H      0.139411    0.070310    1.356147
  H     -5.085670   -1.807533    1.442540
  H     -5.578162   -0.191632    0.844818
  H     -5.012604   -2.659650   -0.906249
  H     -5.465680   -1.050441   -1.522216
  H     -1.529652   -1.260822   -2.005395

 Total Charge           Charge          ....    0
 Multiplicity           Mult            ....    1
 Number of Electrons    NEL             ....   66
 Basis Dimension        Dim             ....  339

ORBITAL ENERGIES
----------------

  NO   OCC          E(Eh)            E(eV)
   0   2.0000     -15.617970      -424.9866
   1   2.0000     -15.570139      -423.6850
   2   2.0000     -11.294094      -307.3279
   3   2.0000     -11.267553      -306.6057
   4   2.0000     -11.266279      -306.5710
   5   2.0000     -11.250594      -306.1442
   6   2.0000     -11.219261      -305.2916
   7   2.0000     -11.211527      -305.0812
   8   2.0000     -11.208517      -304.9992
   9   2.0000      -1.379959       -37.5506
  10   2.0000      -1.175474       -31.9863
  11   2.0000      -1.054649       -28.6985
  12   2.0000      -1.019860       -27.7518
  13   2.0000      -0.951990       -25.9050
  14   2.0000      -0.896876       -24.4052
  15   2.0000      -0.850130       -23.1332
  16   2.0000      -0.769576       -20.9412
  17   2.0000      -0.714180       -19.4338
  18   2.0000      -0.684282       -18.6203
  19   2.0000      -0.681446       -18.5431
  20   2.0000      -0.599682       -16.3182
  21   2.0000      -0.593663       -16.1544
  22   2.0000      -0.572063       -15.5666
  23   2.0000      -0.558825       -15.2064
  24   2.0000      -0.544335       -14.8121
  25   2.0000      -0.535661       -14.5761
  26   2.0000      -0.520117       -14.1531
  27   2.0000      -0.505015       -13.7421
  28   2.0000      -0.483799       -13.1648
  29   2.0000      -0.477977       -13.0064
  30   2.0000      -0.436683       -11.8828
  31   2.0000      -0.333683        -9.0800
  32   2.0000      -0.329290        -8.9604
  33   0.0000       0.136027         3.7015
  34   0.0000       0.149036         4.0555
  35   0.0000       0.162992         4.4352
  36   0.0000       0.171646         4.6707
  37   0.0000       0.178756         4.8642

MULLIKEN ATOMIC CHARGES
-----------------------
   0 C :   -0.385373
   1 C :   -0.254684
   2 C :    0.131869
   3 N :   -0.298146
   4 N :    0.120603
   5 C :   -0.139170
   6 C :   -0.218036
   7 C :    0.042169
   8 C :   -0.301553
   9 H :    0.124341
  10 H :    0.121118
  11 H :    0.131532
  12 H :    0.116641
  13 H :    0.130440
  14 H :    0.133692
  15 H :    0.133733
  16 H :    0.136203
  17 H :    0.138206
  18 H :    0.136415
Sum of atomic charges:    0.0000000

LOEWDIN ATOMIC CHARGES
----------------------
   0 C :   -0.311355
   1 C :   -0.261492
   2 C :   -0.264874
   3 N :    0.049937
   4 N :    0.217167
   5 C :   -0.183718
   6 C :   -0.193594
   7 C :   -0.206783
   8 C :   -0.167607
   9 H :    0.118073
  10 H :    0.119132
  11 H :    0.123237
  12 H :    0.142036
  13 H :    0.146790
  14 H :    0.130707
  15 H :    0.129223
  16 H :    0.136874
  17 H :    0.136124
  18 H :    0.140124

  Mayer bond orders larger than 0.1
B(  0-C ,  1-C ) :   0.9085 B(  0-C ,  9-H ) :   0.9357 B(  0-C , 10-H ) :   0.9384
B(  0-C , 11-H ) :   0.9390 B(  1-C ,  2-C ) :   0.8908 B(  1-C , 12-H ) :   0.9430
B(  1-C , 13-H ) :   0.9447 B(  2-C ,  3-N ) :   1.5125 B(  2-C ,  8-C ) :   1.2873
B(  3-N ,  4-N ) :   1.0323 B(  4-N ,  5-C ) :   0.8583 B(  4-N ,  7-C ) :   1.1947
B(  5-C ,  6-C ) :   0.9547 B(  5-C , 14-H ) :   0.9177 B(  5-C , 15-H ) :   0.9163
B(  6-C ,  7-C ) :   0.9216 B(  6-C , 16-H ) :   0.9076 B(  6-C , 17-H ) :   0.9187
B(  7-C ,  8-C ) :   1.3981 B(  8-C , 18-H ) :   0.9234

MP2 TOTAL ENERGY:     -381.381522165 Eh
FINAL SINGLE POINT ENERGY      -381.381522165170

DIPOLE MOMENT
-------------
                                X             Y             Z
Electronic contribution:     -4.33969      -2.83503       1.52005
Nuclear contribution   :      3.48157       2.39207      -2.00777
                        -----------------------------------------
Total Dipole Moment    :     -0.85813      -0.44296      -0.48772
                        -----------------------------------------
Magnitude (a.u.)       :      1.08188
Magnitude (Debye)      :      2.74992

                             ****ORCA TERMINATED NORMALLY****
TOTAL RUN TIME: 0 days 0 hours 19 minutes 2 seconds 819 msec
