                         Program Version 3.0.3 - RELEASE   -
|  1> ! RI-MP2 RIJK def2-TZVP def2-TZVP/C def2-TZVP/JK TIGHTSCF
|  2> % maxcore 2000
|  3> % mp2 density relaxed end
|  4> *xyz 0 1
|  5>  C        0.0047176673     1.4191570566    -0.0175567801
|  6>  N        0.0058493935    -0.0271523392     0.0637365435
|  7>  N       -0.0263200999    -0.7694630719    -1.0831276085
|  8>  N       -0.0182561807    -2.0130164952    -0.7482375914
|  9>  C        0.0194683065    -2.1102883863     0.6192550629
| 10>  C        0.0381048624    -3.3844011115     1.3394629515
| 11>  O        0.0236599608    -4.4791664531     0.8305967285
| 12>  C        0.0348459716    -0.8260815264     1.1519184072
| 13>  C        0.0745180013    -0.3033675316     2.5479836862
| 14>  H        0.9086084083     1.8348656452     0.4370160633
| 15>  H       -0.0230235207     1.6793530066    -1.0753860593
| 16>  H       -0.8734424910     1.8361111001     0.4839524901
| 17>  H        0.0671995862    -3.2704834669     2.4478818511
| 18>  H        0.9717470264     0.3011629208     2.7225329430
| 19>  H       -0.7948810944     0.3281096371     2.7626364390
| 20>  H        0.0784902839    -1.1242576944     3.2662245329
| 21> *
| 22>
| 23>                          ****END OF INPUT****

CARTESIAN COORDINATES (ANGSTROEM)
---------------------------------
  C      0.004718    1.419157   -0.017557
  N      0.005849   -0.027152    0.063737
  N     -0.026320   -0.769463   -1.083128
  N     -0.018256   -2.013016   -0.748238
  C      0.019468   -2.110288    0.619255
  C      0.038105   -3.384401    1.339463
  O      0.023660   -4.479166    0.830597
  C      0.034846   -0.826082    1.151918
  C      0.074518   -0.303368    2.547984
  H      0.908608    1.834866    0.437016
  H     -0.023024    1.679353   -1.075386
  H     -0.873442    1.836111    0.483952
  H      0.067200   -3.270483    2.447882
  H      0.971747    0.301163    2.722533
  H     -0.794881    0.328110    2.762636
  H      0.078490   -1.124258    3.266225

 Total Charge           Charge          ....    0
 Multiplicity           Mult            ....    1
 Number of Electrons    NEL             ....   66
 Basis Dimension        Dim             ....  321

ORBITAL ENERGIES
----------------

  NO   OCC          E(Eh)            E(eV)
   0   2.0000     -20.547305      -559.1206
   1   2.0000     -15.669382      -426.3856
   2   2.0000     -15.650097      -425.8608
   3   2.0000     -15.610675      -424.7881
   4   2.0000     -11.334392      -308.4245
   5   2.0000     -11.317291      -307.9592
   6   2.0000     -11.300405      -307.4996
   7   2.0000     -11.274671      -306.7994
   8   2.0000     -11.264784      -306.5303
   9   2.0000      -1.449793       -39.4509
  10   2.0000      -1.385834       -37.7105
  11   2.0000      -1.239642       -33.7324
  12   2.0000      -1.125294       -30.6208
  13   2.0000      -1.016924       -27.6719
  14   2.0000      -0.996860       -27.1259
  15   2.0000      -0.914002       -24.8713
  16   2.0000      -0.809802       -22.0358
  17   2.0000      -0.795623       -21.6500
  18   2.0000      -0.707770       -19.2594
  19   2.0000      -0.693944       -18.8832
  20   2.0000      -0.673787       -18.3347
  21   2.0000      -0.637341       -17.3429
  22   2.0000      -0.611838       -16.6490
  23   2.0000      -0.611723       -16.6458
  24   2.0000      -0.593263       -16.1435
  25   2.0000      -0.591200       -16.0874
  26   2.0000      -0.588154       -16.0045
  27   2.0000      -0.531176       -14.4540
  28   2.0000      -0.529982       -14.4215
  29   2.0000      -0.447006       -12.1637
  30   2.0000      -0.425994       -11.5919
  31   2.0000      -0.415755       -11.3133
  32   2.0000      -0.362832        -9.8732
  33   0.0000       0.098181         2.6716
  34   0.0000       0.105783         2.8785
  35   0.0000       0.128500         3.4966
  36   0.0000       0.149954         4.0805
  37   0.0000       0.170330         4.6349

MULLIKEN ATOMIC CHARGES
-----------------------
   0 C :   -0.339097
   1 N :    0.138063
   2 N :   -0.155466
   3 N :   -0.106272
   4 C :    0.079172
   5 C :    0.003412
   6 O :   -0.249883
   7 C :   -0.037498
   8 C :   -0.371666
   9 H :    0.157254
  10 H :    0.188666
  11 H :    0.157408
  12 H :    0.070494
  13 H :    0.156985
  14 H :    0.156091
  15 H :    0.152338
Sum of atomic charges:   -0.0000000

LOEWDIN ATOMIC CHARGES
----------------------
   0 C :   -0.267509
   1 N :    0.187259
   2 N :   -0.010485
   3 N :    0.057456
   4 C :   -0.267544
   5 C :   -0.286553
   6 O :    0.146008
   7 C :   -0.218571
   8 C :   -0.262679
   9 H :    0.127342
  10 H :    0.139704
  11 H :    0.127307
  12 H :    0.112846
  13 H :    0.138465
  14 H :    0.138256
  15 H :    0.138700

  Mayer bond orders larger than 0.1
B(  0-C ,  1-N ) :   0.8479 B(  0-C ,  9-H ) :   0.9273 B(  0-C , 10-H ) :   0.9210
B(  0-C , 11-H ) :   0.9275 B(  1-N ,  2-N ) :   0.9665 B(  1-N ,  7-C ) :   1.2482
B(  2-N ,  3-N ) :   1.3040 B(  3-N ,  4-C ) :   1.3861 B(  4-C ,  5-C ) :   0.8096
B(  4-C ,  6-O ) :  -0.1054 B(  4-C ,  7-C ) :   1.3480 B(  4-C , 12-H ) :  -0.1491
B(  5-C ,  6-O ) :   2.0519 B(  5-C , 12-H ) :   1.0174 B(  7-C ,  8-C ) :   0.8572
B(  8-C , 13-H ) :   0.9302 B(  8-C , 14-H ) :   0.9303 B(  8-C , 15-H ) :   0.9424

MP2 TOTAL ENERGY:     -433.355604410 Eh
FINAL SINGLE POINT ENERGY      -433.355604410236

DIPOLE MOMENT
-------------
                                X             Y             Z
Electronic contribution:     -0.14761      -7.90538      -5.12766
Nuclear contribution   :      0.19627      10.47189       6.80944
                        -----------------------------------------
Total Dipole Moment    :      0.04866       2.56652       1.68178
                        -----------------------------------------
Magnitude (a.u.)       :      3.06884
Magnitude (Debye)      :      7.80036

                             ****ORCA TERMINATED NORMALLY****
TOTAL RUN TIME: 0 days 0 hours 18 minutes 40 seconds 508 msec
