                         Program Version 3.0.3 - RELEASE   -
|  1> ! RI-MP2 RIJK def2-TZVP def2-TZVP/C def2-TZVP/JK TIGHTSCF
|  2> % maxcore 2000
|  3> % mp2 density relaxed end
|  4> *xyz 0 1
|  5>  C        0.1139054895     1.5673129513    -0.0320611087
|  6>  C        0.0617015429     0.0573681292    -0.0639705024
|  7>  O        0.7760784018    -0.3947339087    -1.1916479861
|  8>  C        0.7585810698    -1.8106285990    -1.2770349922
|  9>  C        1.4084380060    -2.4182399022    -0.0322130352
| 10>  C        0.7509105477    -1.8180058129     1.2302898204
| 11>  O        0.6471474757    -0.4160699776     1.1445762668
| 12>  C       -0.5683163607    -2.5123976349     1.5558208555
| 13>  O       -1.6449438550    -1.9815610635     1.6195285694
| 14>  H        1.1539235434     1.8969618952     0.0301882413
| 15>  H       -0.3362292011     1.9729682114    -0.9408197464
| 16>  H       -0.4322728066     1.9384003160     0.8376567555
| 17>  H       -0.9730369184    -0.3129620915    -0.1218315716
| 18>  H       -0.2787283015    -2.1695182207    -1.3875392101
| 19>  H        1.3076235798    -2.0808489921    -2.1825899361
| 20>  H        1.3224114068    -3.5107350912    -0.0379069497
| 21>  H        2.4718763325    -2.1631485420    -0.0213980590
| 22>  H        1.3987923958    -2.0233332730     2.0952873765
| 23>  H       -0.4454485284    -3.6050889738     1.7538688320
| 24> *
| 25>
| 26>                          ****END OF INPUT****

CARTESIAN COORDINATES (ANGSTROEM)
---------------------------------
  C      0.113905    1.567313   -0.032061
  C      0.061702    0.057368   -0.063971
  O      0.776078   -0.394734   -1.191648
  C      0.758581   -1.810629   -1.277035
  C      1.408438   -2.418240   -0.032213
  C      0.750911   -1.818006    1.230290
  O      0.647147   -0.416070    1.144576
  C     -0.568316   -2.512398    1.555821
  O     -1.644944   -1.981561    1.619529
  H      1.153924    1.896962    0.030188
  H     -0.336229    1.972968   -0.940820
  H     -0.432273    1.938400    0.837657
  H     -0.973037   -0.312962   -0.121832
  H     -0.278728   -2.169518   -1.387539
  H      1.307624   -2.080849   -2.182590
  H      1.322411   -3.510735   -0.037907
  H      2.471876   -2.163149   -0.021398
  H      1.398792   -2.023333    2.095287
  H     -0.445449   -3.605089    1.753869

 Total Charge           Charge          ....    0
 Multiplicity           Mult            ....    1
 Number of Electrons    NEL             ....   70
 Basis Dimension        Dim             ....  339

ORBITAL ENERGIES
----------------

  NO   OCC          E(Eh)            E(eV)
   0   2.0000     -20.568205      -559.6893
   1   2.0000     -20.567631      -559.6737
   2   2.0000     -20.564251      -559.5817
   3   2.0000     -11.340589      -308.5931
   4   2.0000     -11.330318      -308.3136
   5   2.0000     -11.307205      -307.6847
   6   2.0000     -11.289907      -307.2140
   7   2.0000     -11.248659      -306.0916
   8   2.0000     -11.211841      -305.0897
   9   2.0000      -1.431696       -38.9584
  10   2.0000      -1.405183       -38.2370
  11   2.0000      -1.351189       -36.7677
  12   2.0000      -1.095500       -29.8101
  13   2.0000      -0.996490       -27.1159
  14   2.0000      -0.963969       -26.2309
  15   2.0000      -0.868316       -23.6281
  16   2.0000      -0.840218       -22.8635
  17   2.0000      -0.779497       -21.2112
  18   2.0000      -0.696430       -18.9508
  19   2.0000      -0.690436       -18.7877
  20   2.0000      -0.678801       -18.4711
  21   2.0000      -0.666967       -18.1491
  22   2.0000      -0.646722       -17.5982
  23   2.0000      -0.622423       -16.9370
  24   2.0000      -0.592815       -16.1313
  25   2.0000      -0.563435       -15.3318
  26   2.0000      -0.546751       -14.8778
  27   2.0000      -0.538099       -14.6424
  28   2.0000      -0.529396       -14.4056
  29   2.0000      -0.525658       -14.3039
  30   2.0000      -0.500875       -13.6295
  31   2.0000      -0.479871       -13.0579
  32   2.0000      -0.466639       -12.6979
  33   2.0000      -0.433722       -11.8022
  34   2.0000      -0.408932       -11.1276
  35   0.0000       0.115502         3.1430
  36   0.0000       0.139230         3.7887
  37   0.0000       0.159605         4.3431
  38   0.0000       0.165726         4.5096
  39   0.0000       0.175255         4.7689

MULLIKEN ATOMIC CHARGES
-----------------------
   0 C :   -0.357922
   1 C :    0.136614
   2 O :   -0.287881
   3 C :   -0.095036
   4 C :   -0.261605
   5 C :    0.142386
   6 O :   -0.289753
   7 C :    0.054255
   8 O :   -0.254000
   9 H :    0.129600
  10 H :    0.131245
  11 H :    0.138752
  12 H :    0.101636
  13 H :    0.113279
  14 H :    0.138071
  15 H :    0.128769
  16 H :    0.126420
  17 H :    0.128473
  18 H :    0.076697
Sum of atomic charges:    0.0000000

LOEWDIN ATOMIC CHARGES
----------------------
   0 C :   -0.283640
   1 C :   -0.421521
   2 O :    0.181578
   3 C :   -0.313879
   4 C :   -0.247856
   5 C :   -0.332926
   6 O :    0.211330
   7 C :   -0.283140
   8 O :    0.145639
   9 H :    0.130216
  10 H :    0.129702
  11 H :    0.131509
  12 H :    0.130032
  13 H :    0.124460
  14 H :    0.131938
  15 H :    0.144425
  16 H :    0.145944
  17 H :    0.161991
  18 H :    0.114198

  Mayer bond orders larger than 0.1
B(  0-C ,  1-C ) :   0.9267 B(  0-C ,  9-H ) :   0.9342 B(  0-C , 10-H ) :   0.9341
B(  0-C , 11-H ) :   0.9359 B(  1-C ,  2-O ) :   0.9865 B(  1-C ,  6-O ) :   0.9500
B(  1-C , 12-H ) :   0.9298 B(  2-O ,  3-C ) :   0.9195 B(  3-C ,  4-C ) :   0.9336
B(  3-C , 13-H ) :   0.9386 B(  3-C , 14-H ) :   0.9325 B(  4-C ,  5-C ) :   0.8966
B(  4-C , 15-H ) :   0.9227 B(  4-C , 16-H ) :   0.9107 B(  5-C ,  6-O ) :   0.9591
B(  5-C ,  7-C ) :   0.8476 B(  5-C , 17-H ) :   0.9072 B(  7-C ,  8-O ) :   1.9940
B(  7-C , 18-H ) :   0.9256

MP2 TOTAL ENERGY:     -459.441476816 Eh
FINAL SINGLE POINT ENERGY      -459.441476816006

DIPOLE MOMENT
-------------
                                X             Y             Z
Electronic contribution:     -1.96530      -1.38437       2.77352
Nuclear contribution   :      2.54612       0.52593      -2.97859
                        -----------------------------------------
Total Dipole Moment    :      0.58082      -0.85844      -0.20507
                        -----------------------------------------
Magnitude (a.u.)       :      1.05657
Magnitude (Debye)      :      2.68558

                             ****ORCA TERMINATED NORMALLY****
TOTAL RUN TIME: 0 days 0 hours 18 minutes 5 seconds 622 msec
