                         Program Version 3.0.3 - RELEASE   -
|  1> ! RI-MP2 RIJK def2-TZVP def2-TZVP/C def2-TZVP/JK TIGHTSCF
|  2> % maxcore 2000
|  3> % mp2 density relaxed end
|  4> *xyz 0 1
|  5>  C       -0.2190008553     1.3063265222    -0.7479354938
|  6>  C        0.4621471475    -0.0563758788    -0.5611799725
|  7>  C        1.9350030626    -0.0202842993    -0.9911663269
|  8>  C        0.3376530679    -0.5060611819     0.8833568826
|  9>  N       -0.9496750302    -1.0670905628     1.3126116650
| 10>  C        0.2485032162    -1.9261865432     1.3302974170
| 11>  C        0.2485254755    -3.0977747749     0.4053592433
| 12>  C        1.3607706376    -4.0575385595     0.3869072912
| 13>  O        0.1280627693    -4.3835571240     1.0274224816
| 14>  H        0.2711066691     2.0770486909    -0.1402298215
| 15>  H       -0.1738890839     1.6304062711    -1.7926806803
| 16>  H       -1.2700753378     1.2565430928    -0.4491750588
| 17>  H       -0.0679567020    -0.7837466010    -1.1868029436
| 18>  H        2.5054798626     0.6909613055    -0.3816230592
| 19>  H        2.4058744680    -1.0027562081    -0.8845381068
| 20>  H        2.0312248432     0.2908508553    -2.0362604072
| 21>  H        0.8422528061     0.1611257591     1.5854533785
| 22>  H       -1.1913799971    -0.7681075961     2.2528303602
| 23>  H        0.6902784688    -2.1599716457     2.2981223101
| 24>  H       -0.3545480362    -2.9832939899    -0.4935990294
| 25>  H        1.5818324193    -4.6131808986    -0.5235128600
| 26>  H        2.2093540787    -3.9095175629     1.0546543006
| 27> *
| 28>
| 29>                          ****END OF INPUT****

CARTESIAN COORDINATES (ANGSTROEM)
---------------------------------
  C     -0.219001    1.306327   -0.747935
  C      0.462147   -0.056376   -0.561180
  C      1.935003   -0.020284   -0.991166
  C      0.337653   -0.506061    0.883357
  N     -0.949675   -1.067091    1.312612
  C      0.248503   -1.926187    1.330297
  C      0.248525   -3.097775    0.405359
  C      1.360771   -4.057539    0.386907
  O      0.128063   -4.383557    1.027422
  H      0.271107    2.077049   -0.140230
  H     -0.173889    1.630406   -1.792681
  H     -1.270075    1.256543   -0.449175
  H     -0.067957   -0.783747   -1.186803
  H      2.505480    0.690961   -0.381623
  H      2.405874   -1.002756   -0.884538
  H      2.031225    0.290851   -2.036260
  H      0.842253    0.161126    1.585453
  H     -1.191380   -0.768108    2.252830
  H      0.690278   -2.159972    2.298122
  H     -0.354548   -2.983294   -0.493599
  H      1.581832   -4.613181   -0.523513
  H      2.209354   -3.909518    1.054654

 Total Charge           Charge          ....    0
 Multiplicity           Mult            ....    1
 Number of Electrons    NEL             ....   70
 Basis Dimension        Dim             ....  357

ORBITAL ENERGIES
----------------

  NO   OCC          E(Eh)            E(eV)
   0   2.0000     -20.566559      -559.6445
   1   2.0000     -15.559810      -423.4040
   2   2.0000     -11.287499      -307.1485
   3   2.0000     -11.282838      -307.0216
   4   2.0000     -11.265567      -306.5517
   5   2.0000     -11.263605      -306.4983
   6   2.0000     -11.233295      -305.6735
   7   2.0000     -11.218673      -305.2756
   8   2.0000     -11.213720      -305.1408
   9   2.0000      -1.409886       -38.3649
  10   2.0000      -1.267306       -34.4851
  11   2.0000      -1.073417       -29.2092
  12   2.0000      -0.968434       -26.3524
  13   2.0000      -0.932022       -25.3616
  14   2.0000      -0.897564       -24.4240
  15   2.0000      -0.883044       -24.0289
  16   2.0000      -0.813141       -22.1267
  17   2.0000      -0.759129       -20.6569
  18   2.0000      -0.723908       -19.6985
  19   2.0000      -0.672548       -18.3010
  20   2.0000      -0.656726       -17.8704
  21   2.0000      -0.609658       -16.5896
  22   2.0000      -0.599322       -16.3084
  23   2.0000      -0.575208       -15.6522
  24   2.0000      -0.551762       -15.0142
  25   2.0000      -0.539828       -14.6895
  26   2.0000      -0.536997       -14.6124
  27   2.0000      -0.512088       -13.9346
  28   2.0000      -0.495215       -13.4755
  29   2.0000      -0.487465       -13.2646
  30   2.0000      -0.475048       -12.9267
  31   2.0000      -0.457797       -12.4573
  32   2.0000      -0.445693       -12.1279
  33   2.0000      -0.428691       -11.6653
  34   2.0000      -0.387976       -10.5574
  35   0.0000       0.131245         3.5714
  36   0.0000       0.140058         3.8112
  37   0.0000       0.158065         4.3012
  38   0.0000       0.167525         4.5586
  39   0.0000       0.186115         5.0644

MULLIKEN ATOMIC CHARGES
-----------------------
   0 C :   -0.410282
   1 C :   -0.003049
   2 C :   -0.413444
   3 C :   -0.069610
   4 N :   -0.398168
   5 C :   -0.010231
   6 C :   -0.000433
   7 C :   -0.089391
   8 O :   -0.327814
   9 H :    0.116656
  10 H :    0.132342
  11 H :    0.146735
  12 H :    0.078708
  13 H :    0.120783
  14 H :    0.131979
  15 H :    0.135144
  16 H :    0.118352
  17 H :    0.221854
  18 H :    0.134790
  19 H :    0.152252
  20 H :    0.118249
  21 H :    0.114579
Sum of atomic charges:    0.0000000

LOEWDIN ATOMIC CHARGES
----------------------
   0 C :   -0.289932
   1 C :   -0.295107
   2 C :   -0.289913
   3 C :   -0.237671
   4 N :    0.014148
   5 C :   -0.242183
   6 C :   -0.274133
   7 C :   -0.269536
   8 O :    0.147343
   9 H :    0.122031
  10 H :    0.123049
  11 H :    0.127888
  12 H :    0.154499
  13 H :    0.123274
  14 H :    0.123302
  15 H :    0.124348
  16 H :    0.141931
  17 H :    0.167106
  18 H :    0.146944
  19 H :    0.143542
  20 H :    0.119229
  21 H :    0.119841

  Mayer bond orders larger than 0.1
B(  0-C ,  1-C ) :   0.9173 B(  0-C ,  9-H ) :   0.9326 B(  0-C , 10-H ) :   0.9401
B(  0-C , 11-H ) :   0.9387 B(  1-C ,  2-C ) :   0.9183 B(  1-C ,  3-C ) :   0.9145
B(  1-C , 12-H ) :   0.9228 B(  2-C , 13-H ) :   0.9300 B(  2-C , 14-H ) :   0.9393
B(  2-C , 15-H ) :   0.9392 B(  3-C ,  4-N ) :   0.9131 B(  3-C ,  5-C ) :   0.9024
B(  3-C , 16-H ) :   0.9165 B(  4-N ,  5-C ) :   0.8740 B(  4-N , 17-H ) :   0.8654
B(  5-C ,  6-C ) :   0.9096 B(  5-C , 18-H ) :   0.9259 B(  6-C ,  7-C ) :   0.9863
B(  6-C ,  8-O ) :   0.8772 B(  6-C , 19-H ) :   0.9142 B(  7-C ,  8-O ) :   0.9120
B(  7-C , 20-H ) :   0.9219 B(  7-C , 21-H ) :   0.9060

MP2 TOTAL ENERGY:     -403.612345954 Eh
FINAL SINGLE POINT ENERGY      -403.612345953705

DIPOLE MOMENT
-------------
                                X             Y             Z
Electronic contribution:     -3.20444      -8.57206       4.70798
Nuclear contribution   :      4.00749       9.23453      -4.72326
                        -----------------------------------------
Total Dipole Moment    :      0.80305       0.66248      -0.01528
                        -----------------------------------------
Magnitude (a.u.)       :      1.04115
Magnitude (Debye)      :      2.64640

                             ****ORCA TERMINATED NORMALLY****
TOTAL RUN TIME: 0 days 0 hours 18 minutes 32 seconds 598 msec
