                         Program Version 3.0.3 - RELEASE   -
|  1> ! RI-MP2 RIJK def2-TZVP def2-TZVP/C def2-TZVP/JK TIGHTSCF
|  2> % maxcore 2000
|  3> % mp2 density relaxed end
|  4> *xyz 0 1
|  5>  C       -0.0979380944     1.5412462272     0.0527057503
|  6>  C        0.0583984572     0.0214934806     0.0305938501
|  7>  C        1.0200949286    -0.5351072603    -1.0829708603
|  8>  C        2.0287159918    -1.3193813144    -0.1986114220
|  9>  C        3.1356433814    -2.1103417384    -0.8390894995
| 10>  N        1.1582343778    -1.9752198119     0.8497838821
| 11>  C        0.7816801442    -0.5835929994     1.2670966111
| 12>  C        2.2501535510    -0.2698235543     0.9181946476
| 13>  O        3.1488412607     0.3909677275     1.3362783841
| 14>  H        0.8729944709     2.0397925751     0.1464997105
| 15>  H       -0.5714741284     1.9010195543    -0.8663490144
| 16>  H       -0.7195073537     1.8624667889     0.8953334896
| 17>  H       -0.9314383373    -0.4412274460    -0.0548290668
| 18>  H        0.5161008400    -1.2008499393    -1.7910179248
| 19>  H        1.4994102528     0.2640882893    -1.6581831782
| 20>  H        3.7909071240    -1.4475790457    -1.4133567264
| 21>  H        3.7371291477    -2.6168054613    -0.0799791856
| 22>  H        2.7386195434    -2.8657900640    -1.5263878262
| 23>  H        0.3687397268    -2.4727678565     0.4341753041
| 24>  H        0.3486006455    -0.4384851313     2.2557350747
| 25> *
| 26>
| 27>                          ****END OF INPUT****

CARTESIAN COORDINATES (ANGSTROEM)
---------------------------------
  C     -0.097938    1.541246    0.052706
  C      0.058398    0.021493    0.030594
  C      1.020095   -0.535107   -1.082971
  C      2.028716   -1.319381   -0.198611
  C      3.135643   -2.110342   -0.839089
  N      1.158234   -1.975220    0.849784
  C      0.781680   -0.583593    1.267097
  C      2.250154   -0.269824    0.918195
  O      3.148841    0.390968    1.336278
  H      0.872994    2.039793    0.146500
  H     -0.571474    1.901020   -0.866349
  H     -0.719507    1.862467    0.895333
  H     -0.931438   -0.441227   -0.054829
  H      0.516101   -1.200850   -1.791018
  H      1.499410    0.264088   -1.658183
  H      3.790907   -1.447579   -1.413357
  H      3.737129   -2.616805   -0.079979
  H      2.738620   -2.865790   -1.526388
  H      0.368740   -2.472768    0.434175
  H      0.348601   -0.438485    2.255735

 Total Charge           Charge          ....    0
 Multiplicity           Mult            ....    1
 Number of Electrons    NEL             ....   68
 Basis Dimension        Dim             ....  345

ORBITAL ENERGIES
----------------

  NO   OCC          E(Eh)            E(eV)
   0   2.0000     -20.556555      -559.3723
   1   2.0000     -15.564917      -423.5429
   2   2.0000     -11.333460      -308.3991
   3   2.0000     -11.280271      -306.9518
   4   2.0000     -11.273311      -306.7624
   5   2.0000     -11.250658      -306.1460
   6   2.0000     -11.241561      -305.8984
   7   2.0000     -11.226327      -305.4839
   8   2.0000     -11.225705      -305.4670
   9   2.0000      -1.402587       -38.1663
  10   2.0000      -1.277092       -34.7514
  11   2.0000      -1.070109       -29.1192
  12   2.0000      -1.030516       -28.0418
  13   2.0000      -0.952109       -25.9082
  14   2.0000      -0.932122       -25.3643
  15   2.0000      -0.877106       -23.8673
  16   2.0000      -0.773299       -21.0425
  17   2.0000      -0.701890       -19.0994
  18   2.0000      -0.680199       -18.5092
  19   2.0000      -0.668563       -18.1925
  20   2.0000      -0.642578       -17.4854
  21   2.0000      -0.620783       -16.8924
  22   2.0000      -0.583672       -15.8825
  23   2.0000      -0.573151       -15.5962
  24   2.0000      -0.560158       -15.2427
  25   2.0000      -0.551253       -15.0004
  26   2.0000      -0.531932       -14.4746
  27   2.0000      -0.520244       -14.1566
  28   2.0000      -0.508168       -13.8279
  29   2.0000      -0.493035       -13.4162
  30   2.0000      -0.481270       -13.0960
  31   2.0000      -0.471371       -12.8267
  32   2.0000      -0.403716       -10.9857
  33   2.0000      -0.381034       -10.3685
  34   0.0000       0.124286         3.3820
  35   0.0000       0.135283         3.6812
  36   0.0000       0.151546         4.1238
  37   0.0000       0.162681         4.4268
  38   0.0000       0.181385         4.9357

MULLIKEN ATOMIC CHARGES
-----------------------
   0 C :   -0.445665
   1 C :   -0.075218
   2 C :   -0.255685
   3 C :    0.110129
   4 C :   -0.407165
   5 N :   -0.308370
   6 C :    0.008346
   7 C :    0.059434
   8 O :   -0.234695
   9 H :    0.146167
  10 H :    0.137257
  11 H :    0.135157
  12 H :    0.106536
  13 H :    0.126755
  14 H :    0.128658
  15 H :    0.138891
  16 H :    0.150639
  17 H :    0.132056
  18 H :    0.200046
  19 H :    0.146726
Sum of atomic charges:   -0.0000000

LOEWDIN ATOMIC CHARGES
----------------------
   0 C :   -0.292389
   1 C :   -0.246569
   2 C :   -0.186921
   3 C :   -0.283786
   4 C :   -0.268946
   5 N :    0.054138
   6 C :   -0.203174
   7 C :   -0.257946
   8 O :    0.177178
   9 H :    0.129667
  10 H :    0.125877
  11 H :    0.126324
  12 H :    0.146791
  13 H :    0.135144
  14 H :    0.142429
  15 H :    0.136111
  16 H :    0.135863
  17 H :    0.129640
  18 H :    0.163087
  19 H :    0.137482

  Mayer bond orders larger than 0.1
B(  0-C ,  1-C ) :   0.9134 B(  0-C ,  9-H ) :   0.9279 B(  0-C , 10-H ) :   0.9351
B(  0-C , 11-H ) :   0.9386 B(  1-C ,  2-C ) :   0.9238 B(  1-C ,  6-C ) :   0.8917
B(  1-C , 12-H ) :   0.9059 B(  2-C ,  3-C ) :   0.9151 B(  2-C , 13-H ) :   0.9124
B(  2-C , 14-H ) :   0.9180 B(  3-C ,  4-C ) :   0.8739 B(  3-C ,  5-N ) :   0.9092
B(  3-C ,  6-C ) :  -0.1257 B(  3-C ,  7-C ) :   0.8114 B(  4-C , 15-H ) :   0.9342
B(  4-C , 16-H ) :   0.9423 B(  4-C , 17-H ) :   0.9379 B(  5-N ,  6-C ) :   0.9580
B(  5-N , 18-H ) :   0.8630 B(  6-C ,  7-C ) :   0.8577 B(  6-C , 19-H ) :   0.8942
B(  7-C ,  8-O ) :   2.0901

MP2 TOTAL ENERGY:     -402.458856157 Eh
FINAL SINGLE POINT ENERGY      -402.458856157378

DIPOLE MOMENT
-------------
                                X             Y             Z
Electronic contribution:      3.55430      -0.56417       5.14274
Nuclear contribution   :     -4.59452       0.36358      -5.99927
                        -----------------------------------------
Total Dipole Moment    :     -1.04023      -0.20058      -0.85653
                        -----------------------------------------
Magnitude (a.u.)       :      1.36233
Magnitude (Debye)      :      3.46277

                             ****ORCA TERMINATED NORMALLY****
TOTAL RUN TIME: 0 days 0 hours 20 minutes 0 seconds 79 msec
