                         Program Version 3.0.3 - RELEASE   -
|  1> ! RI-MP2 RIJK def2-TZVP def2-TZVP/C def2-TZVP/JK TIGHTSCF
|  2> % maxcore 2000
|  3> % mp2 density relaxed end
|  4> *xyz 0 1
|  5>  C       -0.0501585688     1.5627281447     0.0312272050
|  6>  C        0.0249187133     0.0655099794     0.0074272890
|  7>  C       -0.8582745992    -0.8253886015     0.8405571353
|  8>  C        0.6366137092    -0.9387588777     1.0046189609
|  9>  N        1.1427358503    -1.8044643143    -0.0892700109
| 10>  C        0.6992466672    -0.7701171753    -1.0895071403
| 11>  C        1.3393130882    -0.7278997923     2.2236455080
| 12>  N        1.9324378510    -0.5485316323     3.2024864091
| 13>  H        0.9074453239     2.0162983944    -0.2447600624
| 14>  H       -0.8092843864     1.9248791077    -0.6725229839
| 15>  H       -0.3214553757     1.9271553566     1.0266033926
| 16>  H       -1.3815994092    -0.3204728083     1.6458299769
| 17>  H       -1.3724383158    -1.6791920204     0.4080620986
| 18>  H        2.1561510338    -1.8589113200    -0.0621388212
| 19>  H        0.0549771470    -1.1713804943    -1.8788195386
| 20>  H        1.5383809611    -0.2357494364    -1.5462069483
| 21> *
| 22>
| 23>                          ****END OF INPUT****

CARTESIAN COORDINATES (ANGSTROEM)
---------------------------------
  C     -0.050159    1.562728    0.031227
  C      0.024919    0.065510    0.007427
  C     -0.858275   -0.825389    0.840557
  C      0.636614   -0.938759    1.004619
  N      1.142736   -1.804464   -0.089270
  C      0.699247   -0.770117   -1.089507
  C      1.339313   -0.727900    2.223646
  N      1.932438   -0.548532    3.202486
  H      0.907445    2.016298   -0.244760
  H     -0.809284    1.924879   -0.672523
  H     -0.321455    1.927155    1.026603
  H     -1.381599   -0.320473    1.645830
  H     -1.372438   -1.679192    0.408062
  H      2.156151   -1.858911   -0.062139
  H      0.054977   -1.171380   -1.878820
  H      1.538381   -0.235749   -1.546207

 Total Charge           Charge          ....    0
 Multiplicity           Mult            ....    1
 Number of Electrons    NEL             ....   58
 Basis Dimension        Dim             ....  296

ORBITAL ENERGIES
----------------

  NO   OCC          E(Eh)            E(eV)
   0   2.0000     -15.574399      -423.8009
   1   2.0000     -15.574192      -423.7953
   2   2.0000     -11.310907      -307.7854
   3   2.0000     -11.278306      -306.8983
   4   2.0000     -11.278042      -306.8911
   5   2.0000     -11.274603      -306.7976
   6   2.0000     -11.257394      -306.3293
   7   2.0000     -11.242294      -305.9184
   8   2.0000      -1.292093       -35.1596
   9   2.0000      -1.216212       -33.0948
  10   2.0000      -1.106920       -30.1208
  11   2.0000      -1.008916       -27.4540
  12   2.0000      -0.946826       -25.7644
  13   2.0000      -0.876967       -23.8635
  14   2.0000      -0.796405       -21.6713
  15   2.0000      -0.720647       -19.6098
  16   2.0000      -0.657841       -17.9008
  17   2.0000      -0.638644       -17.3784
  18   2.0000      -0.597420       -16.2566
  19   2.0000      -0.580140       -15.7864
  20   2.0000      -0.576614       -15.6905
  21   2.0000      -0.570682       -15.5290
  22   2.0000      -0.553270       -15.0552
  23   2.0000      -0.536688       -14.6040
  24   2.0000      -0.502643       -13.6776
  25   2.0000      -0.482211       -13.1216
  26   2.0000      -0.438410       -11.9297
  27   2.0000      -0.431176       -11.7329
  28   2.0000      -0.363116        -9.8809
  29   0.0000       0.120165         3.2699
  30   0.0000       0.134459         3.6588
  31   0.0000       0.152762         4.1569
  32   0.0000       0.165355         4.4995
  33   0.0000       0.170792         4.6475

MULLIKEN ATOMIC CHARGES
-----------------------
   0 C :   -0.393398
   1 C :   -0.004256
   2 C :   -0.243510
   3 C :    0.188479
   4 N :   -0.308437
   5 C :   -0.144223
   6 C :   -0.230958
   7 N :   -0.052252
   8 H :    0.137793
   9 H :    0.145665
  10 H :    0.142053
  11 H :    0.151306
  12 H :    0.145345
  13 H :    0.218531
  14 H :    0.117245
  15 H :    0.130617
Sum of atomic charges:    0.0000000

LOEWDIN ATOMIC CHARGES
----------------------
   0 C :   -0.267468
   1 C :   -0.205385
   2 C :   -0.136173
   3 C :   -0.242683
   4 N :    0.025957
   5 C :   -0.206785
   6 C :   -0.160953
   7 N :    0.072080
   8 H :    0.131365
   9 H :    0.134143
  10 H :    0.136290
  11 H :    0.150288
  12 H :    0.143691
  13 H :    0.169823
  14 H :    0.125513
  15 H :    0.130296

  Mayer bond orders larger than 0.1
B(  0-C ,  1-C ) :   0.9015 B(  0-C ,  8-H ) :   0.9354 B(  0-C ,  9-H ) :   0.9327
B(  0-C , 10-H ) :   0.9267 B(  1-C ,  2-C ) :   0.9057 B(  1-C ,  3-C ) :   0.7834
B(  1-C ,  5-C ) :   0.9385 B(  2-C ,  3-C ) :   0.8288 B(  2-C , 11-H ) :   0.9311
B(  2-C , 12-H ) :   0.9050 B(  3-C ,  4-N ) :   1.0653 B(  3-C ,  6-C ) :   0.9019
B(  4-N ,  5-C ) :   0.9562 B(  4-N , 13-H ) :   0.8715 B(  5-C , 14-H ) :   0.9145
B(  5-C , 15-H ) :   0.9243 B(  6-C ,  7-N ) :   2.8543

MP2 TOTAL ENERGY:     -342.147254401 Eh
FINAL SINGLE POINT ENERGY      -342.147254400555

DIPOLE MOMENT
-------------
                                X             Y             Z
Electronic contribution:      3.21243      -3.61490       5.29551
Nuclear contribution   :     -3.80223       4.16495      -6.68248
                        -----------------------------------------
Total Dipole Moment    :     -0.58979       0.55005      -1.38696
                        -----------------------------------------
Magnitude (a.u.)       :      1.60439
Magnitude (Debye)      :      4.07805

                             ****ORCA TERMINATED NORMALLY****
TOTAL RUN TIME: 0 days 0 hours 12 minutes 31 seconds 299 msec
