                         Program Version 3.0.3 - RELEASE   -
|  1> ! RI-MP2 RIJK def2-TZVP def2-TZVP/C def2-TZVP/JK TIGHTSCF
|  2> % maxcore 2000
|  3> % mp2 density relaxed end
|  4> *xyz 0 1
|  5>  O       -0.0381071046     1.3564677467     0.3718697456
|  6>  N        0.0576418635    -0.0465512285     0.4247299291
|  7>  C       -1.0092164057    -0.5892681770     0.0130418893
|  8>  C       -2.3597548718    -0.1180425011    -0.4792089936
|  9>  C       -2.8063568463    -1.6149329538    -0.5370924765
| 10>  C       -2.9327985873    -2.2152004210    -1.9375141243
| 11>  O       -1.5995576101    -2.3430300633    -2.4179892854
| 12>  C       -0.8173962398    -2.7960534860    -1.3206126572
| 13>  C       -1.3608600322    -2.0587161235    -0.0830130414
| 14>  H        0.8198584037     1.6312138675     0.7124953158
| 15>  H       -2.9022353930     0.5139765193     0.2296602413
| 16>  H       -2.3326455890     0.3934340741    -1.4468716844
| 17>  H       -3.6328250377    -1.8752028740     0.1239483248
| 18>  H       -3.4249518533    -3.2010436133    -1.8887907482
| 19>  H       -3.4823785867    -1.5867604933    -2.6441471990
| 20>  H       -0.9319882820    -3.8839188126    -1.1840113293
| 21>  H        0.2302008465    -2.5746582966    -1.5366332468
| 22>  H       -1.2522769843    -2.6370786735     0.8362927201
| 23> *
| 24>
| 25>                          ****END OF INPUT****

CARTESIAN COORDINATES (ANGSTROEM)
---------------------------------
  O     -0.038107    1.356468    0.371870
  N      0.057642   -0.046551    0.424730
  C     -1.009216   -0.589268    0.013042
  C     -2.359755   -0.118043   -0.479209
  C     -2.806357   -1.614933   -0.537092
  C     -2.932799   -2.215200   -1.937514
  O     -1.599558   -2.343030   -2.417989
  C     -0.817396   -2.796053   -1.320613
  C     -1.360860   -2.058716   -0.083013
  H      0.819858    1.631214    0.712495
  H     -2.902235    0.513977    0.229660
  H     -2.332646    0.393434   -1.446872
  H     -3.632825   -1.875203    0.123948
  H     -3.424952   -3.201044   -1.888791
  H     -3.482379   -1.586760   -2.644147
  H     -0.931988   -3.883919   -1.184011
  H      0.230201   -2.574658   -1.536633
  H     -1.252277   -2.637079    0.836293

 Total Charge           Charge          ....    0
 Multiplicity           Mult            ....    1
 Number of Electrons    NEL             ....   68
 Basis Dimension        Dim             ....  333

ORBITAL ENERGIES
----------------

  NO   OCC          E(Eh)            E(eV)
   0   2.0000     -20.588670      -560.2462
   1   2.0000     -20.559112      -559.4419
   2   2.0000     -15.611911      -424.8217
   3   2.0000     -11.281566      -306.9870
   4   2.0000     -11.280277      -306.9519
   5   2.0000     -11.274227      -306.7873
   6   2.0000     -11.245431      -306.0037
   7   2.0000     -11.244616      -305.9816
   8   2.0000     -11.238853      -305.8247
   9   2.0000      -1.413920       -38.4747
  10   2.0000      -1.385583       -37.7036
  11   2.0000      -1.182409       -32.1750
  12   2.0000      -1.095334       -29.8056
  13   2.0000      -1.004941       -27.3458
  14   2.0000      -0.943395       -25.6711
  15   2.0000      -0.849111       -23.1055
  16   2.0000      -0.796917       -21.6852
  17   2.0000      -0.719366       -19.5749
  18   2.0000      -0.702349       -19.1119
  19   2.0000      -0.692474       -18.8432
  20   2.0000      -0.669784       -18.2257
  21   2.0000      -0.661079       -17.9889
  22   2.0000      -0.613255       -16.6875
  23   2.0000      -0.596088       -16.2204
  24   2.0000      -0.575663       -15.6646
  25   2.0000      -0.546662       -14.8754
  26   2.0000      -0.542546       -14.7634
  27   2.0000      -0.512627       -13.9493
  28   2.0000      -0.493618       -13.4320
  29   2.0000      -0.469692       -12.7810
  30   2.0000      -0.455306       -12.3895
  31   2.0000      -0.439481       -11.9589
  32   2.0000      -0.414169       -11.2701
  33   2.0000      -0.380713       -10.3597
  34   0.0000       0.128141         3.4869
  35   0.0000       0.147972         4.0265
  36   0.0000       0.156795         4.2666
  37   0.0000       0.170614         4.6426
  38   0.0000       0.176955         4.8152

MULLIKEN ATOMIC CHARGES
-----------------------
   0 O :   -0.362501
   1 N :   -0.088790
   2 C :   -0.060682
   3 C :   -0.231601
   4 C :   -0.053781
   5 C :   -0.071988
   6 O :   -0.328817
   7 C :   -0.064823
   8 C :   -0.042090
   9 H :    0.336502
  10 H :    0.136388
  11 H :    0.131222
  12 H :    0.123503
  13 H :    0.096666
  14 H :    0.122839
  15 H :    0.097279
  16 H :    0.133187
  17 H :    0.127487
Sum of atomic charges:    0.0000000

LOEWDIN ATOMIC CHARGES
----------------------
   0 O :   -0.074524
   1 N :    0.024953
   2 C :   -0.263239
   3 C :   -0.182546
   4 C :   -0.186422
   5 C :   -0.293054
   6 O :    0.151417
   7 C :   -0.279431
   8 C :   -0.164264
   9 H :    0.169109
  10 H :    0.144143
  11 H :    0.149069
  12 H :    0.143702
  13 H :    0.122317
  14 H :    0.130589
  15 H :    0.122231
  16 H :    0.134172
  17 H :    0.151778

  Mayer bond orders larger than 0.1
B(  0-O ,  1-N ) :   0.8085 B(  0-O ,  9-H ) :   0.8442 B(  1-N ,  2-C ) :   1.8714
B(  2-C ,  3-C ) :   0.9792 B(  2-C ,  8-C ) :   0.9059 B(  3-C ,  4-C ) :   0.9398
B(  3-C , 10-H ) :   0.9044 B(  3-C , 11-H ) :   0.8890 B(  4-C ,  5-C ) :   0.9557
B(  4-C ,  8-C ) :   0.9199 B(  4-C , 12-H ) :   0.9093 B(  5-C ,  6-O ) :   0.9204
B(  5-C , 13-H ) :   0.9287 B(  5-C , 14-H ) :   0.9218 B(  6-O ,  7-C ) :   0.9335
B(  7-C ,  8-C ) :   0.9136 B(  7-C , 15-H ) :   0.9296 B(  7-C , 16-H ) :   0.9165
B(  8-C , 17-H ) :   0.8969

MP2 TOTAL ENERGY:     -438.309869114 Eh
FINAL SINGLE POINT ENERGY      -438.309869113594

DIPOLE MOMENT
-------------
                                X             Y             Z
Electronic contribution:      3.56876       2.70442       1.14181
Nuclear contribution   :     -4.01770      -2.91002      -0.68272
                        -----------------------------------------
Total Dipole Moment    :     -0.44894      -0.20560       0.45909
                        -----------------------------------------
Magnitude (a.u.)       :      0.67423
Magnitude (Debye)      :      1.71375

                             ****ORCA TERMINATED NORMALLY****
TOTAL RUN TIME: 0 days 0 hours 16 minutes 49 seconds 596 msec
