                         Program Version 3.0.3 - RELEASE   -
|  1> ! RI-MP2 RIJK def2-TZVP def2-TZVP/C def2-TZVP/JK TIGHTSCF
|  2> % maxcore 2000
|  3> % mp2 density relaxed end
|  4> *xyz 0 1
|  5>  C        0.0235305855     1.4175311661     0.0996185401
|  6>  C        1.4967004440     1.9293162062    -0.0788593011
|  7>  C        2.2371946977     0.6305283776    -0.0009706493
|  8>  N        3.4685046895     0.1548164934     0.1007381984
|  9>  N        3.2671448548    -1.1654890546     0.0354559493
| 10>  N        1.9859960979    -1.5914682796    -0.0920621604
| 11>  C        1.3419487507    -0.4368640001    -0.1234445772
| 12>  N        0.0298658592    -0.0183752867    -0.3077819212
| 13>  H       -0.2721416714     1.5216157221     1.1526511825
| 14>  H       -0.6868696195     1.9801232102    -0.5105883330
| 15>  H        1.6283241161     2.4087780304    -1.0560831745
| 16>  H        1.7627147055     2.6620472286     0.6865737327
| 17>  H        4.0219890683    -1.8188720476     0.1533963574
| 18>  H       -0.6935065383    -0.5840320758     0.1146969763
| 19> *
| 20>
| 21>                          ****END OF INPUT****

CARTESIAN COORDINATES (ANGSTROEM)
---------------------------------
  C      0.023531    1.417531    0.099619
  C      1.496700    1.929316   -0.078859
  C      2.237195    0.630528   -0.000971
  N      3.468505    0.154816    0.100738
  N      3.267145   -1.165489    0.035456
  N      1.985996   -1.591468   -0.092062
  C      1.341949   -0.436864   -0.123445
  N      0.029866   -0.018375   -0.307782
  H     -0.272142    1.521616    1.152651
  H     -0.686870    1.980123   -0.510588
  H      1.628324    2.408778   -1.056083
  H      1.762715    2.662047    0.686574
  H      4.021989   -1.818872    0.153396
  H     -0.693507   -0.584032    0.114697

 Total Charge           Charge          ....    0
 Multiplicity           Mult            ....    1
 Number of Electrons    NEL             ....   58
 Basis Dimension        Dim             ....  284

ORBITAL ENERGIES
----------------

  NO   OCC          E(Eh)            E(eV)
   0   2.0000     -15.656090      -426.0239
   1   2.0000     -15.615143      -424.9096
   2   2.0000     -15.596775      -424.4098
   3   2.0000     -15.574997      -423.8172
   4   2.0000     -11.284118      -307.0565
   5   2.0000     -11.277204      -306.8683
   6   2.0000     -11.251654      -306.1731
   7   2.0000     -11.250915      -306.1530
   8   2.0000      -1.425947       -38.8020
   9   2.0000      -1.256408       -34.1886
  10   2.0000      -1.181906       -32.1613
  11   2.0000      -1.077433       -29.3184
  12   2.0000      -1.024314       -27.8730
  13   2.0000      -0.889666       -24.2090
  14   2.0000      -0.823195       -22.4003
  15   2.0000      -0.786723       -21.4078
  16   2.0000      -0.717684       -19.5292
  17   2.0000      -0.681044       -18.5321
  18   2.0000      -0.655530       -17.8379
  19   2.0000      -0.624765       -17.0007
  20   2.0000      -0.616193       -16.7675
  21   2.0000      -0.560894       -15.2627
  22   2.0000      -0.547658       -14.9025
  23   2.0000      -0.518041       -14.0966
  24   2.0000      -0.480890       -13.0857
  25   2.0000      -0.468645       -12.7525
  26   2.0000      -0.460489       -12.5306
  27   2.0000      -0.386387       -10.5141
  28   2.0000      -0.317466        -8.6387
  29   0.0000       0.131946         3.5904
  30   0.0000       0.132421         3.6034
  31   0.0000       0.150484         4.0949
  32   0.0000       0.159336         4.3358
  33   0.0000       0.180516         4.9121

MULLIKEN ATOMIC CHARGES
-----------------------
   0 C :   -0.118845
   1 C :   -0.211228
   2 C :   -0.033113
   3 N :   -0.189431
   4 N :    0.002410
   5 N :   -0.197355
   6 C :    0.076180
   7 N :   -0.338555
   8 H :    0.115422
   9 H :    0.126604
  10 H :    0.129423
  11 H :    0.139820
  12 H :    0.265418
  13 H :    0.233251
Sum of atomic charges:   -0.0000000

LOEWDIN ATOMIC CHARGES
----------------------
   0 C :   -0.234583
   1 C :   -0.206320
   2 C :   -0.281151
   3 N :    0.039386
   4 N :    0.057775
   5 N :    0.030448
   6 C :   -0.359150
   7 N :    0.055167
   8 H :    0.124012
   9 H :    0.126194
  10 H :    0.145680
  11 H :    0.143139
  12 H :    0.181840
  13 H :    0.177565

  Mayer bond orders larger than 0.1
B(  0-C ,  1-C ) :   0.9577 B(  0-C ,  7-N ) :   0.8978 B(  0-C ,  8-H ) :   0.9300
B(  0-C ,  9-H ) :   0.9306 B(  1-C ,  2-C ) :   0.9431 B(  1-C , 10-H ) :   0.9112
B(  1-C , 11-H ) :   0.9270 B(  2-C ,  3-N ) :   1.5458 B(  2-C ,  6-C ) :   1.3016
B(  3-N ,  4-N ) :   1.1231 B(  4-N ,  5-N ) :   1.0726 B(  4-N , 12-H ) :   0.8735
B(  5-N ,  6-C ) :   1.5691 B(  6-C ,  7-N ) :   1.0975 B(  7-N , 13-H ) :   0.8703

MP2 TOTAL ENERGY:     -374.264978582 Eh
FINAL SINGLE POINT ENERGY      -374.264978581820

DIPOLE MOMENT
-------------
                                X             Y             Z
Electronic contribution:      3.79894      -4.79523      -0.34001
Nuclear contribution   :     -4.27916       5.15601       0.73121
                        -----------------------------------------
Total Dipole Moment    :     -0.48022       0.36078       0.39119
                        -----------------------------------------
Magnitude (a.u.)       :      0.71680
Magnitude (Debye)      :      1.82197

                             ****ORCA TERMINATED NORMALLY****
TOTAL RUN TIME: 0 days 0 hours 10 minutes 51 seconds 136 msec
