                         Program Version 3.0.3 - RELEASE   -
|  1> ! RI-MP2 RIJK def2-TZVP def2-TZVP/C def2-TZVP/JK TIGHTSCF
|  2> % maxcore 2000
|  3> % mp2 density relaxed end
|  4> *xyz 0 1
|  5>  C        0.1303015262     1.4595295002    -0.0642464381
|  6>  C       -0.0937271265    -0.0575680709     0.0370699533
|  7>  C       -1.5931556551    -0.3948448710     0.0342404484
|  8>  O        0.5265491239    -0.6942685386    -1.0970928275
|  9>  C        1.5374921047    -1.6123587685    -0.6892137773
| 10>  C        1.5437670431    -1.5382369300     0.8153472725
| 11>  C        2.4345377230    -2.3206608609     1.6725782014
| 12>  O        3.2554707610    -3.1060816158     1.2520546155
| 13>  C        0.6219626562    -0.6599841387     1.2189705848
| 14>  H        1.1987544823     1.6901699269    -0.0709219108
| 15>  H       -0.3093830774     1.8333858666    -0.9934000752
| 16>  H       -0.3365414875     1.9849496057     0.7751204308
| 17>  H       -2.0473565786    -0.0365460252    -0.8940599501
| 18>  H       -1.7435981706    -1.4756956193     0.0971708567
| 19>  H       -2.1067481552     0.0802199745     0.8763107131
| 20>  H        1.3057144585    -2.6240175904    -1.0507233777
| 21>  H        2.5085756791    -1.3300288338    -1.1194990987
| 22>  H        2.3072762037    -2.1444029019     2.7634100776
| 23>  H        0.3954129491    -0.3948749990     2.2454348614
| 24> *
| 25>
| 26>                          ****END OF INPUT****

CARTESIAN COORDINATES (ANGSTROEM)
---------------------------------
  C      0.130302    1.459530   -0.064246
  C     -0.093727   -0.057568    0.037070
  C     -1.593156   -0.394845    0.034240
  O      0.526549   -0.694269   -1.097093
  C      1.537492   -1.612359   -0.689214
  C      1.543767   -1.538237    0.815347
  C      2.434538   -2.320661    1.672578
  O      3.255471   -3.106082    1.252055
  C      0.621963   -0.659984    1.218971
  H      1.198754    1.690170   -0.070922
  H     -0.309383    1.833386   -0.993400
  H     -0.336541    1.984950    0.775120
  H     -2.047357   -0.036546   -0.894060
  H     -1.743598   -1.475696    0.097171
  H     -2.106748    0.080220    0.876311
  H      1.305714   -2.624018   -1.050723
  H      2.508576   -1.330029   -1.119499
  H      2.307276   -2.144403    2.763410
  H      0.395413   -0.394875    2.245435

 Total Charge           Charge          ....    0
 Multiplicity           Mult            ....    1
 Number of Electrons    NEL             ....   68
 Basis Dimension        Dim             ....  339

ORBITAL ENERGIES
----------------

  NO   OCC          E(Eh)            E(eV)
   0   2.0000     -20.560081      -559.4682
   1   2.0000     -20.557229      -559.3907
   2   2.0000     -11.339905      -308.5745
   3   2.0000     -11.306584      -307.6678
   4   2.0000     -11.285449      -307.0927
   5   2.0000     -11.266417      -306.5748
   6   2.0000     -11.251513      -306.1692
   7   2.0000     -11.226917      -305.4999
   8   2.0000     -11.226902      -305.4995
   9   2.0000      -1.397024       -38.0150
  10   2.0000      -1.384821       -37.6829
  11   2.0000      -1.111334       -30.2409
  12   2.0000      -1.071578       -29.1591
  13   2.0000      -0.949587       -25.8396
  14   2.0000      -0.927224       -25.2310
  15   2.0000      -0.895569       -24.3697
  16   2.0000      -0.777552       -21.1583
  17   2.0000      -0.759168       -20.6580
  18   2.0000      -0.703642       -19.1471
  19   2.0000      -0.662551       -18.0289
  20   2.0000      -0.660830       -17.9821
  21   2.0000      -0.628771       -17.1097
  22   2.0000      -0.610504       -16.6127
  23   2.0000      -0.576369       -15.6838
  24   2.0000      -0.562712       -15.3122
  25   2.0000      -0.556596       -15.1457
  26   2.0000      -0.550050       -14.9676
  27   2.0000      -0.541285       -14.7291
  28   2.0000      -0.512800       -13.9540
  29   2.0000      -0.512012       -13.9326
  30   2.0000      -0.487847       -13.2750
  31   2.0000      -0.438451       -11.9309
  32   2.0000      -0.433324       -11.7914
  33   2.0000      -0.371397       -10.1062
  34   0.0000       0.077856         2.1186
  35   0.0000       0.125755         3.4220
  36   0.0000       0.152770         4.1571
  37   0.0000       0.163437         4.4474
  38   0.0000       0.172824         4.7028

MULLIKEN ATOMIC CHARGES
-----------------------
   0 C :   -0.398617
   1 C :    0.273891
   2 C :   -0.398628
   3 O :   -0.334533
   4 C :   -0.002395
   5 C :   -0.006614
   6 C :    0.059588
   7 O :   -0.276788
   8 C :   -0.188085
   9 H :    0.135604
  10 H :    0.142682
  11 H :    0.123811
  12 H :    0.142681
  13 H :    0.135605
  14 H :    0.123812
  15 H :    0.117890
  16 H :    0.117897
  17 H :    0.082291
  18 H :    0.149906
Sum of atomic charges:    0.0000000

LOEWDIN ATOMIC CHARGES
----------------------
   0 C :   -0.262309
   1 C :   -0.368184
   2 C :   -0.262308
   3 O :    0.192990
   4 C :   -0.244733
   5 C :   -0.171712
   6 C :   -0.272101
   7 O :    0.131674
   8 C :   -0.054285
   9 H :    0.128584
  10 H :    0.131497
  11 H :    0.126567
  12 H :    0.131496
  13 H :    0.128584
  14 H :    0.126567
  15 H :    0.134291
  16 H :    0.134293
  17 H :    0.118185
  18 H :    0.150902

  Mayer bond orders larger than 0.1
B(  0-C ,  1-C ) :   0.9039 B(  0-C ,  9-H ) :   0.9323 B(  0-C , 10-H ) :   0.9330
B(  0-C , 11-H ) :   0.9309 B(  1-C ,  2-C ) :   0.9039 B(  1-C ,  3-O ) :   0.9032
B(  1-C ,  8-C ) :   0.9189 B(  2-C , 12-H ) :   0.9330 B(  2-C , 13-H ) :   0.9323
B(  2-C , 14-H ) :   0.9309 B(  3-O ,  4-C ) :   0.9480 B(  4-C ,  5-C ) :   0.9877
B(  4-C , 15-H ) :   0.9062 B(  4-C , 16-H ) :   0.9063 B(  5-C ,  6-C ) :   0.8781
B(  5-C ,  8-C ) :   1.6665 B(  6-C ,  7-O ) :   1.9739 B(  6-C , 17-H ) :   0.9746
B(  8-C , 18-H ) :   0.9042

MP2 TOTAL ENERGY:     -422.336715280 Eh
FINAL SINGLE POINT ENERGY      -422.336715279701

DIPOLE MOMENT
-------------
                                X             Y             Z
Electronic contribution:      6.73606      -6.19497       1.23730
Nuclear contribution   :     -7.55150       6.98542      -0.62432
                        -----------------------------------------
Total Dipole Moment    :     -0.81543       0.79045       0.61298
                        -----------------------------------------
Magnitude (a.u.)       :      1.29054
Magnitude (Debye)      :      3.28029

                             ****ORCA TERMINATED NORMALLY****
TOTAL RUN TIME: 0 days 0 hours 18 minutes 12 seconds 325 msec
