                         Program Version 3.0.3 - RELEASE   -
|  1> ! RI-MP2 RIJK def2-TZVP def2-TZVP/C def2-TZVP/JK TIGHTSCF
|  2> % maxcore 2000
|  3> % mp2 density relaxed end
|  4> *xyz 0 1
|  5>  C        0.5134454928     1.5043773670    -0.1875675489
|  6>  C        0.1659380901     0.0492143768     0.0426146594
|  7>  O        0.9496714562    -0.8625895525    -0.7791049701
|  8>  C        1.2399760945    -1.7169116830     0.3511762339
|  9>  C        0.5771789384    -0.6941582165     1.3329012874
| 10>  C        1.9811655442    -0.3585696382     1.9233559363
| 11>  C        2.5743432178    -1.4034227204     0.9904989797
| 12>  N        3.7037344498    -1.9470032476     0.8152718510
| 13>  O        4.6782258339    -1.3659733760     1.6418203400
| 14>  H        1.5752841127     1.7003955036    -0.0188310825
| 15>  H        0.2828224966     1.7808865420    -1.2211882108
| 16>  H       -0.0756213242     2.1480041803     0.4749544379
| 17>  H       -0.9028716454    -0.1085625637    -0.1643769319
| 18>  H        0.9494261494    -2.7567799740     0.1859106534
| 19>  H       -0.2081018491    -0.9499307873     2.0412539446
| 20>  H        2.3447162417     0.6650666973     1.8030921951
| 21>  H        2.0914430720    -0.6306642195     2.9776648860
| 22>  H        5.4661699186    -1.8722365182     1.4156725995
| 23> *
| 24>
| 25>                          ****END OF INPUT****

CARTESIAN COORDINATES (ANGSTROEM)
---------------------------------
  C      0.513445    1.504377   -0.187568
  C      0.165938    0.049214    0.042615
  O      0.949671   -0.862590   -0.779105
  C      1.239976   -1.716912    0.351176
  C      0.577179   -0.694158    1.332901
  C      1.981166   -0.358570    1.923356
  C      2.574343   -1.403423    0.990499
  N      3.703734   -1.947003    0.815272
  O      4.678226   -1.365973    1.641820
  H      1.575284    1.700396   -0.018831
  H      0.282822    1.780887   -1.221188
  H     -0.075621    2.148004    0.474954
  H     -0.902872   -0.108563   -0.164377
  H      0.949426   -2.756780    0.185911
  H     -0.208102   -0.949931    2.041254
  H      2.344716    0.665067    1.803092
  H      2.091443   -0.630664    2.977665
  H      5.466170   -1.872237    1.415673

 Total Charge           Charge          ....    0
 Multiplicity           Mult            ....    1
 Number of Electrons    NEL             ....   68
 Basis Dimension        Dim             ....  333

ORBITAL ENERGIES
----------------

  NO   OCC          E(Eh)            E(eV)
   0   2.0000     -20.594668      -560.4094
   1   2.0000     -20.555672      -559.3483
   2   2.0000     -15.620545      -425.0566
   3   2.0000     -11.295790      -307.3741
   4   2.0000     -11.292844      -307.2939
   5   2.0000     -11.276280      -306.8432
   6   2.0000     -11.247965      -306.0727
   7   2.0000     -11.246246      -306.0259
   8   2.0000     -11.223167      -305.3979
   9   2.0000      -1.421357       -38.6771
  10   2.0000      -1.386909       -37.7397
  11   2.0000      -1.173936       -31.9444
  12   2.0000      -1.086838       -29.5744
  13   2.0000      -1.024832       -27.8871
  14   2.0000      -0.910373       -24.7725
  15   2.0000      -0.895391       -24.3648
  16   2.0000      -0.774556       -21.0768
  17   2.0000      -0.727425       -19.7942
  18   2.0000      -0.706443       -19.2233
  19   2.0000      -0.689713       -18.7680
  20   2.0000      -0.671561       -18.2741
  21   2.0000      -0.625179       -17.0120
  22   2.0000      -0.618860       -16.8400
  23   2.0000      -0.593377       -16.1466
  24   2.0000      -0.571393       -15.5484
  25   2.0000      -0.555259       -15.1094
  26   2.0000      -0.541364       -14.7313
  27   2.0000      -0.528619       -14.3845
  28   2.0000      -0.513169       -13.9640
  29   2.0000      -0.464116       -12.6292
  30   2.0000      -0.443803       -12.0765
  31   2.0000      -0.434585       -11.8257
  32   2.0000      -0.412547       -11.2260
  33   2.0000      -0.388253       -10.5649
  34   0.0000       0.131039         3.5658
  35   0.0000       0.136480         3.7138
  36   0.0000       0.151681         4.1274
  37   0.0000       0.164731         4.4826
  38   0.0000       0.170855         4.6492

MULLIKEN ATOMIC CHARGES
-----------------------
   0 C :   -0.405027
   1 C :    0.080122
   2 O :   -0.326270
   3 C :    0.073286
   4 C :   -0.044945
   5 C :   -0.267264
   6 C :   -0.031520
   7 N :   -0.076734
   8 O :   -0.357798
   9 H :    0.131765
  10 H :    0.144619
  11 H :    0.131238
  12 H :    0.082997
  13 H :    0.110940
  14 H :    0.134454
  15 H :    0.140142
  16 H :    0.140294
  17 H :    0.339701
Sum of atomic charges:   -0.0000000

LOEWDIN ATOMIC CHARGES
----------------------
   0 C :   -0.294137
   1 C :   -0.284754
   2 O :    0.159705
   3 C :   -0.196887
   4 C :   -0.158174
   5 C :   -0.185987
   6 C :   -0.262470
   7 N :    0.034946
   8 O :   -0.069682
   9 H :    0.125261
  10 H :    0.131831
  11 H :    0.129912
  12 H :    0.138640
  13 H :    0.132668
  14 H :    0.137185
  15 H :    0.141807
  16 H :    0.148891
  17 H :    0.171244

  Mayer bond orders larger than 0.1
B(  0-C ,  1-C ) :   0.9136 B(  0-C ,  9-H ) :   0.9346 B(  0-C , 10-H ) :   0.9335
B(  0-C , 11-H ) :   0.9289 B(  1-C ,  2-O ) :   0.9277 B(  1-C ,  4-C ) :   0.9328
B(  1-C , 12-H ) :   0.9203 B(  2-O ,  3-C ) :   0.9358 B(  3-C ,  4-C ) :   0.9265
B(  3-C ,  6-C ) :   0.8864 B(  3-C , 13-H ) :   0.9362 B(  4-C ,  5-C ) :   0.9131
B(  4-C , 14-H ) :   0.9147 B(  5-C ,  6-C ) :   0.9498 B(  5-C , 15-H ) :   0.9070
B(  5-C , 16-H ) :   0.8961 B(  6-C ,  7-N ) :   1.8653 B(  7-N ,  8-O ) :   0.8147
B(  8-O , 17-H ) :   0.8423

MP2 TOTAL ENERGY:     -438.277625525 Eh
FINAL SINGLE POINT ENERGY      -438.277625525053

DIPOLE MOMENT
-------------
                                X             Y             Z
Electronic contribution:      4.59308      -5.97999      -0.56468
Nuclear contribution   :     -4.97258       6.23000       1.29568
                        -----------------------------------------
Total Dipole Moment    :     -0.37951       0.25001       0.73100
                        -----------------------------------------
Magnitude (a.u.)       :      0.86075
Magnitude (Debye)      :      2.18785

                             ****ORCA TERMINATED NORMALLY****
TOTAL RUN TIME: 0 days 0 hours 16 minutes 0 seconds 652 msec
