                         Program Version 3.0.3 - RELEASE   -
|  1> ! RI-MP2 RIJK def2-TZVP def2-TZVP/C def2-TZVP/JK TIGHTSCF
|  2> % maxcore 2000
|  3> % mp2 density relaxed end
|  4> *xyz 0 1
|  5>  C       -2.5998771595     1.4534488636    -1.3011471088
|  6>  C       -2.6007048441    -0.0660784618    -1.1118844760
|  7>  C       -1.5360097536    -0.5457923997    -0.1141816902
|  8>  C       -1.4219751190    -2.0823804307     0.0015146110
|  9>  C       -0.4802903277    -2.5685843483    -1.1079980889
| 10>  C       -1.2658119609    -2.6931209631     1.4481772917
| 11>  C       -2.7510704715    -2.3010604915     1.7208302716
| 12>  C       -2.7307878283    -2.9185392167     0.2923057566
| 13>  C       -1.8340149646    -4.0357304132     0.9055684573
| 14>  H       -3.3761422372     1.7697052058    -2.0052210278
| 15>  H       -2.7808180006     1.9711487962    -0.3523403140
| 16>  H       -1.6364029407     1.8040175309    -1.6879133049
| 17>  H       -3.5905724159    -0.3899773406    -0.7662354988
| 18>  H       -2.4477214821    -0.5527118866    -2.0835262233
| 19>  H       -0.5579791026    -0.1566793552    -0.4272164701
| 20>  H       -1.7313397230    -0.0811348390     0.8569385724
| 21>  H        0.5415477248    -2.2211414169    -0.9149635839
| 22>  H       -0.4428331589    -3.6513067262    -1.2303514012
| 23>  H       -0.7826191363    -2.1477106529    -2.0732550368
| 24>  H       -0.4166849301    -2.5630481453     2.1235810346
| 25>  H       -3.2615569530    -2.8928534542     2.4849539493
| 26>  H       -3.0025540248    -1.2463910293     1.8226116691
| 27>  H       -3.5844104853    -3.0573838556    -0.3747879102
| 28>  H       -1.2112887307    -4.6327504672     0.2417104925
| 29>  H       -2.3232118346    -4.6743131725     1.6457510088
| 30> *
| 31>
| 32>                          ****END OF INPUT****

CARTESIAN COORDINATES (ANGSTROEM)
---------------------------------
  C     -2.599877    1.453449   -1.301147
  C     -2.600705   -0.066078   -1.111884
  C     -1.536010   -0.545792   -0.114182
  C     -1.421975   -2.082380    0.001515
  C     -0.480290   -2.568584   -1.107998
  C     -1.265812   -2.693121    1.448177
  C     -2.751070   -2.301060    1.720830
  C     -2.730788   -2.918539    0.292306
  C     -1.834015   -4.035730    0.905568
  H     -3.376142    1.769705   -2.005221
  H     -2.780818    1.971149   -0.352340
  H     -1.636403    1.804018   -1.687913
  H     -3.590572   -0.389977   -0.766235
  H     -2.447721   -0.552712   -2.083526
  H     -0.557979   -0.156679   -0.427216
  H     -1.731340   -0.081135    0.856939
  H      0.541548   -2.221141   -0.914964
  H     -0.442833   -3.651307   -1.230351
  H     -0.782619   -2.147711   -2.073255
  H     -0.416685   -2.563048    2.123581
  H     -3.261557   -2.892853    2.484954
  H     -3.002554   -1.246391    1.822612
  H     -3.584410   -3.057384   -0.374788
  H     -1.211289   -4.632750    0.241710
  H     -2.323212   -4.674313    1.645751

 Total Charge           Charge          ....    0
 Multiplicity           Mult            ....    1
 Number of Electrons    NEL             ....   70
 Basis Dimension        Dim             ....  375

ORBITAL ENERGIES
----------------

  NO   OCC          E(Eh)            E(eV)
   0   2.0000     -11.237518      -305.7884
   1   2.0000     -11.236287      -305.7549
   2   2.0000     -11.236242      -305.7537
   3   2.0000     -11.220435      -305.3236
   4   2.0000     -11.219805      -305.3064
   5   2.0000     -11.215510      -305.1895
   6   2.0000     -11.210440      -305.0516
   7   2.0000     -11.209806      -305.0343
   8   2.0000     -11.206653      -304.9485
   9   2.0000      -1.203088       -32.7377
  10   2.0000      -1.060996       -28.8712
  11   2.0000      -0.994454       -27.0605
  12   2.0000      -0.928446       -25.2643
  13   2.0000      -0.881606       -23.9897
  14   2.0000      -0.849414       -23.1137
  15   2.0000      -0.834170       -22.6989
  16   2.0000      -0.793645       -21.5962
  17   2.0000      -0.684302       -18.6208
  18   2.0000      -0.664283       -18.0761
  19   2.0000      -0.651781       -17.7359
  20   2.0000      -0.610634       -16.6162
  21   2.0000      -0.588829       -16.0229
  22   2.0000      -0.575849       -15.6696
  23   2.0000      -0.553541       -15.0626
  24   2.0000      -0.534467       -14.5436
  25   2.0000      -0.519557       -14.1379
  26   2.0000      -0.507931       -13.8215
  27   2.0000      -0.481630       -13.1058
  28   2.0000      -0.480194       -13.0667
  29   2.0000      -0.467709       -12.7270
  30   2.0000      -0.443757       -12.0752
  31   2.0000      -0.437149       -11.8954
  32   2.0000      -0.429056       -11.6752
  33   2.0000      -0.418144       -11.3783
  34   2.0000      -0.403596       -10.9824
  35   0.0000       0.138307         3.7635
  36   0.0000       0.156588         4.2610
  37   0.0000       0.165024         4.4905
  38   0.0000       0.165863         4.5134
  39   0.0000       0.183467         4.9924

MULLIKEN ATOMIC CHARGES
-----------------------
   0 C :   -0.386288
   1 C :   -0.202723
   2 C :   -0.321291
   3 C :    0.148097
   4 C :   -0.434311
   5 C :   -0.123739
   6 C :   -0.224002
   7 C :   -0.151271
   8 C :   -0.216546
   9 H :    0.132118
  10 H :    0.122233
  11 H :    0.122367
  12 H :    0.113262
  13 H :    0.107064
  14 H :    0.114602
  15 H :    0.123206
  16 H :    0.135811
  17 H :    0.123268
  18 H :    0.129208
  19 H :    0.123393
  20 H :    0.107568
  21 H :    0.114550
  22 H :    0.127135
  23 H :    0.109188
  24 H :    0.107098
Sum of atomic charges:   -0.0000000

LOEWDIN ATOMIC CHARGES
----------------------
   0 C :   -0.321525
   1 C :   -0.290919
   2 C :   -0.230698
   3 C :   -0.214231
   4 C :   -0.273215
   5 C :   -0.149177
   6 C :   -0.197768
   7 C :   -0.153170
   8 C :   -0.199637
   9 H :    0.119872
  10 H :    0.120098
  11 H :    0.119955
  12 H :    0.136182
  13 H :    0.133345
  14 H :    0.142511
  15 H :    0.138272
  16 H :    0.127107
  17 H :    0.120813
  18 H :    0.126131
  19 H :    0.122669
  20 H :    0.127175
  21 H :    0.124095
  22 H :    0.122966
  23 H :    0.121583
  24 H :    0.127565

  Mayer bond orders larger than 0.1
B(  0-C ,  1-C ) :   0.9151 B(  0-C ,  9-H ) :   0.9433 B(  0-C , 10-H ) :   0.9400
B(  0-C , 11-H ) :   0.9411 B(  1-C ,  2-C ) :   0.9279 B(  1-C , 12-H ) :   0.9361
B(  1-C , 13-H ) :   0.9335 B(  2-C ,  3-C ) :   0.8763 B(  2-C , 14-H ) :   0.9325
B(  2-C , 15-H ) :   0.9333 B(  3-C ,  4-C ) :   0.9091 B(  3-C ,  5-C ) :   0.8832
B(  3-C ,  7-C ) :   0.8688 B(  4-C , 16-H ) :   0.9399 B(  4-C , 17-H ) :   0.9331
B(  4-C , 18-H ) :   0.9368 B(  5-C ,  6-C ) :   0.9103 B(  5-C ,  8-C ) :   0.9146
B(  5-C , 19-H ) :   0.8861 B(  6-C ,  7-C ) :   0.9074 B(  6-C , 20-H ) :   0.9261
B(  6-C , 21-H ) :   0.9310 B(  7-C ,  8-C ) :   0.9064 B(  7-C , 22-H ) :   0.8884
B(  8-C , 23-H ) :   0.9320 B(  8-C , 24-H ) :   0.9274

MP2 TOTAL ENERGY:     -351.662184426 Eh
FINAL SINGLE POINT ENERGY      -351.662184426348

DIPOLE MOMENT
-------------
                                X             Y             Z
Electronic contribution:     -0.00183      -4.29176       3.25818
Nuclear contribution   :      0.00793       4.31977      -3.30118
                        -----------------------------------------
Total Dipole Moment    :      0.00610       0.02801      -0.04300
                        -----------------------------------------
Magnitude (a.u.)       :      0.05168
Magnitude (Debye)      :      0.13137

                             ****ORCA TERMINATED NORMALLY****
TOTAL RUN TIME: 0 days 0 hours 22 minutes 24 seconds 657 msec
