                         Program Version 3.0.3 - RELEASE   -
|  1> ! RI-MP2 RIJK def2-TZVP def2-TZVP/C def2-TZVP/JK TIGHTSCF
|  2> % maxcore 2000
|  3> % mp2 density relaxed end
|  4> *xyz 0 1
|  5>  C       -0.0109715632     1.5147060665    -0.1232055514
|  6>  C       -0.0073594450    -0.0222568506     0.0041631784
|  7>  C        0.7491161775    -0.4912549194     1.2660671198
|  8>  C        2.1513163150    -0.0850902240     1.2584926742
|  9>  N        3.2593069254     0.2431024919     1.2319241664
| 10>  C       -1.4499616416    -0.5389049532     0.0579036313
| 11>  C       -2.1750244381    -0.6754932127    -1.2663819656
| 12>  O       -1.9744676786    -0.8214433074     1.1108017217
| 13>  H        1.0139200013     1.8937119649    -0.1520029422
| 14>  H       -0.5158281091     1.8405047581    -1.0363697351
| 15>  H       -0.5226263254     1.9702987079     0.7307660356
| 16>  H        0.4799730971    -0.4403936994    -0.8848160537
| 17>  H        0.2551071670    -0.0908175253     2.1564279183
| 18>  H        0.6982911830    -1.5813078316     1.3540419487
| 19>  H       -1.7470133202    -1.5177012021    -1.8238340417
| 20>  H       -3.2346382814    -0.8646434404    -1.0919463599
| 21>  H       -2.0478898239     0.2139259768    -1.8908737149
| 22> *
| 23>
| 24>                          ****END OF INPUT****

CARTESIAN COORDINATES (ANGSTROEM)
---------------------------------
  C     -0.010972    1.514706   -0.123206
  C     -0.007359   -0.022257    0.004163
  C      0.749116   -0.491255    1.266067
  C      2.151316   -0.085090    1.258493
  N      3.259307    0.243102    1.231924
  C     -1.449962   -0.538905    0.057904
  C     -2.175024   -0.675493   -1.266382
  O     -1.974468   -0.821443    1.110802
  H      1.013920    1.893712   -0.152003
  H     -0.515828    1.840505   -1.036370
  H     -0.522626    1.970299    0.730766
  H      0.479973   -0.440394   -0.884816
  H      0.255107   -0.090818    2.156428
  H      0.698291   -1.581308    1.354042
  H     -1.747013   -1.517701   -1.823834
  H     -3.234638   -0.864643   -1.091946
  H     -2.047890    0.213926   -1.890874

 Total Charge           Charge          ....    0
 Multiplicity           Mult            ....    1
 Number of Electrons    NEL             ....   60
 Basis Dimension        Dim             ....  302

ORBITAL ENERGIES
----------------

  NO   OCC          E(Eh)            E(eV)
   0   2.0000     -20.563670      -559.5659
   1   2.0000     -15.570923      -423.7063
   2   2.0000     -11.349622      -308.8389
   3   2.0000     -11.284215      -307.0591
   4   2.0000     -11.275697      -306.8273
   5   2.0000     -11.275663      -306.8264
   6   2.0000     -11.250910      -306.1528
   7   2.0000     -11.247058      -306.0480
   8   2.0000      -1.408893       -38.3379
   9   2.0000      -1.221704       -33.2443
  10   2.0000      -1.122329       -30.5401
  11   2.0000      -1.031524       -28.0692
  12   2.0000      -0.988582       -26.9007
  13   2.0000      -0.890132       -24.2217
  14   2.0000      -0.751982       -20.4625
  15   2.0000      -0.718264       -19.5450
  16   2.0000      -0.669236       -18.2108
  17   2.0000      -0.663383       -18.0516
  18   2.0000      -0.634590       -17.2681
  19   2.0000      -0.618321       -16.8254
  20   2.0000      -0.596556       -16.2331
  21   2.0000      -0.579055       -15.7569
  22   2.0000      -0.561089       -15.2680
  23   2.0000      -0.547496       -14.8981
  24   2.0000      -0.541220       -14.7274
  25   2.0000      -0.526993       -14.3402
  26   2.0000      -0.505611       -13.7584
  27   2.0000      -0.462518       -12.5857
  28   2.0000      -0.458825       -12.4853
  29   2.0000      -0.425139       -11.5686
  30   0.0000       0.111293         3.0284
  31   0.0000       0.125849         3.4245
  32   0.0000       0.148024         4.0279
  33   0.0000       0.155481         4.2309
  34   0.0000       0.174191         4.7400

MULLIKEN ATOMIC CHARGES
-----------------------
   0 C :   -0.441323
   1 C :   -0.055879
   2 C :   -0.144497
   3 C :   -0.175393
   4 N :   -0.058140
   5 C :    0.222414
   6 C :   -0.430385
   7 O :   -0.289542
   8 H :    0.169533
   9 H :    0.136596
  10 H :    0.145624
  11 H :    0.121046
  12 H :    0.175817
  13 H :    0.165481
  14 H :    0.153709
  15 H :    0.160097
  16 H :    0.144840
Sum of atomic charges:   -0.0000000

LOEWDIN ATOMIC CHARGES
----------------------
   0 C :   -0.272259
   1 C :   -0.239263
   2 C :   -0.220784
   3 C :   -0.194550
   4 N :    0.054660
   5 C :   -0.325848
   6 C :   -0.273833
   7 O :    0.158111
   8 H :    0.136391
   9 H :    0.125685
  10 H :    0.132353
  11 H :    0.164663
  12 H :    0.172421
  13 H :    0.169374
  14 H :    0.142036
  15 H :    0.135874
  16 H :    0.134967

  Mayer bond orders larger than 0.1
B(  0-C ,  1-C ) :   0.8960 B(  0-C ,  8-H ) :   0.9313 B(  0-C ,  9-H ) :   0.9297
B(  0-C , 10-H ) :   0.9302 B(  1-C ,  2-C ) :   0.8962 B(  1-C ,  5-C ) :   0.8571
B(  1-C , 11-H ) :   0.9172 B(  2-C ,  3-C ) :   0.9102 B(  2-C , 12-H ) :   0.9090
B(  2-C , 13-H ) :   0.9103 B(  3-C ,  4-N ) :   2.8778 B(  5-C ,  6-C ) :   0.9297
B(  5-C ,  7-O ) :   1.9632 B(  6-C , 14-H ) :   0.9130 B(  6-C , 15-H ) :   0.9397
B(  6-C , 16-H ) :   0.9178

MP2 TOTAL ENERGY:     -363.282393147 Eh
FINAL SINGLE POINT ENERGY      -363.282393146606

DIPOLE MOMENT
-------------
                                X             Y             Z
Electronic contribution:      4.14579      -2.30341       4.99070
Nuclear contribution   :     -5.24450       2.22983      -6.01203
                        -----------------------------------------
Total Dipole Moment    :     -1.09870      -0.07358      -1.02133
                        -----------------------------------------
Magnitude (a.u.)       :      1.50189
Magnitude (Debye)      :      3.81751

                             ****ORCA TERMINATED NORMALLY****
TOTAL RUN TIME: 0 days 0 hours 12 minutes 1 seconds 142 msec
