                         Program Version 3.0.3 - RELEASE   -
|  1> ! RI-MP2 RIJK def2-TZVP def2-TZVP/C def2-TZVP/JK TIGHTSCF
|  2> % maxcore 2000
|  3> % mp2 density relaxed end
|  4> *xyz 0 1
|  5>  C        0.6959492928     1.2929819754     0.2660618337
|  6>  C       -0.0120411766    -0.0358265338     0.0279478607
|  7>  O       -1.4107288366     0.1555763448    -0.1031942008
|  8>  C        0.6397195122    -0.9393451771    -1.0717183302
|  9>  C        1.1205323033    -1.9279034833     0.0322096979
| 10>  C        2.6362152903    -1.9447677559     0.2799709047
| 11>  C        2.9844891995    -2.8370602028     1.4485386680
| 12>  O        3.4799289714    -2.4635273889     2.4808996825
| 13>  C        0.2784884953    -1.1387369152     1.0800700547
| 14>  H        1.7709088747     1.1584190689     0.4197970573
| 15>  H        0.5694084306     1.9596683323    -0.5970862642
| 16>  H        0.2809627235     1.7887548308     1.1492148696
| 17>  H       -1.5585106223     0.8504211216    -0.7543057213
| 18>  H       -0.1194586730    -1.3706666865    -1.7278076623
| 19>  H        1.4226497429    -0.4787130158    -1.6822324810
| 20>  H        0.7757732995    -2.9546532195    -0.1226586234
| 21>  H        3.1401097834    -2.3388103491    -0.6141212777
| 22>  H        3.0235928356    -0.9414005255     0.4818048648
| 23>  H        2.7205888908    -3.9111718501     1.2978432356
| 24>  H        0.8058091198    -0.8178857311     1.9825186336
| 25>  H       -0.6410396772    -1.6508877593     1.3688518277
| 26> *
| 27>
| 28>                          ****END OF INPUT****

CARTESIAN COORDINATES (ANGSTROEM)
---------------------------------
  C      0.695949    1.292982    0.266062
  C     -0.012041   -0.035827    0.027948
  O     -1.410729    0.155576   -0.103194
  C      0.639720   -0.939345   -1.071718
  C      1.120532   -1.927903    0.032210
  C      2.636215   -1.944768    0.279971
  C      2.984489   -2.837060    1.448539
  O      3.479929   -2.463527    2.480900
  C      0.278488   -1.138737    1.080070
  H      1.770909    1.158419    0.419797
  H      0.569408    1.959668   -0.597086
  H      0.280963    1.788755    1.149215
  H     -1.558511    0.850421   -0.754306
  H     -0.119459   -1.370667   -1.727808
  H      1.422650   -0.478713   -1.682232
  H      0.775773   -2.954653   -0.122659
  H      3.140110   -2.338810   -0.614121
  H      3.023593   -0.941401    0.481805
  H      2.720589   -3.911172    1.297843
  H      0.805809   -0.817886    1.982519
  H     -0.641040   -1.650888    1.368852

 Total Charge           Charge          ....    0
 Multiplicity           Mult            ....    1
 Number of Electrons    NEL             ....   70
 Basis Dimension        Dim             ....  351

ORBITAL ENERGIES
----------------

  NO   OCC          E(Eh)            E(eV)
   0   2.0000     -20.557885      -559.4085
   1   2.0000     -20.556861      -559.3806
   2   2.0000     -11.331150      -308.3363
   3   2.0000     -11.290437      -307.2284
   4   2.0000     -11.245661      -306.0100
   5   2.0000     -11.242189      -305.9155
   6   2.0000     -11.227236      -305.5086
   7   2.0000     -11.224589      -305.4366
   8   2.0000     -11.221704      -305.3581
   9   2.0000      -1.395207       -37.9655
  10   2.0000      -1.367401       -37.2089
  11   2.0000      -1.139972       -31.0202
  12   2.0000      -1.033840       -28.1322
  13   2.0000      -0.972977       -26.4760
  14   2.0000      -0.915875       -24.9222
  15   2.0000      -0.842816       -22.9342
  16   2.0000      -0.791963       -21.5504
  17   2.0000      -0.744761       -20.2660
  18   2.0000      -0.689969       -18.7750
  19   2.0000      -0.669530       -18.2188
  20   2.0000      -0.649641       -17.6776
  21   2.0000      -0.639401       -17.3990
  22   2.0000      -0.616771       -16.7832
  23   2.0000      -0.602858       -16.4046
  24   2.0000      -0.580747       -15.8029
  25   2.0000      -0.567214       -15.4347
  26   2.0000      -0.543226       -14.7819
  27   2.0000      -0.528741       -14.3878
  28   2.0000      -0.522244       -14.2110
  29   2.0000      -0.499015       -13.5789
  30   2.0000      -0.477343       -12.9892
  31   2.0000      -0.466089       -12.6829
  32   2.0000      -0.439596       -11.9620
  33   2.0000      -0.417711       -11.3665
  34   2.0000      -0.410906       -11.1813
  35   0.0000       0.126272         3.4360
  36   0.0000       0.129560         3.5255
  37   0.0000       0.143585         3.9071
  38   0.0000       0.160872         4.3776
  39   0.0000       0.177182         4.8214

MULLIKEN ATOMIC CHARGES
-----------------------
   0 C :   -0.466648
   1 C :    0.214923
   2 O :   -0.457817
   3 C :   -0.207560
   4 C :   -0.116306
   5 C :   -0.182644
   6 C :    0.099822
   7 O :   -0.266372
   8 C :   -0.224344
   9 H :    0.128353
  10 H :    0.122006
  11 H :    0.146270
  12 H :    0.311279
  13 H :    0.114221
  14 H :    0.112553
  15 H :    0.099610
  16 H :    0.128659
  17 H :    0.109802
  18 H :    0.073585
  19 H :    0.137739
  20 H :    0.122870
Sum of atomic charges:    0.0000000

LOEWDIN ATOMIC CHARGES
----------------------
   0 C :   -0.283317
   1 C :   -0.381705
   2 O :    0.003506
   3 C :   -0.184292
   4 C :   -0.221652
   5 C :   -0.248346
   6 C :   -0.293836
   7 O :    0.130429
   8 C :   -0.173276
   9 H :    0.127124
  10 H :    0.123044
  11 H :    0.130246
  12 H :    0.174614
  13 H :    0.136854
  14 H :    0.130172
  15 H :    0.144760
  16 H :    0.151238
  17 H :    0.145058
  18 H :    0.109429
  19 H :    0.137541
  20 H :    0.142406

  Mayer bond orders larger than 0.1
B(  0-C ,  1-C ) :   0.9377 B(  0-C ,  9-H ) :   0.9257 B(  0-C , 10-H ) :   0.9261
B(  0-C , 11-H ) :   0.9428 B(  1-C ,  2-O ) :   1.0495 B(  1-C ,  3-C ) :   0.9148
B(  1-C ,  8-C ) :   0.8826 B(  2-O , 12-H ) :   0.8424 B(  3-C ,  4-C ) :   0.9322
B(  3-C , 13-H ) :   0.9016 B(  3-C , 14-H ) :   0.9164 B(  4-C ,  5-C ) :   0.9019
B(  4-C ,  8-C ) :   0.9367 B(  4-C , 15-H ) :   0.9120 B(  5-C ,  6-C ) :   0.8794
B(  5-C , 16-H ) :   0.9150 B(  5-C , 17-H ) :   0.8994 B(  6-C ,  7-O ) :   1.9980
B(  6-C , 18-H ) :   0.9378 B(  8-C , 19-H ) :   0.9216 B(  8-C , 20-H ) :   0.9001

MP2 TOTAL ENERGY:     -423.522137528 Eh
FINAL SINGLE POINT ENERGY      -423.522137528410

DIPOLE MOMENT
-------------
                                X             Y             Z
Electronic contribution:      1.22165      -3.54140       3.25270
Nuclear contribution   :     -1.35539       3.78782      -4.47645
                        -----------------------------------------
Total Dipole Moment    :     -0.13374       0.24642      -1.22375
                        -----------------------------------------
Magnitude (a.u.)       :      1.25546
Magnitude (Debye)      :      3.19113

                             ****ORCA TERMINATED NORMALLY****
TOTAL RUN TIME: 0 days 0 hours 22 minutes 44 seconds 70 msec
