                         Program Version 3.0.3 - RELEASE   -
|  1> ! RI-MP2 RIJK def2-TZVP def2-TZVP/C def2-TZVP/JK TIGHTSCF
|  2> % maxcore 2000
|  3> % mp2 density relaxed end
|  4> *xyz 0 1
|  5>  C       -0.2539405480     1.4239618368     0.0742263219
|  6>  C        0.2329153371    -0.0212784944    -0.0547794497
|  7>  C        0.6973433703    -0.6013562867     1.2741946147
|  8>  O        1.1284593173    -1.9314239981     1.0646761419
|  9>  C        1.5942003619    -2.5653581007     2.2282740516
| 10>  C        0.5458669540    -3.0774257379     3.2852630046
| 11>  C        1.0870610287    -4.4950132498     3.0730964507
| 12>  C        0.9253955077    -4.8853683398     1.6338845977
| 13>  C        2.0753193324    -3.9925105450     2.0118851031
| 14>  H        0.5386119330     2.0810485811     0.4493831348
| 15>  H       -0.5792049867     1.8171781912    -0.8932469873
| 16>  H       -1.1011580982     1.5004681967     0.7648107987
| 17>  H       -0.5663979026    -0.6580542246    -0.4510640410
| 18>  H        1.0621176941    -0.0818964521    -0.7689455563
| 19>  H        1.5216881030     0.0049760437     1.6899107832
| 20>  H       -0.1235924419    -0.5711216874     2.0106172513
| 21>  H        2.3602576231    -1.9443386533     2.7162212223
| 22>  H        0.7239205677    -2.6725254705     4.2839236432
| 23>  H       -0.5065294872    -2.9298287760     3.0211542150
| 24>  H        1.2592663888    -5.2244980039     3.8542901030
| 25>  H        1.2053763972    -5.9047814209     1.3887654869
| 26>  H        0.1020277262    -4.4906250144     1.0452310838
| 27>  H        3.1044860121    -4.2803005541     1.8359657459
| 28> *
| 29>
| 30>                          ****END OF INPUT****

CARTESIAN COORDINATES (ANGSTROEM)
---------------------------------
  C     -0.253941    1.423962    0.074226
  C      0.232915   -0.021278   -0.054779
  C      0.697343   -0.601356    1.274195
  O      1.128459   -1.931424    1.064676
  C      1.594200   -2.565358    2.228274
  C      0.545867   -3.077426    3.285263
  C      1.087061   -4.495013    3.073096
  C      0.925396   -4.885368    1.633885
  C      2.075319   -3.992511    2.011885
  H      0.538612    2.081049    0.449383
  H     -0.579205    1.817178   -0.893247
  H     -1.101158    1.500468    0.764811
  H     -0.566398   -0.658054   -0.451064
  H      1.062118   -0.081896   -0.768946
  H      1.521688    0.004976    1.689911
  H     -0.123592   -0.571122    2.010617
  H      2.360258   -1.944339    2.716221
  H      0.723921   -2.672525    4.283924
  H     -0.506529   -2.929829    3.021154
  H      1.259266   -5.224498    3.854290
  H      1.205376   -5.904781    1.388765
  H      0.102028   -4.490625    1.045231
  H      3.104486   -4.280301    1.835966

 Total Charge           Charge          ....    0
 Multiplicity           Mult            ....    1
 Number of Electrons    NEL             ....   70
 Basis Dimension        Dim             ....  363

ORBITAL ENERGIES
----------------

  NO   OCC          E(Eh)            E(eV)
   0   2.0000     -20.547210      -559.1180
   1   2.0000     -11.278369      -306.9000
   2   2.0000     -11.268625      -306.6349
   3   2.0000     -11.230713      -305.6032
   4   2.0000     -11.224976      -305.4471
   5   2.0000     -11.221888      -305.3631
   6   2.0000     -11.221415      -305.3502
   7   2.0000     -11.216442      -305.2149
   8   2.0000     -11.214682      -305.1670
   9   2.0000      -1.372595       -37.3502
  10   2.0000      -1.181194       -32.1419
  11   2.0000      -1.051250       -28.6060
  12   2.0000      -0.974627       -26.5209
  13   2.0000      -0.925528       -25.1849
  14   2.0000      -0.868528       -23.6339
  15   2.0000      -0.803920       -21.8758
  16   2.0000      -0.792256       -21.5584
  17   2.0000      -0.733079       -19.9481
  18   2.0000      -0.697238       -18.9728
  19   2.0000      -0.661398       -17.9976
  20   2.0000      -0.647511       -17.6197
  21   2.0000      -0.621029       -16.8990
  22   2.0000      -0.584113       -15.8945
  23   2.0000      -0.582860       -15.8604
  24   2.0000      -0.555445       -15.1144
  25   2.0000      -0.532908       -14.5012
  26   2.0000      -0.527328       -14.3493
  27   2.0000      -0.505699       -13.7608
  28   2.0000      -0.494240       -13.4490
  29   2.0000      -0.470720       -12.8089
  30   2.0000      -0.463741       -12.6190
  31   2.0000      -0.459161       -12.4944
  32   2.0000      -0.410875       -11.1805
  33   2.0000      -0.404243       -11.0000
  34   2.0000      -0.377020       -10.2592
  35   0.0000       0.136892         3.7250
  36   0.0000       0.153426         4.1749
  37   0.0000       0.164604         4.4791
  38   0.0000       0.173627         4.7246
  39   0.0000       0.176384         4.7997

MULLIKEN ATOMIC CHARGES
-----------------------
   0 C :   -0.407989
   1 C :   -0.158566
   2 C :   -0.072884
   3 O :   -0.282549
   4 C :    0.029205
   5 C :   -0.246949
   6 C :   -0.103409
   7 C :   -0.277772
   8 C :   -0.093124
   9 H :    0.122766
  10 H :    0.137617
  11 H :    0.123198
  12 H :    0.111038
  13 H :    0.111912
  14 H :    0.086031
  15 H :    0.089298
  16 H :    0.076704
  17 H :    0.118835
  18 H :    0.111575
  19 H :    0.129136
  20 H :    0.128129
  21 H :    0.136616
  22 H :    0.131183
Sum of atomic charges:    0.0000000

LOEWDIN ATOMIC CHARGES
----------------------
   0 C :   -0.320558
   1 C :   -0.295017
   2 C :   -0.327381
   3 O :    0.186635
   4 C :   -0.292266
   5 C :   -0.205539
   6 C :   -0.185179
   7 C :   -0.205390
   8 C :   -0.167016
   9 H :    0.120417
  10 H :    0.122488
  11 H :    0.120316
  12 H :    0.137048
  13 H :    0.137441
  14 H :    0.117644
  15 H :    0.118803
  16 H :    0.134407
  17 H :    0.132112
  18 H :    0.130489
  19 H :    0.132774
  20 H :    0.139228
  21 H :    0.134470
  22 H :    0.134074

  Mayer bond orders larger than 0.1
B(  0-C ,  1-C ) :   0.9134 B(  0-C ,  9-H ) :   0.9365 B(  0-C , 10-H ) :   0.9404
B(  0-C , 11-H ) :   0.9374 B(  1-C ,  2-C ) :   0.9550 B(  1-C , 12-H ) :   0.9315
B(  1-C , 13-H ) :   0.9297 B(  2-C ,  3-O ) :   0.9313 B(  2-C , 14-H ) :   0.9193
B(  2-C , 15-H ) :   0.9200 B(  3-O ,  4-C ) :   0.9994 B(  4-C ,  5-C ) :   0.9719
B(  4-C ,  8-C ) :   0.9411 B(  4-C , 16-H ) :   0.9298 B(  5-C ,  6-C ) :   0.9653
B(  5-C , 17-H ) :   0.9274 B(  5-C , 18-H ) :   0.9099 B(  6-C ,  7-C ) :   0.8910
B(  6-C ,  8-C ) :   0.8189 B(  6-C , 19-H ) :   0.9281 B(  7-C ,  8-C ) :   0.8904
B(  7-C , 20-H ) :   0.9330 B(  7-C , 21-H ) :   0.9206 B(  8-C , 22-H ) :   0.9289

MP2 TOTAL ENERGY:     -387.574847093 Eh
FINAL SINGLE POINT ENERGY      -387.574847092616

DIPOLE MOMENT
-------------
                                X             Y             Z
Electronic contribution:      3.01978      -6.34490       1.59774
Nuclear contribution   :     -3.00584       6.52847      -1.23471
                        -----------------------------------------
Total Dipole Moment    :      0.01394       0.18357       0.36303
                        -----------------------------------------
Magnitude (a.u.)       :      0.40704
Magnitude (Debye)      :      1.03461

                             ****ORCA TERMINATED NORMALLY****
TOTAL RUN TIME: 0 days 0 hours 17 minutes 45 seconds 760 msec
