                         Program Version 3.0.3 - RELEASE   -
|  1> ! RI-MP2 RIJK def2-TZVP def2-TZVP/C def2-TZVP/JK TIGHTSCF
|  2> % maxcore 2000
|  3> % mp2 density relaxed end
|  4> *xyz 0 1
|  5>  C       -0.5983799950     1.1257804463    -0.0762802071
|  6>  N       -0.1158591374    -0.1989805412     0.2785887633
|  7>  C        1.1637222449    -0.7265462714    -0.1184542850
|  8>  C        2.3061447861     0.3069639537    -0.0220770129
|  9>  C        2.0081266096     0.4531095109     1.5110430706
| 10>  C        1.8309698331     1.8156224551     2.1769911187
| 11>  C        3.1459875540     2.5761686692     2.3055059062
| 12>  O        2.8741858777     3.8194620827     2.9349629743
| 13>  C        0.8112794449    -0.5119298029     1.3394286738
| 14>  H        0.1784015880     1.8861059338    -0.2280371530
| 15>  H       -1.1713004142     1.0444580684    -1.0061781452
| 16>  H       -1.2754965358     1.4801298105     0.7068497876
| 17>  H        1.1945641922    -1.6444198879    -0.6965933753
| 18>  H        3.2890137165    -0.1232768769    -0.2245684265
| 19>  H        2.1915148771     1.2046174400    -0.6379242828
| 20>  H        2.7866137481    -0.0970063734     2.0548085756
| 21>  H        1.1240320835     2.4448774508     1.6292656650
| 22>  H        1.4113376072     1.6794568851     3.1818245140
| 23>  H        3.8631215470     1.9791209543     2.8934587996
| 24>  H        3.5902972419     2.7240047718     1.3073289403
| 25>  H        3.7001652176     4.3059666020     3.0097713540
| 26>  H        0.4924089330    -1.2309145808     2.0884833446
| 27> *
| 28>
| 29>                          ****END OF INPUT****

CARTESIAN COORDINATES (ANGSTROEM)
---------------------------------
  C     -0.598380    1.125780   -0.076280
  N     -0.115859   -0.198981    0.278589
  C      1.163722   -0.726546   -0.118454
  C      2.306145    0.306964   -0.022077
  C      2.008127    0.453110    1.511043
  C      1.830970    1.815622    2.176991
  C      3.145988    2.576169    2.305506
  O      2.874186    3.819462    2.934963
  C      0.811279   -0.511930    1.339429
  H      0.178402    1.886106   -0.228037
  H     -1.171300    1.044458   -1.006178
  H     -1.275497    1.480130    0.706850
  H      1.194564   -1.644420   -0.696593
  H      3.289014   -0.123277   -0.224568
  H      2.191515    1.204617   -0.637924
  H      2.786614   -0.097006    2.054809
  H      1.124032    2.444877    1.629266
  H      1.411338    1.679457    3.181825
  H      3.863122    1.979121    2.893459
  H      3.590297    2.724005    1.307329
  H      3.700165    4.305967    3.009771
  H      0.492409   -1.230915    2.088483

 Total Charge           Charge          ....    0
 Multiplicity           Mult            ....    1
 Number of Electrons    NEL             ....   70
 Basis Dimension        Dim             ....  357

ORBITAL ENERGIES
----------------

  NO   OCC          E(Eh)            E(eV)
   0   2.0000     -20.555256      -559.3370
   1   2.0000     -15.554068      -423.2477
   2   2.0000     -11.275364      -306.8183
   3   2.0000     -11.254031      -306.2378
   4   2.0000     -11.253018      -306.2102
   5   2.0000     -11.240275      -305.8634
   6   2.0000     -11.235546      -305.7348
   7   2.0000     -11.227498      -305.5157
   8   2.0000     -11.216706      -305.2221
   9   2.0000      -1.359063       -36.9820
  10   2.0000      -1.285490       -34.9800
  11   2.0000      -1.081536       -29.4301
  12   2.0000      -1.015921       -27.6446
  13   2.0000      -0.952313       -25.9138
  14   2.0000      -0.898449       -24.4480
  15   2.0000      -0.821343       -22.3499
  16   2.0000      -0.775030       -21.0896
  17   2.0000      -0.741178       -20.1685
  18   2.0000      -0.698163       -18.9980
  19   2.0000      -0.689198       -18.7540
  20   2.0000      -0.646268       -17.5858
  21   2.0000      -0.622247       -16.9322
  22   2.0000      -0.605070       -16.4648
  23   2.0000      -0.583635       -15.8815
  24   2.0000      -0.570423       -15.5220
  25   2.0000      -0.561459       -15.2781
  26   2.0000      -0.541660       -14.7393
  27   2.0000      -0.508192       -13.8286
  28   2.0000      -0.492440       -13.4000
  29   2.0000      -0.465384       -12.6637
  30   2.0000      -0.454430       -12.3657
  31   2.0000      -0.442162       -12.0318
  32   2.0000      -0.435620       -11.8538
  33   2.0000      -0.389921       -10.6103
  34   2.0000      -0.370225       -10.0743
  35   0.0000       0.132315         3.6005
  36   0.0000       0.148371         4.0374
  37   0.0000       0.157442         4.2842
  38   0.0000       0.165409         4.5010
  39   0.0000       0.178702         4.8627

MULLIKEN ATOMIC CHARGES
-----------------------
   0 C :   -0.297242
   1 N :   -0.204940
   2 C :   -0.071078
   3 C :   -0.274802
   4 C :   -0.097724
   5 C :   -0.178281
   6 C :   -0.069986
   7 O :   -0.465661
   8 C :   -0.057732
   9 H :    0.106326
  10 H :    0.140968
  11 H :    0.140918
  12 H :    0.128400
  13 H :    0.123646
  14 H :    0.123237
  15 H :    0.094869
  16 H :    0.109363
  17 H :    0.117622
  18 H :    0.092233
  19 H :    0.097300
  20 H :    0.314572
  21 H :    0.127992
Sum of atomic charges:    0.0000000

LOEWDIN ATOMIC CHARGES
----------------------
   0 C :   -0.324535
   1 N :    0.124576
   2 C :   -0.219044
   3 C :   -0.210845
   4 C :   -0.216349
   5 C :   -0.255861
   6 C :   -0.350384
   7 O :   -0.052063
   8 C :   -0.203082
   9 H :    0.103160
  10 H :    0.118529
  11 H :    0.120554
  12 H :    0.129453
  13 H :    0.134332
  14 H :    0.127398
  15 H :    0.157284
  16 H :    0.140979
  17 H :    0.144753
  18 H :    0.113731
  19 H :    0.114806
  20 H :    0.171409
  21 H :    0.131199

  Mayer bond orders larger than 0.1
B(  0-C ,  1-N ) :   0.8757 B(  0-C ,  9-H ) :   0.9221 B(  0-C , 10-H ) :   0.9376
B(  0-C , 11-H ) :   0.9376 B(  1-N ,  2-C ) :   0.9424 B(  1-N ,  8-C ) :   0.9556
B(  2-C ,  3-C ) :   0.9022 B(  2-C ,  8-C ) :   0.8275 B(  2-C , 12-H ) :   0.9276
B(  3-C ,  4-C ) :   0.9482 B(  3-C , 13-H ) :   0.9183 B(  3-C , 14-H ) :   0.9255
B(  4-C ,  5-C ) :   0.8979 B(  4-C ,  8-C ) :   0.8654 B(  4-C , 15-H ) :   0.9119
B(  5-C ,  6-C ) :   0.9284 B(  5-C , 16-H ) :   0.9229 B(  5-C , 17-H ) :   0.9279
B(  6-C ,  7-O ) :   1.0186 B(  6-C , 18-H ) :   0.9307 B(  6-C , 19-H ) :   0.9328
B(  7-O , 20-H ) :   0.8494 B(  8-C , 21-H ) :   0.9353

MP2 TOTAL ENERGY:     -403.597918986 Eh
FINAL SINGLE POINT ENERGY      -403.597918985799

DIPOLE MOMENT
-------------
                                X             Y             Z
Electronic contribution:     -0.54122      -1.71705       1.07396
Nuclear contribution   :      1.45726       1.80983      -1.20492
                        -----------------------------------------
Total Dipole Moment    :      0.91604       0.09278      -0.13096
                        -----------------------------------------
Magnitude (a.u.)       :      0.92999
Magnitude (Debye)      :      2.36385

                             ****ORCA TERMINATED NORMALLY****
TOTAL RUN TIME: 0 days 0 hours 17 minutes 35 seconds 158 msec
