                         Program Version 3.0.3 - RELEASE   -
|  1> ! RI-MP2 RIJK def2-TZVP def2-TZVP/C def2-TZVP/JK TIGHTSCF
|  2> % maxcore 2000
|  3> % mp2 density relaxed end
|  4> *xyz 0 1
|  5>  C        0.0399140119     1.5320938084     0.0753102139
|  6>  C       -0.0071396248     0.0377336637    -0.0285187957
|  7>  C        1.0550530516    -0.8413183626    -0.6648088482
|  8>  C        0.4292036419    -1.9236841077    -1.5231560316
|  9>  C       -0.8451240514    -2.1326366515    -0.7279262137
| 10>  C       -0.5968997911    -1.9004711669     0.7555755172
| 11>  C        0.6808582242    -1.0321219657     0.7980197142
| 12>  C       -1.3007639565    -0.8413887416    -0.0714789699
| 13>  C       -2.7111130636    -0.3374556053    -0.0160421050
| 14>  H        1.0656770498     1.8769010994     0.2439882519
| 15>  H       -0.3231490712     2.0144150977    -0.8408412865
| 16>  H       -0.5713639238     1.9011084390     0.9072642071
| 17>  H        2.0175334620    -0.4041543008    -0.9068595986
| 18>  H        0.2316831101    -1.5830147597    -2.5465044874
| 19>  H        1.0459421026    -2.8287683947    -1.5731973226
| 20>  H       -1.5936325349    -2.8582205971    -1.0268116286
| 21>  H       -0.9858675264    -2.5279226679     1.5465546786
| 22>  H        1.3706763848    -0.9264406632     1.6248338471
| 23>  H       -2.8673111832     0.3408224056     0.8310240814
| 24>  H       -2.9843492004     0.2059125996    -0.9292098130
| 25>  H       -3.4156906813    -1.1685600785     0.0951790394
| 26> *
| 27>
| 28>                          ****END OF INPUT****

CARTESIAN COORDINATES (ANGSTROEM)
---------------------------------
  C      0.039914    1.532094    0.075310
  C     -0.007140    0.037734   -0.028519
  C      1.055053   -0.841318   -0.664809
  C      0.429204   -1.923684   -1.523156
  C     -0.845124   -2.132637   -0.727926
  C     -0.596900   -1.900471    0.755576
  C      0.680858   -1.032122    0.798020
  C     -1.300764   -0.841389   -0.071479
  C     -2.711113   -0.337456   -0.016042
  H      1.065677    1.876901    0.243988
  H     -0.323149    2.014415   -0.840841
  H     -0.571364    1.901108    0.907264
  H      2.017533   -0.404154   -0.906860
  H      0.231683   -1.583015   -2.546504
  H      1.045942   -2.828768   -1.573197
  H     -1.593633   -2.858221   -1.026812
  H     -0.985868   -2.527923    1.546555
  H      1.370676   -0.926441    1.624834
  H     -2.867311    0.340822    0.831024
  H     -2.984349    0.205913   -0.929210
  H     -3.415691   -1.168560    0.095179

 Total Charge           Charge          ....    0
 Multiplicity           Mult            ....    1
 Number of Electrons    NEL             ....   66
 Basis Dimension        Dim             ....  351

ORBITAL ENERGIES
----------------

  NO   OCC          E(Eh)            E(eV)
   0   2.0000     -11.227711      -305.5216
   1   2.0000     -11.227204      -305.5078
   2   2.0000     -11.221380      -305.3493
   3   2.0000     -11.221347      -305.3484
   4   2.0000     -11.220133      -305.3153
   5   2.0000     -11.219605      -305.3010
   6   2.0000     -11.216385      -305.2134
   7   2.0000     -11.216384      -305.2133
   8   2.0000     -11.214243      -305.1551
   9   2.0000      -1.237327       -33.6694
  10   2.0000      -1.057606       -28.7789
  11   2.0000      -1.006877       -27.3985
  12   2.0000      -0.960977       -26.1495
  13   2.0000      -0.941320       -25.6146
  14   2.0000      -0.821197       -22.3459
  15   2.0000      -0.768546       -20.9132
  16   2.0000      -0.746415       -20.3110
  17   2.0000      -0.679140       -18.4803
  18   2.0000      -0.673431       -18.3250
  19   2.0000      -0.600810       -16.3489
  20   2.0000      -0.591862       -16.1054
  21   2.0000      -0.569715       -15.5027
  22   2.0000      -0.564363       -15.3571
  23   2.0000      -0.552422       -15.0322
  24   2.0000      -0.549022       -14.9396
  25   2.0000      -0.545040       -14.8313
  26   2.0000      -0.513601       -13.9758
  27   2.0000      -0.481257       -13.0957
  28   2.0000      -0.467429       -12.7194
  29   2.0000      -0.417202       -11.3526
  30   2.0000      -0.382009       -10.3950
  31   2.0000      -0.379536       -10.3277
  32   2.0000      -0.320847        -8.7307
  33   0.0000       0.135268         3.6808
  34   0.0000       0.163635         4.4527
  35   0.0000       0.165114         4.4930
  36   0.0000       0.179196         4.8762
  37   0.0000       0.195124         5.3096

MULLIKEN ATOMIC CHARGES
-----------------------
   0 C :   -0.409382
   1 C :    0.065695
   2 C :   -0.207788
   3 C :   -0.138491
   4 C :   -0.207788
   5 C :   -0.141901
   6 C :   -0.141905
   7 C :    0.065690
   8 C :   -0.409382
   9 H :    0.133739
  10 H :    0.133709
  11 H :    0.132634
  12 H :    0.120967
  13 H :    0.107193
  14 H :    0.106323
  15 H :    0.120967
  16 H :    0.134819
  17 H :    0.134819
  18 H :    0.132634
  19 H :    0.133709
  20 H :    0.133739
Sum of atomic charges:    0.0000000

LOEWDIN ATOMIC CHARGES
----------------------
   0 C :   -0.274035
   1 C :   -0.156813
   2 C :   -0.155442
   3 C :   -0.210078
   4 C :   -0.155442
   5 C :   -0.119156
   6 C :   -0.119156
   7 C :   -0.156813
   8 C :   -0.274035
   9 H :    0.131287
  10 H :    0.128348
  11 H :    0.127497
  12 H :    0.147000
  13 H :    0.140244
  14 H :    0.140067
  15 H :    0.147000
  16 H :    0.136197
  17 H :    0.136197
  18 H :    0.127497
  19 H :    0.128348
  20 H :    0.131287

  Mayer bond orders larger than 0.1
B(  0-C ,  1-C ) :   0.8375 B(  0-C ,  9-H ) :   0.9429 B(  0-C , 10-H ) :   0.9465
B(  0-C , 11-H ) :   0.9498 B(  1-C ,  2-C ) :   0.8649 B(  1-C ,  6-C ) :   0.8759
B(  1-C ,  7-C ) :   0.9511 B(  2-C ,  3-C ) :   0.9638 B(  2-C ,  6-C ) :   0.8519
B(  2-C , 12-H ) :   0.9345 B(  3-C ,  4-C ) :   0.9638 B(  3-C , 13-H ) :   0.9175
B(  3-C , 14-H ) :   0.9129 B(  4-C ,  5-C ) :   0.8519 B(  4-C ,  7-C ) :   0.8649
B(  4-C , 15-H ) :   0.9345 B(  5-C ,  6-C ) :   0.9073 B(  5-C ,  7-C ) :   0.8759
B(  5-C , 16-H ) :   0.9222 B(  6-C , 17-H ) :   0.9222 B(  7-C ,  8-C ) :   0.8375
B(  8-C , 18-H ) :   0.9498 B(  8-C , 19-H ) :   0.9465 B(  8-C , 20-H ) :   0.9429

MP2 TOTAL ENERGY:     -349.275278660 Eh
FINAL SINGLE POINT ENERGY      -349.275278660437

DIPOLE MOMENT
-------------
                                X             Y             Z
Electronic contribution:      2.17787      -3.23387       0.59652
Nuclear contribution   :     -2.25158       3.34220      -0.59391
                        -----------------------------------------
Total Dipole Moment    :     -0.07371       0.10833       0.00261
                        -----------------------------------------
Magnitude (a.u.)       :      0.13105
Magnitude (Debye)      :      0.33311

                             ****ORCA TERMINATED NORMALLY****
TOTAL RUN TIME: 0 days 0 hours 21 minutes 36 seconds 155 msec
