                         Program Version 3.0.3 - RELEASE   -
|  1> ! RI-MP2 RIJK def2-TZVP def2-TZVP/C def2-TZVP/JK TIGHTSCF
|  2> % maxcore 2000
|  3> % mp2 density relaxed end
|  4> *xyz 0 1
|  5>  C        0.4086517827     1.5540766899     0.1876599617
|  6>  N        1.2014212404     0.4154634728    -0.2638968194
|  7>  C       -0.2177969552     0.2016667209     0.1083351658
|  8>  C       -0.4679438959    -0.6042546396     1.3272373912
|  9>  N        0.3070441703    -0.4008441720     2.4003585594
| 10>  C        0.0214841527    -1.1685604641     3.4458089567
| 11>  N       -0.9469923104    -2.0862290543     3.5099117881
| 12>  C       -1.6607475747    -2.1876769917     2.3890436749
| 13>  N       -1.4762037212    -1.4850612889     1.2728031977
| 14>  H        0.6856584263     1.9304585569     1.1671316908
| 15>  H        0.0787428772     2.2989277165    -0.5317794108
| 16>  H        1.2730404715     0.4156983097    -1.2786217755
| 17>  H       -0.9359251838     0.0127879209    -0.6825291249
| 18>  H        0.6324173862    -1.0355256156     4.3364204110
| 19>  H       -2.4712712262    -2.9137688114     2.3837889335
| 20> *
| 21>
| 22>                          ****END OF INPUT****

CARTESIAN COORDINATES (ANGSTROEM)
---------------------------------
  C      0.408652    1.554077    0.187660
  N      1.201421    0.415463   -0.263897
  C     -0.217797    0.201667    0.108335
  C     -0.467944   -0.604255    1.327237
  N      0.307044   -0.400844    2.400359
  C      0.021484   -1.168560    3.445809
  N     -0.946992   -2.086229    3.509912
  C     -1.660748   -2.187677    2.389044
  N     -1.476204   -1.485061    1.272803
  H      0.685658    1.930459    1.167132
  H      0.078743    2.298928   -0.531779
  H      1.273040    0.415698   -1.278622
  H     -0.935925    0.012788   -0.682529
  H      0.632417   -1.035526    4.336420
  H     -2.471271   -2.913769    2.383789

 Total Charge           Charge          ....    0
 Multiplicity           Mult            ....    1
 Number of Electrons    NEL             ....   64
 Basis Dimension        Dim             ....  315

ORBITAL ENERGIES
----------------

  NO   OCC          E(Eh)            E(eV)
   0   2.0000     -15.577568      -423.8872
   1   2.0000     -15.576373      -423.8546
   2   2.0000     -15.576280      -423.8521
   3   2.0000     -15.574933      -423.8155
   4   2.0000     -11.341117      -308.6075
   5   2.0000     -11.333995      -308.4137
   6   2.0000     -11.333367      -308.3966
   7   2.0000     -11.276997      -306.8627
   8   2.0000     -11.270578      -306.6880
   9   2.0000      -1.359086       -36.9826
  10   2.0000      -1.278800       -34.7979
  11   2.0000      -1.210104       -32.9286
  12   2.0000      -1.207449       -32.8564
  13   2.0000      -0.974350       -26.5134
  14   2.0000      -0.926344       -25.2071
  15   2.0000      -0.891927       -24.2706
  16   2.0000      -0.836274       -22.7562
  17   2.0000      -0.754385       -20.5278
  18   2.0000      -0.725517       -19.7423
  19   2.0000      -0.701499       -19.0887
  20   2.0000      -0.632013       -17.1980
  21   2.0000      -0.612194       -16.6586
  22   2.0000      -0.606866       -16.5137
  23   2.0000      -0.571277       -15.5452
  24   2.0000      -0.549883       -14.9631
  25   2.0000      -0.507936       -13.8216
  26   2.0000      -0.499383       -13.5889
  27   2.0000      -0.441692       -12.0190
  28   2.0000      -0.435439       -11.8489
  29   2.0000      -0.430916       -11.7258
  30   2.0000      -0.426648       -11.6097
  31   2.0000      -0.397162       -10.8073
  32   0.0000       0.090303         2.4573
  33   0.0000       0.095983         2.6118
  34   0.0000       0.135866         3.6971
  35   0.0000       0.170610         4.6425
  36   0.0000       0.179735         4.8908

MULLIKEN ATOMIC CHARGES
-----------------------
   0 C :   -0.160356
   1 N :   -0.367520
   2 C :   -0.045752
   3 C :    0.187653
   4 N :   -0.232916
   5 C :    0.075731
   6 N :   -0.242310
   7 C :    0.084968
   8 N :   -0.239020
   9 H :    0.144669
  10 H :    0.134056
  11 H :    0.226376
  12 H :    0.143932
  13 H :    0.145072
  14 H :    0.145416
Sum of atomic charges:   -0.0000000

LOEWDIN ATOMIC CHARGES
----------------------
   0 C :   -0.252896
   1 N :    0.001220
   2 C :   -0.237633
   3 C :   -0.268873
   4 N :    0.166131
   5 C :   -0.260446
   6 N :    0.116499
   7 C :   -0.263202
   8 N :    0.150082
   9 H :    0.132782
  10 H :    0.122121
  11 H :    0.170079
  12 H :    0.148079
  13 H :    0.138267
  14 H :    0.137794

  Mayer bond orders larger than 0.1
B(  0-C ,  1-N ) :   0.9395 B(  0-C ,  2-C ) :   0.8784 B(  0-C ,  9-H ) :   0.9159
B(  0-C , 10-H ) :   0.9251 B(  1-N ,  2-C ) :   0.9111 B(  1-N , 11-H ) :   0.8673
B(  2-C ,  3-C ) :   0.9416 B(  2-C , 12-H ) :   0.9402 B(  3-C ,  4-N ) :   1.4004
B(  3-C ,  8-N ) :   1.4002 B(  4-N ,  5-C ) :   1.4072 B(  5-C ,  6-N ) :   1.3619
B(  5-C , 13-H ) :   0.9361 B(  6-N ,  7-C ) :   1.3815 B(  7-C ,  8-N ) :   1.3833
B(  7-C , 14-H ) :   0.9357

MP2 TOTAL ENERGY:     -412.291167296 Eh
FINAL SINGLE POINT ENERGY      -412.291167296030

DIPOLE MOMENT
-------------
                                X             Y             Z
Electronic contribution:     -1.31570      -3.66535       3.22391
Nuclear contribution   :      0.99548       4.14257      -3.78189
                        -----------------------------------------
Total Dipole Moment    :     -0.32023       0.47721      -0.55798
                        -----------------------------------------
Magnitude (a.u.)       :      0.80101
Magnitude (Debye)      :      2.03600

                             ****ORCA TERMINATED NORMALLY****
TOTAL RUN TIME: 0 days 0 hours 14 minutes 46 seconds 765 msec
