                         Program Version 3.0.3 - RELEASE   -
|  1> ! RI-MP2 RIJK def2-TZVP def2-TZVP/C def2-TZVP/JK TIGHTSCF
|  2> % maxcore 2000
|  3> % mp2 density relaxed end
|  4> *xyz 0 1
|  5>  C       -0.0173825910     1.5396839422     0.0647928013
|  6>  C       -0.0614075432     0.0333463794    -0.0090833766
|  7>  C        0.8801510381    -0.5672343066    -1.0722801698
|  8>  C        0.8829039476    -2.0759240210    -0.9678086681
|  9>  C        0.1422048282    -2.6533524085    -0.0227589584
| 10>  C       -0.6339452099    -1.7164527946     0.8693027739
| 11>  O        0.2372119618    -0.6103263810     1.2808315716
| 12>  C       -1.4378554985    -0.7072962798     0.0109740200
| 13>  O       -2.4514946784    -0.0270484066     0.7036324320
| 14>  H        0.9644546578     1.8667287141     0.4225958715
| 15>  H       -0.1839387358     1.9763118689    -0.9253941384
| 16>  H       -0.7826840123     1.9278481971     0.7402984547
| 17>  H        0.5589828285    -0.2481499422    -2.0734461346
| 18>  H        1.8951352050    -0.1685683772    -0.9353912809
| 19>  H        1.4995674010    -2.6464930559    -1.6559413019
| 20>  H        0.0761801899    -3.7273126319     0.1118733410
| 21>  H       -1.1340740964    -2.1873573048     1.7185617470
| 22>  H       -1.8636954372    -1.0535074255    -0.9324752609
| 23>  H       -2.0866718552     0.2216960839     1.5622288367
| 24> *
| 25>
| 26>                          ****END OF INPUT****

CARTESIAN COORDINATES (ANGSTROEM)
---------------------------------
  C     -0.017383    1.539684    0.064793
  C     -0.061408    0.033346   -0.009083
  C      0.880151   -0.567234   -1.072280
  C      0.882904   -2.075924   -0.967809
  C      0.142205   -2.653352   -0.022759
  C     -0.633945   -1.716453    0.869303
  O      0.237212   -0.610326    1.280832
  C     -1.437855   -0.707296    0.010974
  O     -2.451495   -0.027048    0.703632
  H      0.964455    1.866729    0.422596
  H     -0.183939    1.976312   -0.925394
  H     -0.782684    1.927848    0.740298
  H      0.558983   -0.248150   -2.073446
  H      1.895135   -0.168568   -0.935391
  H      1.499567   -2.646493   -1.655941
  H      0.076180   -3.727313    0.111873
  H     -1.134074   -2.187357    1.718562
  H     -1.863695   -1.053507   -0.932475
  H     -2.086672    0.221696    1.562229

 Total Charge           Charge          ....    0
 Multiplicity           Mult            ....    1
 Number of Electrons    NEL             ....   68
 Basis Dimension        Dim             ....  339

ORBITAL ENERGIES
----------------

  NO   OCC          E(Eh)            E(eV)
   0   2.0000     -20.562462      -559.5330
   1   2.0000     -20.550171      -559.1986
   2   2.0000     -11.293069      -307.3000
   3   2.0000     -11.287741      -307.1550
   4   2.0000     -11.286686      -307.1263
   5   2.0000     -11.238778      -305.8227
   6   2.0000     -11.237482      -305.7874
   7   2.0000     -11.230869      -305.6075
   8   2.0000     -11.220733      -305.3317
   9   2.0000      -1.399836       -38.0915
  10   2.0000      -1.352185       -36.7948
  11   2.0000      -1.100883       -29.9565
  12   2.0000      -1.044816       -28.4309
  13   2.0000      -0.980385       -26.6776
  14   2.0000      -0.938085       -25.5266
  15   2.0000      -0.847801       -23.0698
  16   2.0000      -0.790271       -21.5044
  17   2.0000      -0.751715       -20.4552
  18   2.0000      -0.692914       -18.8551
  19   2.0000      -0.647022       -17.6064
  20   2.0000      -0.633066       -17.2266
  21   2.0000      -0.622474       -16.9384
  22   2.0000      -0.606874       -16.5139
  23   2.0000      -0.595249       -16.1975
  24   2.0000      -0.570915       -15.5354
  25   2.0000      -0.551115       -14.9966
  26   2.0000      -0.541194       -14.7266
  27   2.0000      -0.539343       -14.6763
  28   2.0000      -0.517431       -14.0800
  29   2.0000      -0.497911       -13.5488
  30   2.0000      -0.461031       -12.5453
  31   2.0000      -0.421856       -11.4793
  32   2.0000      -0.414265       -11.2727
  33   2.0000      -0.353304        -9.6139
  34   0.0000       0.135205         3.6791
  35   0.0000       0.136911         3.7255
  36   0.0000       0.158397         4.3102
  37   0.0000       0.162392         4.4189
  38   0.0000       0.185260         5.0412

MULLIKEN ATOMIC CHARGES
-----------------------
   0 C :   -0.368300
   1 C :    0.133694
   2 C :   -0.229358
   3 C :   -0.131838
   4 C :   -0.316726
   5 C :    0.182647
   6 O :   -0.336135
   7 C :    0.057377
   8 O :   -0.457396
   9 H :    0.145095
  10 H :    0.131292
  11 H :    0.121181
  12 H :    0.121627
  13 H :    0.121150
  14 H :    0.130075
  15 H :    0.125927
  16 H :    0.122097
  17 H :    0.121498
  18 H :    0.326094
Sum of atomic charges:    0.0000000

LOEWDIN ATOMIC CHARGES
----------------------
   0 C :   -0.267931
   1 C :   -0.315891
   2 C :   -0.204145
   3 C :   -0.146281
   4 C :   -0.149735
   5 C :   -0.244092
   6 O :    0.161482
   7 C :   -0.268901
   8 O :    0.000859
   9 H :    0.134630
  10 H :    0.134047
  11 H :    0.126430
  12 H :    0.149148
  13 H :    0.149530
  14 H :    0.140694
  15 H :    0.141164
  16 H :    0.136311
  17 H :    0.140352
  18 H :    0.182330

  Mayer bond orders larger than 0.1
B(  0-C ,  1-C ) :   0.9078 B(  0-C ,  9-H ) :   0.9383 B(  0-C , 10-H ) :   0.9299
B(  0-C , 11-H ) :   0.9258 B(  1-C ,  2-C ) :   0.9688 B(  1-C ,  6-O ) :   0.8969
B(  1-C ,  7-C ) :   0.9237 B(  2-C ,  3-C ) :   0.9508 B(  2-C , 12-H ) :   0.9053
B(  2-C , 13-H ) :   0.8990 B(  3-C ,  4-C ) :   1.8036 B(  3-C , 14-H ) :   0.9319
B(  4-C ,  5-C ) :   0.9304 B(  4-C , 15-H ) :   0.9258 B(  5-C ,  6-O ) :   0.8920
B(  5-C ,  7-C ) :   0.9303 B(  5-C , 16-H ) :   0.9110 B(  7-C ,  8-O ) :   0.9544
B(  7-C , 17-H ) :   0.9167 B(  8-O , 18-H ) :   0.8284

MP2 TOTAL ENERGY:     -422.312333650 Eh
FINAL SINGLE POINT ENERGY      -422.312333650016

DIPOLE MOMENT
-------------
                                X             Y             Z
Electronic contribution:     -1.65313      -2.88943       2.60259
Nuclear contribution   :      1.91798       2.77406      -3.02705
                        -----------------------------------------
Total Dipole Moment    :      0.26486      -0.11537      -0.42446
                        -----------------------------------------
Magnitude (a.u.)       :      0.51345
Magnitude (Debye)      :      1.30508

                             ****ORCA TERMINATED NORMALLY****
TOTAL RUN TIME: 0 days 0 hours 19 minutes 34 seconds 407 msec
