                         Program Version 3.0.3 - RELEASE   -
|  1> ! RI-MP2 RIJK def2-TZVP def2-TZVP/C def2-TZVP/JK TIGHTSCF
|  2> % maxcore 2000
|  3> % mp2 density relaxed end
|  4> *xyz 0 1
|  5>  C        0.0538491284     1.5945028027    -0.1198210648
|  6>  C        1.5860552125     1.5285712257    -0.1272156594
|  7>  C        2.1089386694     0.9237854343     1.1496631669
|  8>  C        1.5387183758     1.1655958497     2.5478531085
|  9>  C        0.6785150269     0.0321910219     3.1326837635
| 10>  C       -0.7308704349    -0.0742681631     2.5320899602
| 11>  C       -0.8131507381    -0.6609430107     1.1154525542
| 12>  C        0.0080311359     0.0306664232     0.0252691817
| 13>  C        1.5434449295     0.0113066529     0.0914588526
| 14>  H       -0.3919773145     2.1821981467     0.6890664995
| 15>  H       -0.3742345387     1.9379466262    -1.0637121435
| 16>  H        2.2255389138     2.1012257880    -0.7888379677
| 17>  H        3.1963146798     0.8796370596     1.1387093962
| 18>  H        2.3824136491     1.3439745417     3.2243557706
| 19>  H        0.9525776426     2.0940965172     2.5632341718
| 20>  H        1.2056199830    -0.9246040108     3.0189248684
| 21>  H        0.5792937367     0.2021995110     4.2120836255
| 22>  H       -1.3497540061    -0.6988129609     3.1882731434
| 23>  H       -1.1955055920     0.9211816109     2.5477126437
| 24>  H       -0.4996029861    -1.7144787913     1.1490793672
| 25>  H       -1.8685138843    -0.6727382303     0.8106000866
| 26>  H       -0.2973222616    -0.3878851583    -0.9396212165
| 27>  H        2.1581239330    -0.7572030164    -0.3652234885
| 28> *
| 29>
| 30>                          ****END OF INPUT****

CARTESIAN COORDINATES (ANGSTROEM)
---------------------------------
  C      0.053849    1.594503   -0.119821
  C      1.586055    1.528571   -0.127216
  C      2.108939    0.923785    1.149663
  C      1.538718    1.165596    2.547853
  C      0.678515    0.032191    3.132684
  C     -0.730870   -0.074268    2.532090
  C     -0.813151   -0.660943    1.115453
  C      0.008031    0.030666    0.025269
  C      1.543445    0.011307    0.091459
  H     -0.391977    2.182198    0.689066
  H     -0.374235    1.937947   -1.063712
  H      2.225539    2.101226   -0.788838
  H      3.196315    0.879637    1.138709
  H      2.382414    1.343975    3.224356
  H      0.952578    2.094097    2.563234
  H      1.205620   -0.924604    3.018925
  H      0.579294    0.202200    4.212084
  H     -1.349754   -0.698813    3.188273
  H     -1.195506    0.921182    2.547713
  H     -0.499603   -1.714479    1.149079
  H     -1.868514   -0.672738    0.810600
  H     -0.297322   -0.387885   -0.939621
  H      2.158124   -0.757203   -0.365223

 Total Charge           Charge          ....    0
 Multiplicity           Mult            ....    1
 Number of Electrons    NEL             ....   68
 Basis Dimension        Dim             ....  363

ORBITAL ENERGIES
----------------

  NO   OCC          E(Eh)            E(eV)
   0   2.0000     -11.224011      -305.4209
   1   2.0000     -11.223636      -305.4106
   2   2.0000     -11.221978      -305.3656
   3   2.0000     -11.219797      -305.3062
   4   2.0000     -11.216850      -305.2260
   5   2.0000     -11.213921      -305.1463
   6   2.0000     -11.212246      -305.1007
   7   2.0000     -11.211771      -305.0878
   8   2.0000     -11.211265      -305.0740
   9   2.0000      -1.184206       -32.2239
  10   2.0000      -1.063614       -28.9424
  11   2.0000      -1.031097       -28.0576
  12   2.0000      -0.935166       -25.4472
  13   2.0000      -0.905869       -24.6499
  14   2.0000      -0.862036       -23.4572
  15   2.0000      -0.771528       -20.9943
  16   2.0000      -0.733661       -19.9639
  17   2.0000      -0.701043       -19.0764
  18   2.0000      -0.687689       -18.7130
  19   2.0000      -0.630323       -17.1520
  20   2.0000      -0.618848       -16.8397
  21   2.0000      -0.587588       -15.9891
  22   2.0000      -0.569262       -15.4904
  23   2.0000      -0.549054       -14.9405
  24   2.0000      -0.530497       -14.4355
  25   2.0000      -0.515854       -14.0371
  26   2.0000      -0.494026       -13.4431
  27   2.0000      -0.477791       -13.0014
  28   2.0000      -0.463187       -12.6040
  29   2.0000      -0.449148       -12.2219
  30   2.0000      -0.436886       -11.8883
  31   2.0000      -0.429349       -11.6832
  32   2.0000      -0.383505       -10.4357
  33   2.0000      -0.361847        -9.8464
  34   0.0000       0.135383         3.6840
  35   0.0000       0.158368         4.3094
  36   0.0000       0.159840         4.3495
  37   0.0000       0.165156         4.4941
  38   0.0000       0.190805         5.1921

MULLIKEN ATOMIC CHARGES
-----------------------
   0 C :   -0.276853
   1 C :   -0.128094
   2 C :   -0.130934
   3 C :   -0.240892
   4 C :   -0.187202
   5 C :   -0.240806
   6 C :   -0.235356
   7 C :   -0.032165
   8 C :   -0.134816
   9 H :    0.114346
  10 H :    0.122432
  11 H :    0.124344
  12 H :    0.113473
  13 H :    0.122995
  14 H :    0.121142
  15 H :    0.103070
  16 H :    0.117555
  17 H :    0.122146
  18 H :    0.104790
  19 H :    0.105478
  20 H :    0.113343
  21 H :    0.100629
  22 H :    0.121376
Sum of atomic charges:    0.0000000

LOEWDIN ATOMIC CHARGES
----------------------
   0 C :   -0.193235
   1 C :   -0.165567
   2 C :   -0.193353
   3 C :   -0.247085
   4 C :   -0.263305
   5 C :   -0.271215
   6 C :   -0.254255
   7 C :   -0.206408
   8 C :   -0.151191
   9 H :    0.125643
  10 H :    0.132712
  11 H :    0.131831
  12 H :    0.157452
  13 H :    0.140843
  14 H :    0.140551
  15 H :    0.138547
  16 H :    0.136667
  17 H :    0.137797
  18 H :    0.135373
  19 H :    0.141939
  20 H :    0.139389
  21 H :    0.154421
  22 H :    0.132449

  Mayer bond orders larger than 0.1
B(  0-C ,  1-C ) :   0.9294 B(  0-C ,  7-C ) :   0.9508 B(  0-C ,  9-H ) :   0.9267
B(  0-C , 10-H ) :   0.9261 B(  1-C ,  2-C ) :   0.8926 B(  1-C ,  8-C ) :   0.8169
B(  1-C , 11-H ) :   0.9243 B(  2-C ,  3-C ) :   0.8990 B(  2-C ,  8-C ) :   0.8770
B(  2-C , 12-H ) :   0.9327 B(  3-C ,  4-C ) :   0.9238 B(  3-C , 13-H ) :   0.9322
B(  3-C , 14-H ) :   0.9416 B(  4-C ,  5-C ) :   0.9171 B(  4-C , 15-H ) :   0.9279
B(  4-C , 16-H ) :   0.9322 B(  5-C ,  6-C ) :   0.9433 B(  5-C , 17-H ) :   0.9327
B(  5-C , 18-H ) :   0.9347 B(  6-C ,  7-C ) :   0.9109 B(  6-C , 19-H ) :   0.9286
B(  6-C , 20-H ) :   0.9259 B(  7-C ,  8-C ) :   0.9283 B(  7-C , 21-H ) :   0.9248
B(  8-C , 22-H ) :   0.9276

MP2 TOTAL ENERGY:     -350.494775307 Eh
FINAL SINGLE POINT ENERGY      -350.494775307135

DIPOLE MOMENT
-------------
                                X             Y             Z
Electronic contribution:      2.13569       0.43831      -2.76447
Nuclear contribution   :     -2.13202      -0.47569       2.72905
                        -----------------------------------------
Total Dipole Moment    :      0.00367      -0.03738      -0.03542
                        -----------------------------------------
Magnitude (a.u.)       :      0.05162
Magnitude (Debye)      :      0.13122

                             ****ORCA TERMINATED NORMALLY****
TOTAL RUN TIME: 0 days 0 hours 22 minutes 39 seconds 341 msec
