                         Program Version 3.0.3 - RELEASE   -
|  1> ! RI-MP2 RIJK def2-TZVP def2-TZVP/C def2-TZVP/JK TIGHTSCF
|  2> % maxcore 2000
|  3> % mp2 density relaxed end
|  4> *xyz 0 1
|  5>  C        0.2377837655     1.5956127319     0.3797512552
|  6>  C       -0.0225367061     0.1179557780     0.0619544996
|  7>  C        0.6432404182    -0.4090368892    -1.2201931692
|  8>  C        2.2337951583    -0.4345765911    -1.2438781009
|  9>  C        2.1501724478    -1.9568156806    -1.3965816704
| 10>  O        1.4268856551    -2.4645292807    -0.2687417536
| 11>  C        0.6817817110    -1.9458533745    -1.3747686773
| 12>  C        0.1264925485     0.2679563666    -2.4644469904
| 13>  O       -0.3945800556    -0.3064525299    -3.3891084715
| 14>  H        1.3100452018     1.8133091451     0.4265948452
| 15>  H       -0.2058729506     2.2678044541    -0.3609815968
| 16>  H       -0.1927685590     1.8540748921     1.3517260233
| 17>  H        0.3478906597    -0.5051045200     0.8820999386
| 18>  H       -1.1036190060    -0.0611446416    -0.0029603363
| 19>  H        2.6570252280     0.0684451598    -2.1180296520
| 20>  H        2.7346533135    -0.0793566721    -0.3400773461
| 21>  H        2.8447778200    -2.6285254601    -1.8863460488
| 22>  H       -0.0462488939    -2.5899514480    -1.8497975193
| 23>  H        0.2709903136     1.3714324805    -2.4922080592
| 24> *
| 25>
| 26>                          ****END OF INPUT****

CARTESIAN COORDINATES (ANGSTROEM)
---------------------------------
  C      0.237784    1.595613    0.379751
  C     -0.022537    0.117956    0.061954
  C      0.643240   -0.409037   -1.220193
  C      2.233795   -0.434577   -1.243878
  C      2.150172   -1.956816   -1.396582
  O      1.426886   -2.464529   -0.268742
  C      0.681782   -1.945853   -1.374769
  C      0.126493    0.267956   -2.464447
  O     -0.394580   -0.306453   -3.389108
  H      1.310045    1.813309    0.426595
  H     -0.205873    2.267804   -0.360982
  H     -0.192769    1.854075    1.351726
  H      0.347891   -0.505105    0.882100
  H     -1.103619   -0.061145   -0.002960
  H      2.657025    0.068445   -2.118030
  H      2.734653   -0.079357   -0.340077
  H      2.844778   -2.628525   -1.886346
  H     -0.046249   -2.589951   -1.849798
  H      0.270990    1.371432   -2.492208

 Total Charge           Charge          ....    0
 Multiplicity           Mult            ....    1
 Number of Electrons    NEL             ....   68
 Basis Dimension        Dim             ....  339

ORBITAL ENERGIES
----------------

  NO   OCC          E(Eh)            E(eV)
   0   2.0000     -20.574825      -559.8695
   1   2.0000     -20.563874      -559.5715
   2   2.0000     -11.336976      -308.4948
   3   2.0000     -11.294591      -307.3414
   4   2.0000     -11.290967      -307.2428
   5   2.0000     -11.262815      -306.4768
   6   2.0000     -11.252469      -306.1953
   7   2.0000     -11.237915      -305.7992
   8   2.0000     -11.229182      -305.5616
   9   2.0000      -1.427029       -38.8314
  10   2.0000      -1.401731       -38.1430
  11   2.0000      -1.126263       -30.6472
  12   2.0000      -1.034289       -28.1444
  13   2.0000      -0.946088       -25.7443
  14   2.0000      -0.894456       -24.3394
  15   2.0000      -0.859844       -23.3975
  16   2.0000      -0.821458       -22.3530
  17   2.0000      -0.744021       -20.2458
  18   2.0000      -0.721150       -19.6235
  19   2.0000      -0.671118       -18.2621
  20   2.0000      -0.641913       -17.4674
  21   2.0000      -0.630510       -17.1571
  22   2.0000      -0.621225       -16.9044
  23   2.0000      -0.587721       -15.9927
  24   2.0000      -0.562428       -15.3045
  25   2.0000      -0.554369       -15.0851
  26   2.0000      -0.532790       -14.4979
  27   2.0000      -0.529863       -14.4183
  28   2.0000      -0.506473       -13.7818
  29   2.0000      -0.498825       -13.5737
  30   2.0000      -0.477116       -12.9830
  31   2.0000      -0.440864       -11.9965
  32   2.0000      -0.420133       -11.4324
  33   2.0000      -0.407287       -11.0828
  34   0.0000       0.122088         3.3222
  35   0.0000       0.133168         3.6237
  36   0.0000       0.162383         4.4187
  37   0.0000       0.168042         4.5727
  38   0.0000       0.171408         4.6642

MULLIKEN ATOMIC CHARGES
-----------------------
   0 C :   -0.418031
   1 C :   -0.278032
   2 C :    0.273761
   3 C :   -0.254009
   4 C :   -0.049675
   5 O :   -0.325656
   6 C :   -0.006391
   7 C :   -0.006410
   8 O :   -0.265350
   9 H :    0.130510
  10 H :    0.130283
  11 H :    0.143962
  12 H :    0.147228
  13 H :    0.124792
  14 H :    0.134496
  15 H :    0.123192
  16 H :    0.141535
  17 H :    0.156828
  18 H :    0.096967
Sum of atomic charges:   -0.0000000

LOEWDIN ATOMIC CHARGES
----------------------
   0 C :   -0.314184
   1 C :   -0.243476
   2 C :   -0.236183
   3 C :   -0.165979
   4 C :   -0.237824
   5 O :    0.177252
   6 C :   -0.198293
   7 C :   -0.251046
   8 O :    0.140832
   9 H :    0.122100
  10 H :    0.118901
  11 H :    0.125702
  12 H :    0.150982
  13 H :    0.144565
  14 H :    0.142407
  15 H :    0.136565
  16 H :    0.131450
  17 H :    0.137664
  18 H :    0.118567

  Mayer bond orders larger than 0.1
B(  0-C ,  1-C ) :   0.9110 B(  0-C ,  9-H ) :   0.9384 B(  0-C , 10-H ) :   0.9376
B(  0-C , 11-H ) :   0.9405 B(  1-C ,  2-C ) :   0.8701 B(  1-C , 12-H ) :   0.9333
B(  1-C , 13-H ) :   0.9282 B(  2-C ,  3-C ) :   0.9029 B(  2-C ,  6-C ) :   0.8403
B(  2-C ,  7-C ) :   0.8186 B(  3-C ,  4-C ) :   0.9264 B(  3-C , 14-H ) :   0.9072
B(  3-C , 15-H ) :   0.8978 B(  4-C ,  5-O ) :   0.9442 B(  4-C ,  6-C ) :   0.9290
B(  4-C , 16-H ) :   0.9283 B(  5-O ,  6-C ) :   0.8758 B(  6-C , 17-H ) :   0.9060
B(  7-C ,  8-O ) :   2.0064 B(  7-C , 18-H ) :   0.9598

MP2 TOTAL ENERGY:     -422.283581355 Eh
FINAL SINGLE POINT ENERGY      -422.283581354758

DIPOLE MOMENT
-------------
                                X             Y             Z
Electronic contribution:     -0.33811      -6.41568      -5.01206
Nuclear contribution   :      0.79765       7.04759       5.30090
                        -----------------------------------------
Total Dipole Moment    :      0.45954       0.63191       0.28884
                        -----------------------------------------
Magnitude (a.u.)       :      0.83302
Magnitude (Debye)      :      2.11736

                             ****ORCA TERMINATED NORMALLY****
TOTAL RUN TIME: 0 days 0 hours 19 minutes 19 seconds 68 msec
