                         Program Version 3.0.3 - RELEASE   -
|  1> ! RI-MP2 RIJK def2-TZVP def2-TZVP/C def2-TZVP/JK TIGHTSCF
|  2> % maxcore 2000
|  3> % mp2 density relaxed end
|  4> *xyz 0 1
|  5>  N        0.0474278085     1.3920808437     0.1017641490
|  6>  C        0.0121034639    -0.0071858500     0.0323069693
|  7>  C       -1.0364255758    -0.8165124488    -0.2921773958
|  8>  O       -0.6290564343    -2.1276953771    -0.3275308704
|  9>  C        0.6906519284    -2.1432065470    -0.0248115751
| 10>  C        1.3728560335    -3.4738308524     0.0043906882
| 11>  O        2.4902883368    -3.4792336325     0.8758068068
| 12>  C        1.1411606802    -0.8796131722     0.2078153560
| 13>  H        0.6724394095     1.7312602239     0.8213059018
| 14>  H       -0.8663516228     1.8063602695     0.2308932725
| 15>  H       -2.0730650131    -0.6368361925    -0.5206618541
| 16>  H        0.6319693818    -4.2472574337     0.2608415972
| 17>  H        1.7735130684    -3.7339665018    -0.9831724065
| 18>  H        2.1799032040    -3.1830762180     1.7384128878
| 19>  H        2.1537185009    -0.5981324911     0.4515341332
| 20> *
| 21>
| 22>                          ****END OF INPUT****

CARTESIAN COORDINATES (ANGSTROEM)
---------------------------------
  N      0.047428    1.392081    0.101764
  C      0.012103   -0.007186    0.032307
  C     -1.036426   -0.816512   -0.292177
  O     -0.629056   -2.127695   -0.327531
  C      0.690652   -2.143207   -0.024812
  C      1.372856   -3.473831    0.004391
  O      2.490288   -3.479234    0.875807
  C      1.141161   -0.879613    0.207815
  H      0.672439    1.731260    0.821306
  H     -0.866352    1.806360    0.230893
  H     -2.073065   -0.636836   -0.520662
  H      0.631969   -4.247257    0.260842
  H      1.773513   -3.733967   -0.983172
  H      2.179903   -3.183076    1.738413
  H      2.153719   -0.598132    0.451534

 Total Charge           Charge          ....    0
 Multiplicity           Mult            ....    1
 Number of Electrons    NEL             ....   60
 Basis Dimension        Dim             ....  290

ORBITAL ENERGIES
----------------

  NO   OCC          E(Eh)            E(eV)
   0   2.0000     -20.614225      -560.9416
   1   2.0000     -20.566040      -559.6304
   2   2.0000     -15.566720      -423.5920
   3   2.0000     -11.293861      -307.3216
   4   2.0000     -11.292727      -307.2907
   5   2.0000     -11.269475      -306.6580
   6   2.0000     -11.264075      -306.5111
   7   2.0000     -11.223009      -305.3936
   8   2.0000      -1.452083       -39.5132
   9   2.0000      -1.370826       -37.3021
  10   2.0000      -1.214452       -33.0469
  11   2.0000      -1.062005       -28.8986
  12   2.0000      -1.023335       -27.8464
  13   2.0000      -0.918790       -25.0015
  14   2.0000      -0.797022       -21.6881
  15   2.0000      -0.777722       -21.1629
  16   2.0000      -0.729689       -19.8558
  17   2.0000      -0.686121       -18.6703
  18   2.0000      -0.661183       -17.9917
  19   2.0000      -0.643411       -17.5081
  20   2.0000      -0.633238       -17.2313
  21   2.0000      -0.603568       -16.4239
  22   2.0000      -0.594562       -16.1789
  23   2.0000      -0.563589       -15.3360
  24   2.0000      -0.531130       -14.4528
  25   2.0000      -0.516168       -14.0456
  26   2.0000      -0.497482       -13.5372
  27   2.0000      -0.467001       -12.7078
  28   2.0000      -0.361826        -9.8458
  29   2.0000      -0.297065        -8.0836
  30   0.0000       0.129152         3.5144
  31   0.0000       0.137764         3.7487
  32   0.0000       0.152939         4.1617
  33   0.0000       0.175022         4.7626
  34   0.0000       0.180876         4.9219

MULLIKEN ATOMIC CHARGES
-----------------------
   0 N :   -0.520311
   1 C :    0.216791
   2 C :   -0.123656
   3 O :   -0.226764
   4 C :    0.135655
   5 C :   -0.015262
   6 O :   -0.469933
   7 C :   -0.342240
   8 H :    0.249801
   9 H :    0.242965
  10 H :    0.139898
  11 H :    0.125888
  12 H :    0.127596
  13 H :    0.317368
  14 H :    0.142203
Sum of atomic charges:    0.0000000

LOEWDIN ATOMIC CHARGES
----------------------
   0 N :   -0.091101
   1 C :   -0.288044
   2 C :   -0.246496
   3 O :    0.348002
   4 C :   -0.278611
   5 C :   -0.312586
   6 O :   -0.038051
   7 C :   -0.148762
   8 H :    0.168065
   9 H :    0.167028
  10 H :    0.129449
  11 H :    0.128478
  12 H :    0.139072
  13 H :    0.176057
  14 H :    0.147499

  Mayer bond orders larger than 0.1
B(  0-N ,  1-C ) :   0.9923 B(  0-N ,  8-H ) :   0.8772 B(  0-N ,  9-H ) :   0.8830
B(  1-C ,  2-C ) :   1.5214 B(  1-C ,  7-C ) :   1.1674 B(  2-C ,  3-O ) :   1.0015
B(  2-C , 10-H ) :   0.9429 B(  3-O ,  4-C ) :   1.0685 B(  4-C ,  5-C ) :   0.8846
B(  4-C ,  7-C ) :   1.5323 B(  5-C ,  6-O ) :   0.9283 B(  5-C , 11-H ) :   0.9597
B(  5-C , 12-H ) :   0.9130 B(  6-O , 13-H ) :   0.8402 B(  7-C , 14-H ) :   0.9257

MP2 TOTAL ENERGY:     -399.160450091 Eh
FINAL SINGLE POINT ENERGY      -399.160450091289

DIPOLE MOMENT
-------------
                                X             Y             Z
Electronic contribution:     -1.18286      -0.77910      -0.54954
Nuclear contribution   :      0.65493       1.36207       1.22223
                        -----------------------------------------
Total Dipole Moment    :     -0.52792       0.58297       0.67269
                        -----------------------------------------
Magnitude (a.u.)       :      1.03493
Magnitude (Debye)      :      2.63057

                             ****ORCA TERMINATED NORMALLY****
TOTAL RUN TIME: 0 days 0 hours 10 minutes 10 seconds 12 msec
