                         Program Version 3.0.3 - RELEASE   -
|  1> ! RI-MP2 RIJK def2-TZVP def2-TZVP/C def2-TZVP/JK TIGHTSCF
|  2> % maxcore 2000
|  3> % mp2 density relaxed end
|  4> *xyz 0 1
|  5>  C       -0.1518911205     1.4803342972    -0.1986941929
|  6>  C       -0.0930567802    -0.0037639335    -0.1100478249
|  7>  C       -1.0509794597    -0.9721753569     0.0258575076
|  8>  C       -2.5433390202    -0.7970231093     0.0991472610
|  9>  C       -3.0661991611    -0.3196209482    -1.2472871242
| 10>  O       -3.4760398000     0.7929313202    -1.4570221393
| 11>  C       -0.2894057141    -2.1737862216     0.0553280833
| 12>  N        0.9970706756    -1.9586307421    -0.0441834861
| 13>  O        1.1230300018    -0.5742487920    -0.1495287442
| 14>  H        0.2286594085     1.9431974279     0.7186910631
| 15>  H        0.4626498656     1.8408416102    -1.0289087756
| 16>  H       -1.1802712261     1.8101044888    -0.3568530520
| 17>  H       -3.0122007719    -1.7571734100     0.3426914745
| 18>  H       -2.8347153189    -0.0671135499     0.8596661970
| 19>  H       -3.0021418379    -1.0755575806    -2.0614190907
| 20>  H       -0.6466506710    -3.1903475002     0.1521008435
| 21> *
| 22>
| 23>                          ****END OF INPUT****

CARTESIAN COORDINATES (ANGSTROEM)
---------------------------------
  C     -0.151891    1.480334   -0.198694
  C     -0.093057   -0.003764   -0.110048
  C     -1.050979   -0.972175    0.025858
  C     -2.543339   -0.797023    0.099147
  C     -3.066199   -0.319621   -1.247287
  O     -3.476040    0.792931   -1.457022
  C     -0.289406   -2.173786    0.055328
  N      0.997071   -1.958631   -0.044183
  O      1.123030   -0.574249   -0.149529
  H      0.228659    1.943197    0.718691
  H      0.462650    1.840842   -1.028909
  H     -1.180271    1.810104   -0.356853
  H     -3.012201   -1.757173    0.342691
  H     -2.834715   -0.067114    0.859666
  H     -3.002142   -1.075558   -2.061419
  H     -0.646651   -3.190348    0.152101

 Total Charge           Charge          ....    0
 Multiplicity           Mult            ....    1
 Number of Electrons    NEL             ....   66
 Basis Dimension        Dim             ....  321

ORBITAL ENERGIES
----------------

  NO   OCC          E(Eh)            E(eV)
   0   2.0000     -20.647619      -561.8503
   1   2.0000     -20.570355      -559.7478
   2   2.0000     -15.625566      -425.1933
   3   2.0000     -11.346703      -308.7595
   4   2.0000     -11.327459      -308.2358
   5   2.0000     -11.286400      -307.1186
   6   2.0000     -11.267782      -306.6119
   7   2.0000     -11.252687      -306.2012
   8   2.0000     -11.250289      -306.1359
   9   2.0000      -1.498297       -40.7707
  10   2.0000      -1.409975       -38.3674
  11   2.0000      -1.174046       -31.9474
  12   2.0000      -1.123782       -30.5797
  13   2.0000      -1.030154       -28.0319
  14   2.0000      -0.971004       -26.4224
  15   2.0000      -0.835849       -22.7446
  16   2.0000      -0.823265       -22.4022
  17   2.0000      -0.782102       -21.2821
  18   2.0000      -0.704290       -19.1647
  19   2.0000      -0.685776       -18.6609
  20   2.0000      -0.674295       -18.3485
  21   2.0000      -0.641256       -17.4495
  22   2.0000      -0.618270       -16.8240
  23   2.0000      -0.603527       -16.4228
  24   2.0000      -0.582551       -15.8520
  25   2.0000      -0.574766       -15.6402
  26   2.0000      -0.571068       -15.5395
  27   2.0000      -0.548911       -14.9366
  28   2.0000      -0.519826       -14.1452
  29   2.0000      -0.482293       -13.1239
  30   2.0000      -0.447668       -12.1817
  31   2.0000      -0.425541       -11.5796
  32   2.0000      -0.356270        -9.6946
  33   0.0000       0.108944         2.9645
  34   0.0000       0.118429         3.2226
  35   0.0000       0.132421         3.6033
  36   0.0000       0.147585         4.0160
  37   0.0000       0.170802         4.6478

MULLIKEN ATOMIC CHARGES
-----------------------
   0 C :   -0.428434
   1 C :    0.133325
   2 C :   -0.072951
   3 C :   -0.170266
   4 C :    0.113314
   5 O :   -0.266385
   6 C :   -0.110147
   7 N :   -0.111731
   8 O :   -0.100441
   9 H :    0.157540
  10 H :    0.160846
  11 H :    0.170850
  12 H :    0.143117
  13 H :    0.142121
  14 H :    0.091498
  15 H :    0.147746
Sum of atomic charges:    0.0000000

LOEWDIN ATOMIC CHARGES
----------------------
   0 C :   -0.262349
   1 C :   -0.267180
   2 C :   -0.181871
   3 C :   -0.219058
   4 C :   -0.284679
   5 O :    0.133884
   6 C :   -0.251487
   7 N :    0.036988
   8 O :    0.298169
   9 H :    0.140442
  10 H :    0.142436
  11 H :    0.143344
  12 H :    0.157847
  13 H :    0.155493
  14 H :    0.114177
  15 H :    0.143844

  Mayer bond orders larger than 0.1
B(  0-C ,  1-C ) :   0.8639 B(  0-C ,  9-H ) :   0.9217 B(  0-C , 10-H ) :   0.9301
B(  0-C , 11-H ) :   0.9399 B(  1-C ,  2-C ) :   1.4892 B(  1-C ,  7-N ) :   0.1119
B(  1-C ,  8-O ) :   1.1411 B(  2-C ,  3-C ) :   0.8676 B(  2-C ,  6-C ) :   1.2087
B(  3-C ,  4-C ) :   0.8709 B(  3-C , 12-H ) :   0.9199 B(  3-C , 13-H ) :   0.9094
B(  4-C ,  5-O ) :   1.9719 B(  4-C , 14-H ) :   0.9296 B(  6-C ,  7-N ) :   1.6019
B(  6-C , 15-H ) :   0.9263 B(  7-N ,  8-O ) :   0.8825

MP2 TOTAL ENERGY:     -437.163324007 Eh
FINAL SINGLE POINT ENERGY      -437.163324007446

DIPOLE MOMENT
-------------
                                X             Y             Z
Electronic contribution:      2.36603      -2.76967      -0.67346
Nuclear contribution   :     -3.05635       2.58210       1.02074
                        -----------------------------------------
Total Dipole Moment    :     -0.69032      -0.18757       0.34728
                        -----------------------------------------
Magnitude (a.u.)       :      0.79519
Magnitude (Debye)      :      2.02121

                             ****ORCA TERMINATED NORMALLY****
TOTAL RUN TIME: 0 days 0 hours 16 minutes 13 seconds 561 msec
