                         Program Version 3.0.3 - RELEASE   -
|  1> ! RI-MP2 RIJK def2-TZVP def2-TZVP/C def2-TZVP/JK TIGHTSCF
|  2> % maxcore 2000
|  3> % mp2 density relaxed end
|  4> *xyz 0 1
|  5>  C       -0.8520517893     1.0948848627    -1.1871460719
|  6>  C        0.0272294299    -0.0758084649    -0.7984611595
|  7>  O        1.3852369804     0.0558426801    -1.2902250867
|  8>  C        1.9358273687    -0.3533175055    -0.0183479585
|  9>  C        3.0928421310     0.5235127545     0.4227274878
| 10>  C        0.5408288827    -0.2552890726     0.6565413131
| 11>  C        0.3084546323     0.8842914307     1.6315020139
| 12>  O       -1.0628503078     0.8401022759     2.0072991973
| 13>  H       -0.4118009761     2.0459305864    -0.8754339948
| 14>  H       -0.9727002289     1.1221434683    -2.2747780700
| 15>  H       -1.8379114412     0.9979323799    -0.7242890299
| 16>  H       -0.4197985404    -1.0077570137    -1.1754679545
| 17>  H        2.2771932299    -1.3985808688    -0.0719440865
| 18>  H        2.7993503438     1.5736442299     0.5009645078
| 19>  H        3.4855169856     0.1919527865     1.3900806726
| 20>  H        3.9022067400     0.4552804078    -0.3111286072
| 21>  H        0.2033994111    -1.1785085741     1.1338477728
| 22>  H        0.9643542844     0.7552092893     2.5076393146
| 23>  H        0.5620908144     1.8522231504     1.1759270004
| 24>  H       -1.2432577204     1.5925879073     2.5783229691
| 25> *
| 26>
| 27>                          ****END OF INPUT****

CARTESIAN COORDINATES (ANGSTROEM)
---------------------------------
  C     -0.852052    1.094885   -1.187146
  C      0.027229   -0.075808   -0.798461
  O      1.385237    0.055843   -1.290225
  C      1.935827   -0.353318   -0.018348
  C      3.092842    0.523513    0.422727
  C      0.540829   -0.255289    0.656541
  C      0.308455    0.884291    1.631502
  O     -1.062850    0.840102    2.007299
  H     -0.411801    2.045931   -0.875434
  H     -0.972700    1.122143   -2.274778
  H     -1.837911    0.997932   -0.724289
  H     -0.419799   -1.007757   -1.175468
  H      2.277193   -1.398581   -0.071944
  H      2.799350    1.573644    0.500965
  H      3.485517    0.191953    1.390081
  H      3.902207    0.455280   -0.311129
  H      0.203399   -1.178509    1.133848
  H      0.964354    0.755209    2.507639
  H      0.562091    1.852223    1.175927
  H     -1.243258    1.592588    2.578323

 Total Charge           Charge          ....    0
 Multiplicity           Mult            ....    1
 Number of Electrons    NEL             ....   64
 Basis Dimension        Dim             ....  320

ORBITAL ENERGIES
----------------

  NO   OCC          E(Eh)            E(eV)
   0   2.0000     -20.561063      -559.4950
   1   2.0000     -20.537330      -558.8492
   2   2.0000     -11.280969      -306.9708
   3   2.0000     -11.280001      -306.9444
   4   2.0000     -11.275470      -306.8211
   5   2.0000     -11.228250      -305.5362
   6   2.0000     -11.217683      -305.2487
   7   2.0000     -11.208037      -304.9862
   8   2.0000      -1.372268       -37.3413
   9   2.0000      -1.363060       -37.0907
  10   2.0000      -1.050100       -28.5747
  11   2.0000      -1.023868       -27.8609
  12   2.0000      -0.962344       -26.1867
  13   2.0000      -0.888372       -24.1738
  14   2.0000      -0.820764       -22.3341
  15   2.0000      -0.730812       -19.8864
  16   2.0000      -0.712137       -19.3782
  17   2.0000      -0.680307       -18.5121
  18   2.0000      -0.629226       -17.1221
  19   2.0000      -0.616724       -16.7819
  20   2.0000      -0.615136       -16.7387
  21   2.0000      -0.582830       -15.8596
  22   2.0000      -0.563088       -15.3224
  23   2.0000      -0.551588       -15.0095
  24   2.0000      -0.536825       -14.6078
  25   2.0000      -0.511475       -13.9179
  26   2.0000      -0.506201       -13.7744
  27   2.0000      -0.492936       -13.4135
  28   2.0000      -0.465665       -12.6714
  29   2.0000      -0.443072       -12.0566
  30   2.0000      -0.427753       -11.6397
  31   2.0000      -0.402069       -10.9409
  32   0.0000       0.128731         3.5029
  33   0.0000       0.144308         3.9268
  34   0.0000       0.158695         4.3183
  35   0.0000       0.171749         4.6735
  36   0.0000       0.197641         5.3781

MULLIKEN ATOMIC CHARGES
-----------------------
   0 C :   -0.361031
   1 C :    0.041410
   2 O :   -0.322331
   3 C :    0.046555
   4 C :   -0.387199
   5 C :    0.023758
   6 C :   -0.154124
   7 O :   -0.468489
   8 H :    0.107897
   9 H :    0.137566
  10 H :    0.138940
  11 H :    0.075084
  12 H :    0.076752
  13 H :    0.119505
  14 H :    0.128198
  15 H :    0.143569
  16 H :    0.114920
  17 H :    0.109080
  18 H :    0.113491
  19 H :    0.316451
Sum of atomic charges:   -0.0000000

LOEWDIN ATOMIC CHARGES
----------------------
   0 C :   -0.296492
   1 C :   -0.281386
   2 O :    0.150827
   3 C :   -0.287973
   4 C :   -0.297691
   5 C :   -0.204505
   6 C :   -0.332093
   7 O :   -0.043384
   8 H :    0.122016
   9 H :    0.127643
  10 H :    0.131691
  11 H :    0.135113
  12 H :    0.134818
  13 H :    0.122743
  14 H :    0.126952
  15 H :    0.130851
  16 H :    0.149476
  17 H :    0.120226
  18 H :    0.118642
  19 H :    0.172526

  Mayer bond orders larger than 0.1
B(  0-C ,  1-C ) :   0.9243 B(  0-C ,  8-H ) :   0.9350 B(  0-C ,  9-H ) :   0.9312
B(  0-C , 10-H ) :   0.9267 B(  1-C ,  2-O ) :   0.9626 B(  1-C ,  5-C ) :   0.9248
B(  1-C , 11-H ) :   0.9219 B(  2-O ,  3-C ) :   0.9689 B(  3-C ,  4-C ) :   0.9065
B(  3-C ,  5-C ) :   0.9096 B(  3-C , 12-H ) :   0.9235 B(  4-C , 13-H ) :   0.9349
B(  4-C , 14-H ) :   0.9319 B(  4-C , 15-H ) :   0.9327 B(  5-C ,  6-C ) :   0.8895
B(  5-C , 16-H ) :   0.9145 B(  6-C ,  7-O ) :   1.0050 B(  6-C , 17-H ) :   0.9239
B(  6-C , 18-H ) :   0.9376 B(  7-O , 19-H ) :   0.8472

MP2 TOTAL ENERGY:     -385.493697596 Eh
FINAL SINGLE POINT ENERGY      -385.493697595906

DIPOLE MOMENT
-------------
                                X             Y             Z
Electronic contribution:     -1.35253      -2.06125      -0.47733
Nuclear contribution   :      1.42714       2.38144       1.30883
                        -----------------------------------------
Total Dipole Moment    :      0.07461       0.32020       0.83150
                        -----------------------------------------
Magnitude (a.u.)       :      0.89414
Magnitude (Debye)      :      2.27272

                             ****ORCA TERMINATED NORMALLY****
TOTAL RUN TIME: 0 days 0 hours 12 minutes 47 seconds 609 msec
