                         Program Version 3.0.3 - RELEASE   -
|  1> ! RI-MP2 RIJK def2-TZVP def2-TZVP/C def2-TZVP/JK TIGHTSCF
|  2> % maxcore 2000
|  3> % mp2 density relaxed end
|  4> *xyz 0 1
|  5>  C        0.0935239090     1.5419268409     0.1063394573
|  6>  C        0.0998478623     0.0476516478     0.0020244540
|  7>  C       -0.9306350964    -0.9032261843     0.5272851055
|  8>  C        0.5195076426    -1.0088519605     1.0118396430
|  9>  C        1.3575148874    -1.6312512445    -0.0917085928
| 10>  O        2.1137782858    -2.5465521319    -0.1929518644
| 11>  N        0.9123822322    -0.6431880064    -1.0198182780
| 12>  C        0.7545595572    -0.6204164015    -2.3941497897
| 13>  N        1.3346765696    -1.4393352350    -3.1715694003
| 14>  H        1.1135092447     1.9376355543     0.0896676204
| 15>  H       -0.4643062413     1.9993499197    -0.7183998831
| 16>  H       -0.3865419004     1.8531555313     1.0382980683
| 17>  H       -1.6202904529    -0.5086191993     1.2685066756
| 18>  H       -1.3444222814    -1.6748850307    -0.1146129224
| 19>  H        0.8008745882    -0.8998536948     2.0492207930
| 20>  H        0.0938079667     0.2010969939    -2.7033623668
| 21>  H        1.0937128564    -1.2303187792    -4.1388500195
| 22> *
| 23>
| 24>                          ****END OF INPUT****

CARTESIAN COORDINATES (ANGSTROEM)
---------------------------------
  C      0.093524    1.541927    0.106339
  C      0.099848    0.047652    0.002024
  C     -0.930635   -0.903226    0.527285
  C      0.519508   -1.008852    1.011840
  C      1.357515   -1.631251   -0.091709
  O      2.113778   -2.546552   -0.192952
  N      0.912382   -0.643188   -1.019818
  C      0.754560   -0.620416   -2.394150
  N      1.334677   -1.439335   -3.171569
  H      1.113509    1.937636    0.089668
  H     -0.464306    1.999350   -0.718400
  H     -0.386542    1.853156    1.038298
  H     -1.620290   -0.508619    1.268507
  H     -1.344422   -1.674885   -0.114613
  H      0.800875   -0.899854    2.049221
  H      0.093808    0.201097   -2.703362
  H      1.093713   -1.230319   -4.138850

 Total Charge           Charge          ....    0
 Multiplicity           Mult            ....    1
 Number of Electrons    NEL             ....   66
 Basis Dimension        Dim             ....  327

ORBITAL ENERGIES
----------------

  NO   OCC          E(Eh)            E(eV)
   0   2.0000     -20.544252      -559.0375
   1   2.0000     -15.601160      -424.5292
   2   2.0000     -15.540361      -422.8747
   3   2.0000     -11.367547      -309.3267
   4   2.0000     -11.324388      -308.1523
   5   2.0000     -11.308301      -307.7145
   6   2.0000     -11.266906      -306.5881
   7   2.0000     -11.263704      -306.5010
   8   2.0000     -11.251289      -306.1631
   9   2.0000      -1.406942       -38.2848
  10   2.0000      -1.318016       -35.8650
  11   2.0000      -1.214754       -33.0551
  12   2.0000      -1.112870       -30.2827
  13   2.0000      -1.016951       -27.6726
  14   2.0000      -0.939001       -25.5515
  15   2.0000      -0.838521       -22.8173
  16   2.0000      -0.812287       -22.1034
  17   2.0000      -0.731333       -19.9006
  18   2.0000      -0.701356       -19.0849
  19   2.0000      -0.679112       -18.4796
  20   2.0000      -0.659251       -17.9391
  21   2.0000      -0.654808       -17.8182
  22   2.0000      -0.603076       -16.4105
  23   2.0000      -0.598302       -16.2806
  24   2.0000      -0.581820       -15.8321
  25   2.0000      -0.566662       -15.4197
  26   2.0000      -0.550493       -14.9797
  27   2.0000      -0.514032       -13.9875
  28   2.0000      -0.463240       -12.6054
  29   2.0000      -0.453142       -12.3306
  30   2.0000      -0.428037       -11.6475
  31   2.0000      -0.413936       -11.2638
  32   2.0000      -0.363653        -9.8955
  33   0.0000       0.117240         3.1903
  34   0.0000       0.132258         3.5989
  35   0.0000       0.149803         4.0763
  36   0.0000       0.159062         4.3283
  37   0.0000       0.166117         4.5203

MULLIKEN ATOMIC CHARGES
-----------------------
   0 C :   -0.393842
   1 C :    0.075191
   2 C :   -0.232303
   3 C :   -0.177943
   4 C :    0.208829
   5 O :   -0.244373
   6 N :   -0.069934
   7 C :   -0.027902
   8 N :   -0.341641
   9 H :    0.150800
  10 H :    0.139837
  11 H :    0.140271
  12 H :    0.139011
  13 H :    0.153932
  14 H :    0.158424
  15 H :    0.100748
  16 H :    0.220894
Sum of atomic charges:    0.0000000

LOEWDIN ATOMIC CHARGES
----------------------
   0 C :   -0.264048
   1 C :   -0.240264
   2 C :   -0.162632
   3 C :   -0.122204
   4 C :   -0.351201
   5 O :    0.170389
   6 N :    0.249948
   7 C :   -0.332029
   8 N :   -0.070713
   9 H :    0.136293
  10 H :    0.131147
  11 H :    0.137355
  12 H :    0.144112
  13 H :    0.140955
  14 H :    0.146760
  15 H :    0.120782
  16 H :    0.165350

  Mayer bond orders larger than 0.1
B(  0-C ,  1-C ) :   0.9102 B(  0-C ,  9-H ) :   0.9354 B(  0-C , 10-H ) :   0.9295
B(  0-C , 11-H ) :   0.9283 B(  1-C ,  2-C ) :   0.9101 B(  1-C ,  3-C ) :   0.8280
B(  1-C ,  6-N ) :   0.9070 B(  2-C ,  3-C ) :   0.8425 B(  2-C , 12-H ) :   0.9206
B(  2-C , 13-H ) :   0.9094 B(  3-C ,  4-C ) :   0.9325 B(  3-C , 14-H ) :   0.9095
B(  4-C ,  5-O ) :   2.0516 B(  4-C ,  6-N ) :   0.9934 B(  6-N ,  7-C ) :   0.9948
B(  7-C ,  8-N ) :   1.9605 B(  7-C , 15-H ) :   0.9275 B(  8-N , 16-H ) :   0.8547

MP2 TOTAL ENERGY:     -417.287275011 Eh
FINAL SINGLE POINT ENERGY      -417.287275011467

DIPOLE MOMENT
-------------
                                X             Y             Z
Electronic contribution:      4.40296      -5.84184      -1.09474
Nuclear contribution   :     -5.92360       7.53908       1.50145
                        -----------------------------------------
Total Dipole Moment    :     -1.52064       1.69724       0.40671
                        -----------------------------------------
Magnitude (a.u.)       :      2.31482
Magnitude (Debye)      :      5.88380

                             ****ORCA TERMINATED NORMALLY****
TOTAL RUN TIME: 0 days 0 hours 16 minutes 49 seconds 340 msec
