                         Program Version 3.0.3 - RELEASE   -
|  1> ! RI-MP2 RIJK def2-TZVP def2-TZVP/C def2-TZVP/JK TIGHTSCF
|  2> % maxcore 2000
|  3> % mp2 density relaxed end
|  4> *xyz 0 1
|  5>  C        0.1920950000     1.2711395959    -0.2350842094
|  6>  O       -0.0727985361    -0.0875829335     0.1326799814
|  7>  C        0.6850948042    -0.5558590403     1.1470386472
|  8>  O        1.5352450976     0.0769159880     1.7311661818
|  9>  N        0.3282742408    -1.8471395032     1.4304279355
| 10>  C        1.0810978445    -2.6382452132     2.3843058332
| 11>  C        0.1928535003    -3.2143524912     3.4986604443
| 12>  C        1.8223546053    -3.7174152775     1.7007347349
| 13>  N        2.3763409843    -4.5774535508     1.1636170147
| 14>  H        1.2302118774     1.3897392526    -0.5543906966
| 15>  H       -0.4871766602     1.4888504994    -1.0592593533
| 16>  H        0.0009501853     1.9439146264     0.6045335323
| 17>  H       -0.3235810761    -2.3025355835     0.8113777132
| 18>  H        1.8136830960    -1.9486748626     2.8157432074
| 19>  H       -0.5730730204    -3.8763302268     3.0848044801
| 20>  H        0.7940349598    -3.7886562784     4.2080304912
| 21>  H       -0.2974893227    -2.3934930414     4.0266258421
| 22> *
| 23>
| 24>                          ****END OF INPUT****

CARTESIAN COORDINATES (ANGSTROEM)
---------------------------------
  C      0.192095    1.271140   -0.235084
  O     -0.072799   -0.087583    0.132680
  C      0.685095   -0.555859    1.147039
  O      1.535245    0.076916    1.731166
  N      0.328274   -1.847140    1.430428
  C      1.081098   -2.638245    2.384306
  C      0.192854   -3.214352    3.498660
  C      1.822355   -3.717415    1.700735
  N      2.376341   -4.577454    1.163617
  H      1.230212    1.389739   -0.554391
  H     -0.487177    1.488850   -1.059259
  H      0.000950    1.943915    0.604534
  H     -0.323581   -2.302536    0.811378
  H      1.813683   -1.948675    2.815743
  H     -0.573073   -3.876330    3.084804
  H      0.794035   -3.788656    4.208030
  H     -0.297489   -2.393493    4.026626

 Total Charge           Charge          ....    0
 Multiplicity           Mult            ....    1
 Number of Electrons    NEL             ....   68
 Basis Dimension        Dim             ....  327

ORBITAL ENERGIES
----------------

  NO   OCC          E(Eh)            E(eV)
   0   2.0000     -20.615318      -560.9713
   1   2.0000     -20.542360      -558.9860
   2   2.0000     -15.610054      -424.7712
   3   2.0000     -15.578976      -423.9255
   4   2.0000     -11.418264      -310.7068
   5   2.0000     -11.332314      -308.3679
   6   2.0000     -11.294512      -307.3393
   7   2.0000     -11.278414      -306.9013
   8   2.0000     -11.252768      -306.2034
   9   2.0000      -1.479582       -40.2615
  10   2.0000      -1.372866       -37.3576
  11   2.0000      -1.273033       -34.6410
  12   2.0000      -1.221177       -33.2299
  13   2.0000      -1.073529       -29.2122
  14   2.0000      -0.976693       -26.5772
  15   2.0000      -0.913501       -24.8576
  16   2.0000      -0.823351       -22.4045
  17   2.0000      -0.780922       -21.2500
  18   2.0000      -0.734531       -19.9876
  19   2.0000      -0.695300       -18.9201
  20   2.0000      -0.686521       -18.6812
  21   2.0000      -0.643132       -17.5005
  22   2.0000      -0.628104       -17.0916
  23   2.0000      -0.607015       -16.5177
  24   2.0000      -0.585107       -15.9216
  25   2.0000      -0.566482       -15.4148
  26   2.0000      -0.560545       -15.2532
  27   2.0000      -0.548391       -14.9225
  28   2.0000      -0.544997       -14.8301
  29   2.0000      -0.485581       -13.2133
  30   2.0000      -0.480484       -13.0746
  31   2.0000      -0.471578       -12.8323
  32   2.0000      -0.465262       -12.6604
  33   2.0000      -0.429534       -11.6882
  34   0.0000       0.116990         3.1835
  35   0.0000       0.147817         4.0223
  36   0.0000       0.152991         4.1631
  37   0.0000       0.168660         4.5895
  38   0.0000       0.173851         4.7307

MULLIKEN ATOMIC CHARGES
-----------------------
   0 C :   -0.209548
   1 O :   -0.299176
   2 C :    0.438825
   3 O :   -0.389260
   4 N :   -0.353370
   5 C :    0.133967
   6 C :   -0.363326
   7 C :   -0.194970
   8 N :   -0.057368
   9 H :    0.144307
  10 H :    0.144584
  11 H :    0.141042
  12 H :    0.257635
  13 H :    0.173684
  14 H :    0.133482
  15 H :    0.147267
  16 H :    0.152224
Sum of atomic charges:    0.0000000

LOEWDIN ATOMIC CHARGES
----------------------
   0 C :   -0.305342
   1 O :    0.211788
   2 C :   -0.587001
   3 O :    0.080900
   4 N :    0.133543
   5 C :   -0.290650
   6 C :   -0.265044
   7 C :   -0.168141
   8 N :    0.067842
   9 H :    0.115319
  10 H :    0.115555
  11 H :    0.114346
  12 H :    0.196346
  13 H :    0.185280
  14 H :    0.128870
  15 H :    0.134398
  16 H :    0.131992

  Mayer bond orders larger than 0.1
B(  0-C ,  1-O ) :   0.8430 B(  0-C ,  9-H ) :   0.9404 B(  0-C , 10-H ) :   0.9319
B(  0-C , 11-H ) :   0.9409 B(  1-O ,  2-C ) :   1.0986 B(  2-C ,  3-O ) :   1.8564
B(  2-C ,  4-N ) :   1.1581 B(  4-N ,  5-C ) :   0.8322 B(  4-N , 12-H ) :   0.8610
B(  5-C ,  6-C ) :   0.9264 B(  5-C ,  7-C ) :   0.9132 B(  5-C , 13-H ) :   0.9008
B(  6-C , 14-H ) :   0.9197 B(  6-C , 15-H ) :   0.9311 B(  6-C , 16-H ) :   0.9365
B(  7-C ,  8-N ) :   2.8614

MP2 TOTAL ENERGY:     -454.463054278 Eh
FINAL SINGLE POINT ENERGY      -454.463054277881

DIPOLE MOMENT
-------------
                                X             Y             Z
Electronic contribution:      3.19600      -2.53520      -2.16943
Nuclear contribution   :     -4.48712       3.20029       2.38473
                        -----------------------------------------
Total Dipole Moment    :     -1.29111       0.66509       0.21530
                        -----------------------------------------
Magnitude (a.u.)       :      1.46822
Magnitude (Debye)      :      3.73192

                             ****ORCA TERMINATED NORMALLY****
TOTAL RUN TIME: 0 days 0 hours 13 minutes 36 seconds 52 msec
