                         Program Version 3.0.3 - RELEASE   -
|  1> ! RI-MP2 RIJK def2-TZVP def2-TZVP/C def2-TZVP/JK TIGHTSCF
|  2> % maxcore 2000
|  3> % mp2 density relaxed end
|  4> *xyz 0 1
|  5>  C        0.6101860564    -1.1567838654     1.2375367303
|  6>  C        0.1869281299    -0.4109134210    -0.0405848113
|  7>  C        1.2325244028    -0.5841727257    -1.1507274046
|  8>  C       -1.2725910792    -0.7176480206    -0.4311939303
|  9>  C       -2.2537762299     0.1653455248     0.3189523758
| 10>  O       -2.0450788059     1.5187737733    -0.0740707863
| 11>  C       -1.6914742699    -1.0568983098    -1.8457437394
| 12>  C       -1.8179039715    -2.0993188256    -0.7624451643
| 13>  C       -1.0106485837    -3.3800874578    -0.7989346699
| 14>  H        1.5664339300    -0.7734999719     1.6098288713
| 15>  H       -0.1265083794    -1.0378016515     2.0387842095
| 16>  H        0.7316207102    -2.2289930416     1.0564750208
| 17>  H        0.1808217840     0.6601282033     0.1948617185
| 18>  H        1.3483506252    -1.6250920632    -1.4695452735
| 19>  H        0.9815228181     0.0130690937    -2.0317119346
| 20>  H        2.2112348406    -0.2487270035    -0.7907228737
| 21>  H       -3.2838370592    -0.1488140994     0.0902827228
| 22>  H       -2.1095133764     0.0511950930     1.4054012846
| 23>  H       -2.5388650249     2.0842671747     0.5266955462
| 24>  H       -2.5856089078    -0.5874014975    -2.2429057495
| 25>  H       -0.9114681061    -1.2094278422    -2.5833940433
| 26>  H       -2.8323543550    -2.2649194556    -0.4036406675
| 27>  H       -0.0044335774    -3.2309363522    -1.1965994642
| 28>  H       -0.9130923088    -3.8253793112     0.1969608273
| 29>  H       -1.5075361022    -4.1170297672    -1.4406582147
| 30> *
| 31>
| 32>                          ****END OF INPUT****

CARTESIAN COORDINATES (ANGSTROEM)
---------------------------------
  C      0.610186   -1.156784    1.237537
  C      0.186928   -0.410913   -0.040585
  C      1.232524   -0.584173   -1.150727
  C     -1.272591   -0.717648   -0.431194
  C     -2.253776    0.165346    0.318952
  O     -2.045079    1.518774   -0.074071
  C     -1.691474   -1.056898   -1.845744
  C     -1.817904   -2.099319   -0.762445
  C     -1.010649   -3.380087   -0.798935
  H      1.566434   -0.773500    1.609829
  H     -0.126508   -1.037802    2.038784
  H      0.731621   -2.228993    1.056475
  H      0.180822    0.660128    0.194862
  H      1.348351   -1.625092   -1.469545
  H      0.981523    0.013069   -2.031712
  H      2.211235   -0.248727   -0.790723
  H     -3.283837   -0.148814    0.090283
  H     -2.109513    0.051195    1.405401
  H     -2.538865    2.084267    0.526696
  H     -2.585609   -0.587401   -2.242906
  H     -0.911468   -1.209428   -2.583394
  H     -2.832354   -2.264919   -0.403641
  H     -0.004434   -3.230936   -1.196599
  H     -0.913092   -3.825379    0.196961
  H     -1.507536   -4.117030   -1.440658

 Total Charge           Charge          ....    0
 Multiplicity           Mult            ....    1
 Number of Electrons    NEL             ....   72
 Basis Dimension        Dim             ....  375

ORBITAL ENERGIES
----------------

  NO   OCC          E(Eh)            E(eV)
   0   2.0000     -20.551431      -559.2329
   1   2.0000     -11.272657      -306.7446
   2   2.0000     -11.228132      -305.5330
   3   2.0000     -11.225862      -305.4712
   4   2.0000     -11.220871      -305.3354
   5   2.0000     -11.213975      -305.1478
   6   2.0000     -11.212362      -305.1039
   7   2.0000     -11.205891      -304.9278
   8   2.0000     -11.205417      -304.9149
   9   2.0000      -1.355453       -36.8837
  10   2.0000      -1.152817       -31.3698
  11   2.0000      -1.046449       -28.4753
  12   2.0000      -0.974847       -26.5269
  13   2.0000      -0.931252       -25.3407
  14   2.0000      -0.912222       -24.8228
  15   2.0000      -0.825055       -22.4509
  16   2.0000      -0.786030       -21.3890
  17   2.0000      -0.714693       -19.4478
  18   2.0000      -0.691690       -18.8218
  19   2.0000      -0.650102       -17.6902
  20   2.0000      -0.636294       -17.3144
  21   2.0000      -0.607578       -16.5330
  22   2.0000      -0.588095       -16.0029
  23   2.0000      -0.565254       -15.3814
  24   2.0000      -0.556072       -15.1315
  25   2.0000      -0.549379       -14.9494
  26   2.0000      -0.537790       -14.6340
  27   2.0000      -0.527248       -14.3471
  28   2.0000      -0.520232       -14.1562
  29   2.0000      -0.490365       -13.3435
  30   2.0000      -0.479432       -13.0460
  31   2.0000      -0.467799       -12.7295
  32   2.0000      -0.452799       -12.3213
  33   2.0000      -0.437578       -11.9071
  34   2.0000      -0.390983       -10.6392
  35   2.0000      -0.383851       -10.4451
  36   0.0000       0.132606         3.6084
  37   0.0000       0.148772         4.0483
  38   0.0000       0.161176         4.3858
  39   0.0000       0.173283         4.7153
  40   0.0000       0.180728         4.9179

MULLIKEN ATOMIC CHARGES
-----------------------
   0 C :   -0.408591
   1 C :   -0.006681
   2 C :   -0.445076
   3 C :    0.141745
   4 C :   -0.128633
   5 O :   -0.462556
   6 C :   -0.284194
   7 C :   -0.143933
   8 C :   -0.413447
   9 H :    0.129086
  10 H :    0.121654
  11 H :    0.122878
  12 H :    0.108084
  13 H :    0.119641
  14 H :    0.146211
  15 H :    0.131295
  16 H :    0.097304
  17 H :    0.104196
  18 H :    0.313112
  19 H :    0.129031
  20 H :    0.129553
  21 H :    0.106820
  22 H :    0.120828
  23 H :    0.133937
  24 H :    0.137736
Sum of atomic charges:   -0.0000000

LOEWDIN ATOMIC CHARGES
----------------------
   0 C :   -0.287971
   1 C :   -0.259795
   2 C :   -0.293519
   3 C :   -0.210118
   4 C :   -0.305377
   5 O :   -0.045409
   6 C :   -0.184159
   7 C :   -0.212981
   8 C :   -0.297118
   9 H :    0.121472
  10 H :    0.120619
  11 H :    0.122101
  12 H :    0.164126
  13 H :    0.115831
  14 H :    0.125662
  15 H :    0.124538
  16 H :    0.121542
  17 H :    0.119523
  18 H :    0.170282
  19 H :    0.134361
  20 H :    0.136738
  21 H :    0.147764
  22 H :    0.122186
  23 H :    0.123219
  24 H :    0.126482

  Mayer bond orders larger than 0.1
B(  0-C ,  1-C ) :   0.9037 B(  0-C ,  9-H ) :   0.9414 B(  0-C , 10-H ) :   0.9372
B(  0-C , 11-H ) :   0.9333 B(  1-C ,  2-C ) :   0.9068 B(  1-C ,  3-C ) :   0.9018
B(  1-C , 12-H ) :   0.9240 B(  2-C , 13-H ) :   0.9359 B(  2-C , 14-H ) :   0.9419
B(  2-C , 15-H ) :   0.9381 B(  3-C ,  4-C ) :   0.9089 B(  3-C ,  6-C ) :   0.8513
B(  3-C ,  7-C ) :   0.8583 B(  4-C ,  5-O ) :   1.0558 B(  4-C , 16-H ) :   0.9136
B(  4-C , 17-H ) :   0.9293 B(  5-O , 18-H ) :   0.8471 B(  6-C ,  7-C ) :   0.9059
B(  6-C , 19-H ) :   0.9258 B(  6-C , 20-H ) :   0.9213 B(  7-C ,  8-C ) :   0.8933
B(  7-C , 21-H ) :   0.9249 B(  8-C , 22-H ) :   0.9385 B(  8-C , 23-H ) :   0.9422
B(  8-C , 24-H ) :   0.9364

MP2 TOTAL ENERGY:     -388.806126990 Eh
FINAL SINGLE POINT ENERGY      -388.806126989591

DIPOLE MOMENT
-------------
                                X             Y             Z
Electronic contribution:     -4.57332       4.89452      -0.42863
Nuclear contribution   :      4.24228      -4.98061       0.89355
                        -----------------------------------------
Total Dipole Moment    :     -0.33104      -0.08609       0.46492
                        -----------------------------------------
Magnitude (a.u.)       :      0.57719
Magnitude (Debye)      :      1.46711

                             ****ORCA TERMINATED NORMALLY****
TOTAL RUN TIME: 0 days 0 hours 22 minutes 12 seconds 345 msec
