                         Program Version 3.0.3 - RELEASE   -
|  1> ! RI-MP2 RIJK def2-TZVP def2-TZVP/C def2-TZVP/JK TIGHTSCF
|  2> % maxcore 2000
|  3> % mp2 density relaxed end
|  4> *xyz 0 1
|  5>  N        0.0874043070     1.4299623089     0.0836224711
|  6>  C        0.0228915138     0.0208263506     0.0041510043
|  7>  C       -1.0748767122    -0.8191142002     0.0185977632
|  8>  N       -0.6351518173    -2.1103486070    -0.0004471215
|  9>  C        0.7532514456    -2.1238450051    -0.0409835742
| 10>  C        1.5118884106    -3.3037392871    -0.0584801020
| 11>  N        2.1597705419    -4.2686427476    -0.0676640095
| 12>  C        1.1834589018    -0.7987904044    -0.0316987052
| 13>  N        2.4818661113    -0.3072702755    -0.1046369277
| 14>  H        0.5374577185     1.8298438609    -0.7344512925
| 15>  H       -0.8294885390     1.8496472802     0.1749387205
| 16>  H       -2.1275143638    -0.5864930153     0.0484557175
| 17>  H       -1.2119294027    -2.9316346245     0.0010706162
| 18>  H        3.1932836700    -0.9892923497     0.1235086947
| 19>  H        2.6005904244     0.5372279158     0.4426225951
| 20> *
| 21>
| 22>                          ****END OF INPUT****

CARTESIAN COORDINATES (ANGSTROEM)
---------------------------------
  N      0.087404    1.429962    0.083622
  C      0.022892    0.020826    0.004151
  C     -1.074877   -0.819114    0.018598
  N     -0.635152   -2.110349   -0.000447
  C      0.753251   -2.123845   -0.040984
  C      1.511888   -3.303739   -0.058480
  N      2.159771   -4.268643   -0.067664
  C      1.183459   -0.798790   -0.031699
  N      2.481866   -0.307270   -0.104637
  H      0.537458    1.829844   -0.734451
  H     -0.829489    1.849647    0.174939
  H     -2.127514   -0.586493    0.048456
  H     -1.211929   -2.931635    0.001071
  H      3.193284   -0.989292    0.123509
  H      2.600590    0.537228    0.442623

 Total Charge           Charge          ....    0
 Multiplicity           Mult            ....    1
 Number of Electrons    NEL             ....   64
 Basis Dimension        Dim             ....  315

ORBITAL ENERGIES
----------------

  NO   OCC          E(Eh)            E(eV)
   0   2.0000     -15.620966      -425.0681
   1   2.0000     -15.573869      -423.7865
   2   2.0000     -15.571187      -423.7135
   3   2.0000     -15.564843      -423.5409
   4   2.0000     -11.286092      -307.1102
   5   2.0000     -11.281775      -306.9927
   6   2.0000     -11.280417      -306.9557
   7   2.0000     -11.272644      -306.7442
   8   2.0000     -11.265344      -306.5456
   9   2.0000      -1.318502       -35.8783
  10   2.0000      -1.228732       -33.4355
  11   2.0000      -1.210122       -32.9291
  12   2.0000      -1.197088       -32.5744
  13   2.0000      -1.031084       -28.0572
  14   2.0000      -1.014120       -27.5956
  15   2.0000      -0.854897       -23.2629
  16   2.0000      -0.795736       -21.6531
  17   2.0000      -0.777693       -21.1621
  18   2.0000      -0.708431       -19.2774
  19   2.0000      -0.670990       -18.2586
  20   2.0000      -0.644287       -17.5319
  21   2.0000      -0.642140       -17.4735
  22   2.0000      -0.631995       -17.1975
  23   2.0000      -0.601469       -16.3668
  24   2.0000      -0.561452       -15.2779
  25   2.0000      -0.547978       -14.9112
  26   2.0000      -0.498099       -13.5540
  27   2.0000      -0.491913       -13.3856
  28   2.0000      -0.466278       -12.6881
  29   2.0000      -0.460057       -12.5188
  30   2.0000      -0.315341        -8.5809
  31   2.0000      -0.303736        -8.2651
  32   0.0000       0.111770         3.0414
  33   0.0000       0.121725         3.3123
  34   0.0000       0.125505         3.4152
  35   0.0000       0.145826         3.9681
  36   0.0000       0.169767         4.6196

MULLIKEN ATOMIC CHARGES
-----------------------
   0 N :   -0.569814
   1 C :    0.133084
   2 C :   -0.132908
   3 N :   -0.288244
   4 C :    0.241944
   5 C :   -0.246756
   6 N :   -0.051766
   7 C :    0.024708
   8 N :   -0.536502
   9 H :    0.263340
  10 H :    0.242798
  11 H :    0.145735
  12 H :    0.256341
  13 H :    0.254127
  14 H :    0.263915
Sum of atomic charges:   -0.0000000

LOEWDIN ATOMIC CHARGES
----------------------
   0 N :   -0.105919
   1 C :   -0.259309
   2 C :   -0.221342
   3 N :    0.206195
   4 C :   -0.224306
   5 C :   -0.185569
   6 N :    0.059704
   7 C :   -0.218685
   8 N :   -0.069925
   9 H :    0.170945
  10 H :    0.166443
  11 H :    0.135308
  12 H :    0.198131
  13 H :    0.173436
  14 H :    0.174892

  Mayer bond orders larger than 0.1
B(  0-N ,  1-C ) :   0.9459 B(  0-N ,  9-H ) :   0.8674 B(  0-N , 10-H ) :   0.8847
B(  1-C ,  2-C ) :   1.4710 B(  1-C ,  7-C ) :   1.3299 B(  2-C ,  3-N ) :   1.1657
B(  2-C , 11-H ) :   0.9105 B(  3-N ,  4-C ) :   1.0719 B(  3-N , 12-H ) :   0.8703
B(  4-C ,  5-C ) :   0.8914 B(  4-C ,  7-C ) :   1.3773 B(  5-C ,  6-N ) :   2.8758
B(  7-C ,  8-N ) :   1.0494 B(  8-N , 13-H ) :   0.8759 B(  8-N , 14-H ) :   0.8641

MP2 TOTAL ENERGY:     -412.326913031 Eh
FINAL SINGLE POINT ENERGY      -412.326913030672

DIPOLE MOMENT
-------------
                                X             Y             Z
Electronic contribution:      0.70855      -5.69017      -0.11372
Nuclear contribution   :     -2.03484       7.02257       0.16758
                        -----------------------------------------
Total Dipole Moment    :     -1.32629       1.33241       0.05386
                        -----------------------------------------
Magnitude (a.u.)       :      1.88076
Magnitude (Debye)      :      4.78050

                             ****ORCA TERMINATED NORMALLY****
TOTAL RUN TIME: 0 days 0 hours 15 minutes 4 seconds 916 msec
