                         Program Version 3.0.3 - RELEASE   -
|  1> ! RI-MP2 RIJK def2-TZVP def2-TZVP/C def2-TZVP/JK TIGHTSCF
|  2> % maxcore 2000
|  3> % mp2 density relaxed end
|  4> *xyz 0 1
|  5>  O       -0.0134196132     1.4142413052     0.0111327570
|  6>  C        0.0300189106     0.0064306363     0.0420549517
|  7>  C       -1.3636606407    -0.6017737259    -0.0574702221
|  8>  C       -1.3917188553    -2.1267701234    -0.0480615804
|  9>  C       -2.8004837370    -2.6004268348     0.1706042510
| 10>  C       -3.7049398645    -1.8085528004     0.7522066404
| 11>  C       -3.3543966449    -0.4809454200     1.2859098371
| 12>  N       -4.0957124492     0.2774633583     1.9869590016
| 13>  O       -2.0786482856    -0.0579712743     1.0678866904
| 14>  H       -0.6523704622     1.6790170328     0.6843018898
| 15>  H        0.6317676642    -0.3183503907    -0.8134696794
| 16>  H        0.5135294434    -0.3689868011     0.9590784191
| 17>  H       -1.8463774226    -0.2342077594    -0.9739352440
| 18>  H       -1.0015241684    -2.5040333868    -1.0002211956
| 19>  H       -0.7323897941    -2.5227510980     0.7380916822
| 20>  H       -3.0679686862    -3.6027978849    -0.1512205683
| 21>  H       -4.7291063450    -2.1311849390     0.9071251276
| 22>  H       -5.0023934691    -0.1635677640     2.1341782319
| 23> *
| 24>
| 25>                          ****END OF INPUT****

CARTESIAN COORDINATES (ANGSTROEM)
---------------------------------
  O     -0.013420    1.414241    0.011133
  C      0.030019    0.006431    0.042055
  C     -1.363661   -0.601774   -0.057470
  C     -1.391719   -2.126770   -0.048062
  C     -2.800484   -2.600427    0.170604
  C     -3.704940   -1.808553    0.752207
  C     -3.354397   -0.480945    1.285910
  N     -4.095712    0.277463    1.986959
  O     -2.078648   -0.057971    1.067887
  H     -0.652370    1.679017    0.684302
  H      0.631768   -0.318350   -0.813470
  H      0.513529   -0.368987    0.959078
  H     -1.846377   -0.234208   -0.973935
  H     -1.001524   -2.504033   -1.000221
  H     -0.732390   -2.522751    0.738092
  H     -3.067969   -3.602798   -0.151221
  H     -4.729106   -2.131185    0.907125
  H     -5.002393   -0.163568    2.134178

 Total Charge           Charge          ....    0
 Multiplicity           Mult            ....    1
 Number of Electrons    NEL             ....   68
 Basis Dimension        Dim             ....  333

ORBITAL ENERGIES
----------------

  NO   OCC          E(Eh)            E(eV)
   0   2.0000     -20.590795      -560.3040
   1   2.0000     -20.554371      -559.3129
   2   2.0000     -15.538082      -422.8127
   3   2.0000     -11.343332      -308.6678
   4   2.0000     -11.303910      -307.5950
   5   2.0000     -11.283855      -307.0493
   6   2.0000     -11.272924      -306.7519
   7   2.0000     -11.257988      -306.3454
   8   2.0000     -11.256493      -306.3047
   9   2.0000      -1.430153       -38.9164
  10   2.0000      -1.361294       -37.0427
  11   2.0000      -1.201880       -32.7048
  12   2.0000      -1.121908       -30.5287
  13   2.0000      -1.045378       -28.4462
  14   2.0000      -0.946477       -25.7550
  15   2.0000      -0.858705       -23.3666
  16   2.0000      -0.850508       -23.1435
  17   2.0000      -0.755888       -20.5688
  18   2.0000      -0.716114       -19.4864
  19   2.0000      -0.692537       -18.8449
  20   2.0000      -0.669423       -18.2159
  21   2.0000      -0.643555       -17.5120
  22   2.0000      -0.623253       -16.9596
  23   2.0000      -0.619933       -16.8692
  24   2.0000      -0.596709       -16.2373
  25   2.0000      -0.588248       -16.0070
  26   2.0000      -0.553735       -15.0679
  27   2.0000      -0.530457       -14.4345
  28   2.0000      -0.509201       -13.8561
  29   2.0000      -0.489735       -13.3264
  30   2.0000      -0.449331       -12.2269
  31   2.0000      -0.434287       -11.8175
  32   2.0000      -0.427138       -11.6230
  33   2.0000      -0.367930       -10.0119
  34   0.0000       0.092744         2.5237
  35   0.0000       0.126181         3.4336
  36   0.0000       0.150239         4.0882
  37   0.0000       0.158926         4.3246
  38   0.0000       0.167744         4.5646

MULLIKEN ATOMIC CHARGES
-----------------------
   0 O :   -0.477247
   1 C :    0.017547
   2 C :    0.005904
   3 C :   -0.163986
   4 C :   -0.169343
   5 C :   -0.207237
   6 C :    0.173016
   7 N :   -0.316777
   8 O :   -0.263273
   9 H :    0.336288
  10 H :    0.107398
  11 H :    0.100259
  12 H :    0.096312
  13 H :    0.139657
  14 H :    0.126928
  15 H :    0.139159
  16 H :    0.137716
  17 H :    0.217677
Sum of atomic charges:   -0.0000000

LOEWDIN ATOMIC CHARGES
----------------------
   0 O :   -0.037444
   1 C :   -0.332076
   2 C :   -0.298077
   3 C :   -0.227711
   4 C :   -0.133424
   5 C :   -0.149321
   6 C :   -0.407321
   7 N :   -0.039203
   8 O :    0.265013
   9 H :    0.182394
  10 H :    0.133613
  11 H :    0.122354
  12 H :    0.148876
  13 H :    0.153420
  14 H :    0.154733
  15 H :    0.146217
  16 H :    0.151606
  17 H :    0.166352

  Mayer bond orders larger than 0.1
B(  0-O ,  1-C ) :   0.9508 B(  0-O ,  9-H ) :   0.8270 B(  1-C ,  2-C ) :   0.9386
B(  1-C , 10-H ) :   0.9198 B(  1-C , 11-H ) :   0.9225 B(  2-C ,  3-C ) :   0.9342
B(  2-C ,  8-O ) :   0.8499 B(  2-C , 12-H ) :   0.9298 B(  3-C ,  4-C ) :   0.9319
B(  3-C , 13-H ) :   0.9213 B(  3-C , 14-H ) :   0.8844 B(  4-C ,  5-C ) :   1.7184
B(  4-C , 15-H ) :   0.9183 B(  5-C ,  6-C ) :   1.0261 B(  5-C , 16-H ) :   0.9133
B(  6-C ,  7-N ) :   1.9690 B(  6-C ,  8-O ) :   1.0960 B(  7-N , 17-H ) :   0.8614

MP2 TOTAL ENERGY:     -438.377262899 Eh
FINAL SINGLE POINT ENERGY      -438.377262899404

DIPOLE MOMENT
-------------
                                X             Y             Z
Electronic contribution:     -2.48644       2.69791       2.00052
Nuclear contribution   :      2.24782      -4.44251      -2.53516
                        -----------------------------------------
Total Dipole Moment    :     -0.23862      -1.74460      -0.53463
                        -----------------------------------------
Magnitude (a.u.)       :      1.84022
Magnitude (Debye)      :      4.67747

                             ****ORCA TERMINATED NORMALLY****
TOTAL RUN TIME: 0 days 0 hours 26 minutes 11 seconds 178 msec
