                         Program Version 3.0.3 - RELEASE   -
|  1> ! RI-MP2 RIJK def2-TZVP def2-TZVP/C def2-TZVP/JK TIGHTSCF
|  2> % maxcore 2000
|  3> % mp2 density relaxed end
|  4> *xyz 0 1
|  5>  C       -0.0614225799     1.5153754901    -0.0844029075
|  6>  C        0.0094938773     0.0066168444     0.0683978272
|  7>  O        0.8050993903    -0.5702116646    -1.0379591531
|  8>  C        1.7535931156    -1.2487242324    -0.2642363554
|  9>  C        2.9906605187    -2.1465483450    -0.1785291668
| 10>  N        2.6551642368    -1.8841808965     1.3120521525
| 11>  C        2.2372445365    -0.4386488977     0.9492748850
| 12>  C        0.7573030349    -0.5049991136     1.3561897305
| 13>  C        1.1480869158    -1.9380840227     0.9683237784
| 14>  H        0.9351588248     1.9631430665    -0.0269623128
| 15>  H       -0.5005337236     1.7821317932    -1.0494139238
| 16>  H       -0.6824721273     1.9487468971     0.7069146353
| 17>  H       -0.9932307005    -0.4339037355     0.0085273888
| 18>  H        2.8919682653    -3.1963195403    -0.4681727861
| 19>  H        3.9556124292    -1.7344393447    -0.4861287338
| 20>  H        2.9558742153     0.3790594866     0.9737007761
| 21>  H        0.3482535567    -0.1974274677     2.3197150615
| 22>  H        0.5865227542    -2.8705160572     1.0122921139
| 23> *
| 24>
| 25>                          ****END OF INPUT****

CARTESIAN COORDINATES (ANGSTROEM)
---------------------------------
  C     -0.061423    1.515375   -0.084403
  C      0.009494    0.006617    0.068398
  O      0.805099   -0.570212   -1.037959
  C      1.753593   -1.248724   -0.264236
  C      2.990661   -2.146548   -0.178529
  N      2.655164   -1.884181    1.312052
  C      2.237245   -0.438649    0.949275
  C      0.757303   -0.504999    1.356190
  C      1.148087   -1.938084    0.968324
  H      0.935159    1.963143   -0.026962
  H     -0.500534    1.782132   -1.049414
  H     -0.682472    1.948747    0.706915
  H     -0.993231   -0.433904    0.008527
  H      2.891968   -3.196320   -0.468173
  H      3.955612   -1.734439   -0.486129
  H      2.955874    0.379059    0.973701
  H      0.348254   -0.197427    2.319715
  H      0.586523   -2.870516    1.012292

 Total Charge           Charge          ....    0
 Multiplicity           Mult            ....    1
 Number of Electrons    NEL             ....   66
 Basis Dimension        Dim             ....  333

ORBITAL ENERGIES
----------------

  NO   OCC          E(Eh)            E(eV)
   0   2.0000     -20.563706      -559.5669
   1   2.0000     -15.574871      -423.8138
   2   2.0000     -11.301673      -307.5342
   3   2.0000     -11.294669      -307.3436
   4   2.0000     -11.272629      -306.7438
   5   2.0000     -11.266494      -306.5769
   6   2.0000     -11.266232      -306.5698
   7   2.0000     -11.252433      -306.1943
   8   2.0000     -11.224171      -305.4252
   9   2.0000      -1.401608       -38.1397
  10   2.0000      -1.303558       -35.4716
  11   2.0000      -1.072677       -29.1890
  12   2.0000      -1.007985       -27.4287
  13   2.0000      -0.915971       -24.9248
  14   2.0000      -0.896187       -24.3865
  15   2.0000      -0.867567       -23.6077
  16   2.0000      -0.787503       -21.4290
  17   2.0000      -0.715765       -19.4770
  18   2.0000      -0.690181       -18.7808
  19   2.0000      -0.666307       -18.1311
  20   2.0000      -0.644449       -17.5363
  21   2.0000      -0.620526       -16.8854
  22   2.0000      -0.595179       -16.1956
  23   2.0000      -0.565962       -15.4006
  24   2.0000      -0.543552       -14.7908
  25   2.0000      -0.518750       -14.1159
  26   2.0000      -0.507538       -13.8108
  27   2.0000      -0.481747       -13.1090
  28   2.0000      -0.463408       -12.6100
  29   2.0000      -0.450392       -12.2558
  30   2.0000      -0.437002       -11.8914
  31   2.0000      -0.392559       -10.6821
  32   2.0000      -0.379987       -10.3400
  33   0.0000       0.139066         3.7842
  34   0.0000       0.152796         4.1578
  35   0.0000       0.160462         4.3664
  36   0.0000       0.173804         4.7294
  37   0.0000       0.188305         5.1240

MULLIKEN ATOMIC CHARGES
-----------------------
   0 C :   -0.403255
   1 C :    0.107675
   2 O :   -0.320373
   3 C :    0.163852
   4 C :   -0.106035
   5 N :   -0.219164
   6 C :   -0.122131
   7 C :   -0.150043
   8 C :   -0.096627
   9 H :    0.131776
  10 H :    0.145643
  11 H :    0.127294
  12 H :    0.101321
  13 H :    0.121649
  14 H :    0.121838
  15 H :    0.132746
  16 H :    0.133233
  17 H :    0.130600
Sum of atomic charges:    0.0000000

LOEWDIN ATOMIC CHARGES
----------------------
   0 C :   -0.292263
   1 C :   -0.244883
   2 O :    0.181736
   3 C :   -0.310427
   4 C :   -0.190265
   5 N :    0.129304
   6 C :   -0.143768
   7 C :   -0.161799
   8 C :   -0.141749
   9 H :    0.127350
  10 H :    0.129715
  11 H :    0.128501
  12 H :    0.140470
  13 H :    0.125689
  14 H :    0.125647
  15 H :    0.129219
  16 H :    0.137499
  17 H :    0.130023

  Mayer bond orders larger than 0.1
B(  0-C ,  1-C ) :   0.9151 B(  0-C ,  9-H ) :   0.9375 B(  0-C , 10-H ) :   0.9364
B(  0-C , 11-H ) :   0.9296 B(  1-C ,  2-O ) :   0.8530 B(  1-C ,  7-C ) :   0.8890
B(  1-C , 12-H ) :   0.9126 B(  2-O ,  3-C ) :   1.0292 B(  3-C ,  4-C ) :   0.9524
B(  3-C ,  6-C ) :   0.9004 B(  3-C ,  8-C ) :   0.9157 B(  4-C ,  5-N ) :   0.9193
B(  4-C , 13-H ) :   0.9211 B(  4-C , 14-H ) :   0.9217 B(  5-N ,  6-C ) :   0.9273
B(  5-N ,  8-C ) :   0.9224 B(  6-C ,  7-C ) :   0.9240 B(  6-C , 15-H ) :   0.8943
B(  7-C ,  8-C ) :   0.9199 B(  7-C , 16-H ) :   0.8879 B(  8-C , 17-H ) :   0.8972

MP2 TOTAL ENERGY:     -401.136634630 Eh
FINAL SINGLE POINT ENERGY      -401.136634629833

DIPOLE MOMENT
-------------
                                X             Y             Z
Electronic contribution:      2.07773      -3.98157      -0.11339
Nuclear contribution   :     -2.45550       4.29683       0.14486
                        -----------------------------------------
Total Dipole Moment    :     -0.37777       0.31526       0.03147
                        -----------------------------------------
Magnitude (a.u.)       :      0.49304
Magnitude (Debye)      :      1.25322

                             ****ORCA TERMINATED NORMALLY****
TOTAL RUN TIME: 0 days 0 hours 18 minutes 41 seconds 277 msec
