                         Program Version 3.0.3 - RELEASE   -
|  1> ! RI-MP2 RIJK def2-TZVP def2-TZVP/C def2-TZVP/JK TIGHTSCF
|  2> % maxcore 2000
|  3> % mp2 density relaxed end
|  4> *xyz 0 1
|  5>  N        0.1608156277    -1.1426460665    -0.6193198447
|  6>  C        0.1693550593    -0.1158869914    -0.0912545545
|  7>  C        0.1642981260     1.1904196674     0.5834581574
|  8>  C        1.4236173862     1.9163388122     0.4451645517
|  9>  C        2.4624278718     2.5146903232     0.3336971894
| 10>  C        3.7002678185     3.2249935978     0.2063311794
| 11>  C        4.5046750232     3.1288283043    -1.0817485838
| 12>  C        3.8094028515     4.4113368802    -0.7405069303
| 13>  H       -0.6707323404     1.7777876892     0.1793584896
| 14>  H       -0.0680206930     1.0243000107     1.6435315464
| 15>  H        4.2806780217     3.2951762682     1.1214550166
| 16>  H        5.5830793920     3.0790118728    -0.9847370741
| 17>  H        4.0910680135     2.5181751686    -1.8751047814
| 18>  H        2.9216970692     4.6758097596    -1.3023204114
| 19>  H        4.4043944827     5.2538431436    -0.4070702303
| 20> *
| 21>
| 22>                          ****END OF INPUT****

CARTESIAN COORDINATES (ANGSTROEM)
---------------------------------
  N      0.160816   -1.142646   -0.619320
  C      0.169355   -0.115887   -0.091255
  C      0.164298    1.190420    0.583458
  C      1.423617    1.916339    0.445165
  C      2.462428    2.514690    0.333697
  C      3.700268    3.224994    0.206331
  C      4.504675    3.128828   -1.081749
  C      3.809403    4.411337   -0.740507
  H     -0.670732    1.777788    0.179358
  H     -0.068021    1.024300    1.643532
  H      4.280678    3.295176    1.121455
  H      5.583079    3.079012   -0.984737
  H      4.091068    2.518175   -1.875105
  H      2.921697    4.675810   -1.302320
  H      4.404394    5.253843   -0.407070

 Total Charge           Charge          ....    0
 Multiplicity           Mult            ....    1
 Number of Electrons    NEL             ....   56
 Basis Dimension        Dim             ....  290

ORBITAL ENERGIES
----------------

  NO   OCC          E(Eh)            E(eV)
   0   2.0000     -15.573219      -423.7688
   1   2.0000     -11.313815      -307.8646
   2   2.0000     -11.279381      -306.9276
   3   2.0000     -11.266699      -306.5825
   4   2.0000     -11.247720      -306.0660
   5   2.0000     -11.247267      -306.0537
   6   2.0000     -11.246802      -306.0411
   7   2.0000     -11.241277      -305.8907
   8   2.0000      -1.223103       -33.2823
   9   2.0000      -1.167887       -31.7798
  10   2.0000      -1.097967       -29.8772
  11   2.0000      -1.006893       -27.3990
  12   2.0000      -0.872295       -23.7364
  13   2.0000      -0.840167       -22.8621
  14   2.0000      -0.735474       -20.0133
  15   2.0000      -0.706766       -19.2321
  16   2.0000      -0.678079       -18.4515
  17   2.0000      -0.658750       -17.9255
  18   2.0000      -0.649161       -17.6646
  19   2.0000      -0.567758       -15.4495
  20   2.0000      -0.560113       -15.2415
  21   2.0000      -0.534599       -14.5472
  22   2.0000      -0.487143       -13.2558
  23   2.0000      -0.471483       -12.8297
  24   2.0000      -0.469942       -12.7878
  25   2.0000      -0.462415       -12.5829
  26   2.0000      -0.387109       -10.5338
  27   2.0000      -0.368436       -10.0257
  28   0.0000       0.121089         3.2950
  29   0.0000       0.139644         3.7999
  30   0.0000       0.157076         4.2742
  31   0.0000       0.162411         4.4194
  32   0.0000       0.169805         4.6206

MULLIKEN ATOMIC CHARGES
-----------------------
   0 N :   -0.064512
   1 C :   -0.124696
   2 C :   -0.241379
   3 C :   -0.003738
   4 C :    0.063976
   5 C :   -0.246510
   6 C :   -0.231861
   7 C :   -0.232337
   8 H :    0.186959
   9 H :    0.187745
  10 H :    0.141762
  11 H :    0.137944
  12 H :    0.147396
  13 H :    0.142173
  14 H :    0.137078
Sum of atomic charges:   -0.0000000

LOEWDIN ATOMIC CHARGES
----------------------
   0 N :    0.063388
   1 C :   -0.173270
   2 C :   -0.230539
   3 C :   -0.064243
   4 C :   -0.046094
   5 C :   -0.212202
   6 C :   -0.202579
   7 C :   -0.204929
   8 H :    0.180227
   9 H :    0.181353
  10 H :    0.163113
  11 H :    0.134317
  12 H :    0.139604
  13 H :    0.137969
  14 H :    0.133884

  Mayer bond orders larger than 0.1
B(  0-N ,  1-C ) :   2.8494 B(  1-C ,  2-C ) :   0.9341 B(  2-C ,  3-C ) :   0.9748
B(  2-C ,  8-H ) :   0.9204 B(  2-C ,  9-H ) :   0.9220 B(  3-C ,  4-C ) :   2.5737
B(  3-C ,  5-C ) :  -0.1242 B(  4-C ,  5-C ) :   1.1063 B(  5-C ,  6-C ) :   0.8595
B(  5-C ,  7-C ) :   0.8638 B(  5-C , 10-H ) :   0.9304 B(  6-C ,  7-C ) :   0.9000
B(  6-C , 11-H ) :   0.9301 B(  6-C , 12-H ) :   0.9324 B(  7-C , 13-H ) :   0.9328
B(  7-C , 14-H ) :   0.9296

MP2 TOTAL ENERGY:     -324.891483123 Eh
FINAL SINGLE POINT ENERGY      -324.891483123110

DIPOLE MOMENT
-------------
                                X             Y             Z
Electronic contribution:     -5.35723      -6.21668       1.16507
Nuclear contribution   :      5.64833       7.70185      -0.62421
                        -----------------------------------------
Total Dipole Moment    :      0.29111       1.48517       0.54086
                        -----------------------------------------
Magnitude (a.u.)       :      1.60717
Magnitude (Debye)      :      4.08511

                             ****ORCA TERMINATED NORMALLY****
TOTAL RUN TIME: 0 days 0 hours 9 minutes 11 seconds 535 msec
