                         Program Version 3.0.3 - RELEASE   -
|  1> ! RI-MP2 RIJK def2-TZVP def2-TZVP/C def2-TZVP/JK TIGHTSCF
|  2> % maxcore 2000
|  3> % mp2 density relaxed end
|  4> *xyz 0 1
|  5>  C        0.1906154661     1.6313877186    -0.1457274508
|  6>  C        0.0463805898     0.1863772751    -0.0528290852
|  7>  C       -0.1238559240    -1.0007406968     0.0621202018
|  8>  C       -0.1715441383    -2.4377581554     0.0829774753
|  9>  C       -0.4495292344    -3.3935736160     1.2320890829
| 10>  C       -1.6720007165    -3.0265962793     2.1188258880
| 11>  N       -2.2528918342    -1.7493719544     1.6445578781
| 12>  C       -2.5552990259    -3.0144347510     0.9361500841
| 13>  C       -1.3616489465    -3.3810223546     0.0108251757
| 14>  H        1.1649737429     1.9630667201     0.2317563636
| 15>  H        0.1076577109     1.9776592111    -1.1825972995
| 16>  H       -0.5816723914     2.1473013368     0.4369179538
| 17>  H        0.6316940884    -2.8627120433    -0.5212963741
| 18>  H        0.2752688755    -4.1439670652     1.5223766597
| 19>  H       -1.8424249812    -3.3899443255     3.1235012559
| 20>  H       -3.0523090262    -1.5428874881     2.2437332217
| 21>  H       -3.5705532806    -3.3661441036     0.8096662978
| 22>  H       -1.4416137043    -4.1203456483    -0.7763828187
| 23> *
| 24>
| 25>                          ****END OF INPUT****

CARTESIAN COORDINATES (ANGSTROEM)
---------------------------------
  C      0.190615    1.631388   -0.145727
  C      0.046381    0.186377   -0.052829
  C     -0.123856   -1.000741    0.062120
  C     -0.171544   -2.437758    0.082977
  C     -0.449529   -3.393574    1.232089
  C     -1.672001   -3.026596    2.118826
  N     -2.252892   -1.749372    1.644558
  C     -2.555299   -3.014435    0.936150
  C     -1.361649   -3.381022    0.010825
  H      1.164974    1.963067    0.231756
  H      0.107658    1.977659   -1.182597
  H     -0.581672    2.147301    0.436918
  H      0.631694   -2.862712   -0.521296
  H      0.275269   -4.143967    1.522377
  H     -1.842425   -3.389944    3.123501
  H     -3.052309   -1.542887    2.243733
  H     -3.570553   -3.366144    0.809666
  H     -1.441614   -4.120346   -0.776383

 Total Charge           Charge          ....    0
 Multiplicity           Mult            ....    1
 Number of Electrons    NEL             ....   64
 Basis Dimension        Dim             ....  333

ORBITAL ENERGIES
----------------

  NO   OCC          E(Eh)            E(eV)
   0   2.0000     -15.558601      -423.3711
   1   2.0000     -11.264267      -306.5163
   2   2.0000     -11.263491      -306.4952
   3   2.0000     -11.257072      -306.3205
   4   2.0000     -11.242275      -305.9179
   5   2.0000     -11.241652      -305.9009
   6   2.0000     -11.231014      -305.6114
   7   2.0000     -11.202209      -304.8276
   8   2.0000     -11.197729      -304.7057
   9   2.0000      -1.287919       -35.0460
  10   2.0000      -1.138489       -30.9799
  11   2.0000      -1.036444       -28.2031
  12   2.0000      -0.962426       -26.1889
  13   2.0000      -0.905480       -24.6394
  14   2.0000      -0.878971       -23.9180
  15   2.0000      -0.803366       -21.8607
  16   2.0000      -0.736659       -20.0455
  17   2.0000      -0.733291       -19.9539
  18   2.0000      -0.660988       -17.9864
  19   2.0000      -0.630829       -17.1657
  20   2.0000      -0.605750       -16.4833
  21   2.0000      -0.572529       -15.5793
  22   2.0000      -0.569961       -15.5094
  23   2.0000      -0.560754       -15.2589
  24   2.0000      -0.530707       -14.4413
  25   2.0000      -0.516697       -14.0600
  26   2.0000      -0.470643       -12.8069
  27   2.0000      -0.447405       -12.1745
  28   2.0000      -0.415007       -11.2929
  29   2.0000      -0.369702       -10.0601
  30   2.0000      -0.334063        -9.0903
  31   2.0000      -0.314942        -8.5700
  32   0.0000       0.138774         3.7762
  33   0.0000       0.153429         4.1750
  34   0.0000       0.161115         4.3842
  35   0.0000       0.168354         4.5812
  36   0.0000       0.185690         5.0529

MULLIKEN ATOMIC CHARGES
-----------------------
   0 C :   -0.490923
   1 C :    0.029119
   2 C :    0.167694
   3 C :   -0.434765
   4 C :   -0.007081
   5 C :   -0.145816
   6 N :   -0.332295
   7 C :   -0.145817
   8 C :   -0.007079
   9 H :    0.156098
  10 H :    0.156099
  11 H :    0.159278
  12 H :    0.121708
  13 H :    0.140415
  14 H :    0.140152
  15 H :    0.212647
  16 H :    0.140152
  17 H :    0.140414
Sum of atomic charges:   -0.0000000

LOEWDIN ATOMIC CHARGES
----------------------
   0 C :   -0.301303
   1 C :   -0.104301
   2 C :   -0.067843
   3 C :   -0.172273
   4 C :   -0.131733
   5 C :   -0.212902
   6 N :    0.030155
   7 C :   -0.212900
   8 C :   -0.131734
   9 H :    0.137843
  10 H :    0.137846
  11 H :    0.138994
  12 H :    0.179770
  13 H :    0.138121
  14 H :    0.130965
  15 H :    0.172211
  16 H :    0.130964
  17 H :    0.138121

  Mayer bond orders larger than 0.1
B(  0-C ,  1-C ) :   0.8622 B(  0-C ,  9-H ) :   0.9500 B(  0-C , 10-H ) :   0.9500
B(  0-C , 11-H ) :   0.9478 B(  1-C ,  2-C ) :   2.6223 B(  1-C ,  3-C ) :  -0.1462
B(  2-C ,  3-C ) :   1.0816 B(  3-C ,  4-C ) :   0.8476 B(  3-C ,  6-N ) :   0.1039
B(  3-C ,  8-C ) :   0.8476 B(  3-C , 12-H ) :   0.9539 B(  4-C ,  5-C ) :   0.8696
B(  4-C ,  8-C ) :   0.9069 B(  4-C , 13-H ) :   0.9234 B(  5-C ,  6-N ) :   0.9746
B(  5-C ,  7-C ) :   1.0319 B(  5-C , 14-H ) :   0.9250 B(  6-N ,  7-C ) :   0.9746
B(  6-N , 15-H ) :   0.8668 B(  7-C ,  8-C ) :   0.8696 B(  7-C , 16-H ) :   0.9250
B(  8-C , 17-H ) :   0.9234

MP2 TOTAL ENERGY:     -364.010135152 Eh
FINAL SINGLE POINT ENERGY      -364.010135152217

DIPOLE MOMENT
-------------
                                X             Y             Z
Electronic contribution:     -0.65360      -2.99510       0.45745
Nuclear contribution   :      0.21559       2.46151      -0.13582
                        -----------------------------------------
Total Dipole Moment    :     -0.43800      -0.53359       0.32163
                        -----------------------------------------
Magnitude (a.u.)       :      0.76159
Magnitude (Debye)      :      1.93580

                             ****ORCA TERMINATED NORMALLY****
TOTAL RUN TIME: 0 days 0 hours 18 minutes 20 seconds 314 msec
