                         Program Version 3.0.3 - RELEASE   -
|  1> ! RI-MP2 RIJK def2-TZVP def2-TZVP/C def2-TZVP/JK TIGHTSCF
|  2> % maxcore 2000
|  3> % mp2 density relaxed end
|  4> *xyz 0 1
|  5>  O        0.0438085609     0.0569068374     0.5048903466
|  6>  C       -0.0198058802     1.2067835584     0.1168037214
|  7>  C       -1.2985213169     1.8980353515    -0.1375625144
|  8>  C       -1.3779702449     3.0337081664    -0.8411026316
|  9>  C       -0.1991970118     3.7469674791    -1.4374605014
| 10>  C        1.1358675397     3.2602241752    -0.9218967236
| 11>  O        1.3043158369     3.2812337042     0.4871495843
| 12>  C        1.2313790753     1.9981169695    -0.1571239562
| 13>  H       -2.1855769709     1.3963241379     0.2351503801
| 14>  H       -2.3519067094     3.4795611018    -1.0295472953
| 15>  H       -0.2262583077     3.6404417738    -2.5315914764
| 16>  H       -0.2858417262     4.8258423608    -1.2487400715
| 17>  H        2.0120175121     3.5827210523    -1.4845000847
| 18>  H        2.1513042430     1.4177804018    -0.1447932873
| 19> *
| 20>
| 21>                          ****END OF INPUT****

CARTESIAN COORDINATES (ANGSTROEM)
---------------------------------
  O      0.043809    0.056907    0.504890
  C     -0.019806    1.206784    0.116804
  C     -1.298521    1.898035   -0.137563
  C     -1.377970    3.033708   -0.841103
  C     -0.199197    3.746967   -1.437461
  C      1.135868    3.260224   -0.921897
  O      1.304316    3.281234    0.487150
  C      1.231379    1.998117   -0.157124
  H     -2.185577    1.396324    0.235150
  H     -2.351907    3.479561   -1.029547
  H     -0.226258    3.640442   -2.531591
  H     -0.285842    4.825842   -1.248740
  H      2.012018    3.582721   -1.484500
  H      2.151304    1.417780   -0.144793

 Total Charge           Charge          ....    0
 Multiplicity           Mult            ....    1
 Number of Electrons    NEL             ....   58
 Basis Dimension        Dim             ....  284

ORBITAL ENERGIES
----------------

  NO   OCC          E(Eh)            E(eV)
   0   2.0000     -20.590768      -560.3033
   1   2.0000     -20.551854      -559.2444
   2   2.0000     -11.338312      -308.5312
   3   2.0000     -11.313336      -307.8515
   4   2.0000     -11.303580      -307.5860
   5   2.0000     -11.275021      -306.8089
   6   2.0000     -11.263694      -306.5007
   7   2.0000     -11.246161      -306.0236
   8   2.0000      -1.438303       -39.1382
   9   2.0000      -1.389914       -37.8215
  10   2.0000      -1.123481       -30.5715
  11   2.0000      -1.018863       -27.7247
  12   2.0000      -0.972324       -26.4583
  13   2.0000      -0.867322       -23.6010
  14   2.0000      -0.839760       -22.8510
  15   2.0000      -0.735106       -20.0032
  16   2.0000      -0.701631       -19.0924
  17   2.0000      -0.684554       -18.6277
  18   2.0000      -0.651377       -17.7249
  19   2.0000      -0.618485       -16.8298
  20   2.0000      -0.613173       -16.6853
  21   2.0000      -0.579967       -15.7817
  22   2.0000      -0.577577       -15.7167
  23   2.0000      -0.542497       -14.7621
  24   2.0000      -0.518796       -14.1172
  25   2.0000      -0.475420       -12.9368
  26   2.0000      -0.453315       -12.3353
  27   2.0000      -0.422169       -11.4878
  28   2.0000      -0.385740       -10.4965
  29   0.0000       0.080893         2.2012
  30   0.0000       0.127681         3.4744
  31   0.0000       0.162969         4.4346
  32   0.0000       0.172489         4.6937
  33   0.0000       0.180527         4.9124

MULLIKEN ATOMIC CHARGES
-----------------------
   0 O :   -0.284847
   1 C :    0.193316
   2 C :   -0.169822
   3 C :   -0.167380
   4 C :   -0.096417
   5 C :   -0.013965
   6 O :   -0.316862
   7 C :    0.032873
   8 H :    0.142142
   9 H :    0.139007
  10 H :    0.132191
  11 H :    0.135843
  12 H :    0.134796
  13 H :    0.139125
Sum of atomic charges:    0.0000000

LOEWDIN ATOMIC CHARGES
----------------------
   0 O :    0.156561
   1 C :   -0.313053
   2 C :   -0.127907
   3 C :   -0.116076
   4 C :   -0.231004
   5 C :   -0.257599
   6 O :    0.189364
   7 C :   -0.210074
   8 H :    0.155290
   9 H :    0.148792
  10 H :    0.159366
  11 H :    0.158445
  12 H :    0.141652
  13 H :    0.146245

  Mayer bond orders larger than 0.1
B(  0-O ,  1-C ) :   1.9141 B(  1-C ,  2-C ) :   1.0111 B(  1-C ,  7-C ) :   0.9089
B(  2-C ,  3-C ) :   1.7098 B(  2-C ,  8-H ) :   0.9176 B(  3-C ,  4-C ) :   0.9595
B(  3-C ,  9-H ) :   0.9206 B(  4-C ,  5-C ) :   0.9390 B(  4-C , 10-H ) :   0.8908
B(  4-C , 11-H ) :   0.8993 B(  5-C ,  6-O ) :   0.9064 B(  5-C ,  7-C ) :   0.8889
B(  5-C , 12-H ) :   0.9175 B(  6-O ,  7-C ) :   0.8728 B(  7-C , 13-H ) :   0.9261

MP2 TOTAL ENERGY:     -381.905377899 Eh
FINAL SINGLE POINT ENERGY      -381.905377898676

DIPOLE MOMENT
-------------
                                X             Y             Z
Electronic contribution:      1.29544      -3.20373       3.05955
Nuclear contribution   :     -1.54797       4.21586      -4.21480
                        -----------------------------------------
Total Dipole Moment    :     -0.25253       1.01213      -1.15525
                        -----------------------------------------
Magnitude (a.u.)       :      1.55653
Magnitude (Debye)      :      3.95638

                             ****ORCA TERMINATED NORMALLY****
TOTAL RUN TIME: 0 days 0 hours 11 minutes 24 seconds 730 msec
