                         Program Version 3.0.3 - RELEASE   -
|  1> ! RI-MP2 RIJK def2-TZVP def2-TZVP/C def2-TZVP/JK TIGHTSCF
|  2> % maxcore 2000
|  3> % mp2 density relaxed end
|  4> *xyz 0 1
|  5>  C        0.3510035712     1.3567762595    -0.3449520463
|  6>  C       -0.1140993377    -0.0092438445     0.0940273252
|  7>  C       -1.6136401552    -0.2778536791     0.1817792390
|  8>  C       -1.8055479624    -1.4906680378     1.1367843450
|  9>  C       -2.2449117972    -2.7610144494     0.4088803704
| 10>  O       -2.4647017723    -3.7678065405     1.3839753816
| 11>  C       -0.4577218565    -1.6480199231     1.9012287299
| 12>  C        0.5676521340    -0.8473492159     1.1208749450
| 13>  N        0.7385053542    -1.1405680878    -0.3133342355
| 14>  H        1.4424648086     1.4078994396    -0.3401856085
| 15>  H        0.0109532419     1.5785366608    -1.3634828957
| 16>  H       -0.0404212287     2.1387625439     0.3156228880
| 17>  H       -2.1133403003     0.6102346433     0.5851306179
| 18>  H       -2.0545749044    -0.4547553964    -0.8084750682
| 19>  H       -2.6047350511    -1.2770334909     1.8527476845
| 20>  H       -3.1642114076    -2.5520135185    -0.1619658637
| 21>  H       -1.4817418056    -3.0828537145    -0.3203830272
| 22>  H       -2.6993551868    -4.5832698720     0.9317212836
| 23>  H       -0.5400347591    -1.2385145649     2.9142857586
| 24>  H       -0.1847107762    -2.7025447984     2.0145223651
| 25>  H        1.4740681742    -0.5228947966     1.6260818688
| 26>  H        0.1880253070    -1.9489629270    -0.5909167376
| 27> *
| 28>
| 29>                          ****END OF INPUT****

CARTESIAN COORDINATES (ANGSTROEM)
---------------------------------
  C      0.351004    1.356776   -0.344952
  C     -0.114099   -0.009244    0.094027
  C     -1.613640   -0.277854    0.181779
  C     -1.805548   -1.490668    1.136784
  C     -2.244912   -2.761014    0.408880
  O     -2.464702   -3.767807    1.383975
  C     -0.457722   -1.648020    1.901229
  C      0.567652   -0.847349    1.120875
  N      0.738505   -1.140568   -0.313334
  H      1.442465    1.407899   -0.340186
  H      0.010953    1.578537   -1.363483
  H     -0.040421    2.138763    0.315623
  H     -2.113340    0.610235    0.585131
  H     -2.054575   -0.454755   -0.808475
  H     -2.604735   -1.277033    1.852748
  H     -3.164211   -2.552014   -0.161966
  H     -1.481742   -3.082854   -0.320383
  H     -2.699355   -4.583270    0.931721
  H     -0.540035   -1.238515    2.914286
  H     -0.184711   -2.702545    2.014522
  H      1.474068   -0.522895    1.626082
  H      0.188025   -1.948963   -0.590917

 Total Charge           Charge          ....    0
 Multiplicity           Mult            ....    1
 Number of Electrons    NEL             ....   70
 Basis Dimension        Dim             ....  357

ORBITAL ENERGIES
----------------

  NO   OCC          E(Eh)            E(eV)
   0   2.0000     -20.560546      -559.4809
   1   2.0000     -15.544244      -422.9804
   2   2.0000     -11.281393      -306.9823
   3   2.0000     -11.255364      -306.2740
   4   2.0000     -11.246151      -306.0233
   5   2.0000     -11.230811      -305.6059
   6   2.0000     -11.226663      -305.4930
   7   2.0000     -11.219469      -305.2973
   8   2.0000     -11.212377      -305.1043
   9   2.0000      -1.365663       -37.1616
  10   2.0000      -1.263982       -34.3947
  11   2.0000      -1.078753       -29.3544
  12   2.0000      -1.002352       -27.2754
  13   2.0000      -0.957515       -26.0553
  14   2.0000      -0.925782       -25.1918
  15   2.0000      -0.841419       -22.8962
  16   2.0000      -0.778117       -21.1736
  17   2.0000      -0.741971       -20.1901
  18   2.0000      -0.702385       -19.1129
  19   2.0000      -0.667963       -18.1762
  20   2.0000      -0.641624       -17.4595
  21   2.0000      -0.618837       -16.8394
  22   2.0000      -0.606131       -16.4937
  23   2.0000      -0.577546       -15.7158
  24   2.0000      -0.560686       -15.2571
  25   2.0000      -0.544161       -14.8074
  26   2.0000      -0.535802       -14.5799
  27   2.0000      -0.505971       -13.7682
  28   2.0000      -0.491268       -13.3681
  29   2.0000      -0.479897       -13.0587
  30   2.0000      -0.465395       -12.6640
  31   2.0000      -0.450536       -12.2597
  32   2.0000      -0.439515       -11.9598
  33   2.0000      -0.422754       -11.5037
  34   2.0000      -0.370460       -10.0807
  35   0.0000       0.129776         3.5314
  36   0.0000       0.140444         3.8217
  37   0.0000       0.164153         4.4668
  38   0.0000       0.169689         4.6175
  39   0.0000       0.181191         4.9305

MULLIKEN ATOMIC CHARGES
-----------------------
   0 C :   -0.430589
   1 C :    0.135273
   2 C :   -0.236817
   3 C :   -0.039484
   4 C :   -0.107980
   5 O :   -0.465864
   6 C :   -0.191272
   7 C :   -0.109261
   8 N :   -0.357635
   9 H :    0.143449
  10 H :    0.127017
  11 H :    0.122940
  12 H :    0.122987
  13 H :    0.119179
  14 H :    0.101110
  15 H :    0.106915
  16 H :    0.080409
  17 H :    0.317062
  18 H :    0.117394
  19 H :    0.134713
  20 H :    0.118035
  21 H :    0.192419
Sum of atomic charges:    0.0000000

LOEWDIN ATOMIC CHARGES
----------------------
   0 C :   -0.271424
   1 C :   -0.307003
   2 C :   -0.192403
   3 C :   -0.233866
   4 C :   -0.341078
   5 O :   -0.042620
   6 C :   -0.216905
   7 C :   -0.232229
   8 N :    0.031945
   9 H :    0.132627
  10 H :    0.127348
  11 H :    0.125377
  12 H :    0.144637
  13 H :    0.141077
  14 H :    0.154736
  15 H :    0.117996
  16 H :    0.109761
  17 H :    0.172992
  18 H :    0.143236
  19 H :    0.144123
  20 H :    0.137910
  21 H :    0.153764

  Mayer bond orders larger than 0.1
B(  0-C ,  1-C ) :   0.8812 B(  0-C ,  9-H ) :   0.9417 B(  0-C , 10-H ) :   0.9388
B(  0-C , 11-H ) :   0.9410 B(  1-C ,  2-C ) :   0.9506 B(  1-C ,  7-C ) :   0.8901
B(  1-C ,  8-N ) :   0.8962 B(  2-C ,  3-C ) :   0.8864 B(  2-C , 12-H ) :   0.9147
B(  2-C , 13-H ) :   0.9252 B(  3-C ,  4-C ) :   0.9471 B(  3-C ,  6-C ) :   0.9184
B(  3-C , 14-H ) :   0.9210 B(  4-C ,  5-O ) :   1.0170 B(  4-C , 15-H ) :   0.9281
B(  4-C , 16-H ) :   0.9151 B(  5-O , 17-H ) :   0.8465 B(  6-C ,  7-C ) :   0.9429
B(  6-C , 18-H ) :   0.9156 B(  6-C , 19-H ) :   0.9178 B(  7-C ,  8-N ) :   0.9316
B(  7-C , 20-H ) :   0.9197 B(  8-N , 21-H ) :   0.8820

MP2 TOTAL ENERGY:     -403.655849517 Eh
FINAL SINGLE POINT ENERGY      -403.655849517245

DIPOLE MOMENT
-------------
                                X             Y             Z
Electronic contribution:      0.29359      -3.33995       1.11588
Nuclear contribution   :     -1.00468       3.18840      -1.27752
                        -----------------------------------------
Total Dipole Moment    :     -0.71109      -0.15155      -0.16164
                        -----------------------------------------
Magnitude (a.u.)       :      0.74481
Magnitude (Debye)      :      1.89316

                             ****ORCA TERMINATED NORMALLY****
TOTAL RUN TIME: 0 days 0 hours 30 minutes 51 seconds 378 msec
