                         Program Version 3.0.3 - RELEASE   -
|  1> ! RI-MP2 RIJK def2-TZVP def2-TZVP/C def2-TZVP/JK TIGHTSCF
|  2> % maxcore 2000
|  3> % mp2 density relaxed end
|  4> *xyz 0 1
|  5>  C       -0.0876299709     1.5474730944    -0.2881411562
|  6>  N       -0.1018798896     0.0865472150    -0.2664410045
|  7>  C       -0.2375014896    -0.5270294279     1.0524912419
|  8>  C       -1.3777141150    -0.5242288176     0.0947528332
|  9>  C        1.3080969262     2.0555146866    -0.1033260584
| 10>  N        1.6994931379     2.6005670747     1.0188911853
| 11>  O        3.0440669391     2.9122056852     0.7824083303
| 12>  C        3.2969153171     2.5148092968    -0.4661849940
| 13>  N        2.2878657811     1.9828920330    -1.0747791912
| 14>  H       -0.4555712115     1.8773134701    -1.2652343307
| 15>  H       -0.7248379085     1.9951546835     0.4916488947
| 16>  H        0.3475018066    -1.4277678069     1.2117880243
| 17>  H       -0.3073513406     0.1312635957     1.9164885960
| 18>  H       -2.2144483964     0.1350856460     0.3205393190
| 19>  H       -1.6413895318    -1.4212650566    -0.4575996822
| 20>  H        4.2973213959     2.6768495782    -0.8401842475
| 21> *
| 22>
| 23>                          ****END OF INPUT****

CARTESIAN COORDINATES (ANGSTROEM)
---------------------------------
  C     -0.087630    1.547473   -0.288141
  N     -0.101880    0.086547   -0.266441
  C     -0.237501   -0.527029    1.052491
  C     -1.377714   -0.524229    0.094753
  C      1.308097    2.055515   -0.103326
  N      1.699493    2.600567    1.018891
  O      3.044067    2.912206    0.782408
  C      3.296915    2.514809   -0.466185
  N      2.287866    1.982892   -1.074779
  H     -0.455571    1.877313   -1.265234
  H     -0.724838    1.995155    0.491649
  H      0.347502   -1.427768    1.211788
  H     -0.307351    0.131264    1.916489
  H     -2.214448    0.135086    0.320539
  H     -1.641390   -1.421265   -0.457600
  H      4.297321    2.676850   -0.840184

 Total Charge           Charge          ....    0
 Multiplicity           Mult            ....    1
 Number of Electrons    NEL             ....   66
 Basis Dimension        Dim             ....  321

ORBITAL ENERGIES
----------------

  NO   OCC          E(Eh)            E(eV)
   0   2.0000     -20.662442      -562.2536
   1   2.0000     -15.630244      -425.3206
   2   2.0000     -15.579235      -423.9325
   3   2.0000     -15.571807      -423.7304
   4   2.0000     -11.361748      -309.1689
   5   2.0000     -11.317648      -307.9689
   6   2.0000     -11.278842      -306.9129
   7   2.0000     -11.262657      -306.4725
   8   2.0000     -11.260064      -306.4019
   9   2.0000      -1.524918       -41.4951
  10   2.0000      -1.287943       -35.0467
  11   2.0000      -1.257154       -34.2089
  12   2.0000      -1.168620       -31.7998
  13   2.0000      -1.024970       -27.8909
  14   2.0000      -0.874890       -23.8070
  15   2.0000      -0.863025       -23.4841
  16   2.0000      -0.850762       -23.1504
  17   2.0000      -0.805180       -21.9101
  18   2.0000      -0.738189       -20.0872
  19   2.0000      -0.690784       -18.7972
  20   2.0000      -0.678766       -18.4702
  21   2.0000      -0.659796       -17.9540
  22   2.0000      -0.630117       -17.1463
  23   2.0000      -0.593319       -16.1450
  24   2.0000      -0.565116       -15.3776
  25   2.0000      -0.534259       -14.5379
  26   2.0000      -0.526979       -14.3398
  27   2.0000      -0.485776       -13.2186
  28   2.0000      -0.474444       -12.9103
  29   2.0000      -0.468470       -12.7477
  30   2.0000      -0.461632       -12.5616
  31   2.0000      -0.409787       -11.1509
  32   2.0000      -0.388108       -10.5610
  33   0.0000       0.115315         3.1379
  34   0.0000       0.147720         4.0197
  35   0.0000       0.165465         4.5025
  36   0.0000       0.171324         4.6620
  37   0.0000       0.177799         4.8382

MULLIKEN ATOMIC CHARGES
-----------------------
   0 C :   -0.146726
   1 N :   -0.229536
   2 C :   -0.185917
   3 C :   -0.171945
   4 C :    0.160738
   5 N :   -0.121510
   6 O :   -0.096663
   7 C :    0.117906
   8 N :   -0.289306
   9 H :    0.137589
  10 H :    0.129089
  11 H :    0.132293
  12 H :    0.134708
  13 H :    0.122913
  14 H :    0.134053
  15 H :    0.172312
Sum of atomic charges:   -0.0000000

LOEWDIN ATOMIC CHARGES
----------------------
   0 C :   -0.256154
   1 N :    0.096650
   2 C :   -0.264488
   3 C :   -0.266218
   4 C :   -0.349188
   5 N :    0.059226
   6 O :    0.272102
   7 C :   -0.341771
   8 N :    0.122547
   9 H :    0.149625
  10 H :    0.138483
  11 H :    0.125980
  12 H :    0.125709
  13 H :    0.122742
  14 H :    0.125928
  15 H :    0.138827

  Mayer bond orders larger than 0.1
B(  0-C ,  1-N ) :   0.8851 B(  0-C ,  4-C ) :   0.9154 B(  0-C ,  9-H ) :   0.9013
B(  0-C , 10-H ) :   0.9446 B(  1-N ,  2-C ) :   0.8828 B(  1-N ,  3-C ) :   0.8891
B(  2-C ,  3-C ) :   0.9405 B(  2-C , 11-H ) :   0.9291 B(  2-C , 12-H ) :   0.9216
B(  3-C , 13-H ) :   0.9252 B(  3-C , 14-H ) :   0.9253 B(  4-C ,  5-N ) :   1.6244
B(  4-C ,  8-N ) :   1.2105 B(  5-N ,  6-O ) :   0.8846 B(  6-O ,  7-C ) :   1.1462
B(  7-C ,  8-N ) :   1.6056 B(  7-C , 15-H ) :   0.9171

MP2 TOTAL ENERGY:     -433.300981029 Eh
FINAL SINGLE POINT ENERGY      -433.300981029475

DIPOLE MOMENT
-------------
                                X             Y             Z
Electronic contribution:      7.65103       5.54781      -0.58781
Nuclear contribution   :     -7.82833      -5.53607       0.62343
                        -----------------------------------------
Total Dipole Moment    :     -0.17730       0.01175       0.03561
                        -----------------------------------------
Magnitude (a.u.)       :      0.18122
Magnitude (Debye)      :      0.46063

                             ****ORCA TERMINATED NORMALLY****
TOTAL RUN TIME: 0 days 0 hours 14 minutes 56 seconds 636 msec
