                         Program Version 3.0.3 - RELEASE   -
|  1> ! RI-MP2 RIJK def2-TZVP def2-TZVP/C def2-TZVP/JK TIGHTSCF
|  2> % maxcore 2000
|  3> % mp2 density relaxed end
|  4> *xyz 0 1
|  5>  C       -0.0210560557     1.5031272804    -0.0578890750
|  6>  C        0.1605017110     0.0067597110     0.0082937503
|  7>  N        1.3126563247    -0.5184720601    -0.0372225397
|  8>  N       -1.0746421519    -0.6765119366     0.1139796525
|  9>  C       -1.2465843013    -2.0493828513     0.2180003720
| 10>  N       -2.5745190428    -2.4290428488     0.3241730730
| 11>  O       -0.3333908202    -2.8513083270     0.2558541685
| 12>  H        0.9585114130     1.9708164723    -0.1438068911
| 13>  H       -0.6336221227     1.7901000540    -0.9207547447
| 14>  H       -0.5199552020     1.8808508494     0.8427927645
| 15>  H        1.2427805463    -1.5350603693     0.0298371858
| 16>  H       -1.8952587665    -0.0996616215     0.2104430542
| 17>  H       -3.2815995457    -1.8650139516    -0.1218651824
| 18>  H       -2.7051575562    -3.4237109308     0.2190553121
| 19> *
| 20>
| 21>                          ****END OF INPUT****

CARTESIAN COORDINATES (ANGSTROEM)
---------------------------------
  C     -0.021056    1.503127   -0.057889
  C      0.160502    0.006760    0.008294
  N      1.312656   -0.518472   -0.037223
  N     -1.074642   -0.676512    0.113980
  C     -1.246584   -2.049383    0.218000
  N     -2.574519   -2.429043    0.324173
  O     -0.333391   -2.851308    0.255854
  H      0.958511    1.970816   -0.143807
  H     -0.633622    1.790100   -0.920755
  H     -0.519955    1.880851    0.842793
  H      1.242781   -1.535060    0.029837
  H     -1.895259   -0.099662    0.210443
  H     -3.281600   -1.865014   -0.121865
  H     -2.705158   -3.423711    0.219055

 Total Charge           Charge          ....    0
 Multiplicity           Mult            ....    1
 Number of Electrons    NEL             ....   54
 Basis Dimension        Dim             ....  259

ORBITAL ENERGIES
----------------

  NO   OCC          E(Eh)            E(eV)
   0   2.0000     -20.531502      -558.6906
   1   2.0000     -15.612095      -424.8267
   2   2.0000     -15.597311      -424.4244
   3   2.0000     -15.523586      -422.4183
   4   2.0000     -11.399539      -310.1972
   5   2.0000     -11.322069      -308.0892
   6   2.0000     -11.237843      -305.7972
   7   2.0000      -1.414697       -38.4959
   8   2.0000      -1.282200       -34.8904
   9   2.0000      -1.227670       -33.4066
  10   2.0000      -1.160359       -31.5750
  11   2.0000      -1.003077       -27.2951
  12   2.0000      -0.868031       -23.6203
  13   2.0000      -0.778569       -21.1860
  14   2.0000      -0.761263       -20.7150
  15   2.0000      -0.716386       -19.4939
  16   2.0000      -0.673555       -18.3284
  17   2.0000      -0.638628       -17.3780
  18   2.0000      -0.630941       -17.1688
  19   2.0000      -0.589231       -16.0338
  20   2.0000      -0.568589       -15.4721
  21   2.0000      -0.560107       -15.2413
  22   2.0000      -0.491177       -13.3656
  23   2.0000      -0.476919       -12.9776
  24   2.0000      -0.443115       -12.0578
  25   2.0000      -0.414515       -11.2795
  26   2.0000      -0.383413       -10.4332
  27   0.0000       0.101740         2.7685
  28   0.0000       0.139688         3.8011
  29   0.0000       0.160431         4.3656
  30   0.0000       0.170123         4.6293
  31   0.0000       0.193872         5.2755

MULLIKEN ATOMIC CHARGES
-----------------------
   0 C :   -0.426369
   1 C :    0.188082
   2 N :   -0.368243
   3 N :   -0.357743
   4 C :    0.445968
   5 N :   -0.529374
   6 O :   -0.400351
   7 H :    0.163538
   8 H :    0.139636
   9 H :    0.140644
  10 H :    0.247893
  11 H :    0.235637
  12 H :    0.249206
  13 H :    0.271477
Sum of atomic charges:   -0.0000000

LOEWDIN ATOMIC CHARGES
----------------------
   0 C :   -0.275980
   1 C :   -0.379635
   2 N :   -0.038244
   3 N :    0.122838
   4 C :   -0.545397
   5 N :   -0.058784
   6 O :    0.068606
   7 H :    0.140975
   8 H :    0.129567
   9 H :    0.130106
  10 H :    0.167584
  11 H :    0.193224
  12 H :    0.165799
  13 H :    0.179340

  Mayer bond orders larger than 0.1
B(  0-C ,  1-C ) :   0.8948 B(  0-C ,  7-H ) :   0.9381 B(  0-C ,  8-H ) :   0.9289
B(  0-C ,  9-H ) :   0.9274 B(  1-C ,  2-N ) :   2.0319 B(  1-C ,  3-N ) :   0.9596
B(  2-N , 10-H ) :   0.8524 B(  3-N ,  4-C ) :   1.0480 B(  3-N , 11-H ) :   0.8713
B(  4-C ,  5-N ) :   1.1039 B(  4-C ,  6-O ) :   1.8678 B(  5-N , 12-H ) :   0.8723
B(  5-N , 13-H ) :   0.8653

MP2 TOTAL ENERGY:     -357.371360670 Eh
FINAL SINGLE POINT ENERGY      -357.371360670380

DIPOLE MOMENT
-------------
                                X             Y             Z
Electronic contribution:      0.46448      -4.90682       0.39749
Nuclear contribution   :     -2.62820       5.53255      -0.65872
                        -----------------------------------------
Total Dipole Moment    :     -2.16373       0.62573      -0.26123
                        -----------------------------------------
Magnitude (a.u.)       :      2.26749
Magnitude (Debye)      :      5.76349

                             ****ORCA TERMINATED NORMALLY****
TOTAL RUN TIME: 0 days 0 hours 7 minutes 45 seconds 664 msec
