                         Program Version 3.0.3 - RELEASE   -
|  1> ! RI-MP2 RIJK def2-TZVP def2-TZVP/C def2-TZVP/JK TIGHTSCF
|  2> % maxcore 2000
|  3> % mp2 density relaxed end
|  4> *xyz 0 1
|  5>  C        0.9291821933     1.3515098557    -0.2587626042
|  6>  C       -0.0020519560     0.2023477251    -0.6589799931
|  7>  N        0.5799632052    -1.0502089298    -1.1141145849
|  8>  C        1.8261044197    -1.2041665336    -1.1451322350
|  9>  O        2.3463334150    -2.4037538386    -1.5064514594
| 10>  C        3.7176917883    -2.4151513843    -1.8939176400
| 11>  C        3.8468199147    -2.2421468547    -3.4129534303
| 12>  C        3.2248652476    -3.4013847531    -4.1900951737
| 13>  O        3.3018099884    -0.9877308243    -3.8048223513
| 14>  H        1.5741028024     1.0814322605     0.5843750653
| 15>  H        1.5691434617     1.6666517382    -1.0898586398
| 16>  H        0.3317403885     2.2160037576     0.0460727271
| 17>  H       -0.6600571826    -0.0408373309     0.1861771946
| 18>  H       -0.6770819586     0.5463456867    -1.4540363387
| 19>  H        2.5867439562    -0.4596663614    -0.8814066459
| 20>  H        4.2636189024    -1.6112663402    -1.3836731815
| 21>  H        4.1286332641    -3.3774794134    -1.5726854486
| 22>  H        4.9176274626    -2.1771288372    -3.6446428912
| 23>  H        2.1710110249    -3.5210085454    -3.9178686554
| 24>  H        3.2933863277    -3.2123261909    -5.2644579355
| 25>  H        3.7367723196    -4.3438798001    -3.9702308310
| 26>  H        2.3413990549    -1.0715305660    -3.7880920875
| 27> *
| 28>
| 29>                          ****END OF INPUT****

CARTESIAN COORDINATES (ANGSTROEM)
---------------------------------
  C      0.929182    1.351510   -0.258763
  C     -0.002052    0.202348   -0.658980
  N      0.579963   -1.050209   -1.114115
  C      1.826104   -1.204167   -1.145132
  O      2.346333   -2.403754   -1.506451
  C      3.717692   -2.415151   -1.893918
  C      3.846820   -2.242147   -3.412953
  C      3.224865   -3.401385   -4.190095
  O      3.301810   -0.987731   -3.804822
  H      1.574103    1.081432    0.584375
  H      1.569143    1.666652   -1.089859
  H      0.331740    2.216004    0.046073
  H     -0.660057   -0.040837    0.186177
  H     -0.677082    0.546346   -1.454036
  H      2.586744   -0.459666   -0.881407
  H      4.263619   -1.611266   -1.383673
  H      4.128633   -3.377479   -1.572685
  H      4.917627   -2.177129   -3.644643
  H      2.171011   -3.521009   -3.917869
  H      3.293386   -3.212326   -5.264458
  H      3.736772   -4.343880   -3.970231
  H      2.341399   -1.071531   -3.788092

 Total Charge           Charge          ....    0
 Multiplicity           Mult            ....    1
 Number of Electrons    NEL             ....   72
 Basis Dimension        Dim             ....  357

ORBITAL ENERGIES
----------------

  NO   OCC          E(Eh)            E(eV)
   0   2.0000     -20.587508      -560.2146
   1   2.0000     -20.560988      -559.4929
   2   2.0000     -15.540439      -422.8768
   3   2.0000     -11.327132      -308.2269
   4   2.0000     -11.291978      -307.2703
   5   2.0000     -11.289316      -307.1979
   6   2.0000     -11.252468      -306.1952
   7   2.0000     -11.221144      -305.3429
   8   2.0000     -11.219633      -305.3017
   9   2.0000      -1.423944       -38.7475
  10   2.0000      -1.366080       -37.1729
  11   2.0000      -1.218369       -33.1535
  12   2.0000      -1.049768       -28.5656
  13   2.0000      -1.010387       -27.4940
  14   2.0000      -0.947705       -25.7884
  15   2.0000      -0.883260       -24.0347
  16   2.0000      -0.825488       -22.4627
  17   2.0000      -0.790815       -21.5192
  18   2.0000      -0.702689       -19.1211
  19   2.0000      -0.697017       -18.9668
  20   2.0000      -0.659452       -17.9446
  21   2.0000      -0.635199       -17.2847
  22   2.0000      -0.626487       -17.0476
  23   2.0000      -0.618261       -16.8237
  24   2.0000      -0.593597       -16.1526
  25   2.0000      -0.570925       -15.5357
  26   2.0000      -0.555810       -15.1244
  27   2.0000      -0.538951       -14.6656
  28   2.0000      -0.531762       -14.4700
  29   2.0000      -0.513969       -13.9858
  30   2.0000      -0.511277       -13.9126
  31   2.0000      -0.501095       -13.6355
  32   2.0000      -0.481717       -13.1082
  33   2.0000      -0.453018       -12.3273
  34   2.0000      -0.404014       -10.9938
  35   2.0000      -0.376991       -10.2584
  36   0.0000       0.131837         3.5875
  37   0.0000       0.145108         3.9486
  38   0.0000       0.152067         4.1379
  39   0.0000       0.169623         4.6157
  40   0.0000       0.174295         4.7428

MULLIKEN ATOMIC CHARGES
-----------------------
   0 C :   -0.430336
   1 C :   -0.085822
   2 N :   -0.201972
   3 C :    0.018836
   4 O :   -0.243696
   5 C :   -0.057424
   6 C :    0.095259
   7 C :   -0.427118
   8 O :   -0.476694
   9 H :    0.128244
  10 H :    0.135243
  11 H :    0.138568
  12 H :    0.121034
  13 H :    0.120011
  14 H :    0.078014
  15 H :    0.115165
  16 H :    0.125817
  17 H :    0.095919
  18 H :    0.150602
  19 H :    0.146799
  20 H :    0.123552
  21 H :    0.329998
Sum of atomic charges:   -0.0000000

LOEWDIN ATOMIC CHARGES
----------------------
   0 C :   -0.333787
   1 C :   -0.329566
   2 N :    0.077102
   3 C :   -0.377115
   4 O :    0.237305
   5 C :   -0.292811
   6 C :   -0.382231
   7 C :   -0.303779
   8 O :   -0.015592
   9 H :    0.119536
  10 H :    0.121314
  11 H :    0.126275
  12 H :    0.135440
  13 H :    0.134481
  14 H :    0.114632
  15 H :    0.126840
  16 H :    0.134342
  17 H :    0.145790
  18 H :    0.129282
  19 H :    0.126918
  20 H :    0.127137
  21 H :    0.178488

  Mayer bond orders larger than 0.1
B(  0-C ,  1-C ) :   0.9113 B(  0-C ,  9-H ) :   0.9340 B(  0-C , 10-H ) :   0.9338
B(  0-C , 11-H ) :   0.9300 B(  1-C ,  2-N ) :   0.9194 B(  1-C , 12-H ) :   0.9247
B(  1-C , 13-H ) :   0.9297 B(  2-N ,  3-C ) :   1.8814 B(  3-C ,  4-O ) :   1.0557
B(  3-C , 14-H ) :   0.9281 B(  4-O ,  5-C ) :   0.8615 B(  5-C ,  6-C ) :   0.9113
B(  5-C , 15-H ) :   0.9330 B(  5-C , 16-H ) :   0.9238 B(  6-C ,  7-C ) :   0.9496
B(  6-C ,  8-O ) :   0.9404 B(  6-C , 17-H ) :   0.9182 B(  7-C , 18-H ) :   0.9199
B(  7-C , 19-H ) :   0.9379 B(  7-C , 20-H ) :   0.9296 B(  8-O , 21-H ) :   0.8348

MP2 TOTAL ENERGY:     -440.756991349 Eh
FINAL SINGLE POINT ENERGY      -440.756991348620

DIPOLE MOMENT
-------------
                                X             Y             Z
Electronic contribution:     -0.08508      -2.79586       0.01460
Nuclear contribution   :      0.70452       2.93318       0.16477
                        -----------------------------------------
Total Dipole Moment    :      0.61943       0.13731       0.17938
                        -----------------------------------------
Magnitude (a.u.)       :      0.65934
Magnitude (Debye)      :      1.67591

                             ****ORCA TERMINATED NORMALLY****
TOTAL RUN TIME: 0 days 0 hours 16 minutes 27 seconds 515 msec
