                         Program Version 3.0.3 - RELEASE   -
|  1> ! RI-MP2 RIJK def2-TZVP def2-TZVP/C def2-TZVP/JK TIGHTSCF
|  2> % maxcore 2000
|  3> % mp2 density relaxed end
|  4> *xyz 0 1
|  5>  C        0.0637763275     1.4795934678     0.0021381771
|  6>  C        0.0823177259    -0.0328429531    -0.0024961623
|  7>  O        0.7010194834    -0.4694905989    -1.1952663754
|  8>  C        0.7488982246    -1.8913036060    -1.2676973260
|  9>  C        1.5203822706    -2.4362642804    -0.0617957675
| 10>  O        2.8818463937    -2.0495301487    -0.1275391097
| 11>  C        0.8465018604    -1.9063685149     1.2193872730
| 12>  C        1.5879172042    -2.2644263308     2.4946239466
| 13>  O        0.7890553043    -0.4764345734     1.1337477297
| 14>  H        1.0879635747     1.8593335236    -0.0328444583
| 15>  H       -0.4822658871     1.8488857280    -0.8686326430
| 16>  H       -0.4184251442     1.8428898504     0.9122327495
| 17>  H       -0.9431703626    -0.4508125754     0.0326555409
| 18>  H       -0.2705060353    -2.3097203758    -1.2992693210
| 19>  H        1.2638944416    -2.1405594288    -2.1982656648
| 20>  H        1.5042893632    -3.5319085306    -0.0677629521
| 21>  H        2.8792566402    -1.0853028034    -0.1765738790
| 22>  H       -0.1838226913    -2.3014550027     1.2589219836
| 23>  H        2.6270288731    -1.9359553431     2.4286917008
| 24>  H        1.1130905085    -1.7857173087     3.3548283795
| 25>  H        1.5774940844    -3.3481856053     2.6462772287
| 26> *
| 27>
| 28>                          ****END OF INPUT****

CARTESIAN COORDINATES (ANGSTROEM)
---------------------------------
  C      0.063776    1.479593    0.002138
  C      0.082318   -0.032843   -0.002496
  O      0.701019   -0.469491   -1.195266
  C      0.748898   -1.891304   -1.267697
  C      1.520382   -2.436264   -0.061796
  O      2.881846   -2.049530   -0.127539
  C      0.846502   -1.906369    1.219387
  C      1.587917   -2.264426    2.494624
  O      0.789055   -0.476435    1.133748
  H      1.087964    1.859334   -0.032844
  H     -0.482266    1.848886   -0.868633
  H     -0.418425    1.842890    0.912233
  H     -0.943170   -0.450813    0.032656
  H     -0.270506   -2.309720   -1.299269
  H      1.263894   -2.140559   -2.198266
  H      1.504289   -3.531909   -0.067763
  H      2.879257   -1.085303   -0.176574
  H     -0.183823   -2.301455    1.258922
  H      2.627029   -1.935955    2.428692
  H      1.113091   -1.785717    3.354828
  H      1.577494   -3.348186    2.646277

 Total Charge           Charge          ....    0
 Multiplicity           Mult            ....    1
 Number of Electrons    NEL             ....   72
 Basis Dimension        Dim             ....  351

ORBITAL ENERGIES
----------------

  NO   OCC          E(Eh)            E(eV)
   0   2.0000     -20.567691      -559.6753
   1   2.0000     -20.564753      -559.5954
   2   2.0000     -20.553421      -559.2870
   3   2.0000     -11.336772      -308.4892
   4   2.0000     -11.287605      -307.1513
   5   2.0000     -11.283861      -307.0495
   6   2.0000     -11.282719      -307.0184
   7   2.0000     -11.218347      -305.2667
   8   2.0000     -11.214876      -305.1723
   9   2.0000      -1.431777       -38.9606
  10   2.0000      -1.359932       -37.0056
  11   2.0000      -1.349874       -36.7319
  12   2.0000      -1.076165       -29.2839
  13   2.0000      -0.997823       -27.1521
  14   2.0000      -0.978276       -26.6203
  15   2.0000      -0.879612       -23.9355
  16   2.0000      -0.838680       -22.8216
  17   2.0000      -0.795843       -21.6560
  18   2.0000      -0.719803       -19.5868
  19   2.0000      -0.688655       -18.7393
  20   2.0000      -0.672593       -18.3022
  21   2.0000      -0.654030       -17.7971
  22   2.0000      -0.637024       -17.3343
  23   2.0000      -0.611732       -16.6461
  24   2.0000      -0.581594       -15.8260
  25   2.0000      -0.560150       -15.2425
  26   2.0000      -0.551608       -15.0100
  27   2.0000      -0.538367       -14.6497
  28   2.0000      -0.536286       -14.5931
  29   2.0000      -0.528322       -14.3764
  30   2.0000      -0.514431       -13.9984
  31   2.0000      -0.493603       -13.4316
  32   2.0000      -0.482141       -13.1197
  33   2.0000      -0.466060       -12.6821
  34   2.0000      -0.444142       -12.0857
  35   2.0000      -0.409827       -11.1520
  36   0.0000       0.135885         3.6976
  37   0.0000       0.151640         4.1263
  38   0.0000       0.160991         4.3808
  39   0.0000       0.174467         4.7475
  40   0.0000       0.186228         5.0675

MULLIKEN ATOMIC CHARGES
-----------------------
   0 C :   -0.353261
   1 C :    0.149133
   2 O :   -0.302408
   3 C :   -0.077141
   4 C :    0.069578
   5 O :   -0.471906
   6 C :    0.006061
   7 C :   -0.352706
   8 O :   -0.290428
   9 H :    0.130526
  10 H :    0.134567
  11 H :    0.134433
  12 H :    0.066612
  13 H :    0.104336
  14 H :    0.136881
  15 H :    0.109713
  16 H :    0.327828
  17 H :    0.079794
  18 H :    0.140217
  19 H :    0.138321
  20 H :    0.119850
Sum of atomic charges:    0.0000000

LOEWDIN ATOMIC CHARGES
----------------------
   0 C :   -0.284585
   1 C :   -0.440230
   2 O :    0.172052
   3 C :   -0.300081
   4 C :   -0.342026
   5 O :   -0.008071
   6 C :   -0.331544
   7 C :   -0.287874
   8 O :    0.194976
   9 H :    0.130061
  10 H :    0.130001
  11 H :    0.130052
  12 H :    0.123242
  13 H :    0.124421
  14 H :    0.134872
  15 H :    0.149239
  16 H :    0.180725
  17 H :    0.138855
  18 H :    0.130508
  19 H :    0.127140
  20 H :    0.128270

  Mayer bond orders larger than 0.1
B(  0-C ,  1-C ) :   0.9312 B(  0-C ,  9-H ) :   0.9314 B(  0-C , 10-H ) :   0.9357
B(  0-C , 11-H ) :   0.9356 B(  1-C ,  2-O ) :   0.9737 B(  1-C ,  8-O ) :   0.9837
B(  1-C , 12-H ) :   0.9217 B(  2-O ,  3-C ) :   0.8995 B(  3-C ,  4-C ) :   0.9290
B(  3-C , 13-H ) :   0.9344 B(  3-C , 14-H ) :   0.9291 B(  4-C ,  5-O ) :   0.9062
B(  4-C ,  6-C ) :   0.9224 B(  4-C , 15-H ) :   0.9167 B(  5-O , 16-H ) :   0.8259
B(  6-C ,  7-C ) :   0.9341 B(  6-C ,  8-O ) :   0.9079 B(  6-C , 17-H ) :   0.9273
B(  7-C , 18-H ) :   0.9280 B(  7-C , 19-H ) :   0.9369 B(  7-C , 20-H ) :   0.9298

MP2 TOTAL ENERGY:     -460.652752429 Eh
FINAL SINGLE POINT ENERGY      -460.652752429303

DIPOLE MOMENT
-------------
                                X             Y             Z
Electronic contribution:      1.77575      -0.14295      -2.84220
Nuclear contribution   :     -2.58819      -0.06630       2.91039
                        -----------------------------------------
Total Dipole Moment    :     -0.81243      -0.20925       0.06819
                        -----------------------------------------
Magnitude (a.u.)       :      0.84171
Magnitude (Debye)      :      2.13946

                             ****ORCA TERMINATED NORMALLY****
TOTAL RUN TIME: 0 days 0 hours 17 minutes 30 seconds 869 msec
