                         Program Version 3.0.3 - RELEASE   -
|  1> ! RI-MP2 RIJK def2-TZVP def2-TZVP/C def2-TZVP/JK TIGHTSCF
|  2> % maxcore 2000
|  3> % mp2 density relaxed end
|  4> *xyz 0 1
|  5>  O       -0.2691460328     0.0237960822     0.5049087186
|  6>  C       -0.0173502920     1.1647688400     0.1595011927
|  7>  C       -1.1381400786     2.1761568595    -0.0432252315
|  8>  C       -1.6132866440     2.2583019487    -1.5065757531
|  9>  C       -0.4596581370     2.5643758531    -2.4862761588
| 10>  C        0.3278139437     3.7812177630    -2.0993770332
| 11>  C        1.3550100374     3.8067137212    -1.2344666341
| 12>  C        1.9545050069     2.6725841931    -0.5392782858
| 13>  C        1.4048830749     1.5601682178    -0.0100405481
| 14>  H       -1.9684999154     1.8530930169     0.5899236120
| 15>  H       -0.8109198417     3.1667541609     0.2869396270
| 16>  H       -2.0806968371     1.3108306854    -1.7961974229
| 17>  H       -2.3864454572     3.0318528838    -1.5793727564
| 18>  H        0.2086139437     1.6947361271    -2.5138869878
| 19>  H       -0.8687907522     2.6901335661    -3.4941384568
| 20>  H        0.0395214889     4.7207830087    -2.5662196486
| 21>  H        1.8749371792     4.7521094280    -1.0909822543
| 22>  H        3.0382710259     2.7484337719    -0.4440890388
| 23>  H        2.0746886273     0.8033455725     0.3908747099
| 24> *
| 25>
| 26>                          ****END OF INPUT****

CARTESIAN COORDINATES (ANGSTROEM)
---------------------------------
  O     -0.269146    0.023796    0.504909
  C     -0.017350    1.164769    0.159501
  C     -1.138140    2.176157   -0.043225
  C     -1.613287    2.258302   -1.506576
  C     -0.459658    2.564376   -2.486276
  C      0.327814    3.781218   -2.099377
  C      1.355010    3.806714   -1.234467
  C      1.954505    2.672584   -0.539278
  C      1.404883    1.560168   -0.010041
  H     -1.968500    1.853093    0.589924
  H     -0.810920    3.166754    0.286940
  H     -2.080697    1.310831   -1.796197
  H     -2.386445    3.031853   -1.579373
  H      0.208614    1.694736   -2.513887
  H     -0.868791    2.690134   -3.494138
  H      0.039521    4.720783   -2.566220
  H      1.874937    4.752109   -1.090982
  H      3.038271    2.748434   -0.444089
  H      2.074689    0.803346    0.390875

 Total Charge           Charge          ....    0
 Multiplicity           Mult            ....    1
 Number of Electrons    NEL             ....   66
 Basis Dimension        Dim             ....  339

ORBITAL ENERGIES
----------------

  NO   OCC          E(Eh)            E(eV)
   0   2.0000     -20.537152      -558.8443
   1   2.0000     -11.325888      -308.1931
   2   2.0000     -11.265015      -306.5366
   3   2.0000     -11.253551      -306.2247
   4   2.0000     -11.245335      -306.0011
   5   2.0000     -11.241798      -305.9049
   6   2.0000     -11.240329      -305.8649
   7   2.0000     -11.238365      -305.8115
   8   2.0000     -11.231334      -305.6201
   9   2.0000      -1.378189       -37.5024
  10   2.0000      -1.131766       -30.7969
  11   2.0000      -1.070692       -29.1350
  12   2.0000      -1.042075       -28.3563
  13   2.0000      -0.951039       -25.8791
  14   2.0000      -0.900551       -24.5053
  15   2.0000      -0.813745       -22.1431
  16   2.0000      -0.775876       -21.1127
  17   2.0000      -0.693019       -18.8580
  18   2.0000      -0.682134       -18.5618
  19   2.0000      -0.662428       -18.0256
  20   2.0000      -0.637271       -17.3410
  21   2.0000      -0.617602       -16.8058
  22   2.0000      -0.596927       -16.2432
  23   2.0000      -0.568134       -15.4597
  24   2.0000      -0.563253       -15.3269
  25   2.0000      -0.533165       -14.5081
  26   2.0000      -0.523660       -14.2495
  27   2.0000      -0.499164       -13.5830
  28   2.0000      -0.483872       -13.1668
  29   2.0000      -0.478498       -13.0206
  30   2.0000      -0.424418       -11.5490
  31   2.0000      -0.408254       -11.1092
  32   2.0000      -0.338994        -9.2245
  33   0.0000       0.068139         1.8542
  34   0.0000       0.128621         3.5000
  35   0.0000       0.145773         3.9667
  36   0.0000       0.166461         4.5296
  37   0.0000       0.171834         4.6758

MULLIKEN ATOMIC CHARGES
-----------------------
   0 O :   -0.294631
   1 C :    0.198972
   2 C :   -0.164653
   3 C :   -0.243961
   4 C :   -0.188371
   5 C :   -0.175490
   6 C :   -0.159006
   7 C :   -0.035986
   8 C :   -0.256332
   9 H :    0.136184
  10 H :    0.133392
  11 H :    0.130466
  12 H :    0.119211
  13 H :    0.144389
  14 H :    0.130152
  15 H :    0.128564
  16 H :    0.128505
  17 H :    0.134611
  18 H :    0.133984
Sum of atomic charges:   -0.0000000

LOEWDIN ATOMIC CHARGES
----------------------
   0 O :    0.144273
   1 C :   -0.325658
   2 C :   -0.225981
   3 C :   -0.249695
   4 C :   -0.250278
   5 C :   -0.144873
   6 C :   -0.172815
   7 C :   -0.133835
   8 C :   -0.133866
   9 H :    0.150438
  10 H :    0.150296
  11 H :    0.143502
  12 H :    0.139170
  13 H :    0.153915
  14 H :    0.143262
  15 H :    0.146033
  16 H :    0.151995
  17 H :    0.156668
  18 H :    0.157450

  Mayer bond orders larger than 0.1
B(  0-O ,  1-C ) :   1.9301 B(  1-C ,  2-C ) :   0.8858 B(  1-C ,  8-C ) :   1.0186
B(  2-C ,  3-C ) :   0.9110 B(  2-C ,  9-H ) :   0.9236 B(  2-C , 10-H ) :   0.9089
B(  3-C ,  4-C ) :   0.9118 B(  3-C , 11-H ) :   0.9252 B(  3-C , 12-H ) :   0.9286
B(  4-C ,  5-C ) :   0.9233 B(  4-C , 13-H ) :   0.9232 B(  4-C , 14-H ) :   0.9345
B(  5-C ,  6-C ) :   1.7437 B(  5-C , 15-H ) :   0.9239 B(  6-C ,  7-C ) :   0.9797
B(  6-C , 16-H ) :   0.9269 B(  7-C ,  8-C ) :   1.6423 B(  7-C , 17-H ) :   0.9167
B(  8-C , 18-H ) :   0.9178

MP2 TOTAL ENERGY:     -385.230543105 Eh
FINAL SINGLE POINT ENERGY      -385.230543105472

DIPOLE MOMENT
-------------
                                X             Y             Z
Electronic contribution:      2.26927      -3.38348       3.38826
Nuclear contribution   :     -2.10519       4.55017      -3.95978
                        -----------------------------------------
Total Dipole Moment    :      0.16409       1.16669      -0.57152
                        -----------------------------------------
Magnitude (a.u.)       :      1.30948
Magnitude (Debye)      :      3.32843

                             ****ORCA TERMINATED NORMALLY****
TOTAL RUN TIME: 0 days 0 hours 20 minutes 32 seconds 984 msec
