                         Program Version 3.0.3 - RELEASE   -
|  1> ! RI-MP2 RIJK def2-TZVP def2-TZVP/C def2-TZVP/JK TIGHTSCF
|  2> % maxcore 2000
|  3> % mp2 density relaxed end
|  4> *xyz 0 1
|  5>  C        0.1106744162     1.5390497323    -0.2768519069
|  6>  O       -0.0851572694     0.1511927005    -0.1596279238
|  7>  C        0.6342130701    -0.6397080752    -1.1025767634
|  8>  C        2.1148344697    -0.7573133103    -0.7301851782
|  9>  C       -0.0521437809    -2.0064539851    -1.1432453486
| 10>  C       -1.5021152807    -1.9308444202    -1.5693895022
| 11>  C       -1.8708984486    -1.8749369536    -3.0425362404
| 12>  C       -2.1733437057    -3.1035493969    -2.2197125319
| 13>  O       -1.4005328284    -4.2578630729    -2.4001546006
| 14>  H        1.1389384352     1.8475346474    -0.0364306571
| 15>  H       -0.1264437219     1.9000144001    -1.2904553028
| 16>  H       -0.5660371316     2.0217177137     0.4335323063
| 17>  H        0.5478319169    -0.1688210412    -2.0972772095
| 18>  H        2.6451801264    -1.3756005895    -1.4614761305
| 19>  H        2.6058488958     0.2197686343    -0.7055104811
| 20>  H        2.2219073292    -1.2195234996     0.2563162682
| 21>  H        0.4987870989    -2.6679326333    -1.8178441244
| 22>  H        0.0141008931    -2.4527305454    -0.1425090039
| 23>  H       -2.1249026224    -1.3419123921    -0.9045099005
| 24>  H       -2.6876826620    -1.2376847065    -3.3642106549
| 25>  H       -1.0570446082    -1.9655267930    -3.7558018488
| 26>  H       -3.2140866490    -3.2956468708    -1.9579738025
| 27>  H       -1.6388130726    -4.6419453528    -3.2499950422
| 28> *
| 29>
| 30>                          ****END OF INPUT****

CARTESIAN COORDINATES (ANGSTROEM)
---------------------------------
  C      0.110674    1.539050   -0.276852
  O     -0.085157    0.151193   -0.159628
  C      0.634213   -0.639708   -1.102577
  C      2.114834   -0.757313   -0.730185
  C     -0.052144   -2.006454   -1.143245
  C     -1.502115   -1.930844   -1.569390
  C     -1.870898   -1.874937   -3.042536
  C     -2.173344   -3.103549   -2.219713
  O     -1.400533   -4.257863   -2.400155
  H      1.138938    1.847535   -0.036431
  H     -0.126444    1.900014   -1.290455
  H     -0.566037    2.021718    0.433532
  H      0.547832   -0.168821   -2.097277
  H      2.645180   -1.375601   -1.461476
  H      2.605849    0.219769   -0.705510
  H      2.221907   -1.219523    0.256316
  H      0.498787   -2.667933   -1.817844
  H      0.014101   -2.452731   -0.142509
  H     -2.124903   -1.341912   -0.904510
  H     -2.687683   -1.237685   -3.364211
  H     -1.057045   -1.965527   -3.755802
  H     -3.214087   -3.295647   -1.957974
  H     -1.638813   -4.641945   -3.249995

 Total Charge           Charge          ....    0
 Multiplicity           Mult            ....    1
 Number of Electrons    NEL             ....   72
 Basis Dimension        Dim             ....  363

ORBITAL ENERGIES
----------------

  NO   OCC          E(Eh)            E(eV)
   0   2.0000     -20.558605      -559.4281
   1   2.0000     -20.545949      -559.0837
   2   2.0000     -11.276379      -306.8459
   3   2.0000     -11.273012      -306.7543
   4   2.0000     -11.265566      -306.5516
   5   2.0000     -11.222239      -305.3726
   6   2.0000     -11.219391      -305.2951
   7   2.0000     -11.212217      -305.0999
   8   2.0000     -11.210621      -305.0565
   9   2.0000      -1.367623       -37.2149
  10   2.0000      -1.366414       -37.1820
  11   2.0000      -1.130091       -30.7513
  12   2.0000      -1.044093       -28.4112
  13   2.0000      -0.944066       -25.6893
  14   2.0000      -0.915195       -24.9037
  15   2.0000      -0.825866       -22.4730
  16   2.0000      -0.800315       -21.7777
  17   2.0000      -0.762318       -20.7437
  18   2.0000      -0.703342       -19.1389
  19   2.0000      -0.665543       -18.1104
  20   2.0000      -0.659141       -17.9361
  21   2.0000      -0.629555       -17.1311
  22   2.0000      -0.626067       -17.0362
  23   2.0000      -0.604713       -16.4551
  24   2.0000      -0.566537       -15.4162
  25   2.0000      -0.553109       -15.0509
  26   2.0000      -0.545746       -14.8505
  27   2.0000      -0.533523       -14.5179
  28   2.0000      -0.511843       -13.9279
  29   2.0000      -0.501292       -13.6408
  30   2.0000      -0.494966       -13.4687
  31   2.0000      -0.474112       -12.9012
  32   2.0000      -0.460389       -12.5278
  33   2.0000      -0.414463       -11.2781
  34   2.0000      -0.396406       -10.7868
  35   2.0000      -0.391607       -10.6562
  36   0.0000       0.140168         3.8142
  37   0.0000       0.148092         4.0298
  38   0.0000       0.163388         4.4460
  39   0.0000       0.168122         4.5748
  40   0.0000       0.175048         4.7633

MULLIKEN ATOMIC CHARGES
-----------------------
   0 C :   -0.220200
   1 O :   -0.313694
   2 C :    0.082770
   3 C :   -0.389466
   4 C :   -0.217465
   5 C :   -0.061764
   6 C :   -0.322624
   7 C :    0.030451
   8 O :   -0.471994
   9 H :    0.109517
  10 H :    0.110250
  11 H :    0.137627
  12 H :    0.067269
  13 H :    0.127792
  14 H :    0.129402
  15 H :    0.130103
  16 H :    0.136795
  17 H :    0.117419
  18 H :    0.133653
  19 H :    0.126630
  20 H :    0.129134
  21 H :    0.105628
  22 H :    0.322767
Sum of atomic charges:   -0.0000000

LOEWDIN ATOMIC CHARGES
----------------------
   0 C :   -0.364614
   1 O :    0.154875
   2 C :   -0.346436
   3 C :   -0.297953
   4 C :   -0.224438
   5 C :   -0.209422
   6 C :   -0.226787
   7 C :   -0.322636
   8 O :   -0.008150
   9 H :    0.099644
  10 H :    0.100921
  11 H :    0.112956
  12 H :    0.134882
  13 H :    0.126191
  14 H :    0.120086
  15 H :    0.126776
  16 H :    0.150407
  17 H :    0.149011
  18 H :    0.152607
  19 H :    0.129064
  20 H :    0.134976
  21 H :    0.128624
  22 H :    0.179417

  Mayer bond orders larger than 0.1
B(  0-C ,  1-O ) :   0.9244 B(  0-C ,  9-H ) :   0.9336 B(  0-C , 10-H ) :   0.9362
B(  0-C , 11-H ) :   0.9413 B(  1-O ,  2-C ) :   0.9111 B(  2-C ,  3-C ) :   0.9130
B(  2-C ,  4-C ) :   0.9332 B(  2-C , 12-H ) :   0.9342 B(  3-C , 13-H ) :   0.9367
B(  3-C , 14-H ) :   0.9394 B(  3-C , 15-H ) :   0.9345 B(  4-C ,  5-C ) :   0.9184
B(  4-C , 16-H ) :   0.9273 B(  4-C , 17-H ) :   0.9194 B(  5-C ,  6-C ) :   0.8767
B(  5-C ,  7-C ) :   0.8518 B(  5-C , 18-H ) :   0.9270 B(  6-C ,  7-C ) :   0.8998
B(  6-C , 19-H ) :   0.9196 B(  6-C , 20-H ) :   0.9246 B(  7-C ,  8-O ) :   1.0222
B(  7-C , 21-H ) :   0.9574 B(  8-O , 22-H ) :   0.8420

MP2 TOTAL ENERGY:     -424.694047334 Eh
FINAL SINGLE POINT ENERGY      -424.694047334010

DIPOLE MOMENT
-------------
                                X             Y             Z
Electronic contribution:     -4.31136      -4.87284      -0.25404
Nuclear contribution   :      4.25070       5.21484      -0.45277
                        -----------------------------------------
Total Dipole Moment    :     -0.06066       0.34200      -0.70681
                        -----------------------------------------
Magnitude (a.u.)       :      0.78754
Magnitude (Debye)      :      2.00177

                             ****ORCA TERMINATED NORMALLY****
TOTAL RUN TIME: 0 days 0 hours 16 minutes 52 seconds 385 msec
