                         Program Version 3.0.3 - RELEASE   -
|  1> ! RI-MP2 RIJK def2-TZVP def2-TZVP/C def2-TZVP/JK TIGHTSCF
|  2> % maxcore 2000
|  3> % mp2 density relaxed end
|  4> *xyz 0 1
|  5>  C       -0.0783668963     1.4552594131     0.0339119363
|  6>  C       -0.0293090917    -0.0278511731    -0.0304358506
|  7>  C       -0.0031783677    -0.9103054659    -1.0318112995
|  8>  C        0.0522741544    -2.2482905651    -0.2783404214
|  9>  C       -1.0551632611    -2.0559948881     0.7944808526
| 10>  C        0.0169311828    -0.9866650192     1.2020197478
| 11>  O        1.0388833377    -1.9586707025     0.7728269118
| 12>  C        0.1532191391    -0.4447263263     2.5273824656
| 13>  C        0.2421364625     0.0265525419     3.6295297012
| 14>  H        0.7885331960     1.8541642134     0.5743421462
| 15>  H       -0.0957109804     1.8958980647    -0.9663522714
| 16>  H       -0.9662591611     1.8006032331     0.5778942295
| 17>  H       -0.0167209532    -0.7562775920    -2.1008374023
| 18>  H        0.2253257610    -3.1796031525    -0.8135700280
| 19>  H       -2.0410973965    -1.7070715220     0.4824606987
| 20>  H       -1.1075769089    -2.8763960510     1.5131514841
| 21>  H        0.3270083834     0.4344876215     4.6065457494
| 22> *
| 23>
| 24>                          ****END OF INPUT****

CARTESIAN COORDINATES (ANGSTROEM)
---------------------------------
  C     -0.078367    1.455259    0.033912
  C     -0.029309   -0.027851   -0.030436
  C     -0.003178   -0.910305   -1.031811
  C      0.052274   -2.248291   -0.278340
  C     -1.055163   -2.055995    0.794481
  C      0.016931   -0.986665    1.202020
  O      1.038883   -1.958671    0.772827
  C      0.153219   -0.444726    2.527382
  C      0.242136    0.026553    3.629530
  H      0.788533    1.854164    0.574342
  H     -0.095711    1.895898   -0.966352
  H     -0.966259    1.800603    0.577894
  H     -0.016721   -0.756278   -2.100837
  H      0.225326   -3.179603   -0.813570
  H     -2.041097   -1.707072    0.482461
  H     -1.107577   -2.876396    1.513151
  H      0.327008    0.434488    4.606546

 Total Charge           Charge          ....    0
 Multiplicity           Mult            ....    1
 Number of Electrons    NEL             ....   64
 Basis Dimension        Dim             ....  327

ORBITAL ENERGIES
----------------

  NO   OCC          E(Eh)            E(eV)
   0   2.0000     -20.552930      -559.2736
   1   2.0000     -11.322477      -308.1002
   2   2.0000     -11.297638      -307.4244
   3   2.0000     -11.247938      -306.0720
   4   2.0000     -11.243892      -305.9619
   5   2.0000     -11.241194      -305.8884
   6   2.0000     -11.236562      -305.7624
   7   2.0000     -11.231433      -305.6228
   8   2.0000     -11.227836      -305.5250
   9   2.0000      -1.393184       -37.9105
  10   2.0000      -1.112163       -30.2635
  11   2.0000      -1.052590       -28.6424
  12   2.0000      -1.009016       -27.4567
  13   2.0000      -0.959201       -26.1012
  14   2.0000      -0.922610       -25.1055
  15   2.0000      -0.798011       -21.7150
  16   2.0000      -0.758895       -20.6506
  17   2.0000      -0.709264       -19.3001
  18   2.0000      -0.696122       -18.9424
  19   2.0000      -0.655372       -17.8336
  20   2.0000      -0.596427       -16.2296
  21   2.0000      -0.591920       -16.1070
  22   2.0000      -0.576670       -15.6920
  23   2.0000      -0.560489       -15.2517
  24   2.0000      -0.546414       -14.8687
  25   2.0000      -0.517117       -14.0715
  26   2.0000      -0.493911       -13.4400
  27   2.0000      -0.486147       -13.2287
  28   2.0000      -0.429195       -11.6790
  29   2.0000      -0.402188       -10.9441
  30   2.0000      -0.386467       -10.5163
  31   2.0000      -0.344901        -9.3852
  32   0.0000       0.137471         3.7408
  33   0.0000       0.139595         3.7986
  34   0.0000       0.151950         4.1348
  35   0.0000       0.158110         4.3024
  36   0.0000       0.163127         4.4389

MULLIKEN ATOMIC CHARGES
-----------------------
   0 C :   -0.441313
   1 C :   -0.000606
   2 C :   -0.231929
   3 C :    0.030598
   4 C :   -0.144596
   5 C :   -0.064327
   6 O :   -0.276995
   7 C :    0.062618
   8 C :   -0.100293
   9 H :    0.156570
  10 H :    0.144587
  11 H :    0.146411
  12 H :    0.135846
  13 H :    0.144405
  14 H :    0.117039
  15 H :    0.126199
  16 H :    0.195787
Sum of atomic charges:   -0.0000000

LOEWDIN ATOMIC CHARGES
----------------------
   0 C :   -0.270401
   1 C :   -0.124574
   2 C :   -0.112819
   3 C :   -0.230742
   4 C :   -0.147675
   5 C :   -0.247537
   6 O :    0.178622
   7 C :   -0.056109
   8 C :   -0.064326
   9 H :    0.139500
  10 H :    0.133595
  11 H :    0.136853
  12 H :    0.136252
  13 H :    0.131738
  14 H :    0.129963
  15 H :    0.138076
  16 H :    0.129584

  Mayer bond orders larger than 0.1
B(  0-C ,  1-C ) :   0.8596 B(  0-C ,  9-H ) :   0.9398 B(  0-C , 10-H ) :   0.9486
B(  0-C , 11-H ) :   0.9329 B(  1-C ,  2-C ) :   1.7476 B(  1-C ,  5-C ) :   0.9531
B(  2-C ,  3-C ) :   0.9332 B(  2-C , 12-H ) :   0.9279 B(  3-C ,  4-C ) :   0.9526
B(  3-C ,  6-O ) :   0.8753 B(  3-C , 13-H ) :   0.9040 B(  4-C ,  5-C ) :   0.9028
B(  4-C , 14-H ) :   0.9062 B(  4-C , 15-H ) :   0.9231 B(  5-C ,  6-O ) :   0.9895
B(  5-C ,  7-C ) :   1.1348 B(  5-C ,  8-C ) :  -0.1588 B(  7-C ,  8-C ) :   2.6399
B(  8-C , 16-H ) :   0.8664

MP2 TOTAL ENERGY:     -383.924430008 Eh
FINAL SINGLE POINT ENERGY      -383.924430007788

DIPOLE MOMENT
-------------
                                X             Y             Z
Electronic contribution:      2.30294      -3.26708       2.30160
Nuclear contribution   :     -3.02355       3.61792      -2.51982
                        -----------------------------------------
Total Dipole Moment    :     -0.72061       0.35084      -0.21822
                        -----------------------------------------
Magnitude (a.u.)       :      0.83066
Magnitude (Debye)      :      2.11136

                             ****ORCA TERMINATED NORMALLY****
TOTAL RUN TIME: 0 days 0 hours 17 minutes 58 seconds 400 msec
