                         Program Version 3.0.3 - RELEASE   -
|  1> ! RI-MP2 RIJK def2-TZVP def2-TZVP/C def2-TZVP/JK TIGHTSCF
|  2> % maxcore 2000
|  3> % mp2 density relaxed end
|  4> *xyz 0 1
|  5>  O       -1.1676049317     1.1548522920     0.9398520502
|  6>  C       -0.2084085045     0.3818674447     0.2841747123
|  7>  C        1.1101509346     0.4384426050     1.0426639156
|  8>  C        2.2060785828    -0.3045003183     0.4326279725
|  9>  C        3.1148336576    -0.9110219718    -0.0682584849
| 10>  C       -0.5799536035    -0.9211412837    -0.4118011767
| 11>  C       -1.9555408088    -0.7452194617    -1.0358858714
| 12>  O       -1.5551492669     0.5128252400    -1.6675635936
| 13>  C       -0.2071725357     0.3250915970    -1.2088710933
| 14>  H       -1.7313556295     1.5225509092     0.2441613314
| 15>  H        1.3881802341     1.4943999994     1.1475251490
| 16>  H        0.9317427655     0.0675141531     2.0603527601
| 17>  H        3.9202500499    -1.4461645787    -0.5070678671
| 18>  H       -0.0450618753    -1.8504947205    -0.2749966309
| 19>  H       -2.1952256213    -1.4870013491    -1.8037435391
| 20>  H       -2.8048699233    -0.6139440839    -0.3567503883
| 21>  H        0.6041599260     0.5691549073    -1.8846102358
| 22> *
| 23>
| 24>                          ****END OF INPUT****

CARTESIAN COORDINATES (ANGSTROEM)
---------------------------------
  O     -1.167605    1.154852    0.939852
  C     -0.208409    0.381867    0.284175
  C      1.110151    0.438443    1.042664
  C      2.206079   -0.304500    0.432628
  C      3.114834   -0.911022   -0.068258
  C     -0.579954   -0.921141   -0.411801
  C     -1.955541   -0.745219   -1.035886
  O     -1.555149    0.512825   -1.667564
  C     -0.207173    0.325092   -1.208871
  H     -1.731356    1.522551    0.244161
  H      1.388180    1.494400    1.147525
  H      0.931743    0.067514    2.060353
  H      3.920250   -1.446165   -0.507068
  H     -0.045062   -1.850495   -0.274997
  H     -2.195226   -1.487001   -1.803744
  H     -2.804870   -0.613944   -0.356750
  H      0.604160    0.569155   -1.884610

 Total Charge           Charge          ....    0
 Multiplicity           Mult            ....    1
 Number of Electrons    NEL             ....   66
 Basis Dimension        Dim             ....  327

ORBITAL ENERGIES
----------------

  NO   OCC          E(Eh)            E(eV)
   0   2.0000     -20.569572      -559.7265
   1   2.0000     -20.565568      -559.6176
   2   2.0000     -11.306956      -307.6779
   3   2.0000     -11.294628      -307.3425
   4   2.0000     -11.294219      -307.3313
   5   2.0000     -11.263705      -306.5010
   6   2.0000     -11.243437      -305.9495
   7   2.0000     -11.242466      -305.9230
   8   2.0000     -11.230104      -305.5867
   9   2.0000      -1.416260       -38.5384
  10   2.0000      -1.365873       -37.1673
  11   2.0000      -1.132397       -30.8141
  12   2.0000      -1.059674       -28.8352
  13   2.0000      -0.983465       -26.7614
  14   2.0000      -0.950940       -25.8764
  15   2.0000      -0.807127       -21.9630
  16   2.0000      -0.770661       -20.9708
  17   2.0000      -0.743574       -20.2337
  18   2.0000      -0.717404       -19.5215
  19   2.0000      -0.699929       -19.0460
  20   2.0000      -0.649997       -17.6873
  21   2.0000      -0.633475       -17.2377
  22   2.0000      -0.616526       -16.7765
  23   2.0000      -0.597475       -16.2581
  24   2.0000      -0.573263       -15.5993
  25   2.0000      -0.562568       -15.3082
  26   2.0000      -0.535803       -14.5800
  27   2.0000      -0.497203       -13.5296
  28   2.0000      -0.483159       -13.1474
  29   2.0000      -0.414435       -11.2774
  30   2.0000      -0.400585       -10.9005
  31   2.0000      -0.387949       -10.5566
  32   2.0000      -0.379169       -10.3177
  33   0.0000       0.145426         3.9573
  34   0.0000       0.155099         4.2205
  35   0.0000       0.158245         4.3061
  36   0.0000       0.162458         4.4207
  37   0.0000       0.173145         4.7115

MULLIKEN ATOMIC CHARGES
-----------------------
   0 O :   -0.463742
   1 C :    0.203934
   2 C :   -0.332728
   3 C :   -0.056003
   4 C :   -0.157531
   5 C :   -0.204065
   6 C :   -0.052641
   7 O :   -0.356485
   8 C :    0.037522
   9 H :    0.340009
  10 H :    0.148714
  11 H :    0.152794
  12 H :    0.192376
  13 H :    0.158046
  14 H :    0.120347
  15 H :    0.126333
  16 H :    0.143121
Sum of atomic charges:    0.0000000

LOEWDIN ATOMIC CHARGES
----------------------
   0 O :    0.034482
   1 C :   -0.336333
   2 C :   -0.196821
   3 C :   -0.104921
   4 C :   -0.100286
   5 C :   -0.161331
   6 C :   -0.236457
   7 O :    0.130449
   8 C :   -0.213003
   9 H :    0.189973
  10 H :    0.167378
  11 H :    0.168239
  12 H :    0.127485
  13 H :    0.144628
  14 H :    0.127480
  15 H :    0.122214
  16 H :    0.136824

  Mayer bond orders larger than 0.1
B(  0-O ,  1-C ) :   1.0399 B(  0-O ,  9-H ) :   0.8111 B(  1-C ,  2-C ) :   0.9439
B(  1-C ,  5-C ) :   0.8499 B(  1-C ,  8-C ) :   0.9078 B(  2-C ,  3-C ) :   1.0139
B(  2-C , 10-H ) :   0.9214 B(  2-C , 11-H ) :   0.9238 B(  3-C ,  4-C ) :   2.6346
B(  4-C , 12-H ) :   0.9023 B(  5-C ,  6-C ) :   0.9374 B(  5-C ,  8-C ) :   0.8631
B(  5-C , 13-H ) :   0.9001 B(  6-C ,  7-O ) :   0.8895 B(  6-C , 14-H ) :   0.9193
B(  6-C , 15-H ) :   0.9258 B(  7-O ,  8-C ) :   0.9108 B(  8-C , 16-H ) :   0.9059

MP2 TOTAL ENERGY:     -421.025639905 Eh
FINAL SINGLE POINT ENERGY      -421.025639905423

DIPOLE MOMENT
-------------
                                X             Y             Z
Electronic contribution:      0.08842       1.33748      -0.40381
Nuclear contribution   :      0.12623      -1.85832       0.19373
                        -----------------------------------------
Total Dipole Moment    :      0.21465      -0.52084      -0.21008
                        -----------------------------------------
Magnitude (a.u.)       :      0.60123
Magnitude (Debye)      :      1.52822

                             ****ORCA TERMINATED NORMALLY****
TOTAL RUN TIME: 0 days 0 hours 17 minutes 4 seconds 388 msec
