                         Program Version 3.0.3 - RELEASE   -
|  1> ! RI-MP2 RIJK def2-TZVP def2-TZVP/C def2-TZVP/JK TIGHTSCF
|  2> % maxcore 2000
|  3> % mp2 density relaxed end
|  4> *xyz 0 1
|  5>  C       -0.0284044948     1.4839293410     0.0058670980
|  6>  N       -0.0069901210     0.0206274788     0.0042308822
|  7>  C       -0.0043229703    -0.6567425237     1.2281215147
|  8>  O       -0.0184127975    -0.0971471177     2.2965754999
|  9>  C        0.0106276458    -0.7254320385    -1.1783739374
| 10>  O        0.0288642905    -1.9378934271    -1.2044919779
| 11>  C        0.0056107333     0.0625317459    -2.3973223370
| 12>  C        0.0024990865     0.6510923380    -3.4458418534
| 13>  H        0.8574045590     1.8855463821    -0.4912213700
| 14>  H       -0.9214439102     1.8596383459    -0.4985386776
| 15>  H       -0.0373153771     1.7956266491     1.0494881337
| 16>  H        0.0124874989    -1.7449712691     1.0914608265
| 17>  H       -0.0004575830     1.1654409154    -4.3764957917
| 18> *
| 19>
| 20>                          ****END OF INPUT****

CARTESIAN COORDINATES (ANGSTROEM)
---------------------------------
  C     -0.028404    1.483929    0.005867
  N     -0.006990    0.020627    0.004231
  C     -0.004323   -0.656743    1.228122
  O     -0.018413   -0.097147    2.296575
  C      0.010628   -0.725432   -1.178374
  O      0.028864   -1.937893   -1.204492
  C      0.005611    0.062532   -2.397322
  C      0.002499    0.651092   -3.445842
  H      0.857405    1.885546   -0.491221
  H     -0.921444    1.859638   -0.498539
  H     -0.037315    1.795627    1.049488
  H      0.012487   -1.744971    1.091461
  H     -0.000458    1.165441   -4.376496

 Total Charge           Charge          ....    0
 Multiplicity           Mult            ....    1
 Number of Electrons    NEL             ....   58
 Basis Dimension        Dim             ....  278

ORBITAL ENERGIES
----------------

  NO   OCC          E(Eh)            E(eV)
   0   2.0000     -20.565601      -559.6185
   1   2.0000     -20.556812      -559.3793
   2   2.0000     -15.632769      -425.3893
   3   2.0000     -11.412121      -310.5396
   4   2.0000     -11.370645      -309.4110
   5   2.0000     -11.283478      -307.0390
   6   2.0000     -11.280563      -306.9597
   7   2.0000     -11.273469      -306.7667
   8   2.0000      -1.435749       -39.0687
   9   2.0000      -1.409461       -38.3534
  10   2.0000      -1.276002       -34.7218
  11   2.0000      -1.082606       -29.4592
  12   2.0000      -0.989417       -26.9234
  13   2.0000      -0.949271       -25.8310
  14   2.0000      -0.813589       -22.1389
  15   2.0000      -0.776068       -21.1179
  16   2.0000      -0.741319       -20.1723
  17   2.0000      -0.701558       -19.0904
  18   2.0000      -0.671569       -18.2743
  19   2.0000      -0.653883       -17.7931
  20   2.0000      -0.625826       -17.0296
  21   2.0000      -0.581696       -15.8287
  22   2.0000      -0.579836       -15.7781
  23   2.0000      -0.553875       -15.0717
  24   2.0000      -0.501110       -13.6359
  25   2.0000      -0.449498       -12.2315
  26   2.0000      -0.440292       -11.9810
  27   2.0000      -0.440111       -11.9760
  28   2.0000      -0.420646       -11.4464
  29   0.0000       0.064911         1.7663
  30   0.0000       0.132802         3.6137
  31   0.0000       0.142647         3.8816
  32   0.0000       0.149640         4.0719
  33   0.0000       0.155653         4.2355

MULLIKEN ATOMIC CHARGES
-----------------------
   0 C :   -0.344088
   1 N :   -0.098212
   2 C :    0.152395
   3 O :   -0.311632
   4 C :    0.149721
   5 O :   -0.302120
   6 C :   -0.029935
   7 C :   -0.073368
   8 H :    0.154135
   9 H :    0.154104
  10 H :    0.189820
  11 H :    0.150242
  12 H :    0.208939
Sum of atomic charges:   -0.0000000

LOEWDIN ATOMIC CHARGES
----------------------
   0 C :   -0.267278
   1 N :    0.184131
   2 C :   -0.342308
   3 O :    0.104926
   4 C :   -0.395106
   5 O :    0.146654
   6 C :   -0.056379
   7 C :   -0.031864
   8 H :    0.125964
   9 H :    0.125939
  10 H :    0.137696
  11 H :    0.132864
  12 H :    0.134760

  Mayer bond orders larger than 0.1
B(  0-C ,  1-N ) :   0.8449 B(  0-C ,  8-H ) :   0.9311 B(  0-C ,  9-H ) :   0.9311
B(  0-C , 10-H ) :   0.9146 B(  1-N ,  2-C ) :   1.0083 B(  1-N ,  4-C ) :   1.1437
B(  2-C ,  3-O ) :   1.9268 B(  2-C , 11-H ) :   0.9188 B(  4-C ,  5-O ) :   1.9429
B(  4-C ,  6-C ) :   1.0483 B(  6-C ,  7-C ) :   2.6026 B(  7-C , 12-H ) :   0.8894

MP2 TOTAL ENERGY:     -397.945074370 Eh
FINAL SINGLE POINT ENERGY      -397.945074369905

DIPOLE MOMENT
-------------
                                X             Y             Z
Electronic contribution:      0.06424      -4.22291      -0.37294
Nuclear contribution   :     -0.07566       5.36793      -0.66020
                        -----------------------------------------
Total Dipole Moment    :     -0.01141       1.14503      -1.03313
                        -----------------------------------------
Magnitude (a.u.)       :      1.54226
Magnitude (Debye)      :      3.92012

                             ****ORCA TERMINATED NORMALLY****
TOTAL RUN TIME: 0 days 0 hours 9 minutes 6 seconds 347 msec
