                         Program Version 3.0.3 - RELEASE   -
|  1> ! RI-MP2 RIJK def2-TZVP def2-TZVP/C def2-TZVP/JK TIGHTSCF
|  2> % maxcore 2000
|  3> % mp2 density relaxed end
|  4> *xyz 0 1
|  5>  C       -0.0016334949     1.5641926611    -0.0015163388
|  6>  C        0.0456329446     0.0557919192    -0.0816926946
|  7>  C        0.6497508352    -0.7417118566    -1.2170234344
|  8>  C        1.9515048697    -0.1047216898    -1.6906606834
|  9>  O        2.4616832624    -0.0237118511    -0.3283785702
| 10>  C        1.3160445119    -0.7256358528     0.1581724263
| 11>  C        1.4906506156    -1.7371976057     1.1503910244
| 12>  N        1.6092093396    -2.5559265742     1.9596017163
| 13>  H        0.9677012991     2.0031301613    -0.2461986695
| 14>  H       -0.7529327520     1.9675323120    -0.6878933561
| 15>  H       -0.2638454312     1.8826258253     1.0118031671
| 16>  H       -0.8218398417    -0.4558458250     0.3298580389
| 17>  H        0.1300926464    -1.5529874422    -1.7077869169
| 18>  H        2.5735570055    -0.7801493732    -2.2858063167
| 19>  H        1.8957212198     0.8772257715    -2.1710448426
| 20> *
| 21>
| 22>                          ****END OF INPUT****

CARTESIAN COORDINATES (ANGSTROEM)
---------------------------------
  C     -0.001633    1.564193   -0.001516
  C      0.045633    0.055792   -0.081693
  C      0.649751   -0.741712   -1.217023
  C      1.951505   -0.104722   -1.690661
  O      2.461683   -0.023712   -0.328379
  C      1.316045   -0.725636    0.158172
  C      1.490651   -1.737198    1.150391
  N      1.609209   -2.555927    1.959602
  H      0.967701    2.003130   -0.246199
  H     -0.752933    1.967532   -0.687893
  H     -0.263845    1.882626    1.011803
  H     -0.821840   -0.455846    0.329858
  H      0.130093   -1.552987   -1.707787
  H      2.573557   -0.780149   -2.285806
  H      1.895721    0.877226   -2.171045

 Total Charge           Charge          ....    0
 Multiplicity           Mult            ....    1
 Number of Electrons    NEL             ....   58
 Basis Dimension        Dim             ....  290

ORBITAL ENERGIES
----------------

  NO   OCC          E(Eh)            E(eV)
   0   2.0000     -20.587158      -560.2050
   1   2.0000     -15.579078      -423.9283
   2   2.0000     -11.342599      -308.6478
   3   2.0000     -11.311034      -307.7889
   4   2.0000     -11.280731      -306.9643
   5   2.0000     -11.276281      -306.8432
   6   2.0000     -11.274927      -306.8063
   7   2.0000     -11.237486      -305.7875
   8   2.0000      -1.426246       -38.8101
   9   2.0000      -1.223287       -33.2873
  10   2.0000      -1.159591       -31.5541
  11   2.0000      -1.001835       -27.2613
  12   2.0000      -0.990721       -26.9589
  13   2.0000      -0.867667       -23.6104
  14   2.0000      -0.800369       -21.7791
  15   2.0000      -0.755570       -20.5601
  16   2.0000      -0.681072       -18.5329
  17   2.0000      -0.656771       -17.8717
  18   2.0000      -0.618524       -16.8309
  19   2.0000      -0.596388       -16.2285
  20   2.0000      -0.584944       -15.9171
  21   2.0000      -0.562314       -15.3013
  22   2.0000      -0.537257       -14.6195
  23   2.0000      -0.533930       -14.5290
  24   2.0000      -0.512383       -13.9426
  25   2.0000      -0.497762       -13.5448
  26   2.0000      -0.472240       -12.8503
  27   2.0000      -0.432873       -11.7791
  28   2.0000      -0.392490       -10.6802
  29   0.0000       0.126038         3.4297
  30   0.0000       0.129794         3.5319
  31   0.0000       0.145881         3.9696
  32   0.0000       0.159617         4.3434
  33   0.0000       0.176349         4.7987

MULLIKEN ATOMIC CHARGES
-----------------------
   0 C :   -0.410924
   1 C :   -0.106518
   2 C :   -0.174074
   3 C :   -0.041438
   4 O :   -0.322570
   5 C :    0.336758
   6 C :   -0.233123
   7 N :   -0.045504
   8 H :    0.158119
   9 H :    0.139321
  10 H :    0.145300
  11 H :    0.144045
  12 H :    0.159977
  13 H :    0.127061
  14 H :    0.123568
Sum of atomic charges:   -0.0000000

LOEWDIN ATOMIC CHARGES
----------------------
   0 C :   -0.281572
   1 C :   -0.177517
   2 C :   -0.137018
   3 C :   -0.227416
   4 O :    0.186422
   5 C :   -0.264514
   6 C :   -0.145429
   7 N :    0.082189
   8 H :    0.134822
   9 H :    0.129789
  10 H :    0.132517
  11 H :    0.167949
  12 H :    0.145347
  13 H :    0.131076
  14 H :    0.123354

  Mayer bond orders larger than 0.1
B(  0-C ,  1-C ) :   0.9023 B(  0-C ,  8-H ) :   0.9317 B(  0-C ,  9-H ) :   0.9327
B(  0-C , 10-H ) :   0.9341 B(  1-C ,  2-C ) :   0.8929 B(  1-C ,  5-C ) :   0.8426
B(  1-C , 11-H ) :   0.9196 B(  2-C ,  3-C ) :   0.9603 B(  2-C ,  5-C ) :   0.8114
B(  2-C , 12-H ) :   0.9033 B(  3-C ,  4-O ) :   0.8982 B(  3-C , 13-H ) :   0.9153
B(  3-C , 14-H ) :   0.9203 B(  4-O ,  5-C ) :   0.9569 B(  5-C ,  6-C ) :   0.9062
B(  6-C ,  7-N ) :   2.8510

MP2 TOTAL ENERGY:     -362.004797869 Eh
FINAL SINGLE POINT ENERGY      -362.004797868818

DIPOLE MOMENT
-------------
                                X             Y             Z
Electronic contribution:      3.53049      -6.00593       3.72974
Nuclear contribution   :     -4.37466       6.85243      -5.16491
                        -----------------------------------------
Total Dipole Moment    :     -0.84417       0.84650      -1.43517
                        -----------------------------------------
Magnitude (a.u.)       :      1.86785
Magnitude (Debye)      :      4.74771

                             ****ORCA TERMINATED NORMALLY****
TOTAL RUN TIME: 0 days 0 hours 11 minutes 28 seconds 952 msec
