                         Program Version 3.0.3 - RELEASE   -
|  1> ! RI-MP2 RIJK def2-TZVP def2-TZVP/C def2-TZVP/JK TIGHTSCF
|  2> % maxcore 2000
|  3> % mp2 density relaxed end
|  4> *xyz 0 1
|  5>  C       -0.0549880886     1.5493292919    -0.0517972427
|  6>  C       -0.0192338033     0.0131923901     0.0216615043
|  7>  C        0.5342083361    -0.5325638009    -1.3047756503
|  8>  C        0.7841603304    -0.5126375429     1.2583424976
|  9>  C        0.9596072000    -2.0335300051     1.1850482645
| 10>  O        2.1251461427     0.0102554093     1.2181454089
| 11>  C        0.1057569144    -0.0650656701     2.5546134770
| 12>  C       -0.8060416634    -0.9414825159     3.3786012959
| 13>  C        0.5488994866    -0.5529452972     3.9118626946
| 14>  H        0.9590599220     1.9546081566    -0.1381502763
| 15>  H       -0.6110736175     1.8703093775    -0.9378839906
| 16>  H       -0.5374603306     2.0133213475     0.8128071017
| 17>  H       -1.0499944586    -0.3473857434     0.1449894277
| 18>  H        1.6003815463    -0.3012664683    -1.3942753992
| 19>  H        0.4111932679    -1.6143272209    -1.3963778416
| 20>  H        0.0157957721    -0.0717799962    -2.1516307085
| 21>  H        1.6688280808    -2.2803485570     0.3934874421
| 22>  H        1.3667917820    -2.4318331136     2.1175024931
| 23>  H        0.0132651932    -2.5381741297     0.9719907126
| 24>  H        2.1206271003     0.8703368475     1.6487307401
| 25>  H       -0.1837487988     0.9814707632     2.5395399150
| 26>  H       -1.6888456851    -0.4891103759     3.8170792249
| 27>  H       -0.9450040950    -1.9714122754     3.0713216186
| 28>  H        1.3158056931    -1.3174854822     3.9590791340
| 29>  H        0.6005040531     0.1704867011     4.7183288065
| 30> *
| 31>
| 32>                          ****END OF INPUT****

CARTESIAN COORDINATES (ANGSTROEM)
---------------------------------
  C     -0.054988    1.549329   -0.051797
  C     -0.019234    0.013192    0.021662
  C      0.534208   -0.532564   -1.304776
  C      0.784160   -0.512638    1.258342
  C      0.959607   -2.033530    1.185048
  O      2.125146    0.010255    1.218145
  C      0.105757   -0.065066    2.554613
  C     -0.806042   -0.941483    3.378601
  C      0.548899   -0.552945    3.911863
  H      0.959060    1.954608   -0.138150
  H     -0.611074    1.870309   -0.937884
  H     -0.537460    2.013321    0.812807
  H     -1.049994   -0.347386    0.144989
  H      1.600382   -0.301266   -1.394275
  H      0.411193   -1.614327   -1.396378
  H      0.015796   -0.071780   -2.151631
  H      1.668828   -2.280349    0.393487
  H      1.366792   -2.431833    2.117502
  H      0.013265   -2.538174    0.971991
  H      2.120627    0.870337    1.648731
  H     -0.183749    0.981471    2.539540
  H     -1.688846   -0.489110    3.817079
  H     -0.945004   -1.971412    3.071322
  H      1.315806   -1.317485    3.959079
  H      0.600504    0.170487    4.718329

 Total Charge           Charge          ....    0
 Multiplicity           Mult            ....    1
 Number of Electrons    NEL             ....   72
 Basis Dimension        Dim             ....  375

ORBITAL ENERGIES
----------------

  NO   OCC          E(Eh)            E(eV)
   0   2.0000     -20.543937      -559.0289
   1   2.0000     -11.285212      -307.0862
   2   2.0000     -11.230286      -305.5916
   3   2.0000     -11.228050      -305.5308
   4   2.0000     -11.224995      -305.4476
   5   2.0000     -11.224620      -305.4374
   6   2.0000     -11.211046      -305.0681
   7   2.0000     -11.207789      -304.9794
   8   2.0000     -11.203879      -304.8730
   9   2.0000      -1.352068       -36.7916
  10   2.0000      -1.144813       -31.1520
  11   2.0000      -1.072623       -29.1875
  12   2.0000      -0.989714       -26.9315
  13   2.0000      -0.925491       -25.1839
  14   2.0000      -0.879053       -23.9203
  15   2.0000      -0.825223       -22.4555
  16   2.0000      -0.798745       -21.7350
  17   2.0000      -0.746777       -20.3208
  18   2.0000      -0.690822       -18.7982
  19   2.0000      -0.661931       -18.0121
  20   2.0000      -0.633061       -17.2265
  21   2.0000      -0.611976       -16.6527
  22   2.0000      -0.587998       -16.0002
  23   2.0000      -0.563727       -15.3398
  24   2.0000      -0.547839       -14.9074
  25   2.0000      -0.544262       -14.8101
  26   2.0000      -0.530979       -14.4487
  27   2.0000      -0.517770       -14.0892
  28   2.0000      -0.512957       -13.9583
  29   2.0000      -0.504425       -13.7261
  30   2.0000      -0.495297       -13.4777
  31   2.0000      -0.466781       -12.7017
  32   2.0000      -0.445136       -12.1128
  33   2.0000      -0.437474       -11.9043
  34   2.0000      -0.416397       -11.3307
  35   2.0000      -0.402646       -10.9566
  36   0.0000       0.134787         3.6677
  37   0.0000       0.151107         4.1118
  38   0.0000       0.163302         4.4437
  39   0.0000       0.165470         4.5027
  40   0.0000       0.182074         4.9545

MULLIKEN ATOMIC CHARGES
-----------------------
   0 C :   -0.476356
   1 C :    0.005430
   2 C :   -0.441221
   3 C :    0.275333
   4 C :   -0.462548
   5 O :   -0.475505
   6 C :   -0.197136
   7 C :   -0.267859
   8 C :   -0.246762
   9 H :    0.133440
  10 H :    0.134989
  11 H :    0.131182
  12 H :    0.087961
  13 H :    0.149198
  14 H :    0.136932
  15 H :    0.128302
  16 H :    0.155421
  17 H :    0.135838
  18 H :    0.132794
  19 H :    0.314762
  20 H :    0.118669
  21 H :    0.127312
  22 H :    0.135960
  23 H :    0.134232
  24 H :    0.129634
Sum of atomic charges:    0.0000000

LOEWDIN ATOMIC CHARGES
----------------------
   0 C :   -0.301990
   1 C :   -0.264630
   2 C :   -0.294918
   3 C :   -0.353608
   4 C :   -0.265541
   5 O :    0.006576
   6 C :   -0.207000
   7 C :   -0.222884
   8 C :   -0.227149
   9 H :    0.123666
  10 H :    0.125236
  11 H :    0.116767
  12 H :    0.154707
  13 H :    0.129446
  14 H :    0.121154
  15 H :    0.122145
  16 H :    0.133041
  17 H :    0.126074
  18 H :    0.127544
  19 H :    0.171986
  20 H :    0.150331
  21 H :    0.130215
  22 H :    0.134972
  23 H :    0.133742
  24 H :    0.130113

  Mayer bond orders larger than 0.1
B(  0-C ,  1-C ) :   0.8726 B(  0-C ,  9-H ) :   0.9413 B(  0-C , 10-H ) :   0.9375
B(  0-C , 11-H ) :   0.9386 B(  1-C ,  2-C ) :   0.8951 B(  1-C ,  3-C ) :   0.8926
B(  1-C , 12-H ) :   0.9174 B(  2-C , 13-H ) :   0.9351 B(  2-C , 14-H ) :   0.9393
B(  2-C , 15-H ) :   0.9401 B(  3-C ,  4-C ) :   0.8137 B(  3-C ,  5-O ) :   0.9671
B(  3-C ,  6-C ) :   0.9367 B(  4-C , 16-H ) :   0.9368 B(  4-C , 17-H ) :   0.9514
B(  4-C , 18-H ) :   0.9394 B(  5-O , 19-H ) :   0.8443 B(  6-C ,  7-C ) :   0.8896
B(  6-C ,  8-C ) :   0.8713 B(  6-C , 20-H ) :   0.9187 B(  7-C ,  8-C ) :   0.9149
B(  7-C , 21-H ) :   0.9268 B(  7-C , 22-H ) :   0.9284 B(  8-C , 23-H ) :   0.9290
B(  8-C , 24-H ) :   0.9313

MP2 TOTAL ENERGY:     -388.812605087 Eh
FINAL SINGLE POINT ENERGY      -388.812605087339

DIPOLE MOMENT
-------------
                                X             Y             Z
Electronic contribution:      2.19827       0.44726       3.04069
Nuclear contribution   :     -2.69568      -0.20217      -2.77828
                        -----------------------------------------
Total Dipole Moment    :     -0.49741       0.24509       0.26242
                        -----------------------------------------
Magnitude (a.u.)       :      0.61347
Magnitude (Debye)      :      1.55932

                             ****ORCA TERMINATED NORMALLY****
TOTAL RUN TIME: 0 days 0 hours 25 minutes 5 seconds 717 msec
