                         Program Version 3.0.3 - RELEASE   -
|  1> ! RI-MP2 RIJK def2-TZVP def2-TZVP/C def2-TZVP/JK TIGHTSCF
|  2> % maxcore 2000
|  3> % mp2 density relaxed end
|  4> *xyz 0 1
|  5>  O       -0.2505855313     1.2720552942    -0.3736656684
|  6>  C       -0.0116387415    -0.0619126651    -0.0575584318
|  7>  C       -1.2725953512    -0.8966395510     0.1920355778
|  8>  O       -0.6886641444    -1.5070912047     1.3671370960
|  9>  C        0.4932333237    -0.6837864328     1.2925766278
| 10>  C        1.6611439343    -1.3809511301     0.5496860460
| 11>  C        1.1306586223    -0.8071379354    -0.7749943286
| 12>  C        1.1409063619    -1.3325247045    -2.1542212765
| 13>  N        1.9919828600    -0.1809327299    -1.7782913745
| 14>  H        0.5787937622     1.7585800916    -0.3047079691
| 15>  H       -2.1414313474    -0.2779259458     0.4475842128
| 16>  H       -1.5490120380    -1.6319858788    -0.5718380423
| 17>  H        0.6926214302    -0.1395288030     2.2187079483
| 18>  H        2.6472757135    -0.9827904683     0.8063577448
| 19>  H        1.6651911701    -2.4682639736     0.6483896997
| 20>  H        1.6864861816    -2.2439243863    -2.3831232425
| 21>  H        0.2704725103    -1.1520720282    -2.7807670590
| 22>  H        1.5454959838     0.6745550716    -2.1094159605
| 23> *
| 24>
| 25>                          ****END OF INPUT****

CARTESIAN COORDINATES (ANGSTROEM)
---------------------------------
  O     -0.250586    1.272055   -0.373666
  C     -0.011639   -0.061913   -0.057558
  C     -1.272595   -0.896640    0.192036
  O     -0.688664   -1.507091    1.367137
  C      0.493233   -0.683786    1.292577
  C      1.661144   -1.380951    0.549686
  C      1.130659   -0.807138   -0.774994
  C      1.140906   -1.332525   -2.154221
  N      1.991983   -0.180933   -1.778291
  H      0.578794    1.758580   -0.304708
  H     -2.141431   -0.277926    0.447584
  H     -1.549012   -1.631986   -0.571838
  H      0.692621   -0.139529    2.218708
  H      2.647276   -0.982790    0.806358
  H      1.665191   -2.468264    0.648390
  H      1.686486   -2.243924   -2.383123
  H      0.270473   -1.152072   -2.780767
  H      1.545496    0.674555   -2.109416

 Total Charge           Charge          ....    0
 Multiplicity           Mult            ....    1
 Number of Electrons    NEL             ....   68
 Basis Dimension        Dim             ....  333

ORBITAL ENERGIES
----------------

  NO   OCC          E(Eh)            E(eV)
   0   2.0000     -20.585246      -560.1530
   1   2.0000     -20.555347      -559.3394
   2   2.0000     -15.567690      -423.6184
   3   2.0000     -11.301014      -307.5162
   4   2.0000     -11.288048      -307.1634
   5   2.0000     -11.282909      -307.0236
   6   2.0000     -11.272676      -306.7451
   7   2.0000     -11.262540      -306.4693
   8   2.0000     -11.231432      -305.6228
   9   2.0000      -1.406149       -38.2632
  10   2.0000      -1.375199       -37.4211
  11   2.0000      -1.270676       -34.5769
  12   2.0000      -1.088481       -29.6191
  13   2.0000      -0.978776       -26.6339
  14   2.0000      -0.897424       -24.4202
  15   2.0000      -0.869539       -23.6614
  16   2.0000      -0.825546       -22.4643
  17   2.0000      -0.756499       -20.5854
  18   2.0000      -0.731361       -19.9013
  19   2.0000      -0.691953       -18.8290
  20   2.0000      -0.667860       -18.1734
  21   2.0000      -0.632998       -17.2248
  22   2.0000      -0.613189       -16.6857
  23   2.0000      -0.599173       -16.3043
  24   2.0000      -0.579909       -15.7801
  25   2.0000      -0.554039       -15.0762
  26   2.0000      -0.550691       -14.9851
  27   2.0000      -0.521614       -14.1938
  28   2.0000      -0.490820       -13.3559
  29   2.0000      -0.470164       -12.7938
  30   2.0000      -0.459254       -12.4969
  31   2.0000      -0.415428       -11.3044
  32   2.0000      -0.410355       -11.1663
  33   2.0000      -0.387567       -10.5462
  34   0.0000       0.125940         3.4270
  35   0.0000       0.152235         4.1425
  36   0.0000       0.160189         4.3590
  37   0.0000       0.172149         4.6844
  38   0.0000       0.176217         4.7951

MULLIKEN ATOMIC CHARGES
-----------------------
   0 O :   -0.450968
   1 C :    0.224394
   2 C :   -0.040296
   3 O :   -0.328909
   4 C :    0.029334
   5 C :   -0.183806
   6 C :   -0.069785
   7 C :   -0.196724
   8 N :   -0.359433
   9 H :    0.328761
  10 H :    0.107460
  11 H :    0.102707
  12 H :    0.113099
  13 H :    0.121342
  14 H :    0.125631
  15 H :    0.128025
  16 H :    0.132885
  17 H :    0.216283
Sum of atomic charges:   -0.0000000

LOEWDIN ATOMIC CHARGES
----------------------
   0 O :    0.032413
   1 C :   -0.317824
   2 C :   -0.219346
   3 O :    0.138051
   4 C :   -0.213064
   5 C :   -0.176556
   6 C :   -0.267273
   7 C :   -0.238253
   8 N :    0.003527
   9 H :    0.183761
  10 H :    0.126392
  11 H :    0.120596
  12 H :    0.126443
  13 H :    0.142351
  14 H :    0.139663
  15 H :    0.128972
  16 H :    0.126063
  17 H :    0.164084

  Mayer bond orders larger than 0.1
B(  0-O ,  1-C ) :   1.0225 B(  0-O ,  9-H ) :   0.8322 B(  1-C ,  2-C ) :   0.9761
B(  1-C ,  4-C ) :   0.9156 B(  1-C ,  6-C ) :   0.8897 B(  2-C ,  3-O ) :   0.9470
B(  2-C , 10-H ) :   0.9048 B(  2-C , 11-H ) :   0.9119 B(  3-O ,  4-C ) :   0.9621
B(  4-C ,  5-C ) :   0.8930 B(  4-C , 12-H ) :   0.9261 B(  5-C ,  6-C ) :   0.8925
B(  5-C , 13-H ) :   0.9028 B(  5-C , 14-H ) :   0.8960 B(  6-C ,  7-C ) :   0.9003
B(  6-C ,  8-N ) :   0.9306 B(  7-C ,  8-N ) :   0.9519 B(  7-C , 15-H ) :   0.9167
B(  7-C , 16-H ) :   0.9209 B(  8-N , 17-H ) :   0.8637

MP2 TOTAL ENERGY:     -438.294626027 Eh
FINAL SINGLE POINT ENERGY      -438.294626026625

DIPOLE MOMENT
-------------
                                X             Y             Z
Electronic contribution:     -1.20062       1.41995       1.83498
Nuclear contribution   :      1.32170      -1.07866      -2.14001
                        -----------------------------------------
Total Dipole Moment    :      0.12109       0.34130      -0.30504
                        -----------------------------------------
Magnitude (a.u.)       :      0.47349
Magnitude (Debye)      :      1.20352

                             ****ORCA TERMINATED NORMALLY****
TOTAL RUN TIME: 0 days 0 hours 16 minutes 24 seconds 842 msec
