                         Program Version 3.0.3 - RELEASE   -
|  1> ! RI-MP2 RIJK def2-TZVP def2-TZVP/C def2-TZVP/JK TIGHTSCF
|  2> % maxcore 2000
|  3> % mp2 density relaxed end
|  4> *xyz 0 1
|  5>  N        0.0347342057     1.3146261884     0.0709512889
|  6>  C       -0.0466623058    -0.0369979250     0.0239296451
|  7>  N       -1.1191274888    -0.7462222269     0.0303901787
|  8>  C       -0.7613435394    -2.1716298419     0.0158886863
|  9>  C        0.7623995475    -2.2567015677     0.0080288385
| 10>  C        1.5697557713    -3.3054172600     0.6966162166
| 11>  N        1.5443640809    -3.2458612800    -0.7635702268
| 12>  C        1.2286282940    -0.8337876071    -0.0193275623
| 13>  O        2.3509406806    -0.3906393097    -0.0575343084
| 14>  H        0.9331793027     1.7172002735    -0.1434704113
| 15>  H       -0.7889357681     1.8612453770    -0.1172451569
| 16>  H       -1.2066102216    -2.6671394068     0.8873161144
| 17>  H       -1.1982439236    -2.6444186534    -0.8742661225
| 18>  H        2.5168576679    -3.0153591258     1.1434805685
| 19>  H        1.0279135735    -4.0956747467     1.2104981863
| 20>  H        0.9029854432    -3.9494711679    -1.1263095652
| 21> *
| 22>
| 23>                          ****END OF INPUT****

CARTESIAN COORDINATES (ANGSTROEM)
---------------------------------
  N      0.034734    1.314626    0.070951
  C     -0.046662   -0.036998    0.023930
  N     -1.119127   -0.746222    0.030390
  C     -0.761344   -2.171630    0.015889
  C      0.762400   -2.256702    0.008029
  C      1.569756   -3.305417    0.696616
  N      1.544364   -3.245861   -0.763570
  C      1.228628   -0.833788   -0.019328
  O      2.350941   -0.390639   -0.057534
  H      0.933179    1.717200   -0.143470
  H     -0.788936    1.861245   -0.117245
  H     -1.206610   -2.667139    0.887316
  H     -1.198244   -2.644419   -0.874266
  H      2.516858   -3.015359    1.143481
  H      1.027914   -4.095675    1.210498
  H      0.902985   -3.949471   -1.126310

 Total Charge           Charge          ....    0
 Multiplicity           Mult            ....    1
 Number of Electrons    NEL             ....   66
 Basis Dimension        Dim             ....  321

ORBITAL ENERGIES
----------------

  NO   OCC          E(Eh)            E(eV)
   0   2.0000     -20.569126      -559.7144
   1   2.0000     -15.583635      -424.0523
   2   2.0000     -15.582946      -424.0335
   3   2.0000     -15.559889      -423.4061
   4   2.0000     -11.345975      -308.7397
   5   2.0000     -11.323294      -308.1225
   6   2.0000     -11.283656      -307.0439
   7   2.0000     -11.279006      -306.9174
   8   2.0000     -11.272197      -306.7321
   9   2.0000      -1.411028       -38.3960
  10   2.0000      -1.296913       -35.2908
  11   2.0000      -1.276578       -34.7375
  12   2.0000      -1.193280       -32.4708
  13   2.0000      -0.988761       -26.9055
  14   2.0000      -0.954194       -25.9649
  15   2.0000      -0.899375       -24.4732
  16   2.0000      -0.817629       -22.2488
  17   2.0000      -0.758515       -20.6402
  18   2.0000      -0.715018       -19.4566
  19   2.0000      -0.706492       -19.2246
  20   2.0000      -0.663885       -18.0652
  21   2.0000      -0.646386       -17.5890
  22   2.0000      -0.636562       -17.3217
  23   2.0000      -0.596839       -16.2408
  24   2.0000      -0.569111       -15.4863
  25   2.0000      -0.556962       -15.1557
  26   2.0000      -0.529798       -14.4165
  27   2.0000      -0.523782       -14.2528
  28   2.0000      -0.481730       -13.1085
  29   2.0000      -0.469658       -12.7801
  30   2.0000      -0.418552       -11.3894
  31   2.0000      -0.392560       -10.6821
  32   2.0000      -0.367553       -10.0016
  33   0.0000       0.079409         2.1608
  34   0.0000       0.130853         3.5607
  35   0.0000       0.141476         3.8498
  36   0.0000       0.166133         4.5207
  37   0.0000       0.175139         4.7658

MULLIKEN ATOMIC CHARGES
-----------------------
   0 N :   -0.486447
   1 C :    0.101155
   2 N :   -0.234540
   3 C :   -0.070562
   4 C :    0.093863
   5 C :   -0.194860
   6 N :   -0.375524
   7 C :    0.160562
   8 O :   -0.283953
   9 H :    0.275831
  10 H :    0.261204
  11 H :    0.126907
  12 H :    0.119941
  13 H :    0.143875
  14 H :    0.137924
  15 H :    0.224623
Sum of atomic charges:   -0.0000000

LOEWDIN ATOMIC CHARGES
----------------------
   0 N :   -0.011245
   1 C :   -0.354349
   2 N :    0.103023
   3 C :   -0.243450
   4 C :   -0.264105
   5 C :   -0.224943
   6 N :    0.028303
   7 C :   -0.263886
   8 O :    0.167240
   9 H :    0.181951
  10 H :    0.175526
  11 H :    0.137062
  12 H :    0.136369
  13 H :    0.135060
  14 H :    0.125843
  15 H :    0.171603

  Mayer bond orders larger than 0.1
B(  0-N ,  1-C ) :   1.1767 B(  0-N ,  9-H ) :   0.8541 B(  0-N , 10-H ) :   0.8612
B(  1-C ,  2-N ) :   1.7679 B(  1-C ,  7-C ) :   0.9288 B(  2-N ,  3-C ) :   0.9539
B(  3-C ,  4-C ) :   0.9290 B(  3-C , 11-H ) :   0.9249 B(  3-C , 12-H ) :   0.9091
B(  4-C ,  5-C ) :   0.8608 B(  4-C ,  6-N ) :   0.8301 B(  4-C ,  7-C ) :   0.9013
B(  5-C ,  6-N ) :   0.9782 B(  5-C , 13-H ) :   0.9092 B(  5-C , 14-H ) :   0.9249
B(  6-N , 15-H ) :   0.8655 B(  7-C ,  8-O ) :   2.0063

MP2 TOTAL ENERGY:     -433.349697988 Eh
FINAL SINGLE POINT ENERGY      -433.349697987643

DIPOLE MOMENT
-------------
                                X             Y             Z
Electronic contribution:      1.48581       3.31794      -0.77127
Nuclear contribution   :     -2.09376      -3.58600       0.94123
                        -----------------------------------------
Total Dipole Moment    :     -0.60794      -0.26806       0.16996
                        -----------------------------------------
Magnitude (a.u.)       :      0.68581
Magnitude (Debye)      :      1.74319

                             ****ORCA TERMINATED NORMALLY****
TOTAL RUN TIME: 0 days 0 hours 15 minutes 59 seconds 54 msec
