                         Program Version 3.0.3 - RELEASE   -
|  1> ! RI-MP2 RIJK def2-TZVP def2-TZVP/C def2-TZVP/JK TIGHTSCF
|  2> % maxcore 2000
|  3> % mp2 density relaxed end
|  4> *xyz 0 1
|  5>  O       -0.2985186956     1.3760436748    -0.3668872188
|  6>  C       -0.1163597978     0.0109211153    -0.2106923358
|  7>  C        0.1785376430    -0.5321044625     1.2169687079
|  8>  O       -1.2124466597    -0.1390386161     1.5863165750
|  9>  C       -1.3313338538    -0.8411020263     0.2769045162
| 10>  C       -0.3673161447    -1.9289124561     0.8203244891
| 11>  C        0.3969785051    -2.8909002985    -0.0580910509
| 12>  C       -0.3061804129    -4.0935009858    -0.6413323757
| 13>  C        0.1884574567    -3.0009552310    -1.5515882733
| 14>  H       -0.8277509057     1.6456476575     0.3983867737
| 15>  H        0.4822924843    -0.3634748272    -1.0394372811
| 16>  H        0.9704603802    -0.2690009512     1.9199831715
| 17>  H       -2.3348536142    -0.9362477955    -0.1408523293
| 18>  H       -0.7988120494    -2.4225969409     1.6953506570
| 19>  H        1.4120752141    -3.0761433369     0.2851365819
| 20>  H        0.2117281883    -5.0460160120    -0.6398241367
| 21>  H       -1.3777221247    -4.1703066830    -0.4863083953
| 22>  H       -0.5531970575    -2.3591522457    -2.0145311287
| 23>  H        1.0526453144    -3.1968856388    -2.1768514566
| 24> *
| 25>
| 26>                          ****END OF INPUT****

CARTESIAN COORDINATES (ANGSTROEM)
---------------------------------
  O     -0.298519    1.376044   -0.366887
  C     -0.116360    0.010921   -0.210692
  C      0.178538   -0.532104    1.216969
  O     -1.212447   -0.139039    1.586317
  C     -1.331334   -0.841102    0.276905
  C     -0.367316   -1.928912    0.820324
  C      0.396979   -2.890900   -0.058091
  C     -0.306180   -4.093501   -0.641332
  C      0.188457   -3.000955   -1.551588
  H     -0.827751    1.645648    0.398387
  H      0.482292   -0.363475   -1.039437
  H      0.970460   -0.269001    1.919983
  H     -2.334854   -0.936248   -0.140852
  H     -0.798812   -2.422597    1.695351
  H      1.412075   -3.076143    0.285137
  H      0.211728   -5.046016   -0.639824
  H     -1.377722   -4.170307   -0.486308
  H     -0.553197   -2.359152   -2.014531
  H      1.052645   -3.196886   -2.176851

 Total Charge           Charge          ....    0
 Multiplicity           Mult            ....    1
 Number of Electrons    NEL             ....   68
 Basis Dimension        Dim             ....  339

ORBITAL ENERGIES
----------------

  NO   OCC          E(Eh)            E(eV)
   0   2.0000     -20.558706      -559.4308
   1   2.0000     -20.558422      -559.4231
   2   2.0000     -11.302479      -307.5561
   3   2.0000     -11.300671      -307.5069
   4   2.0000     -11.294852      -307.3486
   5   2.0000     -11.250803      -306.1499
   6   2.0000     -11.244413      -305.9760
   7   2.0000     -11.236698      -305.7661
   8   2.0000     -11.234008      -305.6929
   9   2.0000      -1.415118       -38.5073
  10   2.0000      -1.355175       -36.8762
  11   2.0000      -1.157169       -31.4882
  12   2.0000      -1.069209       -29.0946
  13   2.0000      -0.928181       -25.2571
  14   2.0000      -0.893336       -24.3089
  15   2.0000      -0.832594       -22.6560
  16   2.0000      -0.823719       -22.4145
  17   2.0000      -0.762691       -20.7539
  18   2.0000      -0.711060       -19.3489
  19   2.0000      -0.688366       -18.7314
  20   2.0000      -0.657970       -17.9043
  21   2.0000      -0.642917       -17.4947
  22   2.0000      -0.601312       -16.3625
  23   2.0000      -0.581096       -15.8124
  24   2.0000      -0.553004       -15.0480
  25   2.0000      -0.545255       -14.8372
  26   2.0000      -0.536669       -14.6035
  27   2.0000      -0.523193       -14.2368
  28   2.0000      -0.487777       -13.2731
  29   2.0000      -0.464776       -12.6472
  30   2.0000      -0.440127       -11.9765
  31   2.0000      -0.422527       -11.4975
  32   2.0000      -0.416101       -11.3227
  33   2.0000      -0.404066       -10.9952
  34   0.0000       0.140777         3.8307
  35   0.0000       0.147867         4.0237
  36   0.0000       0.156865         4.2685
  37   0.0000       0.167850         4.5674
  38   0.0000       0.176813         4.8113

MULLIKEN ATOMIC CHARGES
-----------------------
   0 O :   -0.467563
   1 C :    0.132768
   2 C :   -0.055632
   3 O :   -0.331243
   4 C :   -0.098524
   5 C :   -0.045837
   6 C :   -0.128793
   7 C :   -0.256878
   8 C :   -0.282526
   9 H :    0.331100
  10 H :    0.133048
  11 H :    0.138713
  12 H :    0.139873
  13 H :    0.121590
  14 H :    0.126735
  15 H :    0.135330
  16 H :    0.131632
  17 H :    0.140427
  18 H :    0.135782
Sum of atomic charges:    0.0000000

LOEWDIN ATOMIC CHARGES
----------------------
   0 O :    0.002384
   1 C :   -0.303817
   2 C :   -0.192689
   3 O :    0.111262
   4 C :   -0.196332
   5 C :   -0.179253
   6 C :   -0.212984
   7 C :   -0.223090
   8 C :   -0.229148
   9 H :    0.186822
  10 H :    0.142479
  11 H :    0.125310
  12 H :    0.125045
  13 H :    0.158787
  14 H :    0.152568
  15 H :    0.131892
  16 H :    0.134758
  17 H :    0.134001
  18 H :    0.132006

  Mayer bond orders larger than 0.1
B(  0-O ,  1-C ) :   1.0072 B(  0-O ,  9-H ) :   0.8125 B(  1-C ,  2-C ) :   0.8988
B(  1-C ,  4-C ) :   0.8879 B(  1-C , 10-H ) :   0.9317 B(  2-C ,  3-O ) :   0.8682
B(  2-C ,  5-C ) :   0.9093 B(  2-C , 11-H ) :   0.8906 B(  3-O ,  4-C ) :   0.8860
B(  4-C ,  5-C ) :   0.9017 B(  4-C , 12-H ) :   0.8908 B(  5-C ,  6-C ) :   0.8894
B(  5-C , 13-H ) :   0.9207 B(  6-C ,  7-C ) :   0.8699 B(  6-C ,  8-C ) :   0.8882
B(  6-C , 14-H ) :   0.9239 B(  7-C ,  8-C ) :   0.9063 B(  7-C , 15-H ) :   0.9315
B(  7-C , 16-H ) :   0.9306 B(  8-C , 17-H ) :   0.9276 B(  8-C , 18-H ) :   0.9323

MP2 TOTAL ENERGY:     -422.230542432 Eh
FINAL SINGLE POINT ENERGY      -422.230542431833

DIPOLE MOMENT
-------------
                                X             Y             Z
Electronic contribution:     -1.22790       6.15778       3.08991
Nuclear contribution   :      1.47563      -6.98897      -3.20289
                        -----------------------------------------
Total Dipole Moment    :      0.24774      -0.83119      -0.11297
                        -----------------------------------------
Magnitude (a.u.)       :      0.87465
Magnitude (Debye)      :      2.22318

                             ****ORCA TERMINATED NORMALLY****
TOTAL RUN TIME: 0 days 0 hours 17 minutes 13 seconds 485 msec
