                         Program Version 3.0.3 - RELEASE   -
|  1> ! RI-MP2 RIJK def2-TZVP def2-TZVP/C def2-TZVP/JK TIGHTSCF
|  2> % maxcore 2000
|  3> % mp2 density relaxed end
|  4> *xyz 0 1
|  5>  C       -0.4058708084     1.5301858490     0.0358938768
|  6>  C        0.0223039771     0.0563957855    -0.0301077476
|  7>  C        1.0989677487    -0.2340094920     1.0254126778
|  8>  O       -1.1130920005    -0.7931567460     0.1965121254
|  9>  C        0.5419212358    -0.3380407913    -1.4233978796
| 10>  C       -0.4811241299    -0.1623377966    -2.5548853428
| 11>  N       -0.0039800173    -0.6912894201    -3.8254047998
| 12>  C        0.6486627108     0.0713094177    -4.7398465649
| 13>  O        0.8684189007     1.2601236514    -4.6293759742
| 14>  H        0.4212908945     2.1980279808    -0.2244477320
| 15>  H       -1.2382705107     1.7295858924    -0.6430490964
| 16>  H       -0.7312508123     1.7859012768     1.0513167049
| 17>  H        0.7294776636     0.0068650221     2.0292831594
| 18>  H        1.3731831498    -1.2926585744     1.0087822900
| 19>  H        2.0002930907     0.3627967174     0.8518114780
| 20>  H       -1.4952469000    -0.5534839334     1.0472365730
| 21>  H        1.4373700892     0.2474082528    -1.6568223896
| 22>  H        0.8444033504    -1.3914011048    -1.3815036731
| 23>  H       -1.4151378541    -0.6632341234    -2.2896330557
| 24>  H       -0.6920439681     0.8954701465    -2.7228404943
| 25>  H       -0.0762424218    -1.6811416906    -3.9984486346
| 26>  H        0.9557968519    -0.5202440397    -5.6260650107
| 27> *
| 28>
| 29>                          ****END OF INPUT****

CARTESIAN COORDINATES (ANGSTROEM)
---------------------------------
  C     -0.405871    1.530186    0.035894
  C      0.022304    0.056396   -0.030108
  C      1.098968   -0.234009    1.025413
  O     -1.113092   -0.793157    0.196512
  C      0.541921   -0.338041   -1.423398
  C     -0.481124   -0.162338   -2.554885
  N     -0.003980   -0.691289   -3.825405
  C      0.648663    0.071309   -4.739847
  O      0.868419    1.260124   -4.629376
  H      0.421291    2.198028   -0.224448
  H     -1.238271    1.729586   -0.643049
  H     -0.731251    1.785901    1.051317
  H      0.729478    0.006865    2.029283
  H      1.373183   -1.292659    1.008782
  H      2.000293    0.362797    0.851811
  H     -1.495247   -0.553484    1.047237
  H      1.437370    0.247408   -1.656822
  H      0.844403   -1.391401   -1.381504
  H     -1.415138   -0.663234   -2.289633
  H     -0.692044    0.895470   -2.722840
  H     -0.076242   -1.681142   -3.998449
  H      0.955797   -0.520244   -5.626065

 Total Charge           Charge          ....    0
 Multiplicity           Mult            ....    1
 Number of Electrons    NEL             ....   72
 Basis Dimension        Dim             ....  357

ORBITAL ENERGIES
----------------

  NO   OCC          E(Eh)            E(eV)
   0   2.0000     -20.555300      -559.3382
   1   2.0000     -20.516975      -558.2953
   2   2.0000     -15.584240      -424.0687
   3   2.0000     -11.343710      -308.6780
   4   2.0000     -11.291546      -307.2586
   5   2.0000     -11.257770      -306.3395
   6   2.0000     -11.222214      -305.3720
   7   2.0000     -11.219385      -305.2950
   8   2.0000     -11.219367      -305.2945
   9   2.0000      -1.377335       -37.4792
  10   2.0000      -1.363447       -37.1013
  11   2.0000      -1.230880       -33.4939
  12   2.0000      -1.076245       -29.2861
  13   2.0000      -0.998080       -27.1591
  14   2.0000      -0.943985       -25.6871
  15   2.0000      -0.889624       -24.2079
  16   2.0000      -0.799388       -21.7525
  17   2.0000      -0.772782       -21.0285
  18   2.0000      -0.736861       -20.0510
  19   2.0000      -0.675937       -18.3932
  20   2.0000      -0.652499       -17.7554
  21   2.0000      -0.629236       -17.1224
  22   2.0000      -0.614652       -16.7255
  23   2.0000      -0.595822       -16.2131
  24   2.0000      -0.588080       -16.0025
  25   2.0000      -0.575550       -15.6615
  26   2.0000      -0.565866       -15.3980
  27   2.0000      -0.544133       -14.8066
  28   2.0000      -0.518390       -14.1061
  29   2.0000      -0.516290       -14.0490
  30   2.0000      -0.506729       -13.7888
  31   2.0000      -0.488965       -13.3054
  32   2.0000      -0.470520       -12.8035
  33   2.0000      -0.439795       -11.9674
  34   2.0000      -0.425943       -11.5905
  35   2.0000      -0.386404       -10.5146
  36   0.0000       0.122856         3.3431
  37   0.0000       0.134637         3.6637
  38   0.0000       0.169804         4.6206
  39   0.0000       0.172342         4.6897
  40   0.0000       0.180372         4.9082

MULLIKEN ATOMIC CHARGES
-----------------------
   0 C :   -0.455272
   1 C :    0.210714
   2 C :   -0.403272
   3 O :   -0.477724
   4 C :   -0.203542
   5 C :   -0.153469
   6 N :   -0.324415
   7 C :    0.195765
   8 O :   -0.376260
   9 H :    0.138063
  10 H :    0.151138
  11 H :    0.125748
  12 H :    0.121645
  13 H :    0.139984
  14 H :    0.129072
  15 H :    0.311996
  16 H :    0.139034
  17 H :    0.103910
  18 H :    0.163912
  19 H :    0.144939
  20 H :    0.240289
  21 H :    0.077745
Sum of atomic charges:    0.0000000

LOEWDIN ATOMIC CHARGES
----------------------
   0 C :   -0.278261
   1 C :   -0.425813
   2 C :   -0.280102
   3 O :   -0.002686
   4 C :   -0.230886
   5 C :   -0.271357
   6 N :    0.083774
   7 C :   -0.442812
   8 O :    0.047779
   9 H :    0.132217
  10 H :    0.127496
  11 H :    0.122915
  12 H :    0.121776
  13 H :    0.127299
  14 H :    0.128544
  15 H :    0.173568
  16 H :    0.149142
  17 H :    0.142582
  18 H :    0.139648
  19 H :    0.143685
  20 H :    0.183479
  21 H :    0.108014

  Mayer bond orders larger than 0.1
B(  0-C ,  1-C ) :   0.9278 B(  0-C ,  9-H ) :   0.9288 B(  0-C , 10-H ) :   0.9409
B(  0-C , 11-H ) :   0.9275 B(  1-C ,  2-C ) :   0.9188 B(  1-C ,  3-O ) :   0.9119
B(  1-C ,  4-C ) :   0.8900 B(  2-C , 12-H ) :   0.9292 B(  2-C , 13-H ) :   0.9406
B(  2-C , 14-H ) :   0.9305 B(  3-O , 15-H ) :   0.8441 B(  4-C ,  5-C ) :   0.9193
B(  4-C , 16-H ) :   0.9263 B(  4-C , 17-H ) :   0.9271 B(  5-C ,  6-N ) :   0.8301
B(  5-C , 18-H ) :   0.9400 B(  5-C , 19-H ) :   0.9182 B(  6-N ,  7-C ) :   1.1724
B(  6-N , 20-H ) :   0.8740 B(  7-C ,  8-O ) :   1.8768 B(  7-C , 21-H ) :   0.9307

MP2 TOTAL ENERGY:     -440.805941985 Eh
FINAL SINGLE POINT ENERGY      -440.805941985266

DIPOLE MOMENT
-------------
                                X             Y             Z
Electronic contribution:     -0.79891      -1.01879      -8.65020
Nuclear contribution   :      0.55507       0.12383       9.53355
                        -----------------------------------------
Total Dipole Moment    :     -0.24385      -0.89496       0.88335
                        -----------------------------------------
Magnitude (a.u.)       :      1.28091
Magnitude (Debye)      :      3.25581

                             ****ORCA TERMINATED NORMALLY****
TOTAL RUN TIME: 0 days 0 hours 19 minutes 33 seconds 512 msec
