                         Program Version 3.0.3 - RELEASE   -
|  1> ! RI-MP2 RIJK def2-TZVP def2-TZVP/C def2-TZVP/JK TIGHTSCF
|  2> % maxcore 2000
|  3> % mp2 density relaxed end
|  4> *xyz 0 1
|  5>  C       -1.2454107569    -3.1105927709     2.1967901002
|  6>  N       -0.6970127941    -2.3217014173     1.1042033747
|  7>  C       -1.5098257336    -1.8606238167    -0.0096859332
|  8>  C       -0.8644929831    -1.9917077169    -1.3830349087
|  9>  C       -3.0072739154    -2.1234211058    -0.0701249408
| 10>  C       -0.9614613051    -0.8732286963     1.0234649605
| 11>  C       -1.8668457322    -0.1275170983     1.9861767595
| 12>  C        0.2737661225    -0.0924384311     0.6708493817
| 13>  O        0.3819799287     1.1019827495     0.8036560542
| 14>  H       -2.2494168561    -2.8227300181     2.5356025394
| 15>  H       -1.2795989874    -4.1596131834     1.8861073468
| 16>  H       -0.5683457260    -3.0380562487     3.0535354686
| 17>  H       -1.1168629494    -2.9643913585    -1.8207392603
| 18>  H       -1.2324520212    -1.2162714852    -2.0637553123
| 19>  H        0.2222170760    -1.9245785106    -1.3309558885
| 20>  H       -3.5058859941    -2.1048303045     0.8981560583
| 21>  H       -3.4941887496    -1.3822770174    -0.7122697031
| 22>  H       -3.1859811474    -3.1088412780    -0.5155956482
| 23>  H       -2.8417675842    -0.5925943066     2.1216236571
| 24>  H       -1.3902128607    -0.0424417598     2.9686844819
| 25>  H       -2.0139362122     0.8890614927     1.6142832931
| 26>  H        1.1093771416    -0.7152796981     0.2888280590
| 27> *
| 28>
| 29>                          ****END OF INPUT****

CARTESIAN COORDINATES (ANGSTROEM)
---------------------------------
  C     -1.245411   -3.110593    2.196790
  N     -0.697013   -2.321701    1.104203
  C     -1.509826   -1.860624   -0.009686
  C     -0.864493   -1.991708   -1.383035
  C     -3.007274   -2.123421   -0.070125
  C     -0.961461   -0.873229    1.023465
  C     -1.866846   -0.127517    1.986177
  C      0.273766   -0.092438    0.670849
  O      0.381980    1.101983    0.803656
  H     -2.249417   -2.822730    2.535603
  H     -1.279599   -4.159613    1.886107
  H     -0.568346   -3.038056    3.053535
  H     -1.116863   -2.964391   -1.820739
  H     -1.232452   -1.216271   -2.063755
  H      0.222217   -1.924579   -1.330956
  H     -3.505886   -2.104830    0.898156
  H     -3.494189   -1.382277   -0.712270
  H     -3.185981   -3.108841   -0.515596
  H     -2.841768   -0.592594    2.121624
  H     -1.390213   -0.042442    2.968684
  H     -2.013936    0.889061    1.614283
  H      1.109377   -0.715280    0.288828

 Total Charge           Charge          ....    0
 Multiplicity           Mult            ....    1
 Number of Electrons    NEL             ....   70
 Basis Dimension        Dim             ....  357

ORBITAL ENERGIES
----------------

  NO   OCC          E(Eh)            E(eV)
   0   2.0000     -20.550263      -559.2011
   1   2.0000     -15.567815      -423.6218
   2   2.0000     -11.322820      -308.1096
   3   2.0000     -11.285126      -307.0839
   4   2.0000     -11.273757      -306.7745
   5   2.0000     -11.255768      -306.2850
   6   2.0000     -11.232484      -305.6514
   7   2.0000     -11.224792      -305.4421
   8   2.0000     -11.224577      -305.4363
   9   2.0000      -1.389879       -37.8205
  10   2.0000      -1.287369       -35.0311
  11   2.0000      -1.048266       -28.5248
  12   2.0000      -1.022076       -27.8121
  13   2.0000      -0.969865       -26.3914
  14   2.0000      -0.937531       -25.5115
  15   2.0000      -0.875366       -23.8199
  16   2.0000      -0.768237       -20.9048
  17   2.0000      -0.731249       -19.8983
  18   2.0000      -0.686192       -18.6722
  19   2.0000      -0.656091       -17.8531
  20   2.0000      -0.638304       -17.3691
  21   2.0000      -0.616230       -16.7685
  22   2.0000      -0.608336       -16.5537
  23   2.0000      -0.573399       -15.6030
  24   2.0000      -0.566651       -15.4193
  25   2.0000      -0.557720       -15.1763
  26   2.0000      -0.550993       -14.9933
  27   2.0000      -0.546722       -14.8771
  28   2.0000      -0.543613       -14.7925
  29   2.0000      -0.523016       -14.2320
  30   2.0000      -0.507341       -13.8054
  31   2.0000      -0.452866       -12.3231
  32   2.0000      -0.439531       -11.9602
  33   2.0000      -0.416922       -11.3450
  34   2.0000      -0.366621        -9.9763
  35   0.0000       0.123172         3.3517
  36   0.0000       0.131549         3.5796
  37   0.0000       0.157786         4.2936
  38   0.0000       0.174333         4.7438
  39   0.0000       0.175155         4.7662

MULLIKEN ATOMIC CHARGES
-----------------------
   0 C :   -0.305433
   1 N :   -0.257433
   2 C :    0.070830
   3 C :   -0.378920
   4 C :   -0.381799
   5 C :    0.161909
   6 C :   -0.392321
   7 C :    0.012900
   8 O :   -0.275806
   9 H :    0.109343
  10 H :    0.143857
  11 H :    0.145365
  12 H :    0.128029
  13 H :    0.133759
  14 H :    0.134870
  15 H :    0.125467
  16 H :    0.148847
  17 H :    0.140937
  18 H :    0.125660
  19 H :    0.140720
  20 H :    0.165277
  21 H :    0.103943
Sum of atomic charges:    0.0000000

LOEWDIN ATOMIC CHARGES
----------------------
   0 C :   -0.321074
   1 N :    0.148072
   2 C :   -0.284990
   3 C :   -0.264085
   4 C :   -0.266600
   5 C :   -0.260875
   6 C :   -0.266057
   7 C :   -0.259963
   8 O :    0.132340
   9 H :    0.105435
  10 H :    0.122073
  11 H :    0.122075
  12 H :    0.128438
  13 H :    0.129627
  14 H :    0.127552
  15 H :    0.122390
  16 H :    0.135622
  17 H :    0.132541
  18 H :    0.122601
  19 H :    0.133762
  20 H :    0.141885
  21 H :    0.119230

  Mayer bond orders larger than 0.1
B(  0-C ,  1-N ) :   0.8888 B(  0-C ,  9-H ) :   0.9267 B(  0-C , 10-H ) :   0.9363
B(  0-C , 11-H ) :   0.9367 B(  1-N ,  2-C ) :   0.8607 B(  1-N ,  5-C ) :   0.8487
B(  2-C ,  3-C ) :   0.9008 B(  2-C ,  4-C ) :   0.9191 B(  2-C ,  5-C ) :   0.8324
B(  3-C , 12-H ) :   0.9325 B(  3-C , 13-H ) :   0.9345 B(  3-C , 14-H ) :   0.9372
B(  4-C , 15-H ) :   0.9334 B(  4-C , 16-H ) :   0.9311 B(  4-C , 17-H ) :   0.9354
B(  5-C ,  6-C ) :   0.9092 B(  5-C ,  7-C ) :   0.7928 B(  5-C , 21-H ) :  -0.1147
B(  6-C , 18-H ) :   0.9426 B(  6-C , 19-H ) :   0.9282 B(  6-C , 20-H ) :   0.9205
B(  7-C ,  8-O ) :   1.9959 B(  7-C , 21-H ) :   0.9775

MP2 TOTAL ENERGY:     -403.643044235 Eh
FINAL SINGLE POINT ENERGY      -403.643044234946

DIPOLE MOMENT
-------------
                                X             Y             Z
Electronic contribution:      6.31705       5.36814       0.30316
Nuclear contribution   :     -7.18358      -6.32740      -0.28766
                        -----------------------------------------
Total Dipole Moment    :     -0.86653      -0.95925       0.01551
                        -----------------------------------------
Magnitude (a.u.)       :      1.29278
Magnitude (Debye)      :      3.28598

                             ****ORCA TERMINATED NORMALLY****
TOTAL RUN TIME: 0 days 0 hours 21 minutes 21 seconds 585 msec
