                         Program Version 3.0.3 - RELEASE   -
|  1> ! RI-MP2 RIJK def2-TZVP def2-TZVP/C def2-TZVP/JK TIGHTSCF
|  2> % maxcore 2000
|  3> % mp2 density relaxed end
|  4> *xyz 0 1
|  5>  O       -0.1398152173     1.3877783518     0.0660711516
|  6>  N        0.0509209806    -0.0089228834    -0.0125855929
|  7>  C       -1.0564060475    -0.6168173981    -0.0697362176
|  8>  C       -2.5405674476    -0.3083280336     0.0054433780
|  9>  C       -2.9980077033    -0.8724469536    -1.3664007385
| 10>  C       -2.6016228569    -2.3234476133    -1.0152824784
| 11>  O       -3.5004601964    -2.5990854268     0.0988962769
| 12>  C       -2.6587196479    -1.7022407830     0.8187267111
| 13>  C       -1.3939177459    -2.0746250067    -0.0087360848
| 14>  H        0.7664700981     1.7099001192     0.1196206251
| 15>  H       -2.9290448231     0.6403996504     0.3607309970
| 16>  H       -4.0733659103    -0.8028795594    -1.5406973889
| 17>  H       -2.4499551195    -0.4362745497    -2.2044101423
| 18>  H       -2.5948294446    -3.0979673995    -1.7799379613
| 19>  H       -2.7540551065    -1.7010811893     1.9018660423
| 20>  H       -0.7067022219    -2.8826723449     0.2228690126
| 21> *
| 22>
| 23>                          ****END OF INPUT****

CARTESIAN COORDINATES (ANGSTROEM)
---------------------------------
  O     -0.139815    1.387778    0.066071
  N      0.050921   -0.008923   -0.012586
  C     -1.056406   -0.616817   -0.069736
  C     -2.540567   -0.308328    0.005443
  C     -2.998008   -0.872447   -1.366401
  C     -2.601623   -2.323448   -1.015282
  O     -3.500460   -2.599085    0.098896
  C     -2.658720   -1.702241    0.818727
  C     -1.393918   -2.074625   -0.008736
  H      0.766470    1.709900    0.119621
  H     -2.929045    0.640400    0.360731
  H     -4.073366   -0.802880   -1.540697
  H     -2.449955   -0.436275   -2.204410
  H     -2.594829   -3.097967   -1.779938
  H     -2.754055   -1.701081    1.901866
  H     -0.706702   -2.882672    0.222869

 Total Charge           Charge          ....    0
 Multiplicity           Mult            ....    1
 Number of Electrons    NEL             ....   66
 Basis Dimension        Dim             ....  321

ORBITAL ENERGIES
----------------

  NO   OCC          E(Eh)            E(eV)
   0   2.0000     -20.591061      -560.3113
   1   2.0000     -20.564209      -559.5806
   2   2.0000     -15.616421      -424.9444
   3   2.0000     -11.309564      -307.7489
   4   2.0000     -11.308986      -307.7332
   5   2.0000     -11.284926      -307.0785
   6   2.0000     -11.258387      -306.3563
   7   2.0000     -11.256603      -306.3077
   8   2.0000     -11.244164      -305.9693
   9   2.0000      -1.417256       -38.5655
  10   2.0000      -1.411349       -38.4048
  11   2.0000      -1.197250       -32.5788
  12   2.0000      -1.109496       -30.1909
  13   2.0000      -0.995322       -27.0841
  14   2.0000      -0.951902       -25.9026
  15   2.0000      -0.825874       -22.4732
  16   2.0000      -0.786454       -21.4005
  17   2.0000      -0.730379       -19.8746
  18   2.0000      -0.722092       -19.6491
  19   2.0000      -0.693213       -18.8633
  20   2.0000      -0.666251       -18.1296
  21   2.0000      -0.652994       -17.7689
  22   2.0000      -0.620154       -16.8752
  23   2.0000      -0.583974       -15.8907
  24   2.0000      -0.547477       -14.8976
  25   2.0000      -0.532266       -14.4837
  26   2.0000      -0.525473       -14.2988
  27   2.0000      -0.506062       -13.7707
  28   2.0000      -0.485677       -13.2159
  29   2.0000      -0.465703       -12.6724
  30   2.0000      -0.424873       -11.5614
  31   2.0000      -0.411547       -11.1988
  32   2.0000      -0.381204       -10.3731
  33   0.0000       0.137461         3.7405
  34   0.0000       0.148968         4.0536
  35   0.0000       0.160429         4.3655
  36   0.0000       0.168671         4.5898
  37   0.0000       0.180817         4.9203

MULLIKEN ATOMIC CHARGES
-----------------------
   0 O :   -0.359157
   1 N :   -0.068952
   2 C :   -0.101493
   3 C :   -0.020502
   4 C :   -0.250090
   5 C :    0.026612
   6 O :   -0.308136
   7 C :   -0.028124
   8 C :   -0.070705
   9 H :    0.337302
  10 H :    0.153783
  11 H :    0.131877
  12 H :    0.136834
  13 H :    0.141062
  14 H :    0.140038
  15 H :    0.139651
Sum of atomic charges:    0.0000000

LOEWDIN ATOMIC CHARGES
----------------------
   0 O :   -0.081309
   1 N :    0.027666
   2 C :   -0.259263
   3 C :   -0.142422
   4 C :   -0.196878
   5 C :   -0.207565
   6 O :    0.168783
   7 C :   -0.202986
   8 C :   -0.113194
   9 H :    0.168575
  10 H :    0.142412
  11 H :    0.141680
  12 H :    0.143515
  13 H :    0.132581
  14 H :    0.134623
  15 H :    0.143783

  Mayer bond orders larger than 0.1
B(  0-O ,  1-N ) :   0.7921 B(  0-O ,  9-H ) :   0.8434 B(  1-N ,  2-C ) :   1.9221
B(  2-C ,  3-C ) :   0.9038 B(  2-C ,  8-C ) :   0.9734 B(  3-C ,  4-C ) :   0.8710
B(  3-C ,  7-C ) :   0.8399 B(  3-C , 10-H ) :   0.9046 B(  4-C ,  5-C ) :   0.9497
B(  4-C , 11-H ) :   0.9225 B(  4-C , 12-H ) :   0.9279 B(  5-C ,  6-O ) :   0.8902
B(  5-C ,  8-C ) :   0.8631 B(  5-C , 13-H ) :   0.9111 B(  6-O ,  7-C ) :   0.9802
B(  7-C ,  8-C ) :   0.9190 B(  7-C , 14-H ) :   0.9055 B(  8-C , 15-H ) :   0.9105

MP2 TOTAL ENERGY:     -437.067332161 Eh
FINAL SINGLE POINT ENERGY      -437.067332160537

DIPOLE MOMENT
-------------
                                X             Y             Z
Electronic contribution:      1.85621      -0.03419       1.50683
Nuclear contribution   :     -1.66734       0.20169      -1.67490
                        -----------------------------------------
Total Dipole Moment    :      0.18887       0.16750      -0.16807
                        -----------------------------------------
Magnitude (a.u.)       :      0.30327
Magnitude (Debye)      :      0.77086

                             ****ORCA TERMINATED NORMALLY****
TOTAL RUN TIME: 0 days 0 hours 15 minutes 39 seconds 68 msec
