                         Program Version 3.0.3 - RELEASE   -
|  1> ! RI-MP2 RIJK def2-TZVP def2-TZVP/C def2-TZVP/JK TIGHTSCF
|  2> % maxcore 2000
|  3> % mp2 density relaxed end
|  4> *xyz 0 1
|  5>  C        0.5412407991     1.3708073371     0.3247277662
|  6>  C       -0.2578195425     0.1534234017    -0.1549866646
|  7>  C        0.3927500893    -0.5240406388    -1.3519242730
|  8>  O        1.6001158505    -1.2699024785    -1.0759747801
|  9>  C        0.4539290044    -1.9956067821    -1.5387097647
| 10>  C       -0.1050932458    -3.0314139721    -0.5934029461
| 11>  O        0.7292005207    -4.1780614543    -0.5673671676
| 12>  C        0.4506654459     0.2904801276    -2.5489717494
| 13>  C        0.4689273238     0.9792928075    -3.5340126014
| 14>  H        1.5521118959     1.0741799425     0.6194711674
| 15>  H        0.6252059609     2.1229075277    -0.4648047064
| 16>  H        0.0551407221     1.8345031127     1.1876245175
| 17>  H       -0.3519645990    -0.5686152558     0.6591458805
| 18>  H       -1.2723295016     0.4544479186    -0.4412145431
| 19>  H        0.5520659555    -2.3506709450    -2.5656937367
| 20>  H       -0.2409498024    -2.6137538976     0.4121583228
| 21>  H       -1.0817809917    -3.3713493372    -0.9543957658
| 22>  H        1.6020933234    -3.8840599747    -0.2830016328
| 23>  H        0.4948326415     1.5815227807    -4.4086213428
| 24> *
| 25>
| 26>                          ****END OF INPUT****

CARTESIAN COORDINATES (ANGSTROEM)
---------------------------------
  C      0.541241    1.370807    0.324728
  C     -0.257820    0.153423   -0.154987
  C      0.392750   -0.524041   -1.351924
  O      1.600116   -1.269902   -1.075975
  C      0.453929   -1.995607   -1.538710
  C     -0.105093   -3.031414   -0.593403
  O      0.729201   -4.178061   -0.567367
  C      0.450665    0.290480   -2.548972
  C      0.468927    0.979293   -3.534013
  H      1.552112    1.074180    0.619471
  H      0.625206    2.122908   -0.464805
  H      0.055141    1.834503    1.187625
  H     -0.351965   -0.568615    0.659146
  H     -1.272330    0.454448   -0.441215
  H      0.552066   -2.350671   -2.565694
  H     -0.240950   -2.613754    0.412158
  H     -1.081781   -3.371349   -0.954396
  H      1.602093   -3.884060   -0.283002
  H      0.494833    1.581523   -4.408621

 Total Charge           Charge          ....    0
 Multiplicity           Mult            ....    1
 Number of Electrons    NEL             ....   68
 Basis Dimension        Dim             ....  339

ORBITAL ENERGIES
----------------

  NO   OCC          E(Eh)            E(eV)
   0   2.0000     -20.581314      -560.0460
   1   2.0000     -20.564077      -559.5770
   2   2.0000     -11.326155      -308.2004
   3   2.0000     -11.299461      -307.4740
   4   2.0000     -11.290179      -307.2214
   5   2.0000     -11.244259      -305.9718
   6   2.0000     -11.243588      -305.9536
   7   2.0000     -11.238210      -305.8072
   8   2.0000     -11.220984      -305.3385
   9   2.0000      -1.426528       -38.8178
  10   2.0000      -1.367430       -37.2097
  11   2.0000      -1.084109       -29.5001
  12   2.0000      -1.031424       -28.0665
  13   2.0000      -1.000411       -27.2226
  14   2.0000      -0.931347       -25.3433
  15   2.0000      -0.858607       -23.3639
  16   2.0000      -0.821726       -22.3603
  17   2.0000      -0.739582       -20.1251
  18   2.0000      -0.716262       -19.4905
  19   2.0000      -0.690129       -18.7794
  20   2.0000      -0.661775       -18.0078
  21   2.0000      -0.630985       -17.1700
  22   2.0000      -0.613220       -16.6866
  23   2.0000      -0.585545       -15.9335
  24   2.0000      -0.575039       -15.6476
  25   2.0000      -0.546132       -14.8610
  26   2.0000      -0.525797       -14.3077
  27   2.0000      -0.514629       -14.0038
  28   2.0000      -0.497400       -13.5349
  29   2.0000      -0.481769       -13.1096
  30   2.0000      -0.461872       -12.5682
  31   2.0000      -0.450205       -12.2507
  32   2.0000      -0.406364       -11.0577
  33   2.0000      -0.386006       -10.5038
  34   0.0000       0.140696         3.8285
  35   0.0000       0.152334         4.1452
  36   0.0000       0.154823         4.2130
  37   0.0000       0.156842         4.2679
  38   0.0000       0.166048         4.5184

MULLIKEN ATOMIC CHARGES
-----------------------
   0 C :   -0.424778
   1 C :   -0.175738
   2 C :   -0.002157
   3 O :   -0.335919
   4 C :   -0.028823
   5 C :    0.011944
   6 O :   -0.470546
   7 C :    0.001334
   8 C :   -0.102597
   9 H :    0.143876
  10 H :    0.143275
  11 H :    0.136635
  12 H :    0.103019
  13 H :    0.123329
  14 H :    0.127038
  15 H :    0.111479
  16 H :    0.115469
  17 H :    0.326907
  18 H :    0.196253
Sum of atomic charges:    0.0000000

LOEWDIN ATOMIC CHARGES
----------------------
   0 C :   -0.303565
   1 C :   -0.235243
   2 C :   -0.286827
   3 O :    0.186625
   4 C :   -0.242423
   5 C :   -0.328951
   6 O :   -0.040673
   7 C :   -0.060385
   8 C :   -0.072343
   9 H :    0.127925
  10 H :    0.127572
  11 H :    0.122735
  12 H :    0.140592
  13 H :    0.149264
  14 H :    0.148081
  15 H :    0.120930
  16 H :    0.136706
  17 H :    0.180524
  18 H :    0.129457

  Mayer bond orders larger than 0.1
B(  0-C ,  1-C ) :   0.9279 B(  0-C ,  9-H ) :   0.9378 B(  0-C , 10-H ) :   0.9338
B(  0-C , 11-H ) :   0.9383 B(  1-C ,  2-C ) :   0.9364 B(  1-C , 12-H ) :   0.9217
B(  1-C , 13-H ) :   0.9228 B(  2-C ,  3-O ) :   0.8620 B(  2-C ,  4-C ) :   0.9470
B(  2-C ,  7-C ) :   1.1386 B(  2-C ,  8-C ) :  -0.1439 B(  3-O ,  4-C ) :   0.8756
B(  4-C ,  5-C ) :   0.9125 B(  4-C , 14-H ) :   0.9185 B(  5-C ,  6-O ) :   0.8985
B(  5-C , 15-H ) :   0.9263 B(  5-C , 16-H ) :   0.9182 B(  6-O , 17-H ) :   0.8394
B(  7-C ,  8-C ) :   2.5898 B(  8-C , 18-H ) :   0.8861

MP2 TOTAL ENERGY:     -422.258056134 Eh
FINAL SINGLE POINT ENERGY      -422.258056133937

DIPOLE MOMENT
-------------
                                X             Y             Z
Electronic contribution:      2.31038      -3.34645      -4.88481
Nuclear contribution   :     -2.81877       3.95526       4.97301
                        -----------------------------------------
Total Dipole Moment    :     -0.50839       0.60882       0.08821
                        -----------------------------------------
Magnitude (a.u.)       :      0.79806
Magnitude (Debye)      :      2.02850

                             ****ORCA TERMINATED NORMALLY****
TOTAL RUN TIME: 0 days 0 hours 27 minutes 52 seconds 487 msec
