                         Program Version 3.0.3 - RELEASE   -
|  1> ! RI-MP2 RIJK def2-TZVP def2-TZVP/C def2-TZVP/JK TIGHTSCF
|  2> % maxcore 2000
|  3> % mp2 density relaxed end
|  4> *xyz 0 1
|  5>  C       -0.0242520430     1.3901603172     0.0381301198
|  6>  O        0.0030517994    -0.0302868472     0.0714005033
|  7>  C       -1.2122237365    -0.6372474651     0.0479356544
|  8>  C       -1.3897921835    -1.9965468601     0.0733144667
|  9>  O       -0.5472120894    -3.0592507111     0.1232333121
| 10>  N       -2.7499008696    -2.1857198074     0.0360816205
| 11>  C       -3.3262423995    -0.9463806732    -0.0097506053
| 12>  N       -2.4159932036     0.0052104884    -0.0034732156
| 13>  H        1.0186323863     1.7115149344     0.0628968054
| 14>  H       -0.5073161451     1.7577742408    -0.8738242762
| 15>  H       -0.5619610292     1.7982884352     0.9009408782
| 16>  H        0.3499098284    -2.7077891166     0.1423900435
| 17>  H       -3.2109429596    -3.0799562276     0.0416793294
| 18>  H       -4.3944014149    -0.8055325676    -0.0455573864
| 19> *
| 20>
| 21>                          ****END OF INPUT****

CARTESIAN COORDINATES (ANGSTROEM)
---------------------------------
  C     -0.024252    1.390160    0.038130
  O      0.003052   -0.030287    0.071401
  C     -1.212224   -0.637247    0.047936
  C     -1.389792   -1.996547    0.073314
  O     -0.547212   -3.059251    0.123233
  N     -2.749901   -2.185720    0.036082
  C     -3.326242   -0.946381   -0.009751
  N     -2.415993    0.005210   -0.003473
  H      1.018632    1.711515    0.062897
  H     -0.507316    1.757774   -0.873824
  H     -0.561961    1.798288    0.900941
  H      0.349910   -2.707789    0.142390
  H     -3.210943   -3.079956    0.041679
  H     -4.394401   -0.805533   -0.045557

 Total Charge           Charge          ....    0
 Multiplicity           Mult            ....    1
 Number of Electrons    NEL             ....   60
 Basis Dimension        Dim             ....  284

ORBITAL ENERGIES
----------------

  NO   OCC          E(Eh)            E(eV)
   0   2.0000     -20.598311      -560.5085
   1   2.0000     -20.573999      -559.8470
   2   2.0000     -15.620423      -425.0533
   3   2.0000     -15.548945      -423.1083
   4   2.0000     -11.312554      -307.8302
   5   2.0000     -11.295422      -307.3640
   6   2.0000     -11.291406      -307.2548
   7   2.0000     -11.270203      -306.6778
   8   2.0000      -1.426030       -38.8042
   9   2.0000      -1.397973       -38.0408
  10   2.0000      -1.329749       -36.1843
  11   2.0000      -1.167887       -31.7798
  12   2.0000      -1.004968       -27.3466
  13   2.0000      -0.928099       -25.2549
  14   2.0000      -0.841895       -22.9091
  15   2.0000      -0.809499       -22.0276
  16   2.0000      -0.758024       -20.6269
  17   2.0000      -0.701056       -19.0767
  18   2.0000      -0.660278       -17.9671
  19   2.0000      -0.655967       -17.8498
  20   2.0000      -0.624578       -16.9956
  21   2.0000      -0.617319       -16.7981
  22   2.0000      -0.611069       -16.6280
  23   2.0000      -0.560788       -15.2598
  24   2.0000      -0.548810       -14.9339
  25   2.0000      -0.508419       -13.8348
  26   2.0000      -0.487588       -13.2679
  27   2.0000      -0.443719       -12.0742
  28   2.0000      -0.395289       -10.7564
  29   2.0000      -0.280507        -7.6330
  30   0.0000       0.134701         3.6654
  31   0.0000       0.147012         4.0004
  32   0.0000       0.166937         4.5426
  33   0.0000       0.168933         4.5969
  34   0.0000       0.190215         5.1760

MULLIKEN ATOMIC CHARGES
-----------------------
   0 C :   -0.194128
   1 O :   -0.337943
   2 C :    0.224443
   3 C :    0.167920
   4 O :   -0.439575
   5 N :   -0.263943
   6 C :    0.018817
   7 N :   -0.330326
   8 H :    0.136479
   9 H :    0.128877
  10 H :    0.128899
  11 H :    0.352609
  12 H :    0.256578
  13 H :    0.151293
Sum of atomic charges:    0.0000000

LOEWDIN ATOMIC CHARGES
----------------------
   0 C :   -0.326244
   1 O :    0.193274
   2 C :   -0.388805
   3 C :   -0.356632
   4 O :    0.056627
   5 N :    0.192742
   6 C :   -0.331304
   7 N :    0.096407
   8 H :    0.111359
   9 H :    0.110013
  10 H :    0.110018
  11 H :    0.206627
  12 H :    0.197588
  13 H :    0.128330

  Mayer bond orders larger than 0.1
B(  0-C ,  1-O ) :   0.8629 B(  0-C ,  8-H ) :   0.9356 B(  0-C ,  9-H ) :   0.9385
B(  0-C , 10-H ) :   0.9385 B(  1-O ,  2-C ) :   1.0337 B(  2-C ,  3-C ) :   1.4052
B(  2-C ,  7-N ) :   1.2306 B(  3-C ,  4-O ) :   1.1252 B(  3-C ,  5-N ) :   1.1406
B(  4-O , 11-H ) :   0.8201 B(  5-N ,  6-C ) :   1.1427 B(  5-N , 12-H ) :   0.8620
B(  6-C ,  7-N ) :   1.5151 B(  6-C , 13-H ) :   0.9276

MP2 TOTAL ENERGY:     -415.211819694 Eh
FINAL SINGLE POINT ENERGY      -415.211819694099

DIPOLE MOMENT
-------------
                                X             Y             Z
Electronic contribution:     -1.16178      -4.60718       0.06960
Nuclear contribution   :      1.05553       4.04566      -0.06071
                        -----------------------------------------
Total Dipole Moment    :     -0.10625      -0.56153       0.00889
                        -----------------------------------------
Magnitude (a.u.)       :      0.57156
Magnitude (Debye)      :      1.45279

                             ****ORCA TERMINATED NORMALLY****
TOTAL RUN TIME: 0 days 0 hours 9 minutes 39 seconds 648 msec
