                         Program Version 3.0.3 - RELEASE   -
|  1> ! RI-MP2 RIJK def2-TZVP def2-TZVP/C def2-TZVP/JK TIGHTSCF
|  2> % maxcore 2000
|  3> % mp2 density relaxed end
|  4> *xyz 0 1
|  5>  C        0.1902792546     1.3617007698    -0.6615472520
|  6>  C       -0.0159962476     0.0553500847     0.1084447255
|  7>  C       -1.3156540383    -0.6536941890    -0.2732215079
|  8>  C       -1.5527550503    -1.9478197821     0.4848649927
|  9>  O       -0.7938469621    -2.3270005816     1.3558538468
| 10>  C       -2.7626894282    -2.7792393100     0.1235568212
| 11>  C       -3.9361402155    -2.1314043193    -0.5792946910
| 12>  C       -2.4297283956    -4.2203892028    -0.1433395484
| 13>  N       -3.0971144891    -3.8353255034     1.0940932722
| 14>  H        1.1266528347     1.8468768519    -0.3700032286
| 15>  H        0.2295730389     1.1876217738    -1.7429043303
| 16>  H       -0.6237085226     2.0707069695    -0.4720618788
| 17>  H        0.8251354862    -0.6238617255    -0.0672739932
| 18>  H       -0.0193488281     0.2465612653     1.1864744764
| 19>  H       -2.1821432732     0.0015609695    -0.1032488816
| 20>  H       -1.3424452152    -0.8767313810    -1.3495059505
| 21>  H       -3.6546170913    -1.7256914194    -1.5559984418
| 22>  H       -4.7232542936    -2.8733223169    -0.7308131418
| 23>  H       -4.3603533062    -1.3177270240     0.0188630622
| 24>  H       -3.0407713742    -4.7675646685    -0.8569542020
| 25>  H       -1.3836057263    -4.5100475165    -0.1003142778
| 26>  H       -2.3930932869    -3.7898391945     1.8322039888
| 27> *
| 28>
| 29>                          ****END OF INPUT****

CARTESIAN COORDINATES (ANGSTROEM)
---------------------------------
  C      0.190279    1.361701   -0.661547
  C     -0.015996    0.055350    0.108445
  C     -1.315654   -0.653694   -0.273222
  C     -1.552755   -1.947820    0.484865
  O     -0.793847   -2.327001    1.355854
  C     -2.762689   -2.779239    0.123557
  C     -3.936140   -2.131404   -0.579295
  C     -2.429728   -4.220389   -0.143340
  N     -3.097114   -3.835326    1.094093
  H      1.126653    1.846877   -0.370003
  H      0.229573    1.187622   -1.742904
  H     -0.623709    2.070707   -0.472062
  H      0.825135   -0.623862   -0.067274
  H     -0.019349    0.246561    1.186474
  H     -2.182143    0.001561   -0.103249
  H     -1.342445   -0.876731   -1.349506
  H     -3.654617   -1.725691   -1.555998
  H     -4.723254   -2.873322   -0.730813
  H     -4.360353   -1.317727    0.018863
  H     -3.040771   -4.767565   -0.856954
  H     -1.383606   -4.510048   -0.100314
  H     -2.393093   -3.789839    1.832204

 Total Charge           Charge          ....    0
 Multiplicity           Mult            ....    1
 Number of Electrons    NEL             ....   70
 Basis Dimension        Dim             ....  357

ORBITAL ENERGIES
----------------

  NO   OCC          E(Eh)            E(eV)
   0   2.0000     -20.547791      -559.1338
   1   2.0000     -15.561093      -423.4389
   2   2.0000     -11.336008      -308.4685
   3   2.0000     -11.275227      -306.8145
   4   2.0000     -11.265414      -306.5475
   5   2.0000     -11.243184      -305.9426
   6   2.0000     -11.230956      -305.6098
   7   2.0000     -11.226423      -305.4865
   8   2.0000     -11.219877      -305.3084
   9   2.0000      -1.395389       -37.9705
  10   2.0000      -1.270298       -34.5666
  11   2.0000      -1.080549       -29.4032
  12   2.0000      -1.017078       -27.6761
  13   2.0000      -0.963416       -26.2159
  14   2.0000      -0.887560       -24.1517
  15   2.0000      -0.870265       -23.6811
  16   2.0000      -0.809614       -22.0307
  17   2.0000      -0.735331       -20.0094
  18   2.0000      -0.705493       -19.1974
  19   2.0000      -0.650703       -17.7065
  20   2.0000      -0.645719       -17.5709
  21   2.0000      -0.617161       -16.7938
  22   2.0000      -0.589329       -16.0365
  23   2.0000      -0.584191       -15.8967
  24   2.0000      -0.566098       -15.4043
  25   2.0000      -0.559488       -15.2244
  26   2.0000      -0.548403       -14.9228
  27   2.0000      -0.516230       -14.0473
  28   2.0000      -0.509119       -13.8538
  29   2.0000      -0.491442       -13.3728
  30   2.0000      -0.484439       -13.1823
  31   2.0000      -0.479249       -13.0410
  32   2.0000      -0.465165       -12.6578
  33   2.0000      -0.415919       -11.3177
  34   2.0000      -0.390910       -10.6372
  35   0.0000       0.121852         3.3158
  36   0.0000       0.134010         3.6466
  37   0.0000       0.149820         4.0768
  38   0.0000       0.173408         4.7187
  39   0.0000       0.176600         4.8055

MULLIKEN ATOMIC CHARGES
-----------------------
   0 C :   -0.384365
   1 C :   -0.165451
   2 C :   -0.292571
   3 C :    0.214608
   4 O :   -0.333002
   5 C :    0.092294
   6 C :   -0.422924
   7 C :   -0.159541
   8 N :   -0.368078
   9 H :    0.139283
  10 H :    0.120717
  11 H :    0.121788
  12 H :    0.116905
  13 H :    0.121090
  14 H :    0.137091
  15 H :    0.137230
  16 H :    0.130283
  17 H :    0.152988
  18 H :    0.140143
  19 H :    0.125813
  20 H :    0.138610
  21 H :    0.237090
Sum of atomic charges:    0.0000000

LOEWDIN ATOMIC CHARGES
----------------------
   0 C :   -0.320369
   1 C :   -0.286773
   2 C :   -0.239321
   3 C :   -0.292112
   4 O :    0.142404
   5 C :   -0.305416
   6 C :   -0.266442
   7 C :   -0.233530
   8 N :    0.022672
   9 H :    0.122602
  10 H :    0.119732
  11 H :    0.120024
  12 H :    0.140748
  13 H :    0.141711
  14 H :    0.156308
  15 H :    0.154541
  16 H :    0.126693
  17 H :    0.136566
  18 H :    0.129220
  19 H :    0.127015
  20 H :    0.128515
  21 H :    0.175213

  Mayer bond orders larger than 0.1
B(  0-C ,  1-C ) :   0.9103 B(  0-C ,  9-H ) :   0.9455 B(  0-C , 10-H ) :   0.9375
B(  0-C , 11-H ) :   0.9382 B(  1-C ,  2-C ) :   0.9502 B(  1-C , 12-H ) :   0.9336
B(  1-C , 13-H ) :   0.9338 B(  2-C ,  3-C ) :   0.9289 B(  2-C , 14-H ) :   0.8974
B(  2-C , 15-H ) :   0.9049 B(  3-C ,  4-O ) :   1.8641 B(  3-C ,  5-C ) :   0.9680
B(  5-C ,  6-C ) :   0.8769 B(  5-C ,  7-C ) :   0.9108 B(  5-C ,  8-N ) :   0.9101
B(  6-C , 16-H ) :   0.9317 B(  6-C , 17-H ) :   0.9326 B(  6-C , 18-H ) :   0.9446
B(  7-C ,  8-N ) :   0.9232 B(  7-C , 19-H ) :   0.9204 B(  7-C , 20-H ) :   0.9048
B(  8-N , 21-H ) :   0.8574

MP2 TOTAL ENERGY:     -403.659727939 Eh
FINAL SINGLE POINT ENERGY      -403.659727939424

DIPOLE MOMENT
-------------
                                X             Y             Z
Electronic contribution:     -0.88611      -7.35129       5.16504
Nuclear contribution   :      0.87317       7.85039      -6.07197
                        -----------------------------------------
Total Dipole Moment    :     -0.01295       0.49909      -0.90693
                        -----------------------------------------
Magnitude (a.u.)       :      1.03527
Magnitude (Debye)      :      2.63145

                             ****ORCA TERMINATED NORMALLY****
TOTAL RUN TIME: 0 days 0 hours 18 minutes 14 seconds 507 msec
