                         Program Version 3.0.3 - RELEASE   -
|  1> ! RI-MP2 RIJK def2-TZVP def2-TZVP/C def2-TZVP/JK TIGHTSCF
|  2> % maxcore 2000
|  3> % mp2 density relaxed end
|  4> *xyz 0 1
|  5>  C       -0.1128416636     1.5714290634    -0.0884687108
|  6>  C       -0.0422375455     0.0354780133    -0.0452645944
|  7>  C        0.7787931081    -0.5072434215     1.1467520676
|  8>  C        2.2425909489    -0.0773533829     1.1605797765
|  9>  C        2.6422063024     1.2873245260     1.7748912327
| 10>  O        3.5789773514     0.6619204771     2.6714588861
| 11>  C        3.1389946725    -0.6538735728     2.2811712551
| 12>  C       -1.4476021816    -0.5286441414     0.0442811410
| 13>  O       -1.9324095773    -1.3154084139    -0.7263353816
| 14>  H        0.8835459005     2.0086866068    -0.1921987159
| 15>  H       -0.7125425336     1.9119754692    -0.9380860348
| 16>  H       -0.5641111950     1.9744085827     0.8252612055
| 17>  H        0.3897066534    -0.3434298495    -0.9783141056
| 18>  H        0.3033876161    -0.2071016842     2.0912939095
| 19>  H        0.7407355513    -1.6042042041     1.1183290047
| 20>  H        2.6867480876    -0.2256043233     0.1717201666
| 21>  H        3.1293743456     2.0104058635     1.1098175683
| 22>  H        1.8340711442     1.7960582195     2.3193768491
| 23>  H        2.5862070083    -1.1571924023     3.0875684823
| 24>  H        3.9725759373    -1.2938443415     1.9698876906
| 25>  H       -2.0293986810    -0.1525212043     0.9212107475
| 26> *
| 27>
| 28>                          ****END OF INPUT****

CARTESIAN COORDINATES (ANGSTROEM)
---------------------------------
  C     -0.112842    1.571429   -0.088469
  C     -0.042238    0.035478   -0.045265
  C      0.778793   -0.507243    1.146752
  C      2.242591   -0.077353    1.160580
  C      2.642206    1.287325    1.774891
  O      3.578977    0.661920    2.671459
  C      3.138995   -0.653874    2.281171
  C     -1.447602   -0.528644    0.044281
  O     -1.932410   -1.315408   -0.726335
  H      0.883546    2.008687   -0.192199
  H     -0.712543    1.911975   -0.938086
  H     -0.564111    1.974409    0.825261
  H      0.389707   -0.343430   -0.978314
  H      0.303388   -0.207102    2.091294
  H      0.740736   -1.604204    1.118329
  H      2.686748   -0.225604    0.171720
  H      3.129374    2.010406    1.109818
  H      1.834071    1.796058    2.319377
  H      2.586207   -1.157192    3.087568
  H      3.972576   -1.293844    1.969888
  H     -2.029399   -0.152521    0.921211

 Total Charge           Charge          ....    0
 Multiplicity           Mult            ....    1
 Number of Electrons    NEL             ....   70
 Basis Dimension        Dim             ....  351

ORBITAL ENERGIES
----------------

  NO   OCC          E(Eh)            E(eV)
   0   2.0000     -20.561042      -559.4944
   1   2.0000     -20.552995      -559.2754
   2   2.0000     -11.333465      -308.3993
   3   2.0000     -11.285828      -307.1030
   4   2.0000     -11.284567      -307.0687
   5   2.0000     -11.253572      -306.2253
   6   2.0000     -11.248541      -306.0884
   7   2.0000     -11.247379      -306.0568
   8   2.0000     -11.240434      -305.8677
   9   2.0000      -1.399847       -38.0918
  10   2.0000      -1.383998       -37.6605
  11   2.0000      -1.115902       -30.3652
  12   2.0000      -1.035431       -28.1755
  13   2.0000      -0.944583       -25.7034
  14   2.0000      -0.936298       -25.4780
  15   2.0000      -0.875266       -23.8172
  16   2.0000      -0.789628       -21.4869
  17   2.0000      -0.769631       -20.9427
  18   2.0000      -0.694842       -18.9076
  19   2.0000      -0.673031       -18.3141
  20   2.0000      -0.665101       -18.0983
  21   2.0000      -0.637967       -17.3600
  22   2.0000      -0.626635       -17.0516
  23   2.0000      -0.597168       -16.2498
  24   2.0000      -0.591672       -16.1002
  25   2.0000      -0.569039       -15.4843
  26   2.0000      -0.558167       -15.1885
  27   2.0000      -0.536680       -14.6038
  28   2.0000      -0.522945       -14.2300
  29   2.0000      -0.505689       -13.7605
  30   2.0000      -0.500550       -13.6207
  31   2.0000      -0.463124       -12.6022
  32   2.0000      -0.456265       -12.4156
  33   2.0000      -0.419807       -11.4235
  34   2.0000      -0.414246       -11.2722
  35   0.0000       0.122708         3.3390
  36   0.0000       0.132848         3.6150
  37   0.0000       0.139494         3.7958
  38   0.0000       0.156611         4.2616
  39   0.0000       0.161281         4.3887

MULLIKEN ATOMIC CHARGES
-----------------------
   0 C :   -0.444718
   1 C :    0.056152
   2 C :   -0.359037
   3 C :   -0.063414
   4 C :   -0.046110
   5 O :   -0.324875
   6 C :   -0.009793
   7 C :    0.079178
   8 O :   -0.257021
   9 H :    0.143806
  10 H :    0.153705
  11 H :    0.131518
  12 H :    0.095256
  13 H :    0.129243
  14 H :    0.141120
  15 H :    0.112797
  16 H :    0.104302
  17 H :    0.094221
  18 H :    0.091421
  19 H :    0.102312
  20 H :    0.069937
Sum of atomic charges:   -0.0000000

LOEWDIN ATOMIC CHARGES
----------------------
   0 C :   -0.282741
   1 C :   -0.277253
   2 C :   -0.228034
   3 C :   -0.239479
   4 C :   -0.266618
   5 O :    0.111932
   6 C :   -0.251080
   7 C :   -0.275536
   8 O :    0.136615
   9 H :    0.129778
  10 H :    0.129691
  11 H :    0.126754
  12 H :    0.158149
  13 H :    0.145023
  14 H :    0.150328
  15 H :    0.150987
  16 H :    0.115986
  17 H :    0.117440
  18 H :    0.118735
  19 H :    0.116960
  20 H :    0.112364

  Mayer bond orders larger than 0.1
B(  0-C ,  1-C ) :   0.8918 B(  0-C ,  9-H ) :   0.9316 B(  0-C , 10-H ) :   0.9362
B(  0-C , 11-H ) :   0.9263 B(  1-C ,  2-C ) :   0.9128 B(  1-C ,  7-C ) :   0.8589
B(  1-C , 12-H ) :   0.9003 B(  2-C ,  3-C ) :   0.8979 B(  2-C , 13-H ) :   0.9211
B(  2-C , 14-H ) :   0.9291 B(  3-C ,  4-C ) :   0.9536 B(  3-C ,  6-C ) :   0.9542
B(  3-C , 15-H ) :   0.9178 B(  4-C ,  5-O ) :   0.9545 B(  4-C , 16-H ) :   0.9168
B(  4-C , 17-H ) :   0.9036 B(  5-O ,  6-C ) :   0.9549 B(  6-C , 18-H ) :   0.9050
B(  6-C , 19-H ) :   0.9160 B(  7-C ,  8-O ) :   2.0114 B(  7-C , 20-H ) :   0.9336

MP2 TOTAL ENERGY:     -423.501590004 Eh
FINAL SINGLE POINT ENERGY      -423.501590004429

DIPOLE MOMENT
-------------
                                X             Y             Z
Electronic contribution:     -1.18864      -3.33429      -0.38783
Nuclear contribution   :      1.31783       3.72604       0.42480
                        -----------------------------------------
Total Dipole Moment    :      0.12919       0.39175       0.03697
                        -----------------------------------------
Magnitude (a.u.)       :      0.41415
Magnitude (Debye)      :      1.05269

                             ****ORCA TERMINATED NORMALLY****
TOTAL RUN TIME: 0 days 0 hours 18 minutes 58 seconds 904 msec
