                         Program Version 3.0.3 - RELEASE   -
|  1> ! RI-MP2 RIJK def2-TZVP def2-TZVP/C def2-TZVP/JK TIGHTSCF
|  2> % maxcore 2000
|  3> % mp2 density relaxed end
|  4> *xyz 0 1
|  5>  C        0.3083011308     1.3282587008    -0.1095030598
|  6>  O       -0.1525731692     0.0139896051     0.1667327452
|  7>  C        0.5619709495    -0.6111058596     1.1896476478
|  8>  C        0.1663493706    -2.0829135583     1.4053083468
|  9>  O        1.5353880220    -2.5079084721     1.1255973693
| 10>  C        1.9253381625    -1.2060047805     0.8423758549
| 11>  N        3.0110496824    -0.7476174585     0.4260987823
| 12>  C        4.1117024320    -1.6610469260     0.1462866498
| 13>  H        1.3588690404     1.3261384859    -0.4217949992
| 14>  H       -0.3159048513     1.7172083852    -0.9165822453
| 15>  H        0.2017227875     1.9786076739     0.7723358168
| 16>  H        0.5778521111     0.0004071529     2.1043406048
| 17>  H       -0.1411440253    -2.3762800720     2.4110047783
| 18>  H       -0.5297029183    -2.4592795935     0.6526199021
| 19>  H        3.8508231613    -2.7202925098     0.2511974957
| 20>  H        4.4704867757    -1.4830466267    -0.8729107033
| 21>  H        4.9442800484    -1.4361947768     0.8222337839
| 22> *
| 23>
| 24>                          ****END OF INPUT****

CARTESIAN COORDINATES (ANGSTROEM)
---------------------------------
  C      0.308301    1.328259   -0.109503
  O     -0.152573    0.013990    0.166733
  C      0.561971   -0.611106    1.189648
  C      0.166349   -2.082914    1.405308
  O      1.535388   -2.507908    1.125597
  C      1.925338   -1.206005    0.842376
  N      3.011050   -0.747617    0.426099
  C      4.111702   -1.661047    0.146287
  H      1.358869    1.326138   -0.421795
  H     -0.315905    1.717208   -0.916582
  H      0.201723    1.978608    0.772336
  H      0.577852    0.000407    2.104341
  H     -0.141144   -2.376280    2.411005
  H     -0.529703   -2.459280    0.652620
  H      3.850823   -2.720293    0.251197
  H      4.470487   -1.483047   -0.872911
  H      4.944280   -1.436195    0.822234

 Total Charge           Charge          ....    0
 Multiplicity           Mult            ....    1
 Number of Electrons    NEL             ....   62
 Basis Dimension        Dim             ....  302

ORBITAL ENERGIES
----------------

  NO   OCC          E(Eh)            E(eV)
   0   2.0000     -20.589470      -560.2680
   1   2.0000     -20.574072      -559.8490
   2   2.0000     -15.545512      -423.0149
   3   2.0000     -11.331144      -308.3361
   4   2.0000     -11.306537      -307.6665
   5   2.0000     -11.298511      -307.4481
   6   2.0000     -11.274627      -306.7982
   7   2.0000     -11.242865      -305.9339
   8   2.0000      -1.434754       -39.0416
   9   2.0000      -1.388770       -37.7904
  10   2.0000      -1.217109       -33.1192
  11   2.0000      -1.033079       -28.1115
  12   2.0000      -0.953120       -25.9357
  13   2.0000      -0.922309       -25.0973
  14   2.0000      -0.871141       -23.7050
  15   2.0000      -0.751851       -20.4589
  16   2.0000      -0.703697       -19.1486
  17   2.0000      -0.686573       -18.6826
  18   2.0000      -0.670320       -18.2403
  19   2.0000      -0.631473       -17.1833
  20   2.0000      -0.619972       -16.8703
  21   2.0000      -0.602991       -16.4082
  22   2.0000      -0.584572       -15.9070
  23   2.0000      -0.567936       -15.4543
  24   2.0000      -0.527841       -14.3633
  25   2.0000      -0.517156       -14.0725
  26   2.0000      -0.508106       -13.8263
  27   2.0000      -0.485943       -13.2232
  28   2.0000      -0.450459       -12.2576
  29   2.0000      -0.401791       -10.9333
  30   2.0000      -0.387141       -10.5347
  31   0.0000       0.141721         3.8564
  32   0.0000       0.157671         4.2904
  33   0.0000       0.164008         4.4629
  34   0.0000       0.177841         4.8393
  35   0.0000       0.188204         5.1213

MULLIKEN ATOMIC CHARGES
-----------------------
   0 C :   -0.226593
   1 O :   -0.311509
   2 C :    0.084479
   3 C :   -0.005582
   4 O :   -0.287219
   5 C :    0.150020
   6 N :   -0.268316
   7 C :   -0.275820
   8 H :    0.149711
   9 H :    0.139539
  10 H :    0.108808
  11 H :    0.097645
  12 H :    0.116350
  13 H :    0.120209
  14 H :    0.133081
  15 H :    0.137685
  16 H :    0.137513
Sum of atomic charges:   -0.0000000

LOEWDIN ATOMIC CHARGES
----------------------
   0 C :   -0.338412
   1 O :    0.162976
   2 C :   -0.288556
   3 C :   -0.210268
   4 O :    0.203418
   5 C :   -0.349881
   6 N :    0.073990
   7 C :   -0.324018
   8 H :    0.111707
   9 H :    0.113813
  10 H :    0.103113
  11 H :    0.139877
  12 H :    0.122218
  13 H :    0.129387
  14 H :    0.111809
  15 H :    0.118936
  16 H :    0.119890

  Mayer bond orders larger than 0.1
B(  0-C ,  1-O ) :   0.8858 B(  0-C ,  8-H ) :   0.9316 B(  0-C ,  9-H ) :   0.9371
B(  0-C , 10-H ) :   0.9355 B(  1-O ,  2-C ) :   1.0034 B(  2-C ,  3-C ) :   0.9561
B(  2-C ,  5-C ) :   0.8779 B(  2-C , 11-H ) :   0.9337 B(  3-C ,  4-O ) :   0.9053
B(  3-C , 12-H ) :   0.9177 B(  3-C , 13-H ) :   0.9108 B(  4-O ,  5-C ) :   1.0391
B(  5-C ,  6-N ) :   1.9277 B(  6-N ,  7-C ) :   0.8517 B(  7-C , 14-H ) :   0.9311
B(  7-C , 15-H ) :   0.9350 B(  7-C , 16-H ) :   0.9343

MP2 TOTAL ENERGY:     -400.316057503 Eh
FINAL SINGLE POINT ENERGY      -400.316057502758

DIPOLE MOMENT
-------------
                                X             Y             Z
Electronic contribution:     -1.80777      -2.56092       1.20017
Nuclear contribution   :      1.50071       2.70173      -0.86462
                        -----------------------------------------
Total Dipole Moment    :     -0.30706       0.14082       0.33555
                        -----------------------------------------
Magnitude (a.u.)       :      0.47614
Magnitude (Debye)      :      1.21026

                             ****ORCA TERMINATED NORMALLY****
TOTAL RUN TIME: 0 days 0 hours 11 minutes 8 seconds 217 msec
