                         Program Version 3.0.3 - RELEASE   -
|  1> ! RI-MP2 RIJK def2-TZVP def2-TZVP/C def2-TZVP/JK TIGHTSCF
|  2> % maxcore 2000
|  3> % mp2 density relaxed end
|  4> *xyz 0 1
|  5>  C        0.1542122859     1.4571803385     0.0196445890
|  6>  C       -0.0172594878    -0.0649523174    -0.0687006980
|  7>  C       -1.4801168108    -0.4927527024     0.0467573543
|  8>  N        0.5963010637    -0.5825899569    -1.2898340042
|  9>  C        0.0351374786    -0.8781601707    -2.4840480026
| 10>  C        1.0562721562    -1.2060069994    -3.3526340957
| 11>  C        2.2300879165    -1.0698071080    -2.5747440193
| 12>  N        3.5529974431    -1.2276894764    -2.9931009328
| 13>  N        1.9520588413    -0.6940451177    -1.3285880674
| 14>  H        1.2087646236     1.7214040978    -0.0849658886
| 15>  H       -0.4098747772     1.9572440498    -0.7748422811
| 16>  H       -0.2068323573     1.8273851242     0.9844537741
| 17>  H        0.5512965627    -0.5245066441     0.7465702726
| 18>  H       -2.1023560354    -0.0166930981    -0.7182408888
| 19>  H       -1.5881509595    -1.5772768826    -0.0417784411
| 20>  H       -1.8709420029    -0.1868223552     1.0209330460
| 21>  H       -1.0312867098    -0.8422710312    -2.6359379340
| 22>  H        0.9682959144    -1.4986837668    -4.3862935460
| 23>  H        3.6803789399    -2.0091969881    -3.6217875808
| 24>  H        4.1818914247    -1.3054478454    -2.2038725058
| 25> *
| 26>
| 27>                          ****END OF INPUT****

CARTESIAN COORDINATES (ANGSTROEM)
---------------------------------
  C      0.154212    1.457180    0.019645
  C     -0.017259   -0.064952   -0.068701
  C     -1.480117   -0.492753    0.046757
  N      0.596301   -0.582590   -1.289834
  C      0.035137   -0.878160   -2.484048
  C      1.056272   -1.206007   -3.352634
  C      2.230088   -1.069807   -2.574744
  N      3.552997   -1.227689   -2.993101
  N      1.952059   -0.694045   -1.328588
  H      1.208765    1.721404   -0.084966
  H     -0.409875    1.957244   -0.774842
  H     -0.206832    1.827385    0.984454
  H      0.551297   -0.524507    0.746570
  H     -2.102356   -0.016693   -0.718241
  H     -1.588151   -1.577277   -0.041778
  H     -1.870942   -0.186822    1.020933
  H     -1.031287   -0.842271   -2.635938
  H      0.968296   -1.498684   -4.386294
  H      3.680379   -2.009197   -3.621788
  H      4.181891   -1.305448   -2.203873

 Total Charge           Charge          ....    0
 Multiplicity           Mult            ....    1
 Number of Electrons    NEL             ....   68
 Basis Dimension        Dim             ....  345

ORBITAL ENERGIES
----------------

  NO   OCC          E(Eh)            E(eV)
   0   2.0000     -15.619010      -425.0149
   1   2.0000     -15.555485      -423.2863
   2   2.0000     -15.553925      -423.2438
   3   2.0000     -11.280839      -306.9672
   4   2.0000     -11.274669      -306.7993
   5   2.0000     -11.268429      -306.6295
   6   2.0000     -11.228116      -305.5326
   7   2.0000     -11.215678      -305.1941
   8   2.0000     -11.205191      -304.9088
   9   2.0000      -1.362194       -37.0672
  10   2.0000      -1.208068       -32.8732
  11   2.0000      -1.110292       -30.2126
  12   2.0000      -1.051155       -28.6034
  13   2.0000      -0.999700       -27.2032
  14   2.0000      -0.942349       -25.6426
  15   2.0000      -0.848340       -23.0845
  16   2.0000      -0.781090       -21.2545
  17   2.0000      -0.760821       -20.7030
  18   2.0000      -0.702332       -19.1114
  19   2.0000      -0.662546       -18.0288
  20   2.0000      -0.641857       -17.4658
  21   2.0000      -0.625665       -17.0252
  22   2.0000      -0.602805       -16.4032
  23   2.0000      -0.578977       -15.7548
  24   2.0000      -0.560917       -15.2633
  25   2.0000      -0.552055       -15.0222
  26   2.0000      -0.542852       -14.7718
  27   2.0000      -0.523635       -14.2488
  28   2.0000      -0.501032       -13.6338
  29   2.0000      -0.488532       -13.2936
  30   2.0000      -0.459800       -12.5118
  31   2.0000      -0.444171       -12.0865
  32   2.0000      -0.336984        -9.1698
  33   2.0000      -0.307116        -8.3571
  34   0.0000       0.134939         3.6719
  35   0.0000       0.146729         3.9927
  36   0.0000       0.154441         4.2026
  37   0.0000       0.170632         4.6431
  38   0.0000       0.184906         5.0316

MULLIKEN ATOMIC CHARGES
-----------------------
   0 C :   -0.397855
   1 C :   -0.013395
   2 C :   -0.408639
   3 N :    0.136133
   4 C :   -0.123068
   5 C :   -0.277775
   6 C :    0.181666
   7 N :   -0.523556
   8 N :   -0.296639
   9 H :    0.158094
  10 H :    0.124133
  11 H :    0.125900
  12 H :    0.115309
  13 H :    0.129822
  14 H :    0.152280
  15 H :    0.143535
  16 H :    0.143760
  17 H :    0.134948
  18 H :    0.246496
  19 H :    0.248850
Sum of atomic charges:    0.0000000

LOEWDIN ATOMIC CHARGES
----------------------
   0 C :   -0.286808
   1 C :   -0.303010
   2 C :   -0.289568
   3 N :    0.212216
   4 C :   -0.233981
   5 C :   -0.202102
   6 C :   -0.382549
   7 N :   -0.092349
   8 N :    0.044344
   9 H :    0.130757
  10 H :    0.124663
  11 H :    0.125175
  12 H :    0.155931
  13 H :    0.124346
  14 H :    0.128741
  15 H :    0.131140
  16 H :    0.138708
  17 H :    0.139064
  18 H :    0.166310
  19 H :    0.168973

  Mayer bond orders larger than 0.1
B(  0-C ,  1-C ) :   0.9286 B(  0-C ,  9-H ) :   0.9339 B(  0-C , 10-H ) :   0.9251
B(  0-C , 11-H ) :   0.9322 B(  1-C ,  2-C ) :   0.9147 B(  1-C ,  3-N ) :   0.8624
B(  1-C , 12-H ) :   0.9258 B(  2-C , 13-H ) :   0.9268 B(  2-C , 14-H ) :   0.9366
B(  2-C , 15-H ) :   0.9332 B(  3-N ,  4-C ) :   1.2242 B(  3-N ,  8-N ) :   1.0133
B(  4-C ,  5-C ) :   1.4457 B(  4-C , 16-H ) :   0.9158 B(  5-C ,  6-C ) :   1.2930
B(  5-C , 17-H ) :   0.9133 B(  6-C ,  7-N ) :   1.0299 B(  6-C ,  8-N ) :   1.5042
B(  7-N , 18-H ) :   0.8772 B(  7-N , 19-H ) :   0.8740

MP2 TOTAL ENERGY:     -398.669008622 Eh
FINAL SINGLE POINT ENERGY      -398.669008621883

DIPOLE MOMENT
-------------
                                X             Y             Z
Electronic contribution:      5.44025      -3.33246      -4.56660
Nuclear contribution   :     -6.09494       3.02012       4.78827
                        -----------------------------------------
Total Dipole Moment    :     -0.65469      -0.31234       0.22167
                        -----------------------------------------
Magnitude (a.u.)       :      0.75849
Magnitude (Debye)      :      1.92793

                             ****ORCA TERMINATED NORMALLY****
TOTAL RUN TIME: 0 days 0 hours 18 minutes 50 seconds 878 msec
