                         Program Version 3.0.3 - RELEASE   -
|  1> ! RI-MP2 RIJK def2-TZVP def2-TZVP/C def2-TZVP/JK TIGHTSCF
|  2> % maxcore 2000
|  3> % mp2 density relaxed end
|  4> *xyz 0 1
|  5>  C       -0.1746408102     1.5837843182    -0.0885718007
|  6>  C        0.0282476936     0.0784652773     0.0074303454
|  7>  C        1.0383432544    -0.6233372924    -0.9448540558
|  8>  C        1.3927808209    -1.5950758935     0.2270469255
|  9>  C        2.8052797097    -2.0125222073     0.4798153831
| 10>  C        3.4965336615    -1.5899323867     1.5397575135
| 11>  C        2.9413285589    -0.5968571273     2.5329761129
| 12>  C        1.8631560579     0.2879909860     1.8848089758
| 13>  C        0.7777251901    -0.5645684837     1.2208080656
| 14>  H        0.7703075705     2.1307675656    -0.0116439936
| 15>  H       -0.6300717226     1.8509502746    -1.0489169975
| 16>  H       -0.8377594065     1.9500678980     0.7036310871
| 17>  H       -0.9448281751    -0.4175926228    -0.0889023470
| 18>  H        0.6486133603    -1.0579909048    -1.8689797589
| 19>  H        1.8826559475     0.0269422027    -1.1945600787
| 20>  H        0.7522840465    -2.4828991677     0.1564196552
| 21>  H        3.2582994036    -2.7056175458    -0.2268542801
| 22>  H        4.5087578792    -1.9509468358     1.7059453767
| 23>  H        2.5275240850    -1.1234696669     3.4061106587
| 24>  H        3.7525379690     0.0285243332     2.9245121749
| 25>  H        1.4214291544     0.9659143475     2.6237848049
| 26>  H        2.3573186810     0.9184862480     1.1364826253
| 27>  H        0.1320293602    -0.9946369564     1.9939041279
| 28> *
| 29>
| 30>                          ****END OF INPUT****

CARTESIAN COORDINATES (ANGSTROEM)
---------------------------------
  C     -0.174641    1.583784   -0.088572
  C      0.028248    0.078465    0.007430
  C      1.038343   -0.623337   -0.944854
  C      1.392781   -1.595076    0.227047
  C      2.805280   -2.012522    0.479815
  C      3.496534   -1.589932    1.539758
  C      2.941329   -0.596857    2.532976
  C      1.863156    0.287991    1.884809
  C      0.777725   -0.564568    1.220808
  H      0.770308    2.130768   -0.011644
  H     -0.630072    1.850950   -1.048917
  H     -0.837759    1.950068    0.703631
  H     -0.944828   -0.417593   -0.088902
  H      0.648613   -1.057991   -1.868980
  H      1.882656    0.026942   -1.194560
  H      0.752284   -2.482899    0.156420
  H      3.258299   -2.705618   -0.226854
  H      4.508758   -1.950947    1.705945
  H      2.527524   -1.123470    3.406111
  H      3.752538    0.028524    2.924512
  H      1.421429    0.965914    2.623785
  H      2.357319    0.918486    1.136483
  H      0.132029   -0.994637    1.993904

 Total Charge           Charge          ....    0
 Multiplicity           Mult            ....    1
 Number of Electrons    NEL             ....   68
 Basis Dimension        Dim             ....  363

ORBITAL ENERGIES
----------------

  NO   OCC          E(Eh)            E(eV)
   0   2.0000     -11.222290      -305.3740
   1   2.0000     -11.221815      -305.3611
   2   2.0000     -11.220265      -305.3189
   3   2.0000     -11.218309      -305.2657
   4   2.0000     -11.217917      -305.2550
   5   2.0000     -11.215475      -305.1886
   6   2.0000     -11.215103      -305.1785
   7   2.0000     -11.213946      -305.1470
   8   2.0000     -11.209103      -305.0152
   9   2.0000      -1.149735       -31.2859
  10   2.0000      -1.068061       -29.0634
  11   2.0000      -1.007110       -27.4049
  12   2.0000      -0.970683       -26.4136
  13   2.0000      -0.901871       -24.5412
  14   2.0000      -0.845511       -23.0075
  15   2.0000      -0.817460       -22.2442
  16   2.0000      -0.740092       -20.1389
  17   2.0000      -0.684477       -18.6256
  18   2.0000      -0.666953       -18.1487
  19   2.0000      -0.643942       -17.5226
  20   2.0000      -0.593083       -16.1386
  21   2.0000      -0.582522       -15.8512
  22   2.0000      -0.566629       -15.4187
  23   2.0000      -0.560338       -15.2476
  24   2.0000      -0.547727       -14.9044
  25   2.0000      -0.514280       -13.9943
  26   2.0000      -0.502619       -13.6770
  27   2.0000      -0.499039       -13.5795
  28   2.0000      -0.485297       -13.2056
  29   2.0000      -0.459296       -12.4981
  30   2.0000      -0.432673       -11.7736
  31   2.0000      -0.415191       -11.2979
  32   2.0000      -0.404852       -11.0166
  33   2.0000      -0.336899        -9.1675
  34   0.0000       0.133585         3.6350
  35   0.0000       0.149721         4.0741
  36   0.0000       0.154195         4.1959
  37   0.0000       0.161127         4.3845
  38   0.0000       0.180445         4.9102

MULLIKEN ATOMIC CHARGES
-----------------------
   0 C :   -0.404597
   1 C :   -0.035456
   2 C :   -0.302841
   3 C :    0.045402
   4 C :   -0.244954
   5 C :   -0.176876
   6 C :   -0.142174
   7 C :   -0.298740
   8 C :   -0.056880
   9 H :    0.120521
  10 H :    0.133555
  11 H :    0.128817
  12 H :    0.092085
  13 H :    0.117924
  14 H :    0.115031
  15 H :    0.103442
  16 H :    0.113732
  17 H :    0.117561
  18 H :    0.114262
  19 H :    0.123401
  20 H :    0.121105
  21 H :    0.112279
  22 H :    0.103400
Sum of atomic charges:   -0.0000000

LOEWDIN ATOMIC CHARGES
----------------------
   0 C :   -0.303068
   1 C :   -0.236904
   2 C :   -0.192065
   3 C :   -0.195276
   4 C :   -0.159400
   5 C :   -0.170006
   6 C :   -0.250796
   7 C :   -0.234377
   8 C :   -0.179238
   9 H :    0.121126
  10 H :    0.124912
  11 H :    0.123998
  12 H :    0.150806
  13 H :    0.122206
  14 H :    0.135956
  15 H :    0.157100
  16 H :    0.141993
  17 H :    0.139045
  18 H :    0.143860
  19 H :    0.140463
  20 H :    0.136767
  21 H :    0.142892
  22 H :    0.140007

  Mayer bond orders larger than 0.1
B(  0-C ,  1-C ) :   0.8895 B(  0-C ,  9-H ) :   0.9366 B(  0-C , 10-H ) :   0.9400
B(  0-C , 11-H ) :   0.9419 B(  1-C ,  2-C ) :   0.9379 B(  1-C ,  8-C ) :   0.9080
B(  1-C , 12-H ) :   0.9256 B(  2-C ,  3-C ) :   0.9093 B(  2-C , 13-H ) :   0.9211
B(  2-C , 14-H ) :   0.9169 B(  3-C ,  4-C ) :   0.9004 B(  3-C ,  8-C ) :   0.9460
B(  3-C , 15-H ) :   0.9151 B(  4-C ,  5-C ) :   1.8142 B(  4-C , 16-H ) :   0.9298
B(  5-C ,  6-C ) :   0.9357 B(  5-C , 17-H ) :   0.9302 B(  6-C ,  7-C ) :   0.9234
B(  6-C , 18-H ) :   0.9132 B(  6-C , 19-H ) :   0.9327 B(  7-C ,  8-C ) :   0.9211
B(  7-C , 20-H ) :   0.9352 B(  7-C , 21-H ) :   0.9294 B(  8-C , 22-H ) :   0.9150

MP2 TOTAL ENERGY:     -350.514328063 Eh
FINAL SINGLE POINT ENERGY      -350.514328063326

DIPOLE MOMENT
-------------
                                X             Y             Z
Electronic contribution:      1.90826      -4.05811       0.43548
Nuclear contribution   :     -2.02580       4.12111      -0.38087
                        -----------------------------------------
Total Dipole Moment    :     -0.11754       0.06301       0.05462
                        -----------------------------------------
Magnitude (a.u.)       :      0.14411
Magnitude (Debye)      :      0.36630

                             ****ORCA TERMINATED NORMALLY****
TOTAL RUN TIME: 0 days 0 hours 21 minutes 21 seconds 169 msec
