                         Program Version 3.0.3 - RELEASE   -
|  1> ! RI-MP2 RIJK def2-TZVP def2-TZVP/C def2-TZVP/JK TIGHTSCF
|  2> % maxcore 2000
|  3> % mp2 density relaxed end
|  4> *xyz 0 1
|  5>  C       -0.0953138991     1.5582028113     0.0744219052
|  6>  C       -0.0205170257     0.0258583424     0.0331917872
|  7>  C        0.9235786697    -0.4976039382     1.1255322304
|  8>  C       -1.4326201235    -0.5766817798     0.1311912013
|  9>  C       -1.4945289093    -2.0920029615    -0.0783641584
| 10>  C       -2.9036692687    -2.6344021547    -0.2079816242
| 11>  O       -3.8703998942    -1.9368584315    -0.4356756697
| 12>  C       -3.1048584068    -4.1382441469    -0.0562199556
| 13>  O       -4.4277918963    -4.5041212457    -0.3070298330
| 14>  H        0.8968767710     2.0068736704    -0.0394969402
| 15>  H       -0.7353299159     1.9478784614    -0.7238819673
| 16>  H       -0.5078789683     1.9041164830     1.0297058919
| 17>  H        0.3981594706    -0.2637181476    -0.9423911717
| 18>  H        0.5339307928    -0.2609830485     2.1232468945
| 19>  H        1.0633205406    -1.5817829193     1.0705830715
| 20>  H        1.9130309567    -0.0367053118     1.0402510637
| 21>  H       -1.8674347428    -0.3295810061     1.1088287749
| 22>  H       -2.0833851895    -0.1046052945    -0.6117682666
| 23>  H       -0.9684843247    -2.3706374623    -1.0048451430
| 24>  H       -0.9822757332    -2.6438118719     0.7189155959
| 25>  H       -2.4108052646    -4.6586412426    -0.7362049663
| 26>  H       -2.7939474056    -4.4138963695     0.9670446540
| 27>  H       -4.8933671731    -3.6640929760    -0.4515470143
| 28> *
| 29>
| 30>                          ****END OF INPUT****

CARTESIAN COORDINATES (ANGSTROEM)
---------------------------------
  C     -0.095314    1.558203    0.074422
  C     -0.020517    0.025858    0.033192
  C      0.923579   -0.497604    1.125532
  C     -1.432620   -0.576682    0.131191
  C     -1.494529   -2.092003   -0.078364
  C     -2.903669   -2.634402   -0.207982
  O     -3.870400   -1.936858   -0.435676
  C     -3.104858   -4.138244   -0.056220
  O     -4.427792   -4.504121   -0.307030
  H      0.896877    2.006874   -0.039497
  H     -0.735330    1.947878   -0.723882
  H     -0.507879    1.904116    1.029706
  H      0.398159   -0.263718   -0.942391
  H      0.533931   -0.260983    2.123247
  H      1.063321   -1.581783    1.070583
  H      1.913031   -0.036705    1.040251
  H     -1.867435   -0.329581    1.108829
  H     -2.083385   -0.104605   -0.611768
  H     -0.968484   -2.370637   -1.004845
  H     -0.982276   -2.643812    0.718916
  H     -2.410805   -4.658641   -0.736205
  H     -2.793947   -4.413896    0.967045
  H     -4.893367   -3.664093   -0.451547

 Total Charge           Charge          ....    0
 Multiplicity           Mult            ....    1
 Number of Electrons    NEL             ....   72
 Basis Dimension        Dim             ....  363

ORBITAL ENERGIES
----------------

  NO   OCC          E(Eh)            E(eV)
   0   2.0000     -20.562132      -559.5241
   1   2.0000     -20.554482      -559.3159
   2   2.0000     -11.342597      -308.6478
   3   2.0000     -11.292948      -307.2967
   4   2.0000     -11.250070      -306.1300
   5   2.0000     -11.235745      -305.7402
   6   2.0000     -11.228991      -305.5564
   7   2.0000     -11.220111      -305.3147
   8   2.0000     -11.216574      -305.2185
   9   2.0000      -1.414409       -38.4880
  10   2.0000      -1.359137       -36.9840
  11   2.0000      -1.106927       -30.1210
  12   2.0000      -1.045027       -28.4366
  13   2.0000      -0.973086       -26.4790
  14   2.0000      -0.935283       -25.4504
  15   2.0000      -0.882727       -24.0202
  16   2.0000      -0.778613       -21.1871
  17   2.0000      -0.760443       -20.6927
  18   2.0000      -0.711002       -19.3473
  19   2.0000      -0.664441       -18.0804
  20   2.0000      -0.659050       -17.9337
  21   2.0000      -0.643621       -17.5138
  22   2.0000      -0.609376       -16.5820
  23   2.0000      -0.605364       -16.4728
  24   2.0000      -0.593761       -16.1571
  25   2.0000      -0.566912       -15.4265
  26   2.0000      -0.546032       -14.8583
  27   2.0000      -0.539366       -14.6769
  28   2.0000      -0.531381       -14.4596
  29   2.0000      -0.513970       -13.9858
  30   2.0000      -0.500690       -13.6245
  31   2.0000      -0.475261       -12.9325
  32   2.0000      -0.468219       -12.7409
  33   2.0000      -0.467850       -12.7308
  34   2.0000      -0.452776       -12.3207
  35   2.0000      -0.425741       -11.5850
  36   0.0000       0.119489         3.2515
  37   0.0000       0.131733         3.5846
  38   0.0000       0.140632         3.8268
  39   0.0000       0.161847         4.4041
  40   0.0000       0.168901         4.5960

MULLIKEN ATOMIC CHARGES
-----------------------
   0 C :   -0.392418
   1 C :   -0.003419
   2 C :   -0.418079
   3 C :   -0.239040
   4 C :   -0.285631
   5 C :    0.202183
   6 O :   -0.329199
   7 C :   -0.022435
   8 O :   -0.484904
   9 H :    0.132157
  10 H :    0.132192
  11 H :    0.122990
  12 H :    0.083186
  13 H :    0.123964
  14 H :    0.129476
  15 H :    0.134877
  16 H :    0.115824
  17 H :    0.140750
  18 H :    0.143217
  19 H :    0.144690
  20 H :    0.116661
  21 H :    0.117230
  22 H :    0.335729
Sum of atomic charges:   -0.0000000

LOEWDIN ATOMIC CHARGES
----------------------
   0 C :   -0.294733
   1 C :   -0.311320
   2 C :   -0.296637
   3 C :   -0.240409
   4 C :   -0.238902
   5 C :   -0.324777
   6 O :    0.140309
   7 C :   -0.339618
   8 O :   -0.035811
   9 H :    0.122638
  10 H :    0.123260
  11 H :    0.123884
  12 H :    0.148933
  13 H :    0.124236
  14 H :    0.119067
  15 H :    0.124399
  16 H :    0.143660
  17 H :    0.148670
  18 H :    0.160030
  19 H :    0.151370
  20 H :    0.135228
  21 H :    0.134652
  22 H :    0.181870

  Mayer bond orders larger than 0.1
B(  0-C ,  1-C ) :   0.9245 B(  0-C ,  9-H ) :   0.9420 B(  0-C , 10-H ) :   0.9396
B(  0-C , 11-H ) :   0.9316 B(  1-C ,  2-C ) :   0.9043 B(  1-C ,  3-C ) :   0.9139
B(  1-C , 12-H ) :   0.9290 B(  2-C , 13-H ) :   0.9309 B(  2-C , 14-H ) :   0.9413
B(  2-C , 15-H ) :   0.9385 B(  3-C ,  4-C ) :   0.9149 B(  3-C , 16-H ) :   0.9282
B(  3-C , 17-H ) :   0.9337 B(  4-C ,  5-C ) :   0.9194 B(  4-C , 18-H ) :   0.8905
B(  4-C , 19-H ) :   0.9242 B(  5-C ,  6-O ) :   1.8889 B(  5-C ,  7-C ) :   0.9591
B(  7-C ,  8-O ) :   1.0177 B(  7-C , 20-H ) :   0.9061 B(  7-C , 21-H ) :   0.9119
B(  8-O , 22-H ) :   0.8035

MP2 TOTAL ENERGY:     -424.746551364 Eh
FINAL SINGLE POINT ENERGY      -424.746551364352

DIPOLE MOMENT
-------------
                                X             Y             Z
Electronic contribution:    -11.57135      -8.07948      -2.75873
Nuclear contribution   :     12.77228       8.37159       2.91697
                        -----------------------------------------
Total Dipole Moment    :      1.20093       0.29210       0.15824
                        -----------------------------------------
Magnitude (a.u.)       :      1.24603
Magnitude (Debye)      :      3.16716

                             ****ORCA TERMINATED NORMALLY****
TOTAL RUN TIME: 0 days 0 hours 18 minutes 25 seconds 283 msec
