                         Program Version 3.0.3 - RELEASE   -
|  1> ! RI-MP2 RIJK def2-TZVP def2-TZVP/C def2-TZVP/JK TIGHTSCF
|  2> % maxcore 2000
|  3> % mp2 density relaxed end
|  4> *xyz 0 1
|  5>  O       -0.0982847847     1.4575773948    -0.0736699255
|  6>  C       -0.0773189331     0.0791508621    -0.0351611917
|  7>  C       -0.1815957559    -0.9379395853    -1.1086685858
|  8>  C        1.2086268027    -1.6428351787    -1.1433571582
|  9>  O        2.0085716451    -1.0310377733    -0.0628310400
| 10>  C        0.9346833228    -0.7645375840     0.7573422208
| 11>  N        0.4967646463    -1.5822429914     1.6232076505
| 12>  C       -0.9788422666    -1.5582931101     1.4665886175
| 13>  C       -1.2091992463    -0.8415980793     0.1264107061
| 14>  H        0.7034660924     1.7586263172    -0.5172332393
| 15>  H       -0.6575009051    -0.7277599201    -2.0608736175
| 16>  H        1.1681260269    -2.7198096013    -0.9546510435
| 17>  H        1.7235613423    -1.4411138006    -2.0863458256
| 18>  H       -1.3041519185    -2.6040328858     1.4770855980
| 19>  H       -1.5049022171    -1.0416308535     2.2804269643
| 20>  H       -2.2119398212    -0.5630433908    -0.1818489801
| 21> *
| 22>
| 23>                          ****END OF INPUT****

CARTESIAN COORDINATES (ANGSTROEM)
---------------------------------
  O     -0.098285    1.457577   -0.073670
  C     -0.077319    0.079151   -0.035161
  C     -0.181596   -0.937940   -1.108669
  C      1.208627   -1.642835   -1.143357
  O      2.008572   -1.031038   -0.062831
  C      0.934683   -0.764538    0.757342
  N      0.496765   -1.582243    1.623208
  C     -0.978842   -1.558293    1.466589
  C     -1.209199   -0.841598    0.126411
  H      0.703466    1.758626   -0.517233
  H     -0.657501   -0.727760   -2.060874
  H      1.168126   -2.719810   -0.954651
  H      1.723561   -1.441114   -2.086346
  H     -1.304152   -2.604033    1.477086
  H     -1.504902   -1.041631    2.280427
  H     -2.211940   -0.563043   -0.181849

 Total Charge           Charge          ....    0
 Multiplicity           Mult            ....    1
 Number of Electrons    NEL             ....   66
 Basis Dimension        Dim             ....  321

ORBITAL ENERGIES
----------------

  NO   OCC          E(Eh)            E(eV)
   0   2.0000     -20.588634      -560.2452
   1   2.0000     -20.587607      -560.2173
   2   2.0000     -15.553326      -423.2275
   3   2.0000     -11.337080      -308.4976
   4   2.0000     -11.308558      -307.7215
   5   2.0000     -11.305028      -307.6254
   6   2.0000     -11.268705      -306.6371
   7   2.0000     -11.263977      -306.5084
   8   2.0000     -11.261491      -306.4408
   9   2.0000      -1.429113       -38.8882
  10   2.0000      -1.393984       -37.9322
  11   2.0000      -1.253196       -34.1012
  12   2.0000      -1.146575       -31.1999
  13   2.0000      -0.970812       -26.4171
  14   2.0000      -0.967389       -26.3240
  15   2.0000      -0.833345       -22.6765
  16   2.0000      -0.808712       -22.0062
  17   2.0000      -0.775930       -21.1141
  18   2.0000      -0.727644       -19.8002
  19   2.0000      -0.685444       -18.6519
  20   2.0000      -0.640283       -17.4230
  21   2.0000      -0.632159       -17.2019
  22   2.0000      -0.612423       -16.6649
  23   2.0000      -0.607349       -16.5268
  24   2.0000      -0.592620       -16.1260
  25   2.0000      -0.565560       -15.3897
  26   2.0000      -0.540537       -14.7088
  27   2.0000      -0.522240       -14.2109
  28   2.0000      -0.472469       -12.8565
  29   2.0000      -0.437237       -11.8978
  30   2.0000      -0.425006       -11.5650
  31   2.0000      -0.412344       -11.2205
  32   2.0000      -0.379699       -10.3321
  33   0.0000       0.107804         2.9335
  34   0.0000       0.132594         3.6081
  35   0.0000       0.158696         4.3184
  36   0.0000       0.165704         4.5090
  37   0.0000       0.173100         4.7103

MULLIKEN ATOMIC CHARGES
-----------------------
   0 O :   -0.442489
   1 C :    0.141831
   2 C :   -0.179525
   3 C :   -0.033216
   4 O :   -0.296751
   5 C :    0.130567
   6 N :   -0.179269
   7 C :   -0.074095
   8 C :   -0.191424
   9 H :    0.335332
  10 H :    0.146577
  11 H :    0.120499
  12 H :    0.129428
  13 H :    0.129496
  14 H :    0.127255
  15 H :    0.135783
Sum of atomic charges:    0.0000000

LOEWDIN ATOMIC CHARGES
----------------------
   0 O :    0.042794
   1 C :   -0.333921
   2 C :   -0.152394
   3 C :   -0.215030
   4 O :    0.191831
   5 C :   -0.323767
   6 N :    0.135194
   7 C :   -0.237781
   8 C :   -0.137285
   9 H :    0.191606
  10 H :    0.150545
  11 H :    0.129826
  12 H :    0.131819
  13 H :    0.137248
  14 H :    0.137982
  15 H :    0.151332

  Mayer bond orders larger than 0.1
B(  0-O ,  1-C ) :   1.0298 B(  0-O ,  9-H ) :   0.8286 B(  1-C ,  2-C ) :   0.8537
B(  1-C ,  5-C ) :   0.9504 B(  1-C ,  8-C ) :   0.9125 B(  2-C ,  3-C ) :   0.9185
B(  2-C ,  8-C ) :   0.8508 B(  2-C , 10-H ) :   0.9205 B(  3-C ,  4-O ) :   0.8890
B(  3-C , 11-H ) :   0.9294 B(  3-C , 12-H ) :   0.9088 B(  4-O ,  5-C ) :   1.0130
B(  5-C ,  6-N ) :   1.9069 B(  6-N ,  7-C ) :   0.9122 B(  7-C ,  8-C ) :   0.9401
B(  7-C , 13-H ) :   0.9215 B(  7-C , 14-H ) :   0.9041 B(  8-C , 15-H ) :   0.9061

MP2 TOTAL ENERGY:     -437.096393175 Eh
FINAL SINGLE POINT ENERGY      -437.096393175482

DIPOLE MOMENT
-------------
                                X             Y             Z
Electronic contribution:      2.98845       2.16879       1.84136
Nuclear contribution   :     -3.60010      -2.09689      -2.92597
                        -----------------------------------------
Total Dipole Moment    :     -0.61164       0.07190      -1.08462
                        -----------------------------------------
Magnitude (a.u.)       :      1.24726
Magnitude (Debye)      :      3.17029

                             ****ORCA TERMINATED NORMALLY****
TOTAL RUN TIME: 0 days 0 hours 18 minutes 8 seconds 658 msec
