                         Program Version 3.0.3 - RELEASE   -
|  1> ! RI-MP2 RIJK def2-TZVP def2-TZVP/C def2-TZVP/JK TIGHTSCF
|  2> % maxcore 2000
|  3> % mp2 density relaxed end
|  4> *xyz 0 1
|  5>  N       -0.1590946652     1.3201812076    -0.0466699911
|  6>  C        0.0497991976    -0.0222905728    -0.0463699369
|  7>  O        1.1430450034    -0.5529915395    -0.0877085693
|  8>  C       -1.1924654026    -0.8407961954     0.0081147188
|  9>  C       -1.3587621791    -2.1879667478     0.0217517250
| 10>  C       -2.7715315871    -2.3297441460     0.0800557168
| 11>  O       -3.4312931415    -3.4937809223     0.1126791600
| 12>  N       -3.3996797031    -1.1747875222     0.0997754690
| 13>  O       -2.3865708815    -0.2159166131     0.0543553131
| 14>  H        0.6410894589     1.9291695355    -0.0782228233
| 15>  H       -1.0849811638     1.7106342660    -0.0063918113
| 16>  H       -0.6008081420    -2.9504573618    -0.0053433307
| 17>  H       -4.3777322140    -3.2995362882     0.1501945899
| 18> *
| 19>
| 20>                          ****END OF INPUT****

CARTESIAN COORDINATES (ANGSTROEM)
---------------------------------
  N     -0.159095    1.320181   -0.046670
  C      0.049799   -0.022291   -0.046370
  O      1.143045   -0.552992   -0.087709
  C     -1.192465   -0.840796    0.008115
  C     -1.358762   -2.187967    0.021752
  C     -2.771532   -2.329744    0.080056
  O     -3.431293   -3.493781    0.112679
  N     -3.399680   -1.174788    0.099775
  O     -2.386571   -0.215917    0.054355
  H      0.641089    1.929170   -0.078223
  H     -1.084981    1.710634   -0.006392
  H     -0.600808   -2.950457   -0.005343
  H     -4.377732   -3.299536    0.150195

 Total Charge           Charge          ....    0
 Multiplicity           Mult            ....    1
 Number of Electrons    NEL             ....   66
 Basis Dimension        Dim             ....  303

ORBITAL ENERGIES
----------------

  NO   OCC          E(Eh)            E(eV)
   0   2.0000     -20.662431      -562.2533
   1   2.0000     -20.626318      -561.2706
   2   2.0000     -20.541393      -558.9597
   3   2.0000     -15.628473      -425.2724
   4   2.0000     -15.602616      -424.5688
   5   2.0000     -11.383569      -309.7627
   6   2.0000     -11.361366      -309.1585
   7   2.0000     -11.338742      -308.5429
   8   2.0000     -11.261491      -306.4408
   9   2.0000      -1.515458       -41.2377
  10   2.0000      -1.448725       -39.4218
  11   2.0000      -1.404746       -38.2251
  12   2.0000      -1.236019       -33.6338
  13   2.0000      -1.166223       -31.7345
  14   2.0000      -1.101326       -29.9686
  15   2.0000      -0.922686       -25.1076
  16   2.0000      -0.854383       -23.2489
  17   2.0000      -0.818239       -22.2654
  18   2.0000      -0.778587       -21.1864
  19   2.0000      -0.724640       -19.7185
  20   2.0000      -0.701316       -19.0838
  21   2.0000      -0.692775       -18.8514
  22   2.0000      -0.656938       -17.8762
  23   2.0000      -0.632336       -17.2067
  24   2.0000      -0.615486       -16.7482
  25   2.0000      -0.610862       -16.6224
  26   2.0000      -0.587923       -15.9982
  27   2.0000      -0.580159       -15.7869
  28   2.0000      -0.505846       -13.7648
  29   2.0000      -0.456323       -12.4172
  30   2.0000      -0.435684       -11.8556
  31   2.0000      -0.412696       -11.2300
  32   2.0000      -0.388342       -10.5673
  33   0.0000       0.070070         1.9067
  34   0.0000       0.131779         3.5859
  35   0.0000       0.136281         3.7084
  36   0.0000       0.181334         4.9343
  37   0.0000       0.186735         5.0813

MULLIKEN ATOMIC CHARGES
-----------------------
   0 N :   -0.466083
   1 C :    0.220708
   2 O :   -0.334552
   3 C :    0.216821
   4 C :   -0.254151
   5 C :    0.267725
   6 O :   -0.411534
   7 N :   -0.166900
   8 O :   -0.142469
   9 H :    0.266413
  10 H :    0.279279
  11 H :    0.177988
  12 H :    0.346756
Sum of atomic charges:   -0.0000000

LOEWDIN ATOMIC CHARGES
----------------------
   0 N :    0.006207
   1 C :   -0.460547
   2 O :    0.102568
   3 C :   -0.242387
   4 C :   -0.104923
   5 C :   -0.425219
   6 O :    0.099226
   7 N :    0.021096
   8 O :    0.278952
   9 H :    0.178806
  10 H :    0.178020
  11 H :    0.161618
  12 H :    0.206583

  Mayer bond orders larger than 0.1
B(  0-N ,  1-C ) :   1.2216 B(  0-N ,  9-H ) :   0.8577 B(  0-N , 10-H ) :   0.8584
B(  1-C ,  2-O ) :   1.9995 B(  1-C ,  3-C ) :   0.8791 B(  3-C ,  4-C ) :   1.4914
B(  3-C ,  7-N ) :   0.1096 B(  3-C ,  8-O ) :   1.0581 B(  4-C ,  5-C ) :   1.2102
B(  4-C , 11-H ) :   0.9122 B(  5-C ,  6-O ) :   1.1315 B(  5-C ,  7-N ) :   1.5566
B(  6-O , 12-H ) :   0.8139 B(  7-N ,  8-O ) :   0.8815

MP2 TOTAL ENERGY:     -489.144299019 Eh
FINAL SINGLE POINT ENERGY      -489.144299018889

DIPOLE MOMENT
-------------
                                X             Y             Z
Electronic contribution:     -1.21118      -0.88801       0.05375
Nuclear contribution   :      0.57512       1.45564      -0.02637
                        -----------------------------------------
Total Dipole Moment    :     -0.63606       0.56764       0.02738
                        -----------------------------------------
Magnitude (a.u.)       :      0.85296
Magnitude (Debye)      :      2.16804

                             ****ORCA TERMINATED NORMALLY****
TOTAL RUN TIME: 0 days 0 hours 13 minutes 31 seconds 801 msec
