                         Program Version 3.0.3 - RELEASE   -
|  1> ! RI-MP2 RIJK def2-TZVP def2-TZVP/C def2-TZVP/JK TIGHTSCF
|  2> % maxcore 2000
|  3> % mp2 density relaxed end
|  4> *xyz 0 1
|  5>  C       -0.1698826674     1.5938420087     0.1524532657
|  6>  C       -0.2451759245     0.0645454332     0.1566461331
|  7>  C        0.7933020426    -0.5651468489     1.0855932244
|  8>  O        0.6102865289    -0.0733918732     2.4221770246
|  9>  C        0.2319807378    -1.1620609691     3.2456497176
| 10>  O       -0.1691231974    -2.2063215426     2.4035986899
| 11>  C        0.6963495733    -2.0993786390     1.2733393238
| 12>  C        0.1514002164    -2.9334851797     0.1302386496
| 13>  H        0.8061875216     1.9404698842    -0.2058828097
| 14>  H       -0.9366686987     2.0244032217    -0.4983982058
| 15>  H       -0.3136134369     1.9861402226     1.1622051974
| 16>  H       -1.2433684621    -0.2602764732     0.4729721128
| 17>  H       -0.0886925624    -0.3180968304    -0.8597100800
| 18>  H        1.8017506559    -0.2830581739     0.7534221206
| 19>  H        1.0917611481    -1.4667292259     3.8702649605
| 20>  H       -0.6102818171    -0.8766139737     3.8851227719
| 21>  H        1.6964367848    -2.4724966428     1.5536936811
| 22>  H       -0.8582684672    -2.6202175902    -0.1442725316
| 23>  H        0.7977957448    -2.8466248571    -0.7484702080
| 24>  H        0.1157015995    -3.9861755807     0.4230529724
| 25> *
| 26>
| 27>                          ****END OF INPUT****

CARTESIAN COORDINATES (ANGSTROEM)
---------------------------------
  C     -0.169883    1.593842    0.152453
  C     -0.245176    0.064545    0.156646
  C      0.793302   -0.565147    1.085593
  O      0.610287   -0.073392    2.422177
  C      0.231981   -1.162061    3.245650
  O     -0.169123   -2.206322    2.403599
  C      0.696350   -2.099379    1.273339
  C      0.151400   -2.933485    0.130239
  H      0.806188    1.940470   -0.205883
  H     -0.936669    2.024403   -0.498398
  H     -0.313613    1.986140    1.162205
  H     -1.243368   -0.260276    0.472972
  H     -0.088693   -0.318097   -0.859710
  H      1.801751   -0.283058    0.753422
  H      1.091761   -1.466729    3.870265
  H     -0.610282   -0.876614    3.885123
  H      1.696437   -2.472497    1.553694
  H     -0.858268   -2.620218   -0.144273
  H      0.797796   -2.846625   -0.748470
  H      0.115702   -3.986176    0.423053

 Total Charge           Charge          ....    0
 Multiplicity           Mult            ....    1
 Number of Electrons    NEL             ....   64
 Basis Dimension        Dim             ....  320

ORBITAL ENERGIES
----------------

  NO   OCC          E(Eh)            E(eV)
   0   2.0000     -20.563931      -559.5730
   1   2.0000     -20.555062      -559.3317
   2   2.0000     -11.324384      -308.1522
   3   2.0000     -11.287432      -307.1466
   4   2.0000     -11.281599      -306.9879
   5   2.0000     -11.223411      -305.4046
   6   2.0000     -11.220608      -305.3283
   7   2.0000     -11.209262      -305.0195
   8   2.0000      -1.436183       -39.0805
   9   2.0000      -1.329421       -36.1754
  10   2.0000      -1.079707       -29.3803
  11   2.0000      -1.018047       -27.7025
  12   2.0000      -0.937999       -25.5242
  13   2.0000      -0.875810       -23.8320
  14   2.0000      -0.839689       -22.8491
  15   2.0000      -0.781175       -21.2569
  16   2.0000      -0.709060       -19.2945
  17   2.0000      -0.679588       -18.4925
  18   2.0000      -0.649191       -17.6654
  19   2.0000      -0.631273       -17.1778
  20   2.0000      -0.597512       -16.2591
  21   2.0000      -0.575845       -15.6695
  22   2.0000      -0.564738       -15.3673
  23   2.0000      -0.541309       -14.7298
  24   2.0000      -0.531962       -14.4754
  25   2.0000      -0.524560       -14.2740
  26   2.0000      -0.510447       -13.8900
  27   2.0000      -0.503464       -13.6999
  28   2.0000      -0.482107       -13.1188
  29   2.0000      -0.463690       -12.6176
  30   2.0000      -0.430133       -11.7045
  31   2.0000      -0.414876       -11.2893
  32   0.0000       0.135654         3.6913
  33   0.0000       0.155772         4.2388
  34   0.0000       0.161819         4.4033
  35   0.0000       0.176078         4.7913
  36   0.0000       0.199711         5.4344

MULLIKEN ATOMIC CHARGES
-----------------------
   0 C :   -0.391178
   1 C :   -0.242493
   2 C :    0.102782
   3 O :   -0.339017
   4 C :    0.123074
   5 O :   -0.319950
   6 C :    0.051579
   7 C :   -0.391279
   8 H :    0.116043
   9 H :    0.131779
  10 H :    0.144476
  11 H :    0.123192
  12 H :    0.106506
  13 H :    0.089889
  14 H :    0.076569
  15 H :    0.113506
  16 H :    0.085442
  17 H :    0.139661
  18 H :    0.132027
  19 H :    0.147392
Sum of atomic charges:    0.0000000

LOEWDIN ATOMIC CHARGES
----------------------
   0 C :   -0.317103
   1 C :   -0.278037
   2 C :   -0.289148
   3 O :    0.158885
   4 C :   -0.378968
   5 O :    0.176143
   6 C :   -0.319335
   7 C :   -0.288490
   8 H :    0.120187
   9 H :    0.119953
  10 H :    0.126039
  11 H :    0.141253
  12 H :    0.138708
  13 H :    0.141390
  14 H :    0.104483
  15 H :    0.116688
  16 H :    0.138555
  17 H :    0.128864
  18 H :    0.129743
  19 H :    0.130188

  Mayer bond orders larger than 0.1
B(  0-C ,  1-C ) :   0.9221 B(  0-C ,  8-H ) :   0.9362 B(  0-C ,  9-H ) :   0.9421
B(  0-C , 10-H ) :   0.9383 B(  1-C ,  2-C ) :   0.9143 B(  1-C , 11-H ) :   0.9344
B(  1-C , 12-H ) :   0.9242 B(  2-C ,  3-O ) :   0.8973 B(  2-C ,  6-C ) :   0.9193
B(  2-C , 13-H ) :   0.9082 B(  3-O ,  4-C ) :   0.9680 B(  4-C ,  5-O ) :   0.9711
B(  4-C , 14-H ) :   0.9226 B(  4-C , 15-H ) :   0.9236 B(  5-O ,  6-C ) :   0.9248
B(  6-C ,  7-C ) :   0.9045 B(  6-C , 16-H ) :   0.9441 B(  7-C , 17-H ) :   0.9327
B(  7-C , 18-H ) :   0.9371 B(  7-C , 19-H ) :   0.9332

MP2 TOTAL ENERGY:     -385.517395467 Eh
FINAL SINGLE POINT ENERGY      -385.517395467364

DIPOLE MOMENT
-------------
                                X             Y             Z
Electronic contribution:      0.73354      -1.97330       5.95561
Nuclear contribution   :     -0.48317       1.75230      -6.36542
                        -----------------------------------------
Total Dipole Moment    :      0.25037      -0.22100      -0.40981
                        -----------------------------------------
Magnitude (a.u.)       :      0.52864
Magnitude (Debye)      :      1.34371

                             ****ORCA TERMINATED NORMALLY****
TOTAL RUN TIME: 0 days 0 hours 12 minutes 46 seconds 973 msec
