                         Program Version 3.0.3 - RELEASE   -
|  1> ! RI-MP2 RIJK def2-TZVP def2-TZVP/C def2-TZVP/JK TIGHTSCF
|  2> % maxcore 2000
|  3> % mp2 density relaxed end
|  4> *xyz 0 1
|  5>  C        0.0020494358     1.4655830199    -0.0537563289
|  6>  N       -0.0511738006     0.0182595011    -0.0377253367
|  7>  C       -0.0705625460    -0.7909356813    -1.1454453309
|  8>  C       -0.0352305306    -2.0999037031    -0.7240529912
|  9>  C        0.0062267061    -2.0913343430     0.6997751216
| 10>  C        0.0871986246    -3.2805440872     1.6169256588
| 11>  C        1.5181374254    -3.5027284321     2.0801685056
| 12>  O        1.8662748403    -3.5813272459     3.2298855806
| 13>  C        0.0052311318    -0.7651382976     1.0860120059
| 14>  H        1.0341668660     1.8344149078    -0.0493566623
| 15>  H       -0.4994959931     1.8400244508    -0.9489674088
| 16>  H       -0.5150643868     1.8636577248     0.8225465995
| 17>  H       -0.1168456298    -0.3640015319    -2.1349024947
| 18>  H       -0.0631271013    -2.9725230456    -1.3596079097
| 19>  H       -0.5443879788    -3.1743594447     2.5035408197
| 20>  H       -0.2331960565    -4.1827292696     1.0791278461
| 21>  H        2.2543425082    -3.5682879211     1.2462144113
| 22>  H        0.0322371151    -0.3190758214     2.0682595142
| 23> *
| 24>
| 25>                          ****END OF INPUT****

CARTESIAN COORDINATES (ANGSTROEM)
---------------------------------
  C      0.002049    1.465583   -0.053756
  N     -0.051174    0.018260   -0.037725
  C     -0.070563   -0.790936   -1.145445
  C     -0.035231   -2.099904   -0.724053
  C      0.006227   -2.091334    0.699775
  C      0.087199   -3.280544    1.616926
  C      1.518137   -3.502728    2.080169
  O      1.866275   -3.581327    3.229886
  C      0.005231   -0.765138    1.086012
  H      1.034167    1.834415   -0.049357
  H     -0.499496    1.840024   -0.948967
  H     -0.515064    1.863658    0.822547
  H     -0.116846   -0.364002   -2.134902
  H     -0.063127   -2.972523   -1.359608
  H     -0.544388   -3.174359    2.503541
  H     -0.233196   -4.182729    1.079128
  H      2.254343   -3.568288    1.246214
  H      0.032237   -0.319076    2.068260

 Total Charge           Charge          ....    0
 Multiplicity           Mult            ....    1
 Number of Electrons    NEL             ....   66
 Basis Dimension        Dim             ....  333

ORBITAL ENERGIES
----------------

  NO   OCC          E(Eh)            E(eV)
   0   2.0000     -20.547706      -559.1315
   1   2.0000     -15.614545      -424.8934
   2   2.0000     -11.323455      -308.1269
   3   2.0000     -11.280090      -306.9469
   4   2.0000     -11.257116      -306.3217
   5   2.0000     -11.254720      -306.2565
   6   2.0000     -11.239859      -305.8521
   7   2.0000     -11.227033      -305.5031
   8   2.0000     -11.215915      -305.2006
   9   2.0000      -1.387057       -37.7437
  10   2.0000      -1.309476       -35.6327
  11   2.0000      -1.100828       -29.9551
  12   2.0000      -1.027024       -27.9467
  13   2.0000      -0.975540       -26.5458
  14   2.0000      -0.926139       -25.2015
  15   2.0000      -0.799972       -21.7683
  16   2.0000      -0.773047       -21.0357
  17   2.0000      -0.757681       -20.6176
  18   2.0000      -0.708616       -19.2824
  19   2.0000      -0.656911       -17.8755
  20   2.0000      -0.643179       -17.5018
  21   2.0000      -0.620007       -16.8712
  22   2.0000      -0.610524       -16.6132
  23   2.0000      -0.588794       -16.0219
  24   2.0000      -0.576356       -15.6834
  25   2.0000      -0.569995       -15.5104
  26   2.0000      -0.543063       -14.7775
  27   2.0000      -0.528711       -14.3870
  28   2.0000      -0.511666       -13.9231
  29   2.0000      -0.495135       -13.4733
  30   2.0000      -0.417836       -11.3699
  31   2.0000      -0.340836        -9.2746
  32   2.0000      -0.303447        -8.2572
  33   0.0000       0.131510         3.5786
  34   0.0000       0.139998         3.8095
  35   0.0000       0.143865         3.9148
  36   0.0000       0.156547         4.2599
  37   0.0000       0.171166         4.6577

MULLIKEN ATOMIC CHARGES
-----------------------
   0 C :   -0.325007
   1 N :    0.000671
   2 C :   -0.114745
   3 C :   -0.251041
   4 C :    0.030846
   5 C :   -0.211238
   6 C :    0.106330
   7 O :   -0.271991
   8 C :   -0.186669
   9 H :    0.153915
  10 H :    0.150176
  11 H :    0.151910
  12 H :    0.146304
  13 H :    0.126090
  14 H :    0.129518
  15 H :    0.138280
  16 H :    0.076057
  17 H :    0.150594
Sum of atomic charges:    0.0000000

LOEWDIN ATOMIC CHARGES
----------------------
   0 C :   -0.269654
   1 N :    0.231003
   2 C :   -0.219976
   3 C :   -0.176268
   4 C :   -0.194581
   5 C :   -0.225650
   6 C :   -0.288871
   7 O :    0.124602
   8 C :   -0.191049
   9 H :    0.122775
  10 H :    0.127105
  11 H :    0.127121
  12 H :    0.134720
  13 H :    0.140254
  14 H :    0.150976
  15 H :    0.157586
  16 H :    0.110718
  17 H :    0.139188

  Mayer bond orders larger than 0.1
B(  0-C ,  1-N ) :   0.8661 B(  0-C ,  9-H ) :   0.9258 B(  0-C , 10-H ) :   0.9337
B(  0-C , 11-H ) :   0.9328 B(  1-N ,  2-C ) :   1.1409 B(  1-N ,  8-C ) :   1.1601
B(  2-C ,  3-C ) :   1.4584 B(  2-C , 12-H ) :   0.9129 B(  3-C ,  4-C ) :   1.2695
B(  3-C , 13-H ) :   0.9318 B(  4-C ,  5-C ) :   0.8410 B(  4-C ,  8-C ) :   1.4468
B(  5-C ,  6-C ) :   0.8880 B(  5-C , 14-H ) :   0.9146 B(  5-C , 15-H ) :   0.9313
B(  6-C ,  7-O ) :   1.9927 B(  6-C , 16-H ) :   0.9320 B(  8-C , 17-H ) :   0.8995

MP2 TOTAL ENERGY:     -401.291216796 Eh
FINAL SINGLE POINT ENERGY      -401.291216796255

DIPOLE MOMENT
-------------
                                X             Y             Z
Electronic contribution:      1.55197      -4.02762       2.58974
Nuclear contribution   :     -2.05260       5.14373      -3.60202
                        -----------------------------------------
Total Dipole Moment    :     -0.50063       1.11611      -1.01229
                        -----------------------------------------
Magnitude (a.u.)       :      1.58778
Magnitude (Debye)      :      4.03583

                             ****ORCA TERMINATED NORMALLY****
TOTAL RUN TIME: 0 days 0 hours 15 minutes 55 seconds 537 msec
