                         Program Version 3.0.3 - RELEASE   -
|  1> ! RI-MP2 RIJK def2-TZVP def2-TZVP/C def2-TZVP/JK TIGHTSCF
|  2> % maxcore 2000
|  3> % mp2 density relaxed end
|  4> *xyz 0 1
|  5>  C        0.0078928988     1.5063994436     0.0432121223
|  6>  O        1.4632418085     1.5066384598     0.0021578180
|  7>  C        1.5079145235     0.0767101451     0.0109827012
|  8>  C        2.4955743206    -0.6639036052    -0.8103367106
|  9>  C        2.8894672645    -1.7776277600    -0.1866344792
| 10>  C        2.2503895072    -1.9636370472     1.1771617227
| 11>  C        1.4537658989    -0.6526362516     1.3918006515
| 12>  N       -0.0409156212    -0.6753209823     1.3329177135
| 13>  C       -0.0442331716    -0.0369237892    -0.0016382316
| 14>  H       -0.3850036258     1.9488687093     0.9644427395
| 15>  H       -0.4047701073     2.0219917524    -0.8317503097
| 16>  H        2.8026910231    -0.3424100551    -1.7982776581
| 17>  H        3.5771202287    -2.5080953245    -0.5998193383
| 18>  H        1.5844437706    -2.8375631660     1.1857914921
| 19>  H        2.9979016780    -2.1457974799     1.9589367271
| 20>  H        1.8248737510    -0.0822845639     2.2478035777
| 21>  H       -0.4306597923    -1.6114922912     1.3292725958
| 22>  H       -0.6420281454    -0.5080295342    -0.7832341938
| 23> *
| 24>
| 25>                          ****END OF INPUT****

CARTESIAN COORDINATES (ANGSTROEM)
---------------------------------
  C      0.007893    1.506399    0.043212
  O      1.463242    1.506638    0.002158
  C      1.507915    0.076710    0.010983
  C      2.495574   -0.663904   -0.810337
  C      2.889467   -1.777628   -0.186634
  C      2.250390   -1.963637    1.177162
  C      1.453766   -0.652636    1.391801
  N     -0.040916   -0.675321    1.332918
  C     -0.044233   -0.036924   -0.001638
  H     -0.385004    1.948869    0.964443
  H     -0.404770    2.021992   -0.831750
  H      2.802691   -0.342410   -1.798278
  H      3.577120   -2.508095   -0.599819
  H      1.584444   -2.837563    1.185791
  H      2.997902   -2.145797    1.958937
  H      1.824874   -0.082285    2.247804
  H     -0.430660   -1.611492    1.329273
  H     -0.642028   -0.508030   -0.783234

 Total Charge           Charge          ....    0
 Multiplicity           Mult            ....    1
 Number of Electrons    NEL             ....   66
 Basis Dimension        Dim             ....  333

ORBITAL ENERGIES
----------------

  NO   OCC          E(Eh)            E(eV)
   0   2.0000     -20.548443      -559.1516
   1   2.0000     -15.546328      -423.0371
   2   2.0000     -11.284291      -307.0612
   3   2.0000     -11.274122      -306.7845
   4   2.0000     -11.260032      -306.4010
   5   2.0000     -11.256298      -306.2995
   6   2.0000     -11.241621      -305.9001
   7   2.0000     -11.238067      -305.8034
   8   2.0000     -11.230067      -305.5857
   9   2.0000      -1.383178       -37.6382
  10   2.0000      -1.225806       -33.3559
  11   2.0000      -1.112226       -30.2652
  12   2.0000      -0.981478       -26.7074
  13   2.0000      -0.953320       -25.9412
  14   2.0000      -0.928453       -25.2645
  15   2.0000      -0.833560       -22.6823
  16   2.0000      -0.775707       -21.1081
  17   2.0000      -0.704262       -19.1639
  18   2.0000      -0.693457       -18.8699
  19   2.0000      -0.660458       -17.9720
  20   2.0000      -0.653685       -17.7877
  21   2.0000      -0.622587       -16.9415
  22   2.0000      -0.592282       -16.1168
  23   2.0000      -0.576419       -15.6851
  24   2.0000      -0.540694       -14.7130
  25   2.0000      -0.533946       -14.5294
  26   2.0000      -0.508813       -13.8455
  27   2.0000      -0.502315       -13.6687
  28   2.0000      -0.470424       -12.8009
  29   2.0000      -0.453105       -12.3296
  30   2.0000      -0.404613       -11.0101
  31   2.0000      -0.379212       -10.3189
  32   2.0000      -0.342083        -9.3086
  33   0.0000       0.131418         3.5761
  34   0.0000       0.143187         3.8963
  35   0.0000       0.161300         4.3892
  36   0.0000       0.170907         4.6506
  37   0.0000       0.179068         4.8727

MULLIKEN ATOMIC CHARGES
-----------------------
   0 C :   -0.006708
   1 O :   -0.330124
   2 C :    0.314328
   3 C :   -0.261078
   4 C :   -0.125163
   5 C :   -0.197754
   6 C :   -0.075032
   7 N :   -0.327152
   8 C :   -0.106291
   9 H :    0.098567
  10 H :    0.097626
  11 H :    0.134615
  12 H :    0.132074
  13 H :    0.112485
  14 H :    0.126115
  15 H :    0.100662
  16 H :    0.199704
  17 H :    0.113127
Sum of atomic charges:   -0.0000000

LOEWDIN ATOMIC CHARGES
----------------------
   0 C :   -0.236811
   1 O :    0.157697
   2 C :   -0.270264
   3 C :   -0.123069
   4 C :   -0.134702
   5 C :   -0.223485
   6 C :   -0.187205
   7 N :    0.005439
   8 C :   -0.215609
   9 H :    0.121453
  10 H :    0.117341
  11 H :    0.143982
  12 H :    0.137484
  13 H :    0.141751
  14 H :    0.139411
  15 H :    0.141149
  16 H :    0.156851
  17 H :    0.128587

  Mayer bond orders larger than 0.1
B(  0-C ,  1-O ) :   0.9290 B(  0-C ,  8-C ) :   0.9437 B(  0-C ,  9-H ) :   0.8912
B(  0-C , 10-H ) :   0.9173 B(  1-O ,  2-C ) :   0.9727 B(  2-C ,  3-C ) :   0.9358
B(  2-C ,  6-C ) :   0.8965 B(  2-C ,  8-C ) :   0.9380 B(  3-C ,  4-C ) :   1.7542
B(  3-C , 11-H ) :   0.9205 B(  4-C ,  5-C ) :   0.9415 B(  4-C , 12-H ) :   0.9248
B(  5-C ,  6-C ) :   0.9363 B(  5-C , 13-H ) :   0.9023 B(  5-C , 14-H ) :   0.9163
B(  6-C ,  7-N ) :   1.0070 B(  6-C , 15-H ) :   0.8984 B(  7-N ,  8-C ) :   1.0173
B(  7-N , 16-H ) :   0.8699 B(  8-C , 17-H ) :   0.8994

MP2 TOTAL ENERGY:     -401.208776109 Eh
FINAL SINGLE POINT ENERGY      -401.208776109274

DIPOLE MOMENT
-------------
                                X             Y             Z
Electronic contribution:      0.57695       2.41717      -0.89275
Nuclear contribution   :     -0.77323      -3.35897       0.57250
                        -----------------------------------------
Total Dipole Moment    :     -0.19627      -0.94180      -0.32025
                        -----------------------------------------
Magnitude (a.u.)       :      1.01394
Magnitude (Debye)      :      2.57723

                             ****ORCA TERMINATED NORMALLY****
TOTAL RUN TIME: 0 days 0 hours 18 minutes 26 seconds 345 msec
