                         Program Version 3.0.3 - RELEASE   -
|  1> ! RI-MP2 RIJK def2-TZVP def2-TZVP/C def2-TZVP/JK TIGHTSCF
|  2> % maxcore 2000
|  3> % mp2 density relaxed end
|  4> *xyz 0 1
|  5>  O       -0.4026133441     1.4596764277     0.2836969201
|  6>  C       -0.1831900126     0.1015890729     0.0777434517
|  7>  C       -0.5102080976    -0.9086345490     1.1654758384
|  8>  O       -1.1952020380    -0.4091384532     2.2900770257
|  9>  C       -2.4614950755     0.0164224590     1.9359620917
| 10>  N       -3.2758967695     0.5439249882     2.7374815735
| 11>  C       -2.7061075228    -0.2541258160     0.4621315671
| 12>  C       -1.3870120394    -0.8093523775    -0.0505664754
| 13>  O       -1.3855726030    -1.8405677817    -0.9832287849
| 14>  H        0.0792610623     1.7314963652     1.0726831751
| 15>  H        0.6645121492    -0.1599016393    -0.5565546551
| 16>  H        0.1407861865    -1.7459342790     1.3831431346
| 17>  H       -2.8723161411     0.6104013759     3.6732117922
| 18>  H       -3.4875472235    -1.0099757083     0.3421859278
| 19>  H       -3.0296162724     0.6636504144    -0.0329391705
| 20>  H       -1.5020183087    -1.4548101793    -1.8589679820
| 21> *
| 22>
| 23>                          ****END OF INPUT****

CARTESIAN COORDINATES (ANGSTROEM)
---------------------------------
  O     -0.402613    1.459676    0.283697
  C     -0.183190    0.101589    0.077743
  C     -0.510208   -0.908635    1.165476
  O     -1.195202   -0.409138    2.290077
  C     -2.461495    0.016422    1.935962
  N     -3.275897    0.543925    2.737482
  C     -2.706108   -0.254126    0.462132
  C     -1.387012   -0.809352   -0.050566
  O     -1.385573   -1.840568   -0.983229
  H      0.079261    1.731496    1.072683
  H      0.664512   -0.159902   -0.556555
  H      0.140786   -1.745934    1.383143
  H     -2.872316    0.610401    3.673212
  H     -3.487547   -1.009976    0.342186
  H     -3.029616    0.663650   -0.032939
  H     -1.502018   -1.454810   -1.858968

 Total Charge           Charge          ....    0
 Multiplicity           Mult            ....    1
 Number of Electrons    NEL             ....   68
 Basis Dimension        Dim             ....  321

ORBITAL ENERGIES
----------------

  NO   OCC          E(Eh)            E(eV)
   0   2.0000     -20.604994      -560.6904
   1   2.0000     -20.587753      -560.2212
   2   2.0000     -20.584777      -560.1403
   3   2.0000     -15.533445      -422.6865
   4   2.0000     -11.342508      -308.6453
   5   2.0000     -11.309120      -307.7368
   6   2.0000     -11.305004      -307.6248
   7   2.0000     -11.304328      -307.6064
   8   2.0000     -11.249296      -306.1089
   9   2.0000      -1.447952       -39.4008
  10   2.0000      -1.399048       -38.0700
  11   2.0000      -1.388591       -37.7855
  12   2.0000      -1.201826       -32.7033
  13   2.0000      -1.138171       -30.9712
  14   2.0000      -1.016871       -27.6705
  15   2.0000      -0.867278       -23.5998
  16   2.0000      -0.819782       -22.3074
  17   2.0000      -0.785711       -21.3803
  18   2.0000      -0.748266       -20.3614
  19   2.0000      -0.713214       -19.4075
  20   2.0000      -0.685561       -18.6551
  21   2.0000      -0.669239       -18.2109
  22   2.0000      -0.649526       -17.6745
  23   2.0000      -0.629807       -17.1379
  24   2.0000      -0.610941       -16.6246
  25   2.0000      -0.582366       -15.8470
  26   2.0000      -0.571732       -15.5576
  27   2.0000      -0.540223       -14.7002
  28   2.0000      -0.527516       -14.3544
  29   2.0000      -0.499250       -13.5853
  30   2.0000      -0.447110       -12.1665
  31   2.0000      -0.433214       -11.7884
  32   2.0000      -0.415889       -11.3169
  33   2.0000      -0.384642       -10.4666
  34   0.0000       0.125321         3.4102
  35   0.0000       0.137492         3.7413
  36   0.0000       0.159897         4.3510
  37   0.0000       0.170304         4.6342
  38   0.0000       0.176974         4.8157

MULLIKEN ATOMIC CHARGES
-----------------------
   0 O :   -0.462161
   1 C :   -0.025971
   2 C :    0.016793
   3 O :   -0.262507
   4 C :    0.065812
   5 N :   -0.366320
   6 C :   -0.083150
   7 C :    0.112969
   8 O :   -0.448231
   9 H :    0.340420
  10 H :    0.122892
  11 H :    0.145353
  12 H :    0.224808
  13 H :    0.146983
  14 H :    0.140097
  15 H :    0.332212
Sum of atomic charges:   -0.0000000

LOEWDIN ATOMIC CHARGES
----------------------
   0 O :    0.017985
   1 C :   -0.291323
   2 C :   -0.228972
   3 O :    0.257371
   4 C :   -0.380644
   5 N :   -0.052885
   6 C :   -0.172306
   7 C :   -0.340790
   8 O :    0.034409
   9 H :    0.190304
  10 H :    0.141231
  11 H :    0.145129
  12 H :    0.169751
  13 H :    0.162413
  14 H :    0.160073
  15 H :    0.188255

  Mayer bond orders larger than 0.1
B(  0-O ,  1-C ) :   0.9856 B(  0-O ,  9-H ) :   0.8303 B(  1-C ,  2-C ) :   0.8674
B(  1-C ,  7-C ) :   0.8516 B(  1-C , 10-H ) :   0.9392 B(  2-C ,  3-O ) :   0.9323
B(  2-C ,  7-C ) :   0.8743 B(  2-C , 11-H ) :   0.9144 B(  3-O ,  4-C ) :   1.0431
B(  4-C ,  5-N ) :   2.0772 B(  4-C ,  6-C ) :   0.9095 B(  5-N , 12-H ) :   0.8536
B(  6-C ,  7-C ) :   0.9707 B(  6-C , 13-H ) :   0.8974 B(  6-C , 14-H ) :   0.8862
B(  7-C ,  8-O ) :   1.0355 B(  8-O , 15-H ) :   0.8342

MP2 TOTAL ENERGY:     -474.261637595 Eh
FINAL SINGLE POINT ENERGY      -474.261637595002

DIPOLE MOMENT
-------------
                                X             Y             Z
Electronic contribution:      0.64124      -0.31379       1.31669
Nuclear contribution   :      0.32594       0.17978      -1.87475
                        -----------------------------------------
Total Dipole Moment    :      0.96718      -0.13401      -0.55807
                        -----------------------------------------
Magnitude (a.u.)       :      1.12465
Magnitude (Debye)      :      2.85863

                             ****ORCA TERMINATED NORMALLY****
TOTAL RUN TIME: 0 days 0 hours 14 minutes 55 seconds 377 msec
