                         Program Version 3.0.3 - RELEASE   -
|  1> ! RI-MP2 RIJK def2-TZVP def2-TZVP/C def2-TZVP/JK TIGHTSCF
|  2> % maxcore 2000
|  3> % mp2 density relaxed end
|  4> *xyz 0 1
|  5>  C       -0.2230033754    -1.8571065000     0.4188844595
|  6>  N        0.7200959876    -0.7651988718     0.1627780805
|  7>  C        0.9656610605    -0.4261983151    -1.2325779205
|  8>  C       -0.0889399397     0.4666597998    -1.9393518095
|  9>  C       -1.3511076714    -0.2077340487    -2.2196753645
| 10>  N       -2.3487410569    -0.7462709647    -2.4469827100
| 11>  C        2.3509894251     0.2500324386    -1.4166370231
| 12>  N        3.2219123544    -0.0138041420    -0.4178749167
| 13>  O        2.6087050616     0.9205490731    -2.4001090224
| 14>  H       -1.2441299584    -1.6736893807     0.0617284206
| 15>  H        0.1456994819    -2.7676409752    -0.0642276690
| 16>  H       -0.2595284757    -2.0439607617     1.4960165819
| 17>  H        0.4435850792     0.0638536845     0.6792042084
| 18>  H        1.0318645890    -1.3717157431    -1.7859168586
| 19>  H       -0.2869515216     1.3569944088    -1.3302955372
| 20>  H        0.3538777992     0.8209031206    -2.8750503130
| 21>  H        2.9026778101    -0.5562891116     0.3691740938
| 22>  H        4.1580109805     0.3501106291    -0.4717927204
| 23> *
| 24>
| 25>                          ****END OF INPUT****

CARTESIAN COORDINATES (ANGSTROEM)
---------------------------------
  C     -0.223003   -1.857106    0.418884
  N      0.720096   -0.765199    0.162778
  C      0.965661   -0.426198   -1.232578
  C     -0.088940    0.466660   -1.939352
  C     -1.351108   -0.207734   -2.219675
  N     -2.348741   -0.746271   -2.446983
  C      2.350989    0.250032   -1.416637
  N      3.221912   -0.013804   -0.417875
  O      2.608705    0.920549   -2.400109
  H     -1.244130   -1.673689    0.061728
  H      0.145699   -2.767641   -0.064228
  H     -0.259528   -2.043961    1.496017
  H      0.443585    0.063854    0.679204
  H      1.031865   -1.371716   -1.785917
  H     -0.286952    1.356994   -1.330296
  H      0.353878    0.820903   -2.875050
  H      2.902678   -0.556289    0.369174
  H      4.158011    0.350111   -0.471793

 Total Charge           Charge          ....    0
 Multiplicity           Mult            ....    1
 Number of Electrons    NEL             ....   68
 Basis Dimension        Dim             ....  333

ORBITAL ENERGIES
----------------

  NO   OCC          E(Eh)            E(eV)
   0   2.0000     -20.530085      -558.6520
   1   2.0000     -15.589996      -424.2254
   2   2.0000     -15.578943      -423.9246
   3   2.0000     -15.571919      -423.7334
   4   2.0000     -11.363390      -309.2136
   5   2.0000     -11.304898      -307.6219
   6   2.0000     -11.283561      -307.0413
   7   2.0000     -11.277522      -306.8770
   8   2.0000     -11.264264      -306.5162
   9   2.0000      -1.395383       -37.9703
  10   2.0000      -1.251766       -34.0623
  11   2.0000      -1.222507       -33.2661
  12   2.0000      -1.212066       -32.9820
  13   2.0000      -1.073389       -29.2084
  14   2.0000      -0.963442       -26.2166
  15   2.0000      -0.896136       -24.3851
  16   2.0000      -0.802564       -21.8389
  17   2.0000      -0.752603       -20.4794
  18   2.0000      -0.728991       -19.8369
  19   2.0000      -0.679022       -18.4771
  20   2.0000      -0.664632       -18.0856
  21   2.0000      -0.642841       -17.4926
  22   2.0000      -0.616351       -16.7718
  23   2.0000      -0.600746       -16.3471
  24   2.0000      -0.590747       -16.0750
  25   2.0000      -0.574603       -15.6357
  26   2.0000      -0.553980       -15.0746
  27   2.0000      -0.548856       -14.9351
  28   2.0000      -0.531789       -14.4707
  29   2.0000      -0.473963       -12.8972
  30   2.0000      -0.461311       -12.5529
  31   2.0000      -0.446346       -12.1457
  32   2.0000      -0.425746       -11.5851
  33   2.0000      -0.393907       -10.7188
  34   0.0000       0.111521         3.0346
  35   0.0000       0.142063         3.8657
  36   0.0000       0.146521         3.9870
  37   0.0000       0.155899         4.2422
  38   0.0000       0.171087         4.6555

MULLIKEN ATOMIC CHARGES
-----------------------
   0 C :   -0.302881
   1 N :   -0.414276
   2 C :    0.044509
   3 C :   -0.192138
   4 C :   -0.170755
   5 N :   -0.062184
   6 C :    0.235361
   7 N :   -0.447438
   8 O :   -0.360437
   9 H :    0.150934
  10 H :    0.135545
  11 H :    0.140131
  12 H :    0.215970
  13 H :    0.135222
  14 H :    0.155007
  15 H :    0.198128
  16 H :    0.279854
  17 H :    0.259447
Sum of atomic charges:   -0.0000000

LOEWDIN ATOMIC CHARGES
----------------------
   0 C :   -0.340267
   1 N :   -0.025065
   2 C :   -0.258745
   3 C :   -0.226138
   4 C :   -0.200040
   5 N :    0.052659
   6 C :   -0.465772
   7 N :    0.000690
   8 O :    0.077046
   9 H :    0.112514
  10 H :    0.119680
  11 H :    0.117220
  12 H :    0.172246
  13 H :    0.169707
  14 H :    0.164545
  15 H :    0.180620
  16 H :    0.174647
  17 H :    0.174451

  Mayer bond orders larger than 0.1
B(  0-C ,  1-N ) :   0.9092 B(  0-C ,  9-H ) :   0.9269 B(  0-C , 10-H ) :   0.9385
B(  0-C , 11-H ) :   0.9351 B(  1-N ,  2-C ) :   0.8792 B(  1-N , 12-H ) :   0.8774
B(  2-C ,  3-C ) :   0.9178 B(  2-C ,  6-C ) :   0.8712 B(  2-C , 13-H ) :   0.9049
B(  3-C ,  4-C ) :   0.9174 B(  3-C , 14-H ) :   0.9058 B(  3-C , 15-H ) :   0.8925
B(  4-C ,  5-N ) :   2.8664 B(  6-C ,  7-N ) :   1.2301 B(  6-C ,  8-O ) :   1.9439
B(  7-N , 16-H ) :   0.8353 B(  7-N , 17-H ) :   0.8589

MP2 TOTAL ENERGY:     -434.589987210 Eh
FINAL SINGLE POINT ENERGY      -434.589987209561

DIPOLE MOMENT
-------------
                                X             Y             Z
Electronic contribution:      0.21488       3.13191      -5.10645
Nuclear contribution   :      0.76447      -3.20231       6.73178
                        -----------------------------------------
Total Dipole Moment    :      0.97935      -0.07040       1.62533
                        -----------------------------------------
Magnitude (a.u.)       :      1.89889
Magnitude (Debye)      :      4.82659

                             ****ORCA TERMINATED NORMALLY****
TOTAL RUN TIME: 0 days 0 hours 16 minutes 3 seconds 954 msec
