                         Program Version 3.0.3 - RELEASE   -
|  1> ! RI-MP2 RIJK def2-TZVP def2-TZVP/C def2-TZVP/JK TIGHTSCF
|  2> % maxcore 2000
|  3> % mp2 density relaxed end
|  4> *xyz 0 1
|  5>  C        0.1482611291     1.6446599106     0.0044745046
|  6>  C       -0.1219976386     0.1420105543    -0.0116892712
|  7>  N        0.6241432182    -0.5168590647    -1.0770681926
|  8>  C        2.0946815928    -0.7146826260    -0.9159631022
|  9>  C        1.9390047547    -2.2085123148    -1.2093096447
| 10>  C        1.0090393339    -2.8435747843    -0.2308308193
| 11>  C        0.4156586144    -1.9446229437    -1.2960289944
| 12>  C       -0.5004634104    -2.4411014710    -2.3379618751
| 13>  O       -0.6896879074    -3.6098032737    -2.5856327988
| 14>  H        1.2048129152     1.8542702665     0.2036853006
| 15>  H       -0.1075226662     2.0914235746    -0.9604507968
| 16>  H       -0.4398382168     2.1346756605     0.7861973112
| 17>  H        0.0996128713    -0.2840790292     0.9841549898
| 18>  H       -1.1860356645    -0.0437507243    -0.2015903982
| 19>  H        2.6704004245    -0.1572405857    -1.6603520334
| 20>  H        2.4836593368    -0.4823655845     0.0849643294
| 21>  H        2.5191818513    -2.7787539459    -1.9221883108
| 22>  H        0.8043891047    -3.8957357127    -0.3964056921
| 23>  H        0.9979757100    -2.5212813535     0.8064415062
| 24>  H       -0.9970584129    -1.6279942728    -2.9128576923
| 25> *
| 26>
| 27>                          ****END OF INPUT****

CARTESIAN COORDINATES (ANGSTROEM)
---------------------------------
  C      0.148261    1.644660    0.004475
  C     -0.121998    0.142011   -0.011689
  N      0.624143   -0.516859   -1.077068
  C      2.094682   -0.714683   -0.915963
  C      1.939005   -2.208512   -1.209310
  C      1.009039   -2.843575   -0.230831
  C      0.415659   -1.944623   -1.296029
  C     -0.500463   -2.441101   -2.337962
  O     -0.689688   -3.609803   -2.585633
  H      1.204813    1.854270    0.203685
  H     -0.107523    2.091424   -0.960451
  H     -0.439838    2.134676    0.786197
  H      0.099613   -0.284079    0.984155
  H     -1.186036   -0.043751   -0.201590
  H      2.670400   -0.157241   -1.660352
  H      2.483659   -0.482366    0.084964
  H      2.519182   -2.778754   -1.922188
  H      0.804389   -3.895736   -0.396406
  H      0.997976   -2.521281    0.806442
  H     -0.997058   -1.627994   -2.912858

 Total Charge           Charge          ....    0
 Multiplicity           Mult            ....    1
 Number of Electrons    NEL             ....   68
 Basis Dimension        Dim             ....  345

ORBITAL ENERGIES
----------------

  NO   OCC          E(Eh)            E(eV)
   0   2.0000     -20.547478      -559.1253
   1   2.0000     -15.563346      -423.5002
   2   2.0000     -11.328473      -308.2634
   3   2.0000     -11.274337      -306.7903
   4   2.0000     -11.270118      -306.6755
   5   2.0000     -11.257562      -306.3338
   6   2.0000     -11.257351      -306.3281
   7   2.0000     -11.246446      -306.0314
   8   2.0000     -11.220368      -305.3217
   9   2.0000      -1.386938       -37.7405
  10   2.0000      -1.285552       -34.9817
  11   2.0000      -1.115015       -30.3411
  12   2.0000      -1.008621       -27.4460
  13   2.0000      -0.967857       -26.3367
  14   2.0000      -0.899540       -24.4777
  15   2.0000      -0.822331       -22.3768
  16   2.0000      -0.805127       -21.9086
  17   2.0000      -0.730564       -19.8797
  18   2.0000      -0.711940       -19.3729
  19   2.0000      -0.666414       -18.1340
  20   2.0000      -0.634137       -17.2557
  21   2.0000      -0.627992       -17.0885
  22   2.0000      -0.624365       -16.9898
  23   2.0000      -0.578164       -15.7326
  24   2.0000      -0.568571       -15.4716
  25   2.0000      -0.537381       -14.6229
  26   2.0000      -0.533883       -14.5277
  27   2.0000      -0.522781       -14.2256
  28   2.0000      -0.503364       -13.6972
  29   2.0000      -0.493017       -13.4157
  30   2.0000      -0.470172       -12.7940
  31   2.0000      -0.424726       -11.5574
  32   2.0000      -0.389649       -10.6029
  33   2.0000      -0.361020        -9.8239
  34   0.0000       0.111980         3.0471
  35   0.0000       0.133392         3.6298
  36   0.0000       0.161320         4.3898
  37   0.0000       0.169693         4.6176
  38   0.0000       0.173561         4.7228

MULLIKEN ATOMIC CHARGES
-----------------------
   0 C :   -0.376322
   1 C :   -0.129630
   2 N :   -0.153420
   3 C :   -0.174650
   4 C :   -0.139975
   5 C :   -0.250759
   6 C :    0.082338
   7 C :    0.059679
   8 O :   -0.289289
   9 H :    0.123907
  10 H :    0.130601
  11 H :    0.131419
  12 H :    0.086047
  13 H :    0.119933
  14 H :    0.128544
  15 H :    0.116796
  16 H :    0.151299
  17 H :    0.155687
  18 H :    0.141096
  19 H :    0.086699
Sum of atomic charges:   -0.0000000

LOEWDIN ATOMIC CHARGES
----------------------
   0 C :   -0.316024
   1 C :   -0.317978
   2 N :    0.135558
   3 C :   -0.214711
   4 C :   -0.142220
   5 C :   -0.174428
   6 C :   -0.250669
   7 C :   -0.270648
   8 O :    0.122191
   9 H :    0.120452
  10 H :    0.123812
  11 H :    0.123499
  12 H :    0.117753
  13 H :    0.134988
  14 H :    0.130334
  15 H :    0.126944
  16 H :    0.143614
  17 H :    0.152913
  18 H :    0.135664
  19 H :    0.118958

  Mayer bond orders larger than 0.1
B(  0-C ,  1-C ) :   0.9354 B(  0-C ,  9-H ) :   0.9353 B(  0-C , 10-H ) :   0.9357
B(  0-C , 11-H ) :   0.9372 B(  1-C ,  2-N ) :   0.8778 B(  1-C , 12-H ) :   0.9170
B(  1-C , 13-H ) :   0.9279 B(  2-N ,  3-C ) :   0.9293 B(  2-N ,  6-C ) :   0.9425
B(  3-C ,  4-C ) :   0.9444 B(  3-C , 14-H ) :   0.9223 B(  3-C , 15-H ) :   0.9124
B(  4-C ,  5-C ) :   0.9105 B(  4-C ,  6-C ) :   0.7913 B(  4-C , 16-H ) :   0.9122
B(  5-C ,  6-C ) :   0.8450 B(  5-C , 17-H ) :   0.9117 B(  5-C , 18-H ) :   0.9159
B(  6-C ,  7-C ) :   0.8968 B(  7-C ,  8-O ) :   1.9701 B(  7-C , 19-H ) :   0.9509

MP2 TOTAL ENERGY:     -402.417177922 Eh
FINAL SINGLE POINT ENERGY      -402.417177921654

DIPOLE MOMENT
-------------
                                X             Y             Z
Electronic contribution:     -1.54529      -7.93151      -5.42498
Nuclear contribution   :      2.11883       8.73123       6.13446
                        -----------------------------------------
Total Dipole Moment    :      0.57354       0.79972       0.70948
                        -----------------------------------------
Magnitude (a.u.)       :      1.21320
Magnitude (Debye)      :      3.08371

                             ****ORCA TERMINATED NORMALLY****
TOTAL RUN TIME: 0 days 0 hours 29 minutes 45 seconds 971 msec
