                         Program Version 3.0.3 - RELEASE   -
|  1> ! RI-MP2 RIJK def2-TZVP def2-TZVP/C def2-TZVP/JK TIGHTSCF
|  2> % maxcore 2000
|  3> % mp2 density relaxed end
|  4> *xyz 0 1
|  5>  C        0.1302538402     1.4674610234    -0.0319303239
|  6>  C       -0.0202075651    -0.0584127387     0.0227650864
|  7>  C       -1.5131552204    -0.4426699959     0.0130310272
|  8>  O        0.6213811428    -0.5319440572    -1.1706804113
|  9>  C        0.9764959941    -1.9071408984    -1.1467125652
| 10>  C        2.0494691522    -2.1578732931    -0.0896387948
| 11>  O        3.3219392430    -1.6571617342    -0.4983812748
| 12>  C        1.6097094235    -1.5397295773     1.2157432728
| 13>  C        0.6670704985    -0.6005746852     1.2562764009
| 14>  H        1.1870558301     1.7468483046    -0.0250524499
| 15>  H       -0.3239674772     1.8508831171    -0.9500742329
| 16>  H       -0.3612634628     1.9386699726     0.8243416354
| 17>  H       -1.9990068935    -0.0229451102    -0.8725400769
| 18>  H       -1.6475306922    -1.5275036569     0.0047995705
| 19>  H       -2.0175255526    -0.0540691740     0.9032757167
| 20>  H        0.1018798723    -2.5484633594    -0.9615921682
| 21>  H        1.3695510789    -2.1363427790    -2.1408841793
| 22>  H        2.1948375205    -3.2377419731     0.0306926118
| 23>  H        3.1959415562    -0.7138848167    -0.6570931089
| 24>  H        2.1147160072    -1.8637613363     2.1212382726
| 25>  H        0.3552490944    -0.1632348422     2.2022990317
| 26> *
| 27>
| 28>                          ****END OF INPUT****

CARTESIAN COORDINATES (ANGSTROEM)
---------------------------------
  C      0.130254    1.467461   -0.031930
  C     -0.020208   -0.058413    0.022765
  C     -1.513155   -0.442670    0.013031
  O      0.621381   -0.531944   -1.170680
  C      0.976496   -1.907141   -1.146713
  C      2.049469   -2.157873   -0.089639
  O      3.321939   -1.657162   -0.498381
  C      1.609709   -1.539730    1.215743
  C      0.667070   -0.600575    1.256276
  H      1.187056    1.746848   -0.025052
  H     -0.323967    1.850883   -0.950074
  H     -0.361263    1.938670    0.824342
  H     -1.999007   -0.022945   -0.872540
  H     -1.647531   -1.527504    0.004800
  H     -2.017526   -0.054069    0.903276
  H      0.101880   -2.548463   -0.961592
  H      1.369551   -2.136343   -2.140884
  H      2.194838   -3.237742    0.030693
  H      3.195942   -0.713885   -0.657093
  H      2.114716   -1.863761    2.121238
  H      0.355249   -0.163235    2.202299

 Total Charge           Charge          ....    0
 Multiplicity           Mult            ....    1
 Number of Electrons    NEL             ....   70
 Basis Dimension        Dim             ....  351

ORBITAL ENERGIES
----------------

  NO   OCC          E(Eh)            E(eV)
   0   2.0000     -20.557359      -559.3942
   1   2.0000     -20.551265      -559.2283
   2   2.0000     -11.297269      -307.4143
   3   2.0000     -11.283027      -307.0268
   4   2.0000     -11.274044      -306.7823
   5   2.0000     -11.237434      -305.7861
   6   2.0000     -11.231604      -305.6275
   7   2.0000     -11.221522      -305.3531
   8   2.0000     -11.219675      -305.3029
   9   2.0000      -1.384431       -37.6723
  10   2.0000      -1.352338       -36.7990
  11   2.0000      -1.094224       -29.7753
  12   2.0000      -1.059806       -28.8388
  13   2.0000      -0.962726       -26.1971
  14   2.0000      -0.941877       -25.6298
  15   2.0000      -0.866153       -23.5692
  16   2.0000      -0.819471       -22.2989
  17   2.0000      -0.729721       -19.8567
  18   2.0000      -0.700586       -19.0639
  19   2.0000      -0.659605       -17.9488
  20   2.0000      -0.653939       -17.7946
  21   2.0000      -0.623614       -16.9694
  22   2.0000      -0.607700       -16.5364
  23   2.0000      -0.586406       -15.9569
  24   2.0000      -0.578798       -15.7499
  25   2.0000      -0.566676       -15.4200
  26   2.0000      -0.547938       -14.9101
  27   2.0000      -0.542725       -14.7683
  28   2.0000      -0.518924       -14.1207
  29   2.0000      -0.503455       -13.6997
  30   2.0000      -0.488458       -13.2916
  31   2.0000      -0.472470       -12.8566
  32   2.0000      -0.452393       -12.3102
  33   2.0000      -0.407619       -11.0919
  34   2.0000      -0.367255        -9.9935
  35   0.0000       0.130595         3.5537
  36   0.0000       0.143754         3.9117
  37   0.0000       0.159444         4.3387
  38   0.0000       0.166256         4.5241
  39   0.0000       0.167241         4.5509

MULLIKEN ATOMIC CHARGES
-----------------------
   0 C :   -0.381602
   1 C :    0.255971
   2 C :   -0.416856
   3 O :   -0.320033
   4 C :   -0.110048
   5 C :    0.166380
   6 O :   -0.466949
   7 C :   -0.242299
   8 C :   -0.184120
   9 H :    0.130374
  10 H :    0.141152
  11 H :    0.122996
  12 H :    0.139328
  13 H :    0.130315
  14 H :    0.130086
  15 H :    0.094234
  16 H :    0.136955
  17 H :    0.100222
  18 H :    0.318625
  19 H :    0.125959
  20 H :    0.129311
Sum of atomic charges:   -0.0000000

LOEWDIN ATOMIC CHARGES
----------------------
   0 C :   -0.261723
   1 C :   -0.384355
   2 C :   -0.265605
   3 O :    0.194610
   4 C :   -0.295620
   5 C :   -0.342061
   6 O :   -0.022386
   7 C :   -0.148832
   8 C :   -0.122487
   9 H :    0.127059
  10 H :    0.130031
  11 H :    0.127308
  12 H :    0.129126
  13 H :    0.124571
  14 H :    0.128583
  15 H :    0.124566
  16 H :    0.135133
  17 H :    0.149765
  18 H :    0.177543
  19 H :    0.144461
  20 H :    0.150315

  Mayer bond orders larger than 0.1
B(  0-C ,  1-C ) :   0.8941 B(  0-C ,  9-H ) :   0.9354 B(  0-C , 10-H ) :   0.9362
B(  0-C , 11-H ) :   0.9323 B(  1-C ,  2-C ) :   0.9253 B(  1-C ,  3-O ) :   0.9129
B(  1-C ,  8-C ) :   0.9180 B(  2-C , 12-H ) :   0.9358 B(  2-C , 13-H ) :   0.9269
B(  2-C , 14-H ) :   0.9294 B(  3-O ,  4-C ) :   0.9114 B(  4-C ,  5-C ) :   0.9345
B(  4-C , 15-H ) :   0.9253 B(  4-C , 16-H ) :   0.9296 B(  5-C ,  6-O ) :   0.9002
B(  5-C ,  7-C ) :   0.9412 B(  5-C , 17-H ) :   0.9203 B(  6-O , 18-H ) :   0.8357
B(  7-C ,  8-C ) :   1.7889 B(  7-C , 19-H ) :   0.9326 B(  8-C , 20-H ) :   0.9136

MP2 TOTAL ENERGY:     -423.533244633 Eh
FINAL SINGLE POINT ENERGY      -423.533244632796

DIPOLE MOMENT
-------------
                                X             Y             Z
Electronic contribution:      5.34151      -2.74020      -0.97351
Nuclear contribution   :     -6.08077       2.87589       1.42307
                        -----------------------------------------
Total Dipole Moment    :     -0.73927       0.13569       0.44956
                        -----------------------------------------
Magnitude (a.u.)       :      0.87580
Magnitude (Debye)      :      2.22612

                             ****ORCA TERMINATED NORMALLY****
TOTAL RUN TIME: 0 days 0 hours 19 minutes 16 seconds 185 msec
