                         Program Version 3.0.3 - RELEASE   -
|  1> ! RI-MP2 RIJK def2-TZVP def2-TZVP/C def2-TZVP/JK TIGHTSCF
|  2> % maxcore 2000
|  3> % mp2 density relaxed end
|  4> *xyz 0 1
|  5>  O       -0.1639606004    -0.0613525306     0.2938222549
|  6>  C       -0.0499584059     1.1291690185     0.1168216831
|  7>  C       -1.1953773909     2.1110914454    -0.1869533597
|  8>  C       -0.5244150564     3.4903479675    -0.3189400809
|  9>  C        0.9466678807     3.2185980474    -0.0877193124
| 10>  C        1.9622419792     4.3337051340    -0.1089500429
| 11>  C        1.9279644936     5.1163501648    -1.3430829174
| 12>  C        1.8895268905     5.7498007172    -2.3631371983
| 13>  C        1.1975467657     1.9234487122     0.1479601390
| 14>  H       -1.7091800663     1.7950242901    -1.0992538943
| 15>  H       -1.9312748353     2.0671025950     0.6209655871
| 16>  H       -0.6748556036     3.9491630707    -1.3021846466
| 17>  H       -0.8999695717     4.2164669662     0.4132452497
| 18>  H        1.7656663311     5.0044705130     0.7410995691
| 19>  H        2.9668324273     3.9250104994     0.0466155368
| 20>  H        1.8651561569     6.3138705888    -3.2626384619
| 21>  H        2.1658163055     1.4768188205     0.3375991745
| 22> *
| 23>
| 24>                          ****END OF INPUT****

CARTESIAN COORDINATES (ANGSTROEM)
---------------------------------
  O     -0.163961   -0.061353    0.293822
  C     -0.049958    1.129169    0.116822
  C     -1.195377    2.111091   -0.186953
  C     -0.524415    3.490348   -0.318940
  C      0.946668    3.218598   -0.087719
  C      1.962242    4.333705   -0.108950
  C      1.927964    5.116350   -1.343083
  C      1.889527    5.749801   -2.363137
  C      1.197547    1.923449    0.147960
  H     -1.709180    1.795024   -1.099254
  H     -1.931275    2.067103    0.620966
  H     -0.674856    3.949163   -1.302185
  H     -0.899970    4.216467    0.413245
  H      1.765666    5.004471    0.741100
  H      2.966832    3.925010    0.046616
  H      1.865156    6.313871   -3.262638
  H      2.165816    1.476819    0.337599

 Total Charge           Charge          ....    0
 Multiplicity           Mult            ....    1
 Number of Electrons    NEL             ....   64
 Basis Dimension        Dim             ....  327

ORBITAL ENERGIES
----------------

  NO   OCC          E(Eh)            E(eV)
   0   2.0000     -20.533542      -558.7461
   1   2.0000     -11.325570      -308.1844
   2   2.0000     -11.282170      -307.0034
   3   2.0000     -11.281197      -306.9770
   4   2.0000     -11.251140      -306.1591
   5   2.0000     -11.248896      -306.0980
   6   2.0000     -11.239104      -305.8316
   7   2.0000     -11.237914      -305.7992
   8   2.0000     -11.237490      -305.7877
   9   2.0000      -1.377357       -37.4798
  10   2.0000      -1.165584       -31.7172
  11   2.0000      -1.082206       -29.4483
  12   2.0000      -1.011757       -27.5313
  13   2.0000      -0.977626       -26.6026
  14   2.0000      -0.916047       -24.9269
  15   2.0000      -0.783401       -21.3174
  16   2.0000      -0.736439       -20.0395
  17   2.0000      -0.732590       -19.9348
  18   2.0000      -0.671558       -18.2740
  19   2.0000      -0.660896       -17.9839
  20   2.0000      -0.639762       -17.4088
  21   2.0000      -0.627421       -17.0730
  22   2.0000      -0.594980       -16.1902
  23   2.0000      -0.581210       -15.8155
  24   2.0000      -0.545171       -14.8349
  25   2.0000      -0.540858       -14.7175
  26   2.0000      -0.513071       -13.9614
  27   2.0000      -0.499286       -13.5863
  28   2.0000      -0.410332       -11.1657
  29   2.0000      -0.404934       -11.0188
  30   2.0000      -0.397725       -10.8226
  31   2.0000      -0.378604       -10.3023
  32   0.0000       0.096007         2.6125
  33   0.0000       0.123364         3.3569
  34   0.0000       0.145942         3.9713
  35   0.0000       0.158660         4.3173
  36   0.0000       0.161213         4.3868

MULLIKEN ATOMIC CHARGES
-----------------------
   0 O :   -0.289388
   1 C :    0.183029
   2 C :   -0.200182
   3 C :   -0.217902
   4 C :    0.073082
   5 C :   -0.322281
   6 C :   -0.031457
   7 C :   -0.162504
   8 C :   -0.243875
   9 H :    0.138465
  10 H :    0.136155
  11 H :    0.147472
  12 H :    0.128771
  13 H :    0.160733
  14 H :    0.160553
  15 H :    0.193963
  16 H :    0.145366
Sum of atomic charges:    0.0000000

LOEWDIN ATOMIC CHARGES
----------------------
   0 O :    0.136672
   1 C :   -0.322759
   2 C :   -0.206857
   3 C :   -0.203870
   4 C :   -0.115241
   5 C :   -0.204122
   6 C :   -0.104079
   7 C :   -0.096356
   8 C :   -0.098045
   9 H :    0.150901
  10 H :    0.150412
  11 H :    0.151540
  12 H :    0.147059
  13 H :    0.171153
  14 H :    0.166879
  15 H :    0.128397
  16 H :    0.148317

  Mayer bond orders larger than 0.1
B(  0-O ,  1-C ) :   2.0048 B(  1-C ,  2-C ) :   0.9164 B(  1-C ,  8-C ) :   1.0002
B(  2-C ,  3-C ) :   0.9341 B(  2-C ,  9-H ) :   0.9098 B(  2-C , 10-H ) :   0.9099
B(  3-C ,  4-C ) :   0.9154 B(  3-C , 11-H ) :   0.9059 B(  3-C , 12-H ) :   0.9043
B(  4-C ,  5-C ) :   0.8839 B(  4-C ,  8-C ) :   1.6284 B(  5-C ,  6-C ) :   1.0413
B(  5-C , 13-H ) :   0.9199 B(  5-C , 14-H ) :   0.9303 B(  6-C ,  7-C ) :   2.6332
B(  7-C , 15-H ) :   0.9048 B(  8-C , 16-H ) :   0.9200

MP2 TOTAL ENERGY:     -384.001948300 Eh
FINAL SINGLE POINT ENERGY      -384.001948299640

DIPOLE MOMENT
-------------
                                X             Y             Z
Electronic contribution:      1.50663      -3.48380       0.15739
Nuclear contribution   :     -1.35977       4.86532      -0.24136
                        -----------------------------------------
Total Dipole Moment    :      0.14687       1.38152      -0.08396
                        -----------------------------------------
Magnitude (a.u.)       :      1.39184
Magnitude (Debye)      :      3.53777

                             ****ORCA TERMINATED NORMALLY****
TOTAL RUN TIME: 0 days 0 hours 15 minutes 24 seconds 799 msec
