                         Program Version 3.0.3 - RELEASE   -
|  1> ! RI-MP2 RIJK def2-TZVP def2-TZVP/C def2-TZVP/JK TIGHTSCF
|  2> % maxcore 2000
|  3> % mp2 density relaxed end
|  4> *xyz 0 1
|  5>  C        0.2206034545     1.5132938904    -0.0994128130
|  6>  C        0.1132135077     0.0161703295    -0.0576677184
|  7>  C       -0.9227184119    -0.7224471768     0.7428001935
|  8>  C        0.5359309197    -0.9699954369     1.0337900979
|  9>  C        1.1627312391    -1.9109952143    -0.0293494775
| 10>  C        0.6941482241    -3.3663074808    -0.0542956352
| 11>  C        0.6708739602    -0.9270749901    -1.1380842422
| 12>  C        2.6697439791    -1.8689904245     0.1449886636
| 13>  O        3.4411000355    -1.1919342047    -0.4847059680
| 14>  H        1.2435999244     1.8309015376    -0.3289376351
| 15>  H       -0.4394395254     1.9367014972    -0.8663689688
| 16>  H       -0.0633915958     1.9570055350     0.8606861002
| 17>  H       -1.4358662835    -0.1343729758     1.4982704325
| 18>  H       -1.5446299888    -1.4889937687     0.2862097145
| 19>  H        0.9616565330    -0.7721104242     2.0122293655
| 20>  H       -0.3971126899    -3.4277685874    -0.0434194996
| 21>  H        1.0500968629    -3.8802785658    -0.9541465351
| 22>  H        1.0665983431    -3.9174581554     0.8172338736
| 23>  H       -0.0630584214    -1.3304191198    -1.8430447035
| 24>  H        1.5162033818    -0.5078783946    -1.6869110540
| 25>  H        3.0367771516    -2.5335945001     0.9632098290
| 26> *
| 27>
| 28>                          ****END OF INPUT****

CARTESIAN COORDINATES (ANGSTROEM)
---------------------------------
  C      0.220603    1.513294   -0.099413
  C      0.113214    0.016170   -0.057668
  C     -0.922718   -0.722447    0.742800
  C      0.535931   -0.969995    1.033790
  C      1.162731   -1.910995   -0.029349
  C      0.694148   -3.366307   -0.054296
  C      0.670874   -0.927075   -1.138084
  C      2.669744   -1.868990    0.144989
  O      3.441100   -1.191934   -0.484706
  H      1.243600    1.830902   -0.328938
  H     -0.439440    1.936701   -0.866369
  H     -0.063392    1.957006    0.860686
  H     -1.435866   -0.134373    1.498270
  H     -1.544630   -1.488994    0.286210
  H      0.961657   -0.772110    2.012229
  H     -0.397113   -3.427769   -0.043419
  H      1.050097   -3.880279   -0.954147
  H      1.066598   -3.917458    0.817234
  H     -0.063058   -1.330419   -1.843045
  H      1.516203   -0.507878   -1.686911
  H      3.036777   -2.533595    0.963210

 Total Charge           Charge          ....    0
 Multiplicity           Mult            ....    1
 Number of Electrons    NEL             ....   68
 Basis Dimension        Dim             ....  351

ORBITAL ENERGIES
----------------

  NO   OCC          E(Eh)            E(eV)
   0   2.0000     -20.554881      -559.3268
   1   2.0000     -11.327481      -308.2364
   2   2.0000     -11.252472      -306.1953
   3   2.0000     -11.242842      -305.9333
   4   2.0000     -11.240208      -305.8616
   5   2.0000     -11.231614      -305.6277
   6   2.0000     -11.228161      -305.5338
   7   2.0000     -11.224115      -305.4237
   8   2.0000     -11.219214      -305.2903
   9   2.0000      -1.394633       -37.9499
  10   2.0000      -1.202991       -32.7351
  11   2.0000      -1.053552       -28.6686
  12   2.0000      -0.972339       -26.4587
  13   2.0000      -0.947293       -25.7772
  14   2.0000      -0.893774       -24.3208
  15   2.0000      -0.818300       -22.2671
  16   2.0000      -0.760310       -20.6891
  17   2.0000      -0.714952       -19.4548
  18   2.0000      -0.687525       -18.7085
  19   2.0000      -0.654759       -17.8169
  20   2.0000      -0.631072       -17.1724
  21   2.0000      -0.597913       -16.2700
  22   2.0000      -0.585174       -15.9234
  23   2.0000      -0.571553       -15.5528
  24   2.0000      -0.562025       -15.2935
  25   2.0000      -0.552456       -15.0331
  26   2.0000      -0.544906       -14.8277
  27   2.0000      -0.529101       -14.3976
  28   2.0000      -0.510324       -13.8866
  29   2.0000      -0.456539       -12.4231
  30   2.0000      -0.453928       -12.3520
  31   2.0000      -0.428385       -11.6569
  32   2.0000      -0.398442       -10.8422
  33   2.0000      -0.375686       -10.2229
  34   0.0000       0.126960         3.4547
  35   0.0000       0.141751         3.8572
  36   0.0000       0.149151         4.0586
  37   0.0000       0.173809         4.7296
  38   0.0000       0.179095         4.8734

MULLIKEN ATOMIC CHARGES
-----------------------
   0 C :   -0.420580
   1 C :    0.047135
   2 C :   -0.291686
   3 C :   -0.130688
   4 C :    0.129531
   5 C :   -0.424825
   6 C :   -0.243722
   7 C :    0.062400
   8 O :   -0.270165
   9 H :    0.142546
  10 H :    0.134433
  11 H :    0.125650
  12 H :    0.131630
  13 H :    0.124751
  14 H :    0.132798
  15 H :    0.132450
  16 H :    0.142400
  17 H :    0.132602
  18 H :    0.118103
  19 H :    0.144986
  20 H :    0.080252
Sum of atomic charges:    0.0000000

LOEWDIN ATOMIC CHARGES
----------------------
   0 C :   -0.273534
   1 C :   -0.220595
   2 C :   -0.184709
   3 C :   -0.126344
   4 C :   -0.256297
   5 C :   -0.266308
   6 C :   -0.142476
   7 C :   -0.249732
   8 O :    0.138701
   9 H :    0.130773
  10 H :    0.129227
  11 H :    0.129139
  12 H :    0.141749
  13 H :    0.130138
  14 H :    0.138938
  15 H :    0.127864
  16 H :    0.129539
  17 H :    0.128356
  18 H :    0.132443
  19 H :    0.145814
  20 H :    0.117314

  Mayer bond orders larger than 0.1
B(  0-C ,  1-C ) :   0.9027 B(  0-C ,  9-H ) :   0.9427 B(  0-C , 10-H ) :   0.9380
B(  0-C , 11-H ) :   0.9356 B(  1-C ,  2-C ) :   0.8984 B(  1-C ,  3-C ) :   0.8215
B(  1-C ,  6-C ) :   0.9333 B(  2-C ,  3-C ) :   0.8650 B(  2-C , 12-H ) :   0.9314
B(  2-C , 13-H ) :   0.9095 B(  3-C ,  4-C ) :   0.8758 B(  3-C , 14-H ) :   0.9099
B(  4-C ,  5-C ) :   0.8990 B(  4-C ,  6-C ) :   0.9356 B(  4-C ,  7-C ) :   0.8269
B(  5-C , 15-H ) :   0.9306 B(  5-C , 16-H ) :   0.9336 B(  5-C , 17-H ) :   0.9326
B(  6-C , 18-H ) :   0.9108 B(  6-C , 19-H ) :   0.9071 B(  7-C ,  8-O ) :   1.9964
B(  7-C , 20-H ) :   0.9448

MP2 TOTAL ENERGY:     -386.398792796 Eh
FINAL SINGLE POINT ENERGY      -386.398792796012

DIPOLE MOMENT
-------------
                                X             Y             Z
Electronic contribution:      5.59720      -0.58604      -0.31762
Nuclear contribution   :     -6.38059       0.30647       0.71038
                        -----------------------------------------
Total Dipole Moment    :     -0.78339      -0.27957       0.39275
                        -----------------------------------------
Magnitude (a.u.)       :      0.91984
Magnitude (Debye)      :      2.33806

                             ****ORCA TERMINATED NORMALLY****
TOTAL RUN TIME: 0 days 0 hours 20 minutes 32 seconds 288 msec
