                         Program Version 3.0.3 - RELEASE   -
|  1> ! RI-MP2 RIJK def2-TZVP def2-TZVP/C def2-TZVP/JK TIGHTSCF
|  2> % maxcore 2000
|  3> % mp2 density relaxed end
|  4> *xyz 0 1
|  5>  C        0.2995263517     1.5395931941     0.2312917758
|  6>  N        1.1456149358     0.5032584418    -0.3895254370
|  7>  C       -0.2329955307     0.1704894061     0.0076800181
|  8>  C       -0.4563389701    -0.7878819224     1.1456258468
|  9>  C        0.1064244563    -2.2116641750     1.1679887112
| 10>  C        1.4906079109    -1.6687366994     1.6440923342
| 11>  C        1.5430105628    -2.5733879308     2.8781546440
| 12>  C        0.0805519980    -2.1545634824     2.7241200676
| 13>  N        0.4850002463    -0.7013063998     2.3469846932
| 14>  H        0.6063435143     1.8232703688     1.2328535628
| 15>  H       -0.0773343715     2.3490751763    -0.3878777702
| 16>  H        1.1894035304     0.6450345424    -1.3948404297
| 17>  H       -0.9646770845     0.0646235106    -0.7934378804
| 18>  H       -1.5049659536    -0.7032364521     1.4659131410
| 19>  H       -0.0982480231    -3.0721917278     0.5209393193
| 20>  H        2.2918031029    -1.2666325626     1.0314173621
| 21>  H        1.7751930349    -3.6281785956     2.7098732338
| 22>  H        2.0711766188    -2.1747538175     3.7486275196
| 23>  H       -0.7775192698    -2.3269830348     3.3778484680
| 24> *
| 25>
| 26>                          ****END OF INPUT****

CARTESIAN COORDINATES (ANGSTROEM)
---------------------------------
  C      0.299526    1.539593    0.231292
  N      1.145615    0.503258   -0.389525
  C     -0.232996    0.170489    0.007680
  C     -0.456339   -0.787882    1.145626
  C      0.106424   -2.211664    1.167989
  C      1.490608   -1.668737    1.644092
  C      1.543011   -2.573388    2.878155
  C      0.080552   -2.154563    2.724120
  N      0.485000   -0.701306    2.346985
  H      0.606344    1.823270    1.232854
  H     -0.077334    2.349075   -0.387878
  H      1.189404    0.645035   -1.394840
  H     -0.964677    0.064624   -0.793438
  H     -1.504966   -0.703236    1.465913
  H     -0.098248   -3.072192    0.520939
  H      2.291803   -1.266633    1.031417
  H      1.775193   -3.628179    2.709873
  H      2.071177   -2.174754    3.748628
  H     -0.777519   -2.326983    3.377848

 Total Charge           Charge          ....    0
 Multiplicity           Mult            ....    1
 Number of Electrons    NEL             ....   66
 Basis Dimension        Dim             ....  339

ORBITAL ENERGIES
----------------

  NO   OCC          E(Eh)            E(eV)
   0   2.0000     -15.556121      -423.3036
   1   2.0000     -15.555452      -423.2854
   2   2.0000     -11.267145      -306.5946
   3   2.0000     -11.260624      -306.4172
   4   2.0000     -11.258605      -306.3622
   5   2.0000     -11.255849      -306.2872
   6   2.0000     -11.250243      -306.1347
   7   2.0000     -11.240681      -305.8745
   8   2.0000     -11.222722      -305.3858
   9   2.0000      -1.309846       -35.6427
  10   2.0000      -1.254794       -34.1447
  11   2.0000      -1.033991       -28.1363
  12   2.0000      -0.936984       -25.4966
  13   2.0000      -0.905189       -24.6314
  14   2.0000      -0.871292       -23.7091
  15   2.0000      -0.859297       -23.3826
  16   2.0000      -0.774561       -21.0769
  17   2.0000      -0.703831       -19.1522
  18   2.0000      -0.694266       -18.8919
  19   2.0000      -0.664396       -18.0791
  20   2.0000      -0.630860       -17.1666
  21   2.0000      -0.613504       -16.6943
  22   2.0000      -0.597662       -16.2632
  23   2.0000      -0.546796       -14.8791
  24   2.0000      -0.499452       -13.5908
  25   2.0000      -0.486493       -13.2382
  26   2.0000      -0.458425       -12.4744
  27   2.0000      -0.454871       -12.3777
  28   2.0000      -0.449027       -12.2187
  29   2.0000      -0.440170       -11.9776
  30   2.0000      -0.423793       -11.5320
  31   2.0000      -0.384321       -10.4579
  32   2.0000      -0.361935        -9.8487
  33   0.0000       0.138078         3.7573
  34   0.0000       0.161799         4.4028
  35   0.0000       0.163059         4.4371
  36   0.0000       0.175230         4.7682
  37   0.0000       0.185787         5.0555

MULLIKEN ATOMIC CHARGES
-----------------------
   0 C :   -0.181250
   1 N :   -0.393422
   2 C :   -0.076354
   3 C :    0.006455
   4 C :   -0.085692
   5 C :   -0.101392
   6 C :   -0.171369
   7 C :   -0.098784
   8 N :   -0.217184
   9 H :    0.144205
  10 H :    0.123970
  11 H :    0.215198
  12 H :    0.123824
  13 H :    0.094979
  14 H :    0.107713
  15 H :    0.155778
  16 H :    0.114803
  17 H :    0.114957
  18 H :    0.123566
Sum of atomic charges:   -0.0000000

LOEWDIN ATOMIC CHARGES
----------------------
   0 C :   -0.256445
   1 N :   -0.014391
   2 C :   -0.270714
   3 C :   -0.232891
   4 C :   -0.147366
   5 C :   -0.170986
   6 C :   -0.212397
   7 C :   -0.182298
   8 N :    0.149296
   9 H :    0.131949
  10 H :    0.118599
  11 H :    0.163894
  12 H :    0.140350
  13 H :    0.145964
  14 H :    0.121322
  15 H :    0.129257
  16 H :    0.131139
  17 H :    0.132092
  18 H :    0.123624

  Mayer bond orders larger than 0.1
B(  0-C ,  1-N ) :   0.9345 B(  0-C ,  2-C ) :   0.9261 B(  0-C ,  9-H ) :   0.9097
B(  0-C , 10-H ) :   0.9263 B(  1-N ,  2-C ) :   0.9022 B(  1-N , 11-H ) :   0.8666
B(  2-C ,  3-C ) :   0.9124 B(  2-C , 12-H ) :   0.9274 B(  3-C ,  4-C ) :   0.9429
B(  3-C ,  8-N ) :   0.9302 B(  3-C , 13-H ) :   0.9166 B(  4-C ,  5-C ) :   0.9172
B(  4-C ,  7-C ) :   0.8953 B(  4-C , 14-H ) :   0.9049 B(  5-C ,  6-C ) :   0.9164
B(  5-C ,  8-N ) :   0.8961 B(  5-C , 15-H ) :   0.8879 B(  6-C ,  7-C ) :   0.9330
B(  6-C , 16-H ) :   0.9267 B(  6-C , 17-H ) :   0.9108 B(  7-C ,  8-N ) :   0.8859
B(  7-C , 18-H ) :   0.8974

MP2 TOTAL ENERGY:     -381.261945827 Eh
FINAL SINGLE POINT ENERGY      -381.261945827196

DIPOLE MOMENT
-------------
                                X             Y             Z
Electronic contribution:     -0.04060      -0.43798       0.52352
Nuclear contribution   :     -0.47838       0.17482      -1.23831
                        -----------------------------------------
Total Dipole Moment    :     -0.51898      -0.26316      -0.71479
                        -----------------------------------------
Magnitude (a.u.)       :      0.92169
Magnitude (Debye)      :      2.34275

                             ****ORCA TERMINATED NORMALLY****
TOTAL RUN TIME: 0 days 0 hours 18 minutes 56 seconds 46 msec
