                         Program Version 3.0.3 - RELEASE   -
|  1> ! RI-MP2 RIJK def2-TZVP def2-TZVP/C def2-TZVP/JK TIGHTSCF
|  2> % maxcore 2000
|  3> % mp2 density relaxed end
|  4> *xyz 0 1
|  5>  C        0.1726592485     1.6196552685    -0.0303313139
|  6>  C       -0.0250408359     0.0983180842    -0.0158760768
|  7>  C        0.5791901704    -0.5523336065    -1.2796448529
|  8>  C        0.6634822994    -2.0712895164    -1.1874663563
|  9>  N        1.9903515903    -2.6326366821    -0.8336110915
| 10>  C        0.8670785097    -2.7093398166     0.1379790084
| 11>  C        0.2641859202    -4.0665611937     0.4340256167
| 12>  C        0.9747822058    -1.7854480741     1.3032627365
| 13>  C        0.5506223464    -0.5244330979     1.2391201449
| 14>  H        1.2382895098     1.8741555073    -0.0095582542
| 15>  H       -0.2606034829     2.0639774400    -0.9325328104
| 16>  H       -0.3017060786     2.0907177775     0.8371284336
| 17>  H       -1.1099961002    -0.0929944632    -0.0171477822
| 18>  H       -0.0060903978    -0.2579224251    -2.1581769561
| 19>  H        1.5930893414    -0.1631129800    -1.4230297859
| 20>  H        0.0745071434    -2.6306564475    -1.9113312218
| 21>  H        2.1031369682    -3.5418432066    -1.2801803185
| 22>  H        0.1637506464    -4.6611048706    -0.4804427417
| 23>  H        0.8913004994    -4.6284136680     1.1367259195
| 24>  H       -0.7293951499    -3.9686126248     0.8846795652
| 25>  H        1.3911886608    -2.1877349776     2.2243419267
| 26>  H        0.6141924451     0.1125903933     2.1191868309
| 27> *
| 28>
| 29>                          ****END OF INPUT****

CARTESIAN COORDINATES (ANGSTROEM)
---------------------------------
  C      0.172659    1.619655   -0.030331
  C     -0.025041    0.098318   -0.015876
  C      0.579190   -0.552334   -1.279645
  C      0.663482   -2.071290   -1.187466
  N      1.990352   -2.632637   -0.833611
  C      0.867079   -2.709340    0.137979
  C      0.264186   -4.066561    0.434026
  C      0.974782   -1.785448    1.303263
  C      0.550622   -0.524433    1.239120
  H      1.238290    1.874156   -0.009558
  H     -0.260603    2.063977   -0.932533
  H     -0.301706    2.090718    0.837128
  H     -1.109996   -0.092994   -0.017148
  H     -0.006090   -0.257922   -2.158177
  H      1.593089   -0.163113   -1.423030
  H      0.074507   -2.630656   -1.911331
  H      2.103137   -3.541843   -1.280180
  H      0.163751   -4.661105   -0.480443
  H      0.891300   -4.628414    1.136726
  H     -0.729395   -3.968613    0.884680
  H      1.391189   -2.187735    2.224342
  H      0.614192    0.112590    2.119187

 Total Charge           Charge          ....    0
 Multiplicity           Mult            ....    1
 Number of Electrons    NEL             ....   68
 Basis Dimension        Dim             ....  357

ORBITAL ENERGIES
----------------

  NO   OCC          E(Eh)            E(eV)
   0   2.0000     -15.548831      -423.1052
   1   2.0000     -11.261190      -306.4326
   2   2.0000     -11.251642      -306.1727
   3   2.0000     -11.230364      -305.5937
   4   2.0000     -11.224929      -305.4458
   5   2.0000     -11.222981      -305.3928
   6   2.0000     -11.219091      -305.2870
   7   2.0000     -11.217592      -305.2462
   8   2.0000     -11.213464      -305.1339
   9   2.0000      -1.259390       -34.2698
  10   2.0000      -1.098033       -29.8790
  11   2.0000      -1.028770       -27.9943
  12   2.0000      -0.974590       -26.5199
  13   2.0000      -0.959000       -26.0957
  14   2.0000      -0.863082       -23.4857
  15   2.0000      -0.811837       -22.0912
  16   2.0000      -0.797976       -21.7140
  17   2.0000      -0.701015       -19.0756
  18   2.0000      -0.657782       -17.8992
  19   2.0000      -0.633751       -17.2452
  20   2.0000      -0.626899       -17.0588
  21   2.0000      -0.604757       -16.4563
  22   2.0000      -0.574361       -15.6291
  23   2.0000      -0.557594       -15.1729
  24   2.0000      -0.541049       -14.7227
  25   2.0000      -0.535671       -14.5764
  26   2.0000      -0.521901       -14.2016
  27   2.0000      -0.499683       -13.5971
  28   2.0000      -0.479598       -13.0505
  29   2.0000      -0.462884       -12.5957
  30   2.0000      -0.452888       -12.3237
  31   2.0000      -0.434267       -11.8170
  32   2.0000      -0.376858       -10.2548
  33   2.0000      -0.342052        -9.3077
  34   0.0000       0.130597         3.5537
  35   0.0000       0.144237         3.9249
  36   0.0000       0.159627         4.3437
  37   0.0000       0.169777         4.6199
  38   0.0000       0.174355         4.7444

MULLIKEN ATOMIC CHARGES
-----------------------
   0 C :   -0.424125
   1 C :    0.041775
   2 C :   -0.242289
   3 C :   -0.110557
   4 N :   -0.397868
   5 C :    0.247753
   6 C :   -0.396029
   7 C :   -0.223351
   8 C :   -0.184792
   9 H :    0.133672
  10 H :    0.130605
  11 H :    0.131726
  12 H :    0.093931
  13 H :    0.114888
  14 H :    0.122720
  15 H :    0.123375
  16 H :    0.208395
  17 H :    0.122341
  18 H :    0.137134
  19 H :    0.138069
  20 H :    0.114243
  21 H :    0.118383
Sum of atomic charges:   -0.0000000

LOEWDIN ATOMIC CHARGES
----------------------
   0 C :   -0.292673
   1 C :   -0.261172
   2 C :   -0.214278
   3 C :   -0.225455
   4 N :    0.022805
   5 C :   -0.297321
   6 C :   -0.270954
   7 C :   -0.124543
   8 C :   -0.131826
   9 H :    0.125474
  10 H :    0.123121
  11 H :    0.122477
  12 H :    0.158286
  13 H :    0.138909
  14 H :    0.150503
  15 H :    0.136643
  16 H :    0.163074
  17 H :    0.125659
  18 H :    0.128740
  19 H :    0.131851
  20 H :    0.145772
  21 H :    0.144908

  Mayer bond orders larger than 0.1
B(  0-C ,  1-C ) :   0.8943 B(  0-C ,  9-H ) :   0.9366 B(  0-C , 10-H ) :   0.9401
B(  0-C , 11-H ) :   0.9399 B(  1-C ,  2-C ) :   0.9540 B(  1-C ,  8-C ) :   0.9051
B(  1-C , 12-H ) :   0.9124 B(  2-C ,  3-C ) :   0.8902 B(  2-C , 13-H ) :   0.9286
B(  2-C , 14-H ) :   0.9076 B(  3-C ,  4-N ) :   1.0181 B(  3-C ,  5-C ) :   0.9068
B(  3-C , 15-H ) :   0.9261 B(  4-N ,  5-C ) :   0.8411 B(  4-N , 16-H ) :   0.8695
B(  5-C ,  6-C ) :   0.9186 B(  5-C ,  7-C ) :   0.9375 B(  6-C , 17-H ) :   0.9258
B(  6-C , 18-H ) :   0.9401 B(  6-C , 19-H ) :   0.9265 B(  7-C ,  8-C ) :   1.8149
B(  7-C , 20-H ) :   0.9283 B(  8-C , 21-H ) :   0.9275

MP2 TOTAL ENERGY:     -366.544539012 Eh
FINAL SINGLE POINT ENERGY      -366.544539012124

DIPOLE MOMENT
-------------
                                X             Y             Z
Electronic contribution:      2.19286      -2.41486       0.30207
Nuclear contribution   :     -2.81799       2.11746      -0.41018
                        -----------------------------------------
Total Dipole Moment    :     -0.62514      -0.29741      -0.10811
                        -----------------------------------------
Magnitude (a.u.)       :      0.70066
Magnitude (Debye)      :      1.78095

                             ****ORCA TERMINATED NORMALLY****
TOTAL RUN TIME: 0 days 0 hours 19 minutes 35 seconds 985 msec
