                         Program Version 3.0.3 - RELEASE   -
|  1> ! RI-MP2 RIJK def2-TZVP def2-TZVP/C def2-TZVP/JK TIGHTSCF
|  2> % maxcore 2000
|  3> % mp2 density relaxed end
|  4> *xyz 0 1
|  5>  O       -0.0795744544     1.3727839779    -0.0445959522
|  6>  C       -0.0612270235    -0.0175772873     0.0393832560
|  7>  C       -0.5328362316    -0.6983939773     1.3100968557
|  8>  C       -0.9123907667     0.0997815709     2.5028167037
|  9>  O       -0.7705411757    -0.3033481590     3.6318297176
| 10>  C       -1.3971456412    -0.6900947863     0.0140632492
| 11>  C       -2.6578667426     0.1005805810    -0.0771960434
| 12>  O       -3.6588660883    -0.3409947723    -0.5848518628
| 13>  H        0.7147407333     1.7160005052     0.3790155935
| 14>  H        0.7462454727    -0.5085612473    -0.5024772075
| 15>  H       -0.0945467307    -1.6591837772     1.5583511705
| 16>  H       -1.3159715281     1.1124061237     2.3013734676
| 17>  H       -1.4666096728    -1.6503594574    -0.4847558758
| 18>  H       -2.6218209204     1.1283941154     0.3308725380
| 19> *
| 20>
| 21>                          ****END OF INPUT****

CARTESIAN COORDINATES (ANGSTROEM)
---------------------------------
  O     -0.079574    1.372784   -0.044596
  C     -0.061227   -0.017577    0.039383
  C     -0.532836   -0.698394    1.310097
  C     -0.912391    0.099782    2.502817
  O     -0.770541   -0.303348    3.631830
  C     -1.397146   -0.690095    0.014063
  C     -2.657867    0.100581   -0.077196
  O     -3.658866   -0.340995   -0.584852
  H      0.714741    1.716001    0.379016
  H      0.746245   -0.508561   -0.502477
  H     -0.094547   -1.659184    1.558351
  H     -1.315972    1.112406    2.301373
  H     -1.466610   -1.650359   -0.484756
  H     -2.621821    1.128394    0.330873

 Total Charge           Charge          ....    0
 Multiplicity           Mult            ....    1
 Number of Electrons    NEL             ....   60
 Basis Dimension        Dim             ....  284

ORBITAL ENERGIES
----------------

  NO   OCC          E(Eh)            E(eV)
   0   2.0000     -20.608137      -560.7759
   1   2.0000     -20.569095      -559.7135
   2   2.0000     -20.565914      -559.6270
   3   2.0000     -11.349925      -308.8472
   4   2.0000     -11.346470      -308.7531
   5   2.0000     -11.338430      -308.5344
   6   2.0000     -11.279291      -306.9251
   7   2.0000     -11.278756      -306.9106
   8   2.0000      -1.422089       -38.6970
   9   2.0000      -1.407139       -38.2902
  10   2.0000      -1.404458       -38.2173
  11   2.0000      -1.182732       -32.1838
  12   2.0000      -0.959817       -26.1180
  13   2.0000      -0.915923       -24.9235
  14   2.0000      -0.830245       -22.5921
  15   2.0000      -0.781481       -21.2652
  16   2.0000      -0.742814       -20.2130
  17   2.0000      -0.735563       -20.0157
  18   2.0000      -0.678344       -18.4587
  19   2.0000      -0.651944       -17.7403
  20   2.0000      -0.645223       -17.5574
  21   2.0000      -0.614704       -16.7269
  22   2.0000      -0.603056       -16.4100
  23   2.0000      -0.585428       -15.9303
  24   2.0000      -0.547311       -14.8931
  25   2.0000      -0.541197       -14.7267
  26   2.0000      -0.471193       -12.8218
  27   2.0000      -0.451983       -12.2991
  28   2.0000      -0.435308       -11.8453
  29   2.0000      -0.420599       -11.4451
  30   0.0000       0.099539         2.7086
  31   0.0000       0.115282         3.1370
  32   0.0000       0.127246         3.4625
  33   0.0000       0.133597         3.6354
  34   0.0000       0.174729         4.7546

MULLIKEN ATOMIC CHARGES
-----------------------
   0 O :   -0.459065
   1 C :    0.024790
   2 C :   -0.078156
   3 C :    0.034574
   4 O :   -0.260938
   5 C :   -0.062882
   6 C :    0.065016
   7 O :   -0.260403
   8 H :    0.334983
   9 H :    0.138073
  10 H :    0.151802
  11 H :    0.107023
  12 H :    0.155409
  13 H :    0.109775
Sum of atomic charges:   -0.0000000

LOEWDIN ATOMIC CHARGES
----------------------
   0 O :    0.016594
   1 C :   -0.287921
   2 C :   -0.171094
   3 C :   -0.289881
   4 O :    0.135632
   5 C :   -0.163167
   6 C :   -0.276388
   7 O :    0.138862
   8 H :    0.189727
   9 H :    0.141788
  10 H :    0.162294
  11 H :    0.118524
  12 H :    0.164539
  13 H :    0.120491

  Mayer bond orders larger than 0.1
B(  0-O ,  1-C ) :   1.0430 B(  0-O ,  8-H ) :   0.8340 B(  1-C ,  2-C ) :   0.8196
B(  1-C ,  5-C ) :   0.8360 B(  1-C ,  9-H ) :   0.9399 B(  2-C ,  3-C ) :   0.8996
B(  2-C ,  5-C ) :   0.7489 B(  2-C , 10-H ) :   0.9053 B(  3-C ,  4-O ) :   1.9728
B(  3-C , 11-H ) :   0.9477 B(  5-C ,  6-C ) :   0.9157 B(  5-C , 12-H ) :   0.9062
B(  6-C ,  7-O ) :   1.9678 B(  6-C , 13-H ) :   0.9372

MP2 TOTAL ENERGY:     -418.997825308 Eh
FINAL SINGLE POINT ENERGY      -418.997825308345

DIPOLE MOMENT
-------------
                                X             Y             Z
Electronic contribution:     -1.79046      -0.04176       0.96681
Nuclear contribution   :      3.25583       0.27453      -1.42570
                        -----------------------------------------
Total Dipole Moment    :      1.46538       0.23277      -0.45888
                        -----------------------------------------
Magnitude (a.u.)       :      1.55309
Magnitude (Debye)      :      3.94764

                             ****ORCA TERMINATED NORMALLY****
TOTAL RUN TIME: 0 days 0 hours 10 minutes 46 seconds 282 msec
