                         Program Version 3.0.3 - RELEASE   -
|  1> ! RI-MP2 RIJK def2-TZVP def2-TZVP/C def2-TZVP/JK TIGHTSCF
|  2> % maxcore 2000
|  3> % mp2 density relaxed end
|  4> *xyz 0 1
|  5>  C       -0.0091934301     1.5353996008    -0.0484853694
|  6>  C        0.0032304907     0.0140352965     0.0363191783
|  7>  O        0.6749508149    -0.4625336120     1.1966787943
|  8>  C       -1.4203625764    -0.5835256196     0.0046373386
|  9>  O       -2.1068974659    -0.1776795785    -1.1823371822
| 10>  C       -2.5187566842    -1.2775635308    -1.8905164209
| 11>  N       -3.1476161129    -1.1223398546    -2.9792026472
| 12>  C       -2.0848257400    -2.4725396694    -1.1413574743
| 13>  C       -1.4485865410    -2.0835379753    -0.0374150757
| 14>  H        1.0134297449     1.9219512521    -0.0412495028
| 15>  H       -0.5111672583     1.8657891274    -0.9606762506
| 16>  H       -0.5485067013     1.9659571639     0.8056919335
| 17>  H        0.5563364367    -0.4002268618    -0.8142966137
| 18>  H        0.3932419677     0.0771521798     1.9435476009
| 19>  H       -1.9754139636    -0.1946134651     0.8739830488
| 20>  H       -3.3805826184    -2.0303544286    -3.3767574299
| 21>  H       -2.2735618698    -3.4804685416    -1.4838515296
| 22>  H       -0.9893314529    -2.6943018732     0.7266438820
| 23> *
| 24>
| 25>                          ****END OF INPUT****

CARTESIAN COORDINATES (ANGSTROEM)
---------------------------------
  C     -0.009193    1.535400   -0.048485
  C      0.003230    0.014035    0.036319
  O      0.674951   -0.462534    1.196679
  C     -1.420363   -0.583526    0.004637
  O     -2.106897   -0.177680   -1.182337
  C     -2.518757   -1.277564   -1.890516
  N     -3.147616   -1.122340   -2.979203
  C     -2.084826   -2.472540   -1.141357
  C     -1.448587   -2.083538   -0.037415
  H      1.013430    1.921951   -0.041250
  H     -0.511167    1.865789   -0.960676
  H     -0.548507    1.965957    0.805692
  H      0.556336   -0.400227   -0.814297
  H      0.393242    0.077152    1.943548
  H     -1.975414   -0.194613    0.873983
  H     -3.380583   -2.030354   -3.376757
  H     -2.273562   -3.480469   -1.483852
  H     -0.989331   -2.694302    0.726644

 Total Charge           Charge          ....    0
 Multiplicity           Mult            ....    1
 Number of Electrons    NEL             ....   68
 Basis Dimension        Dim             ....  333

ORBITAL ENERGIES
----------------

  NO   OCC          E(Eh)            E(eV)
   0   2.0000     -20.590687      -560.3011
   1   2.0000     -20.572957      -559.8186
   2   2.0000     -15.530890      -422.6170
   3   2.0000     -11.339622      -308.5668
   4   2.0000     -11.307139      -307.6829
   5   2.0000     -11.297593      -307.4231
   6   2.0000     -11.267315      -306.5992
   7   2.0000     -11.255906      -306.2888
   8   2.0000     -11.227207      -305.5078
   9   2.0000      -1.433859       -39.0173
  10   2.0000      -1.379432       -37.5363
  11   2.0000      -1.195362       -32.5275
  12   2.0000      -1.105795       -30.0902
  13   2.0000      -1.046129       -28.4666
  14   2.0000      -0.959530       -26.1101
  15   2.0000      -0.852153       -23.1883
  16   2.0000      -0.813206       -22.1285
  17   2.0000      -0.783191       -21.3117
  18   2.0000      -0.725932       -19.7536
  19   2.0000      -0.689312       -18.7571
  20   2.0000      -0.661072       -17.9887
  21   2.0000      -0.641521       -17.4567
  22   2.0000      -0.625273       -17.0145
  23   2.0000      -0.606319       -16.4988
  24   2.0000      -0.589515       -16.0415
  25   2.0000      -0.554282       -15.0828
  26   2.0000      -0.553612       -15.0645
  27   2.0000      -0.533132       -14.5073
  28   2.0000      -0.527734       -14.3604
  29   2.0000      -0.488619       -13.2960
  30   2.0000      -0.462197       -12.5770
  31   2.0000      -0.439220       -11.9518
  32   2.0000      -0.431068       -11.7299
  33   2.0000      -0.361802        -9.8451
  34   0.0000       0.098875         2.6905
  35   0.0000       0.126832         3.4513
  36   0.0000       0.146485         3.9860
  37   0.0000       0.164759         4.4833
  38   0.0000       0.174641         4.7522

MULLIKEN ATOMIC CHARGES
-----------------------
   0 C :   -0.407228
   1 C :    0.085152
   2 O :   -0.473939
   3 C :    0.109069
   4 O :   -0.256039
   5 C :    0.154619
   6 N :   -0.328630
   7 C :   -0.167671
   8 C :   -0.200762
   9 H :    0.151144
  10 H :    0.163616
  11 H :    0.113513
  12 H :    0.103575
  13 H :    0.316586
  14 H :    0.107773
  15 H :    0.220887
  16 H :    0.155839
  17 H :    0.152497
Sum of atomic charges:   -0.0000000

LOEWDIN ATOMIC CHARGES
----------------------
   0 C :   -0.299748
   1 C :   -0.348076
   2 O :   -0.013310
   3 C :   -0.264378
   4 O :    0.281974
   5 C :   -0.395840
   6 N :   -0.056391
   7 C :   -0.130276
   8 C :   -0.104793
   9 H :    0.128341
  10 H :    0.137639
  11 H :    0.122494
  12 H :    0.150484
  13 H :    0.176513
  14 H :    0.151144
  15 H :    0.168303
  16 H :    0.146815
  17 H :    0.149105

  Mayer bond orders larger than 0.1
B(  0-C ,  1-C ) :   0.9545 B(  0-C ,  9-H ) :   0.9392 B(  0-C , 10-H ) :   0.9295
B(  0-C , 11-H ) :   0.9143 B(  1-C ,  2-O ) :   0.9190 B(  1-C ,  3-C ) :   0.8963
B(  1-C , 12-H ) :   0.9085 B(  2-O , 13-H ) :   0.8398 B(  3-C ,  4-O ) :   0.8900
B(  3-C ,  8-C ) :   0.9711 B(  3-C , 14-H ) :   0.8904 B(  4-O ,  5-C ) :   1.0687
B(  5-C ,  6-N ) :   1.9910 B(  5-C ,  7-C ) :   0.9995 B(  6-N , 15-H ) :   0.8574
B(  7-C ,  8-C ) :   1.7309 B(  7-C , 16-H ) :   0.9060 B(  8-C , 17-H ) :   0.9098

MP2 TOTAL ENERGY:     -438.381536778 Eh
FINAL SINGLE POINT ENERGY      -438.381536778057

DIPOLE MOMENT
-------------
                                X             Y             Z
Electronic contribution:     -3.36998      -3.56812      -2.13970
Nuclear contribution   :      3.69946       3.02867       3.18904
                        -----------------------------------------
Total Dipole Moment    :      0.32949      -0.53945       1.04934
                        -----------------------------------------
Magnitude (a.u.)       :      1.22502
Magnitude (Debye)      :      3.11376

                             ****ORCA TERMINATED NORMALLY****
TOTAL RUN TIME: 0 days 0 hours 17 minutes 8 seconds 591 msec
