                         Program Version 3.0.3 - RELEASE   -
|  1> ! RI-MP2 RIJK def2-TZVP def2-TZVP/C def2-TZVP/JK TIGHTSCF
|  2> % maxcore 2000
|  3> % mp2 density relaxed end
|  4> *xyz 0 1
|  5>  C        0.0170774975     1.4618460352     0.0073021050
|  6>  C       -0.0151807204    -0.0463648951     0.0019810212
|  7>  C       -1.1455899624    -0.7504859151    -0.7273152271
|  8>  C       -0.7268951046    -2.2220638970    -0.6937311489
|  9>  C       -0.9015634003    -2.8152383562     0.7365868039
| 10>  C        0.5156328274    -2.3017508036     1.0585459940
| 11>  C        0.6818228144    -0.7711304741     1.1031154385
| 12>  N        1.2800927175    -0.7053440924    -0.2983583169
| 13>  C        0.8323545794    -2.1482678930    -0.4466419096
| 14>  H        0.9368361381     1.8313448619     0.4681744764
| 15>  H       -0.0263018389     1.8506536805    -1.0158824705
| 16>  H       -0.8346698381     1.8692262170     0.5628660040
| 17>  H       -2.1236237097    -0.5834608295    -0.2631239299
| 18>  H       -1.1952030506    -0.3673407351    -1.7542816356
| 19>  H       -1.1005449464    -2.8111491119    -1.5316200008
| 20>  H       -1.7402446536    -2.4413424617     1.3327196637
| 21>  H       -0.9304039817    -3.9087498673     0.7266827670
| 22>  H        1.1623373697    -2.8427104759     1.7492398526
| 23>  H        1.1350871445    -0.2268073227     1.9272402919
| 24>  H        1.5102180580    -2.7841215338    -1.0120763788
| 25> *
| 26>
| 27>                          ****END OF INPUT****

CARTESIAN COORDINATES (ANGSTROEM)
---------------------------------
  C      0.017077    1.461846    0.007302
  C     -0.015181   -0.046365    0.001981
  C     -1.145590   -0.750486   -0.727315
  C     -0.726895   -2.222064   -0.693731
  C     -0.901563   -2.815238    0.736587
  C      0.515633   -2.301751    1.058546
  C      0.681823   -0.771130    1.103115
  N      1.280093   -0.705344   -0.298358
  C      0.832355   -2.148268   -0.446642
  H      0.936836    1.831345    0.468174
  H     -0.026302    1.850654   -1.015882
  H     -0.834670    1.869226    0.562866
  H     -2.123624   -0.583461   -0.263124
  H     -1.195203   -0.367341   -1.754282
  H     -1.100545   -2.811149   -1.531620
  H     -1.740245   -2.441342    1.332720
  H     -0.930404   -3.908750    0.726683
  H      1.162337   -2.842710    1.749240
  H      1.135087   -0.226807    1.927240
  H      1.510218   -2.784122   -1.012076

 Total Charge           Charge          ....    0
 Multiplicity           Mult            ....    1
 Number of Electrons    NEL             ....   66
 Basis Dimension        Dim             ....  345

ORBITAL ENERGIES
----------------

  NO   OCC          E(Eh)            E(eV)
   0   2.0000     -15.547674      -423.0737
   1   2.0000     -11.261376      -306.4376
   2   2.0000     -11.255206      -306.2697
   3   2.0000     -11.251867      -306.1789
   4   2.0000     -11.231509      -305.6249
   5   2.0000     -11.230950      -305.6097
   6   2.0000     -11.224093      -305.4231
   7   2.0000     -11.222523      -305.3804
   8   2.0000     -11.216263      -305.2100
   9   2.0000      -1.299256       -35.3546
  10   2.0000      -1.104739       -30.0615
  11   2.0000      -1.037101       -28.2209
  12   2.0000      -0.966704       -26.3054
  13   2.0000      -0.908742       -24.7281
  14   2.0000      -0.872172       -23.7330
  15   2.0000      -0.805933       -21.9306
  16   2.0000      -0.748558       -20.3693
  17   2.0000      -0.704634       -19.1741
  18   2.0000      -0.687048       -18.6955
  19   2.0000      -0.614482       -16.7209
  20   2.0000      -0.601440       -16.3660
  21   2.0000      -0.590931       -16.0800
  22   2.0000      -0.576048       -15.6751
  23   2.0000      -0.562340       -15.3021
  24   2.0000      -0.542011       -14.7489
  25   2.0000      -0.526699       -14.3322
  26   2.0000      -0.500056       -13.6072
  27   2.0000      -0.465583       -12.6692
  28   2.0000      -0.457933       -12.4610
  29   2.0000      -0.429279       -11.6813
  30   2.0000      -0.420633       -11.4460
  31   2.0000      -0.391184       -10.6447
  32   2.0000      -0.350698        -9.5430
  33   0.0000       0.140312         3.8181
  34   0.0000       0.153805         4.1852
  35   0.0000       0.160808         4.3758
  36   0.0000       0.169497         4.6123
  37   0.0000       0.192042         5.2257

MULLIKEN ATOMIC CHARGES
-----------------------
   0 C :   -0.447908
   1 C :    0.166825
   2 C :   -0.248917
   3 C :    0.038177
   4 C :   -0.322175
   5 C :   -0.008564
   6 C :   -0.165375
   7 N :   -0.250770
   8 C :   -0.123065
   9 H :    0.143939
  10 H :    0.131614
  11 H :    0.129986
  12 H :    0.118255
  13 H :    0.114499
  14 H :    0.122604
  15 H :    0.109988
  16 H :    0.118049
  17 H :    0.122163
  18 H :    0.124603
  19 H :    0.126072
Sum of atomic charges:   -0.0000000

LOEWDIN ATOMIC CHARGES
----------------------
   0 C :   -0.262146
   1 C :   -0.293405
   2 C :   -0.194269
   3 C :   -0.187237
   4 C :   -0.202202
   5 C :   -0.182056
   6 C :   -0.149315
   7 N :    0.147298
   8 C :   -0.158298
   9 H :    0.133457
  10 H :    0.129410
  11 H :    0.127864
  12 H :    0.143339
  13 H :    0.145430
  14 H :    0.137370
  15 H :    0.125887
  16 H :    0.136128
  17 H :    0.138146
  18 H :    0.134205
  19 H :    0.130394

  Mayer bond orders larger than 0.1
B(  0-C ,  1-C ) :   0.8698 B(  0-C ,  9-H ) :   0.9398 B(  0-C , 10-H ) :   0.9395
B(  0-C , 11-H ) :   0.9391 B(  1-C ,  2-C ) :   0.9574 B(  1-C ,  6-C ) :   0.9430
B(  1-C ,  7-N ) :   0.8441 B(  2-C ,  3-C ) :   0.9026 B(  2-C , 12-H ) :   0.9151
B(  2-C , 13-H ) :   0.9112 B(  3-C ,  4-C ) :   0.9013 B(  3-C ,  8-C ) :   0.8887
B(  3-C , 14-H ) :   0.9216 B(  4-C ,  5-C ) :   0.9039 B(  4-C , 15-H ) :   0.9177
B(  4-C , 16-H ) :   0.9215 B(  5-C ,  6-C ) :   0.8645 B(  5-C ,  8-C ) :   0.9277
B(  5-C , 17-H ) :   0.9270 B(  6-C ,  7-N ) :   0.8658 B(  6-C , 18-H ) :   0.9033
B(  7-N ,  8-C ) :   0.9759 B(  8-C , 19-H ) :   0.9129

MP2 TOTAL ENERGY:     -365.313793788 Eh
FINAL SINGLE POINT ENERGY      -365.313793787967

DIPOLE MOMENT
-------------
                                X             Y             Z
Electronic contribution:      2.90909      -2.03576      -0.09317
Nuclear contribution   :     -3.49387       1.77976       0.30443
                        -----------------------------------------
Total Dipole Moment    :     -0.58478      -0.25600       0.21127
                        -----------------------------------------
Magnitude (a.u.)       :      0.67241
Magnitude (Debye)      :      1.70913

                             ****ORCA TERMINATED NORMALLY****
TOTAL RUN TIME: 0 days 0 hours 22 minutes 4 seconds 729 msec
