                         Program Version 3.0.3 - RELEASE   -
|  1> ! RI-MP2 RIJK def2-TZVP def2-TZVP/C def2-TZVP/JK TIGHTSCF
|  2> % maxcore 2000
|  3> % mp2 density relaxed end
|  4> *xyz 0 1
|  5>  O       -0.0786568600    -0.0272032302    -0.0025025435
|  6>  C       -0.0112024771     1.1776288728     0.0069172615
|  7>  C        1.2615114505     1.9450685126    -0.0006377012
|  8>  C        2.4944787324     1.2897579276    -0.0198688150
|  9>  C        3.6503991387     2.0598038072    -0.0260906541
| 10>  N        3.6505458764     3.3986777990    -0.0146623782
| 11>  C        2.4669981700     4.0152110937     0.0036889850
| 12>  C        1.2493404214     3.3387673101     0.0113867305
| 13>  H       -0.9277723294     1.8081157174     0.0223432183
| 14>  H        2.5286906465     0.2066376804    -0.0294767730
| 15>  H        4.6275076602     1.5836707431    -0.0409839262
| 16>  H        2.4921745508     5.1020486376     0.0127157407
| 17>  H        0.3116029596     3.8861383988     0.0264210552
| 18> *
| 19>
| 20>                          ****END OF INPUT****

CARTESIAN COORDINATES (ANGSTROEM)
---------------------------------
  O     -0.078657   -0.027203   -0.002503
  C     -0.011202    1.177629    0.006917
  C      1.261511    1.945069   -0.000638
  C      2.494479    1.289758   -0.019869
  C      3.650399    2.059804   -0.026091
  N      3.650546    3.398678   -0.014662
  C      2.466998    4.015211    0.003689
  C      1.249340    3.338767    0.011387
  H     -0.927772    1.808116    0.022343
  H      2.528691    0.206638   -0.029477
  H      4.627508    1.583671   -0.040984
  H      2.492175    5.102049    0.012716
  H      0.311603    3.886138    0.026421

 Total Charge           Charge          ....    0
 Multiplicity           Mult            ....    1
 Number of Electrons    NEL             ....   56
 Basis Dimension        Dim             ....  278

ORBITAL ENERGIES
----------------

  NO   OCC          E(Eh)            E(eV)
   0   2.0000     -20.573176      -559.8246
   1   2.0000     -15.585260      -424.0965
   2   2.0000     -11.350627      -308.8663
   3   2.0000     -11.290219      -307.2225
   4   2.0000     -11.287421      -307.1464
   5   2.0000     -11.276619      -306.8524
   6   2.0000     -11.265906      -306.5609
   7   2.0000     -11.258608      -306.3623
   8   2.0000      -1.410843       -38.3910
   9   2.0000      -1.275571       -34.7100
  10   2.0000      -1.120936       -30.5022
  11   2.0000      -1.051634       -28.6164
  12   2.0000      -0.929861       -25.3028
  13   2.0000      -0.877517       -23.8785
  14   2.0000      -0.813742       -22.1431
  15   2.0000      -0.732199       -19.9241
  16   2.0000      -0.696613       -18.9558
  17   2.0000      -0.669936       -18.2299
  18   2.0000      -0.646506       -17.5923
  19   2.0000      -0.625791       -17.0286
  20   2.0000      -0.613900       -16.7051
  21   2.0000      -0.577251       -15.7078
  22   2.0000      -0.537425       -14.6241
  23   2.0000      -0.534569       -14.5464
  24   2.0000      -0.453802       -12.3486
  25   2.0000      -0.432849       -11.7784
  26   2.0000      -0.398668       -10.8483
  27   2.0000      -0.363727        -9.8975
  28   0.0000       0.045185         1.2296
  29   0.0000       0.102932         2.8009
  30   0.0000       0.148575         4.0429
  31   0.0000       0.165766         4.5107
  32   0.0000       0.173419         4.7190

MULLIKEN ATOMIC CHARGES
-----------------------
   0 O :   -0.264050
   1 C :    0.079213
   2 C :    0.040807
   3 C :   -0.118791
   4 C :   -0.016533
   5 N :   -0.235966
   6 C :   -0.036131
   7 C :   -0.116201
   8 H :    0.087929
   9 H :    0.162390
  10 H :    0.138930
  11 H :    0.137652
  12 H :    0.140752
Sum of atomic charges:   -0.0000000

LOEWDIN ATOMIC CHARGES
----------------------
   0 O :    0.145047
   1 C :   -0.252540
   2 C :   -0.155563
   3 C :   -0.088175
   4 C :   -0.196562
   5 N :    0.138933
   6 C :   -0.200856
   7 C :   -0.107374
   8 H :    0.119050
   9 H :    0.160180
  10 H :    0.142303
  11 H :    0.141718
  12 H :    0.153839

  Mayer bond orders larger than 0.1
B(  0-O ,  1-C ) :   1.9797 B(  0-O ,  2-C ) :  -0.1043 B(  1-C ,  2-C ) :   0.8541
B(  1-C ,  8-H ) :   0.9700 B(  2-C ,  3-C ) :   1.2996 B(  2-C ,  7-C ) :   1.2967
B(  3-C ,  4-C ) :   1.3147 B(  3-C ,  9-H ) :   0.9055 B(  4-C ,  5-N ) :   1.3636
B(  4-C , 10-H ) :   0.9441 B(  5-N ,  6-C ) :   1.3982 B(  6-C ,  7-C ) :   1.3063
B(  6-C , 11-H ) :   0.9428 B(  7-C , 12-H ) :   0.9148

MP2 TOTAL ENERGY:     -360.893021881 Eh
FINAL SINGLE POINT ENERGY      -360.893021880592

DIPOLE MOMENT
-------------
                                X             Y             Z
Electronic contribution:     -0.34949      -1.32707      -0.00737
Nuclear contribution   :      0.02853       1.88980       0.01565
                        -----------------------------------------
Total Dipole Moment    :     -0.32095       0.56272       0.00827
                        -----------------------------------------
Magnitude (a.u.)       :      0.64787
Magnitude (Debye)      :      1.64676

                             ****ORCA TERMINATED NORMALLY****
TOTAL RUN TIME: 0 days 0 hours 10 minutes 26 seconds 680 msec
