                         Program Version 3.0.3 - RELEASE   -
|  1> ! RI-MP2 RIJK def2-TZVP def2-TZVP/C def2-TZVP/JK TIGHTSCF
|  2> % maxcore 2000
|  3> % mp2 density relaxed end
|  4> *xyz 0 1
|  5>  C       -0.2971935411     1.5570176125    -0.0225267782
|  6>  C       -0.1885890706     0.0178680315    -0.0332813312
|  7>  C        0.7289727461    -0.4109256937     1.1546531811
|  8>  O        1.0265821435    -1.7881742819     1.1817790866
|  9>  C       -1.5232446759    -0.5619572209     0.1392160441
| 10>  C       -2.6226328564    -1.0278992957     0.2765465443
| 11>  C        0.4101467065    -0.5554347985    -1.3288494944
| 12>  C        0.4936419627     0.1799463528    -2.6092562049
| 13>  N        1.7215307720    -0.1126763730    -1.8385598426
| 14>  H        0.6635919192     2.0291935133    -0.2561461181
| 15>  H       -1.0426376357     1.9050431702    -0.7399598794
| 16>  H       -0.6019648664     1.9021656063     0.9693521201
| 17>  H        1.6454291125     0.1983117413     1.1149012496
| 18>  H        0.2178498695    -0.1842326849     2.0947968468
| 19>  H        1.6546865711    -1.9685900204     0.4747695049
| 20>  H       -3.5897626229    -1.4479587417     0.4029754060
| 21>  H        0.2829259721    -1.6329198259    -1.3882227303
| 22>  H        0.4022769799    -0.3601210151    -3.5470719288
| 23>  H        0.1433875851     1.2065494474    -2.6445891380
| 24>  H        2.0174150688     0.7332232564    -1.3555982176
| 25> *
| 26>
| 27>                          ****END OF INPUT****

CARTESIAN COORDINATES (ANGSTROEM)
---------------------------------
  C     -0.297194    1.557018   -0.022527
  C     -0.188589    0.017868   -0.033281
  C      0.728973   -0.410926    1.154653
  O      1.026582   -1.788174    1.181779
  C     -1.523245   -0.561957    0.139216
  C     -2.622633   -1.027899    0.276547
  C      0.410147   -0.555435   -1.328849
  C      0.493642    0.179946   -2.609256
  N      1.721531   -0.112676   -1.838560
  H      0.663592    2.029194   -0.256146
  H     -1.042638    1.905043   -0.739960
  H     -0.601965    1.902166    0.969352
  H      1.645429    0.198312    1.114901
  H      0.217850   -0.184233    2.094797
  H      1.654687   -1.968590    0.474770
  H     -3.589763   -1.447959    0.402975
  H      0.282926   -1.632920   -1.388223
  H      0.402277   -0.360121   -3.547072
  H      0.143388    1.206549   -2.644589
  H      2.017415    0.733223   -1.355598

 Total Charge           Charge          ....    0
 Multiplicity           Mult            ....    1
 Number of Electrons    NEL             ....   68
 Basis Dimension        Dim             ....  345

ORBITAL ENERGIES
----------------

  NO   OCC          E(Eh)            E(eV)
   0   2.0000     -20.560294      -559.4740
   1   2.0000     -15.567100      -423.6023
   2   2.0000     -11.287778      -307.1561
   3   2.0000     -11.276339      -306.8448
   4   2.0000     -11.271066      -306.7013
   5   2.0000     -11.262711      -306.4739
   6   2.0000     -11.238667      -305.8197
   7   2.0000     -11.233050      -305.6668
   8   2.0000     -11.223060      -305.3950
   9   2.0000      -1.368740       -37.2453
  10   2.0000      -1.270087       -34.5608
  11   2.0000      -1.111811       -30.2539
  12   2.0000      -1.006680       -27.3931
  13   2.0000      -0.935628       -25.4597
  14   2.0000      -0.916494       -24.9391
  15   2.0000      -0.875387       -23.8205
  16   2.0000      -0.802178       -21.8284
  17   2.0000      -0.733305       -19.9542
  18   2.0000      -0.700513       -19.0619
  19   2.0000      -0.693943       -18.8832
  20   2.0000      -0.660815       -17.9817
  21   2.0000      -0.628480       -17.1018
  22   2.0000      -0.607897       -16.5417
  23   2.0000      -0.590665       -16.0728
  24   2.0000      -0.557214       -15.1626
  25   2.0000      -0.555766       -15.1232
  26   2.0000      -0.510983       -13.9046
  27   2.0000      -0.505212       -13.7475
  28   2.0000      -0.488911       -13.3039
  29   2.0000      -0.482843       -13.1388
  30   2.0000      -0.451884       -12.2964
  31   2.0000      -0.403125       -10.9696
  32   2.0000      -0.385124       -10.4798
  33   2.0000      -0.384358       -10.4589
  34   0.0000       0.127690         3.4746
  35   0.0000       0.145708         3.9649
  36   0.0000       0.149408         4.0656
  37   0.0000       0.168561         4.5868
  38   0.0000       0.173559         4.7228

MULLIKEN ATOMIC CHARGES
-----------------------
   0 C :   -0.449649
   1 C :    0.070788
   2 C :   -0.043098
   3 O :   -0.468783
   4 C :   -0.054783
   5 C :   -0.152638
   6 C :   -0.212463
   7 C :   -0.175684
   8 N :   -0.346085
   9 H :    0.128355
  10 H :    0.153663
  11 H :    0.154170
  12 H :    0.111607
  13 H :    0.126132
  14 H :    0.333240
  15 H :    0.190881
  16 H :    0.157772
  17 H :    0.127688
  18 H :    0.133783
  19 H :    0.215103
Sum of atomic charges:    0.0000000

LOEWDIN ATOMIC CHARGES
----------------------
   0 C :   -0.249576
   1 C :   -0.291301
   2 C :   -0.293552
   3 O :   -0.021121
   4 C :   -0.063394
   5 C :   -0.087908
   6 C :   -0.240777
   7 C :   -0.253161
   8 N :   -0.019824
   9 H :    0.121782
  10 H :    0.132813
  11 H :    0.136183
  12 H :    0.122023
  13 H :    0.137414
  14 H :    0.178860
  15 H :    0.127338
  16 H :    0.153032
  17 H :    0.126561
  18 H :    0.124265
  19 H :    0.160344

  Mayer bond orders larger than 0.1
B(  0-C ,  1-C ) :   0.8725 B(  0-C ,  9-H ) :   0.9304 B(  0-C , 10-H ) :   0.9368
B(  0-C , 11-H ) :   0.9281 B(  1-C ,  2-C ) :   0.8668 B(  1-C ,  4-C ) :   1.1613
B(  1-C ,  5-C ) :  -0.1077 B(  1-C ,  6-C ) :   0.8560 B(  2-C ,  3-O ) :   0.9823
B(  2-C , 12-H ) :   0.9296 B(  2-C , 13-H ) :   0.9277 B(  3-O , 14-H ) :   0.8376
B(  4-C ,  5-C ) :   2.6007 B(  5-C , 15-H ) :   0.8781 B(  6-C ,  7-C ) :   0.9435
B(  6-C ,  8-N ) :   0.8990 B(  6-C , 16-H ) :   0.9252 B(  7-C ,  8-N ) :   0.9307
B(  7-C , 17-H ) :   0.9242 B(  7-C , 18-H ) :   0.9157 B(  8-N , 19-H ) :   0.8752

MP2 TOTAL ENERGY:     -402.387362977 Eh
FINAL SINGLE POINT ENERGY      -402.387362976993

DIPOLE MOMENT
-------------
                                X             Y             Z
Electronic contribution:     -1.33573      -4.43627       0.95566
Nuclear contribution   :      1.18445       5.29706      -1.19001
                        -----------------------------------------
Total Dipole Moment    :     -0.15128       0.86079      -0.23436
                        -----------------------------------------
Magnitude (a.u.)       :      0.90486
Magnitude (Debye)      :      2.29998

                             ****ORCA TERMINATED NORMALLY****
TOTAL RUN TIME: 0 days 0 hours 21 minutes 40 seconds 504 msec
