                         Program Version 3.0.3 - RELEASE   -
|  1> ! RI-MP2 RIJK def2-TZVP def2-TZVP/C def2-TZVP/JK TIGHTSCF
|  2> % maxcore 2000
|  3> % mp2 density relaxed end
|  4> *xyz 0 1
|  5>  C       -0.0857557019     1.5145996901     0.0563301549
|  6>  C        0.0311427506     0.0218040315     0.0229328672
|  7>  C        0.1092767319    -0.8402255770    -1.2256844127
|  8>  C        1.1588435166    -1.9261070608    -1.0811473381
|  9>  C        1.0350818853    -2.1598953462     0.4127225410
| 10>  C        0.6682652259    -0.8677756597     1.1255600222
| 11>  C       -0.3886432197    -1.9312608696     0.8912383046
| 12>  C       -1.1415256322    -2.7924139224     1.8580904821
| 13>  C       -1.0151498767    -1.0493906355    -0.2235971146
| 14>  H        0.8975984774     1.9957987108    -0.0177770098
| 15>  H       -0.6961660979     1.8790206825    -0.7767861681
| 16>  H       -0.5535426444     1.8609354280     0.9855358104
| 17>  H       -0.1199228479    -0.3895183782    -2.1850658348
| 18>  H        0.9184101574    -2.8214951175    -1.6664806764
| 19>  H        2.1592668338    -1.5826354619    -1.3698042774
| 20>  H        1.6480024900    -2.8892643762     0.9308259942
| 21>  H        1.1137486549    -0.5269010577     2.0516064954
| 22>  H       -1.9284694028    -2.2275764155     2.3717773397
| 23>  H       -1.6201810459    -3.6401291144     1.3518319020
| 24>  H       -0.4728524314    -3.1991210974     2.6242182984
| 25>  H       -2.0690904230    -0.9483984029    -0.4499216802
| 26> *
| 27>
| 28>                          ****END OF INPUT****

CARTESIAN COORDINATES (ANGSTROEM)
---------------------------------
  C     -0.085756    1.514600    0.056330
  C      0.031143    0.021804    0.022933
  C      0.109277   -0.840226   -1.225684
  C      1.158844   -1.926107   -1.081147
  C      1.035082   -2.159895    0.412723
  C      0.668265   -0.867776    1.125560
  C     -0.388643   -1.931261    0.891238
  C     -1.141526   -2.792414    1.858090
  C     -1.015150   -1.049391   -0.223597
  H      0.897598    1.995799   -0.017777
  H     -0.696166    1.879021   -0.776786
  H     -0.553543    1.860935    0.985536
  H     -0.119923   -0.389518   -2.185066
  H      0.918410   -2.821495   -1.666481
  H      2.159267   -1.582635   -1.369804
  H      1.648002   -2.889264    0.930826
  H      1.113749   -0.526901    2.051606
  H     -1.928469   -2.227576    2.371777
  H     -1.620181   -3.640129    1.351832
  H     -0.472852   -3.199121    2.624218
  H     -2.069090   -0.948398   -0.449922

 Total Charge           Charge          ....    0
 Multiplicity           Mult            ....    1
 Number of Electrons    NEL             ....   66
 Basis Dimension        Dim             ....  351

ORBITAL ENERGIES
----------------

  NO   OCC          E(Eh)            E(eV)
   0   2.0000     -11.229301      -305.5648
   1   2.0000     -11.229274      -305.5641
   2   2.0000     -11.221719      -305.3585
   3   2.0000     -11.221713      -305.3583
   4   2.0000     -11.218285      -305.2650
   5   2.0000     -11.218255      -305.2642
   6   2.0000     -11.215883      -305.1997
   7   2.0000     -11.215882      -305.1997
   8   2.0000     -11.214499      -305.1620
   9   2.0000      -1.237759       -33.6811
  10   2.0000      -1.059144       -28.8208
  11   2.0000      -1.001116       -27.2418
  12   2.0000      -0.964993       -26.2588
  13   2.0000      -0.942788       -25.6546
  14   2.0000      -0.819800       -22.3079
  15   2.0000      -0.770097       -20.9554
  16   2.0000      -0.734092       -19.9757
  17   2.0000      -0.710569       -19.3356
  18   2.0000      -0.650619       -17.7042
  19   2.0000      -0.596341       -16.2273
  20   2.0000      -0.591487       -16.0952
  21   2.0000      -0.574473       -15.6322
  22   2.0000      -0.565358       -15.3842
  23   2.0000      -0.555151       -15.1064
  24   2.0000      -0.553368       -15.0579
  25   2.0000      -0.545789       -14.8517
  26   2.0000      -0.504449       -13.7267
  27   2.0000      -0.482237       -13.1223
  28   2.0000      -0.467302       -12.7159
  29   2.0000      -0.417230       -11.3534
  30   2.0000      -0.382610       -10.4114
  31   2.0000      -0.380355       -10.3500
  32   2.0000      -0.320974        -8.7342
  33   0.0000       0.139124         3.7857
  34   0.0000       0.155348         4.2272
  35   0.0000       0.170120         4.6292
  36   0.0000       0.182277         4.9600
  37   0.0000       0.182751         4.9729

MULLIKEN ATOMIC CHARGES
-----------------------
   0 C :   -0.420467
   1 C :    0.086588
   2 C :   -0.210797
   3 C :   -0.131069
   4 C :   -0.210797
   5 C :   -0.145647
   6 C :    0.086589
   7 C :   -0.420467
   8 C :   -0.145646
   9 H :    0.132381
  10 H :    0.131075
  11 H :    0.132518
  12 H :    0.120994
  13 H :    0.106918
  14 H :    0.106917
  15 H :    0.120994
  16 H :    0.131970
  17 H :    0.132518
  18 H :    0.132381
  19 H :    0.131075
  20 H :    0.131970
Sum of atomic charges:    0.0000000

LOEWDIN ATOMIC CHARGES
----------------------
   0 C :   -0.275344
   1 C :   -0.176401
   2 C :   -0.154885
   3 C :   -0.209531
   4 C :   -0.154885
   5 C :   -0.099514
   6 C :   -0.176401
   7 C :   -0.275345
   8 C :   -0.099515
   9 H :    0.128055
  10 H :    0.130145
  11 H :    0.127459
  12 H :    0.147227
  13 H :    0.139998
  14 H :    0.139998
  15 H :    0.147227
  16 H :    0.138026
  17 H :    0.127459
  18 H :    0.128055
  19 H :    0.130145
  20 H :    0.138026

  Mayer bond orders larger than 0.1
B(  0-C ,  1-C ) :   0.8483 B(  0-C ,  9-H ) :   0.9421 B(  0-C , 10-H ) :   0.9488
B(  0-C , 11-H ) :   0.9453 B(  1-C ,  2-C ) :   0.8659 B(  1-C ,  5-C ) :   0.9032
B(  1-C ,  8-C ) :   0.8693 B(  2-C ,  3-C ) :   0.9629 B(  2-C ,  8-C ) :   0.8644
B(  2-C , 12-H ) :   0.9339 B(  3-C ,  4-C ) :   0.9629 B(  3-C , 13-H ) :   0.9152
B(  3-C , 14-H ) :   0.9152 B(  4-C ,  5-C ) :   0.8644 B(  4-C ,  6-C ) :   0.8659
B(  4-C , 15-H ) :   0.9339 B(  5-C ,  6-C ) :   0.8693 B(  5-C , 16-H ) :   0.9245
B(  6-C ,  7-C ) :   0.8483 B(  6-C ,  8-C ) :   0.9032 B(  7-C , 17-H ) :   0.9453
B(  7-C , 18-H ) :   0.9421 B(  7-C , 19-H ) :   0.9488 B(  8-C , 20-H ) :   0.9245

MP2 TOTAL ENERGY:     -349.275308604 Eh
FINAL SINGLE POINT ENERGY      -349.275308604269

DIPOLE MOMENT
-------------
                                X             Y             Z
Electronic contribution:      0.98722      -0.71692      -1.13531
Nuclear contribution   :     -1.02819       0.74667       1.18242
                        -----------------------------------------
Total Dipole Moment    :     -0.04097       0.02975       0.04711
                        -----------------------------------------
Magnitude (a.u.)       :      0.06916
Magnitude (Debye)      :      0.17579

                             ****ORCA TERMINATED NORMALLY****
TOTAL RUN TIME: 0 days 0 hours 20 minutes 24 seconds 486 msec
