                         Program Version 3.0.3 - RELEASE   -
|  1> ! RI-MP2 RIJK def2-TZVP def2-TZVP/C def2-TZVP/JK TIGHTSCF
|  2> % maxcore 2000
|  3> % mp2 density relaxed end
|  4> *xyz 0 1
|  5>  C       -0.0191241524     1.5496942164     0.0120423061
|  6>  C       -0.0236409510     0.0480471896     0.0029604199
|  7>  C        0.7163480835    -0.8670040450    -1.0483946892
|  8>  C        1.7251518462    -1.2768859929     0.0472102165
|  9>  C        0.6527188371    -0.8797198262     1.0855660671
| 10>  C       -0.6088782406    -1.8301097216     1.0421809911
| 11>  C       -0.4755769342    -2.9376623454    -0.0283108061
| 12>  C       -0.5452606153    -1.8173887407    -1.0915711466
| 13>  C       -1.2594319045    -0.8940207517    -0.0394970093
| 14>  H        1.0024546810     1.9473485210     0.0447074735
| 15>  H       -0.5032733393     1.9545271565    -0.8850164074
| 16>  H       -0.5557242798     1.9439923245     0.8835891202
| 17>  H        1.0779363390    -0.5057543753    -2.0126535128
| 18>  H        2.1265681821    -2.2950376381     0.0531114021
| 19>  H        2.5624791993    -0.5719783536     0.0763800769
| 20>  H        0.9560858266    -0.5301031357     2.0738874923
| 21>  H       -1.0674171792    -2.0599449688     2.0044752169
| 22>  H        0.3897727951    -3.6078853149    -0.0065063981
| 23>  H       -1.3871713285    -3.5433987079    -0.0591031660
| 24>  H       -0.9455747374    -2.0355801489    -2.0821434694
| 25>  H       -2.3104483776    -0.6064947813    -0.0691189880
| 26> *
| 27>
| 28>                          ****END OF INPUT****

CARTESIAN COORDINATES (ANGSTROEM)
---------------------------------
  C     -0.019124    1.549694    0.012042
  C     -0.023641    0.048047    0.002960
  C      0.716348   -0.867004   -1.048395
  C      1.725152   -1.276886    0.047210
  C      0.652719   -0.879720    1.085566
  C     -0.608878   -1.830110    1.042181
  C     -0.475577   -2.937662   -0.028311
  C     -0.545261   -1.817389   -1.091571
  C     -1.259432   -0.894021   -0.039497
  H      1.002455    1.947349    0.044707
  H     -0.503273    1.954527   -0.885016
  H     -0.555724    1.943992    0.883589
  H      1.077936   -0.505754   -2.012654
  H      2.126568   -2.295038    0.053111
  H      2.562479   -0.571978    0.076380
  H      0.956086   -0.530103    2.073887
  H     -1.067417   -2.059945    2.004475
  H      0.389773   -3.607885   -0.006506
  H     -1.387171   -3.543399   -0.059103
  H     -0.945575   -2.035580   -2.082143
  H     -2.310448   -0.606495   -0.069119

 Total Charge           Charge          ....    0
 Multiplicity           Mult            ....    1
 Number of Electrons    NEL             ....   66
 Basis Dimension        Dim             ....  351

ORBITAL ENERGIES
----------------

  NO   OCC          E(Eh)            E(eV)
   0   2.0000     -11.223680      -305.4119
   1   2.0000     -11.221736      -305.3590
   2   2.0000     -11.221696      -305.3579
   3   2.0000     -11.219540      -305.2992
   4   2.0000     -11.219540      -305.2992
   5   2.0000     -11.215575      -305.1913
   6   2.0000     -11.213287      -305.1290
   7   2.0000     -11.213242      -305.1278
   8   2.0000     -11.212696      -305.1130
   9   2.0000      -1.214099       -33.0373
  10   2.0000      -1.045149       -28.4400
  11   2.0000      -0.985244       -26.8099
  12   2.0000      -0.957452       -26.0536
  13   2.0000      -0.916184       -24.9306
  14   2.0000      -0.797344       -21.6968
  15   2.0000      -0.776362       -21.1259
  16   2.0000      -0.759967       -20.6798
  17   2.0000      -0.689535       -18.7632
  18   2.0000      -0.637715       -17.3531
  19   2.0000      -0.633639       -17.2422
  20   2.0000      -0.589005       -16.0276
  21   2.0000      -0.584676       -15.9098
  22   2.0000      -0.559521       -15.2253
  23   2.0000      -0.547377       -14.8949
  24   2.0000      -0.542382       -14.7590
  25   2.0000      -0.522316       -14.2129
  26   2.0000      -0.503331       -13.6963
  27   2.0000      -0.429307       -11.6820
  28   2.0000      -0.425327       -11.5737
  29   2.0000      -0.419698       -11.4206
  30   2.0000      -0.389646       -10.6028
  31   2.0000      -0.379811       -10.3352
  32   2.0000      -0.362631        -9.8677
  33   0.0000       0.139499         3.7960
  34   0.0000       0.150936         4.1072
  35   0.0000       0.169174         4.6035
  36   0.0000       0.170869         4.6496
  37   0.0000       0.187362         5.0984

MULLIKEN ATOMIC CHARGES
-----------------------
   0 C :   -0.402156
   1 C :    0.132207
   2 C :   -0.117487
   3 C :   -0.283489
   4 C :   -0.117479
   5 C :   -0.038743
   6 C :   -0.283806
   7 C :   -0.038737
   8 C :   -0.272410
   9 H :    0.131586
  10 H :    0.130654
  11 H :    0.130654
  12 H :    0.114971
  13 H :    0.108641
  14 H :    0.116830
  15 H :    0.114972
  16 H :    0.119402
  17 H :    0.107210
  18 H :    0.114318
  19 H :    0.119402
  20 H :    0.113459
Sum of atomic charges:    0.0000000

LOEWDIN ATOMIC CHARGES
----------------------
   0 C :   -0.282516
   1 C :   -0.176508
   2 C :   -0.133664
   3 C :   -0.210289
   4 C :   -0.133664
   5 C :   -0.151514
   6 C :   -0.211972
   7 C :   -0.151514
   8 C :   -0.105237
   9 H :    0.128563
  10 H :    0.128055
  11 H :    0.128054
  12 H :    0.130748
  13 H :    0.123043
  14 H :    0.139995
  15 H :    0.130748
  16 H :    0.129519
  17 H :    0.122174
  18 H :    0.140187
  19 H :    0.129519
  20 H :    0.126274

  Mayer bond orders larger than 0.1
B(  0-C ,  1-C ) :   0.8037 B(  0-C ,  9-H ) :   0.9496 B(  0-C , 10-H ) :   0.9427
B(  0-C , 11-H ) :   0.9427 B(  1-C ,  2-C ) :   0.8822 B(  1-C ,  4-C ) :   0.8822
B(  1-C ,  8-C ) :   0.9043 B(  2-C ,  3-C ) :   0.9572 B(  2-C ,  7-C ) :   0.8983
B(  2-C , 12-H ) :   0.9015 B(  3-C ,  4-C ) :   0.9572 B(  3-C , 13-H ) :   0.8982
B(  3-C , 14-H ) :   0.9224 B(  4-C ,  5-C ) :   0.8983 B(  4-C , 15-H ) :   0.9015
B(  5-C ,  6-C ) :   0.9527 B(  5-C ,  8-C ) :   0.9193 B(  5-C , 16-H ) :   0.9036
B(  6-C ,  7-C ) :   0.9527 B(  6-C , 17-H ) :   0.9055 B(  6-C , 18-H ) :   0.9257
B(  7-C ,  8-C ) :   0.9193 B(  7-C , 19-H ) :   0.9036 B(  8-C , 20-H ) :   0.9240

MP2 TOTAL ENERGY:     -349.246331762 Eh
FINAL SINGLE POINT ENERGY      -349.246331761977

DIPOLE MOMENT
-------------
                                X             Y             Z
Electronic contribution:     -0.98542      -1.55815      -0.03866
Nuclear contribution   :      0.95284       1.65638       0.03827
                        -----------------------------------------
Total Dipole Moment    :     -0.03258       0.09823      -0.00039
                        -----------------------------------------
Magnitude (a.u.)       :      0.10350
Magnitude (Debye)      :      0.26306

                             ****ORCA TERMINATED NORMALLY****
TOTAL RUN TIME: 0 days 0 hours 21 minutes 34 seconds 590 msec
