                         Program Version 3.0.3 - RELEASE   -
|  1> ! RI-MP2 RIJK def2-TZVP def2-TZVP/C def2-TZVP/JK TIGHTSCF
|  2> % maxcore 2000
|  3> % mp2 density relaxed end
|  4> *xyz 0 1
|  5>  O       -0.3036854822     1.4487033785     0.2745584388
|  6>  C       -0.0991280202     0.0802264909     0.1354336814
|  7>  C        1.0597487785    -0.4049699045     0.9872840072
|  8>  C        2.3448830301     0.1421100385     0.5462750468
|  9>  N        3.3612862569     0.5580911153     0.1889268808
| 10>  C       -1.2612671874    -0.8951002544    -0.0125206373
| 11>  C       -2.3289781949    -0.2204358708    -0.8619698649
| 12>  O       -1.3465841778     0.1370926903    -1.8855067501
| 13>  C       -0.3316492548    -0.5856617974    -1.1822306898
| 14>  H       -0.5552043813     1.7794685259    -0.5989660664
| 15>  H        0.8869750438    -0.1097811597     2.0283279240
| 16>  H        1.1178524981    -1.4983727291     0.9661949106
| 17>  H       -1.3868197166    -1.7883297908     0.5854604024
| 18>  H       -3.0667434607    -0.9115535853    -1.2792771268
| 19>  H       -2.8240336858     0.6592798445    -0.4388067923
| 20>  H        0.3798638845    -1.1635926120    -1.7624231843
| 21> *
| 22>
| 23>                          ****END OF INPUT****

CARTESIAN COORDINATES (ANGSTROEM)
---------------------------------
  O     -0.303685    1.448703    0.274558
  C     -0.099128    0.080226    0.135434
  C      1.059749   -0.404970    0.987284
  C      2.344883    0.142110    0.546275
  N      3.361286    0.558091    0.188927
  C     -1.261267   -0.895100   -0.012521
  C     -2.328978   -0.220436   -0.861970
  O     -1.346584    0.137093   -1.885507
  C     -0.331649   -0.585662   -1.182231
  H     -0.555204    1.779469   -0.598966
  H      0.886975   -0.109781    2.028328
  H      1.117852   -1.498373    0.966195
  H     -1.386820   -1.788330    0.585460
  H     -3.066743   -0.911554   -1.279277
  H     -2.824034    0.659280   -0.438807
  H      0.379864   -1.163593   -1.762423

 Total Charge           Charge          ....    0
 Multiplicity           Mult            ....    1
 Number of Electrons    NEL             ....   66
 Basis Dimension        Dim             ....  321

ORBITAL ENERGIES
----------------

  NO   OCC          E(Eh)            E(eV)
   0   2.0000     -20.584227      -560.1253
   1   2.0000     -20.580482      -560.0234
   2   2.0000     -15.570476      -423.6942
   3   2.0000     -11.327225      -308.2295
   4   2.0000     -11.314592      -307.8857
   5   2.0000     -11.308530      -307.7208
   6   2.0000     -11.296142      -307.3836
   7   2.0000     -11.275173      -306.8131
   8   2.0000     -11.264183      -306.5140
   9   2.0000      -1.432612       -38.9833
  10   2.0000      -1.383138       -37.6371
  11   2.0000      -1.220197       -33.2033
  12   2.0000      -1.147826       -31.2339
  13   2.0000      -1.046239       -28.4696
  14   2.0000      -0.971166       -26.4268
  15   2.0000      -0.828390       -22.5417
  16   2.0000      -0.789648       -21.4874
  17   2.0000      -0.754514       -20.5314
  18   2.0000      -0.729304       -19.8454
  19   2.0000      -0.692069       -18.8322
  20   2.0000      -0.668416       -18.1885
  21   2.0000      -0.627268       -17.0688
  22   2.0000      -0.622260       -16.9326
  23   2.0000      -0.604776       -16.4568
  24   2.0000      -0.583274       -15.8717
  25   2.0000      -0.556126       -15.1330
  26   2.0000      -0.550112       -14.9693
  27   2.0000      -0.513498       -13.9730
  28   2.0000      -0.499741       -13.5987
  29   2.0000      -0.464170       -12.6307
  30   2.0000      -0.461324       -12.5533
  31   2.0000      -0.420797       -11.4505
  32   2.0000      -0.403398       -10.9770
  33   0.0000       0.120332         3.2744
  34   0.0000       0.145899         3.9701
  35   0.0000       0.148354         4.0369
  36   0.0000       0.157875         4.2960
  37   0.0000       0.172238         4.6868

MULLIKEN ATOMIC CHARGES
-----------------------
   0 O :   -0.464816
   1 C :    0.203442
   2 C :   -0.156717
   3 C :   -0.190026
   4 N :   -0.053899
   5 C :   -0.202370
   6 C :   -0.053563
   7 O :   -0.346104
   8 C :    0.022516
   9 H :    0.347107
  10 H :    0.169069
  11 H :    0.169252
  12 H :    0.152318
  13 H :    0.125415
  14 H :    0.132236
  15 H :    0.146141
Sum of atomic charges:    0.0000000

LOEWDIN ATOMIC CHARGES
----------------------
   0 O :    0.049114
   1 C :   -0.343169
   2 C :   -0.196492
   3 C :   -0.181490
   4 N :    0.062522
   5 C :   -0.162572
   6 C :   -0.230888
   7 O :    0.139639
   8 C :   -0.213305
   9 H :    0.194942
  10 H :    0.174640
  11 H :    0.173731
  12 H :    0.140858
  13 H :    0.129428
  14 H :    0.124824
  15 H :    0.138218

  Mayer bond orders larger than 0.1
B(  0-O ,  1-C ) :   1.0165 B(  0-O ,  9-H ) :   0.8111 B(  1-C ,  2-C ) :   0.8992
B(  1-C ,  5-C ) :   0.8443 B(  1-C ,  8-C ) :   0.9036 B(  2-C ,  3-C ) :   0.9463
B(  2-C , 10-H ) :   0.8988 B(  2-C , 11-H ) :   0.9240 B(  3-C ,  4-N ) :   2.8645
B(  5-C ,  6-C ) :   0.9527 B(  5-C ,  8-C ) :   0.8736 B(  5-C , 12-H ) :   0.9057
B(  6-C ,  7-O ) :   0.8920 B(  6-C , 13-H ) :   0.9192 B(  6-C , 14-H ) :   0.9235
B(  7-O ,  8-C ) :   0.9327 B(  8-C , 15-H ) :   0.9145

MP2 TOTAL ENERGY:     -437.125292913 Eh
FINAL SINGLE POINT ENERGY      -437.125292913448

DIPOLE MOMENT
-------------
                                X             Y             Z
Electronic contribution:      3.98718       2.02307      -0.62541
Nuclear contribution   :     -5.52789      -3.21483       1.00121
                        -----------------------------------------
Total Dipole Moment    :     -1.54071      -1.19176       0.37580
                        -----------------------------------------
Magnitude (a.u.)       :      1.98376
Magnitude (Debye)      :      5.04232

                             ****ORCA TERMINATED NORMALLY****
TOTAL RUN TIME: 0 days 0 hours 15 minutes 38 seconds 593 msec
