                         Program Version 3.0.3 - RELEASE   -
|  1> ! RI-MP2 RIJK def2-TZVP def2-TZVP/C def2-TZVP/JK TIGHTSCF
|  2> % maxcore 2000
|  3> % mp2 density relaxed end
|  4> *xyz 0 1
|  5>  C        0.2061059815     1.4730274471    -0.0752694774
|  6>  C        0.3006667866    -0.0476881461    -0.1653261235
|  7>  N        0.7015918627    -0.5969976777     1.1320796610
|  8>  C       -0.3078521157    -1.1166045387     2.0206850944
|  9>  C        0.6483801702    -2.0590511482     1.3414927325
| 10>  C        0.1518707803    -3.0437945635     0.2969965597
| 11>  O        1.1327645941    -3.3229552674    -0.6830557294
| 12>  C        1.8402470128    -2.5216303802     2.1118424550
| 13>  O        2.3924548153    -3.5822507834     1.9259388297
| 14>  H        1.1616320171     1.9011768048     0.2391926605
| 15>  H       -0.0640442446     1.8959679253    -1.0475964337
| 16>  H       -0.5562226514     1.7766831993     0.6497125767
| 17>  H       -0.6606293801    -0.4560285048    -0.5145731888
| 18>  H        1.0596828826    -0.3472528359    -0.8945329530
| 19>  H       -0.2021111307    -0.8802613382     3.0772475958
| 20>  H       -1.3380967781    -1.1678670874     1.6659136926
| 21>  H       -0.1713795985    -3.9585904963     0.8161297048
| 22>  H       -0.7183688685    -2.6448797955    -0.2294234378
| 23>  H        1.8508819087    -3.7686248018    -0.2158820136
| 24>  H        2.2107865357    -1.7945885512     2.8649989646
| 25> *
| 26>
| 27>                          ****END OF INPUT****

CARTESIAN COORDINATES (ANGSTROEM)
---------------------------------
  C      0.206106    1.473027   -0.075269
  C      0.300667   -0.047688   -0.165326
  N      0.701592   -0.596998    1.132080
  C     -0.307852   -1.116605    2.020685
  C      0.648380   -2.059051    1.341493
  C      0.151871   -3.043795    0.296997
  O      1.132765   -3.322955   -0.683056
  C      1.840247   -2.521630    2.111842
  O      2.392455   -3.582251    1.925939
  H      1.161632    1.901177    0.239193
  H     -0.064044    1.895968   -1.047596
  H     -0.556223    1.776683    0.649713
  H     -0.660629   -0.456029   -0.514573
  H      1.059683   -0.347253   -0.894533
  H     -0.202111   -0.880261    3.077248
  H     -1.338097   -1.167867    1.665914
  H     -0.171380   -3.958590    0.816130
  H     -0.718369   -2.644880   -0.229423
  H      1.850882   -3.768625   -0.215882
  H      2.210787   -1.794589    2.864999

 Total Charge           Charge          ....    0
 Multiplicity           Mult            ....    1
 Number of Electrons    NEL             ....   70
 Basis Dimension        Dim             ....  345

ORBITAL ENERGIES
----------------

  NO   OCC          E(Eh)            E(eV)
   0   2.0000     -20.566991      -559.6563
   1   2.0000     -20.553559      -559.2908
   2   2.0000     -15.582906      -424.0324
   3   2.0000     -11.341360      -308.6141
   4   2.0000     -11.288989      -307.1890
   5   2.0000     -11.283315      -307.0346
   6   2.0000     -11.282490      -307.0122
   7   2.0000     -11.262908      -306.4793
   8   2.0000     -11.220999      -305.3389
   9   2.0000      -1.408117       -38.3168
  10   2.0000      -1.361497       -37.0482
  11   2.0000      -1.298136       -35.3241
  12   2.0000      -1.062015       -28.8989
  13   2.0000      -0.981941       -26.7200
  14   2.0000      -0.916567       -24.9410
  15   2.0000      -0.900218       -24.4962
  16   2.0000      -0.813912       -22.1477
  17   2.0000      -0.773008       -21.0346
  18   2.0000      -0.712669       -19.3927
  19   2.0000      -0.685604       -18.6562
  20   2.0000      -0.673742       -18.3334
  21   2.0000      -0.646860       -17.6020
  22   2.0000      -0.629979       -17.1426
  23   2.0000      -0.603113       -16.4116
  24   2.0000      -0.587603       -15.9895
  25   2.0000      -0.577982       -15.7277
  26   2.0000      -0.548761       -14.9326
  27   2.0000      -0.540655       -14.7120
  28   2.0000      -0.528495       -14.3811
  29   2.0000      -0.506382       -13.7793
  30   2.0000      -0.491788       -13.3822
  31   2.0000      -0.465080       -12.6555
  32   2.0000      -0.444759       -12.1025
  33   2.0000      -0.428246       -11.6532
  34   2.0000      -0.391261       -10.6468
  35   0.0000       0.116771         3.1775
  36   0.0000       0.135855         3.6968
  37   0.0000       0.157723         4.2919
  38   0.0000       0.166501         4.5307
  39   0.0000       0.169210         4.6044

MULLIKEN ATOMIC CHARGES
-----------------------
   0 C :   -0.377084
   1 C :   -0.128383
   2 N :   -0.243851
   3 C :   -0.211591
   4 C :    0.113950
   5 C :    0.006675
   6 O :   -0.485488
   7 C :    0.063902
   8 O :   -0.310263
   9 H :    0.134646
  10 H :    0.131502
  11 H :    0.123627
  12 H :    0.089751
  13 H :    0.142918
  14 H :    0.138018
  15 H :    0.131557
  16 H :    0.128867
  17 H :    0.107684
  18 H :    0.335363
  19 H :    0.108199
Sum of atomic charges:   -0.0000000

LOEWDIN ATOMIC CHARGES
----------------------
   0 C :   -0.314023
   1 C :   -0.305546
   2 N :    0.145235
   3 C :   -0.217564
   4 C :   -0.288526
   5 C :   -0.312114
   6 O :   -0.038687
   7 C :   -0.251660
   8 O :    0.119618
   9 H :    0.124819
  10 H :    0.124130
  11 H :    0.121105
  12 H :    0.121639
  13 H :    0.140057
  14 H :    0.129351
  15 H :    0.132845
  16 H :    0.132549
  17 H :    0.132710
  18 H :    0.178267
  19 H :    0.125794

  Mayer bond orders larger than 0.1
B(  0-C ,  1-C ) :   0.9237 B(  0-C ,  9-H ) :   0.9375 B(  0-C , 10-H ) :   0.9383
B(  0-C , 11-H ) :   0.9347 B(  1-C ,  2-N ) :   0.8733 B(  1-C , 12-H ) :   0.9267
B(  1-C , 13-H ) :   0.9276 B(  2-N ,  3-C ) :   0.9269 B(  2-N ,  4-C ) :   0.6972
B(  3-C ,  4-C ) :   0.8925 B(  3-C , 14-H ) :   0.9013 B(  3-C , 15-H ) :   0.9132
B(  4-C ,  5-C ) :   0.9155 B(  4-C ,  7-C ) :   0.8713 B(  5-C ,  6-O ) :   0.9423
B(  5-C , 16-H ) :   0.9225 B(  5-C , 17-H ) :   0.9270 B(  6-O , 18-H ) :   0.8266
B(  7-C ,  8-O ) :   1.9196 B(  7-C , 19-H ) :   0.9585

MP2 TOTAL ENERGY:     -439.542471785 Eh
FINAL SINGLE POINT ENERGY      -439.542471784861

DIPOLE MOMENT
-------------
                                X             Y             Z
Electronic contribution:      4.86133      -7.72183       3.04909
Nuclear contribution   :     -5.78260       8.36976      -2.66974
                        -----------------------------------------
Total Dipole Moment    :     -0.92126       0.64793       0.37935
                        -----------------------------------------
Magnitude (a.u.)       :      1.18846
Magnitude (Debye)      :      3.02083

                             ****ORCA TERMINATED NORMALLY****
TOTAL RUN TIME: 0 days 0 hours 28 minutes 31 seconds 918 msec
