                         Program Version 3.0.3 - RELEASE   -
|  1> ! RI-MP2 RIJK def2-TZVP def2-TZVP/C def2-TZVP/JK TIGHTSCF
|  2> % maxcore 2000
|  3> % mp2 density relaxed end
|  4> *xyz 0 1
|  5>  O       -0.0072137493     1.2822769954     0.0076017011
|  6>  C       -0.0547320189    -0.0445259901     0.0008596008
|  7>  N       -1.2004495415    -0.6320135886     0.0039642642
|  8>  C       -1.1749026619    -2.0165095558    -0.0034753937
|  9>  N       -2.1483929402    -2.8303939608    -0.0024956912
| 10>  N        0.1269862413    -2.5729957082    -0.0134065639
| 11>  N        1.2597403707    -1.9066369075    -0.0160330524
| 12>  N        1.2193646010    -0.6317479875    -0.0091201509
| 13>  H        0.9285989608     1.5322176297     0.0038615536
| 14>  H       -3.0237657916    -2.3094136287     0.0049815697
| 15>  H        0.2170894396    -3.5803735580    -0.0191864472
| 16> *
| 17>
| 18>                          ****END OF INPUT****

CARTESIAN COORDINATES (ANGSTROEM)
---------------------------------
  O     -0.007214    1.282277    0.007602
  C     -0.054732   -0.044526    0.000860
  N     -1.200450   -0.632014    0.003964
  C     -1.174903   -2.016510   -0.003475
  N     -2.148393   -2.830394   -0.002496
  N      0.126986   -2.572996   -0.013407
  N      1.259740   -1.906637   -0.016033
  N      1.219365   -0.631748   -0.009120
  H      0.928599    1.532218    0.003862
  H     -3.023766   -2.309414    0.004982
  H      0.217089   -3.580374   -0.019186

 Total Charge           Charge          ....    0
 Multiplicity           Mult            ....    1
 Number of Electrons    NEL             ....   58
 Basis Dimension        Dim             ....  266

ORBITAL ENERGIES
----------------

  NO   OCC          E(Eh)            E(eV)
   0   2.0000     -20.636498      -561.5477
   1   2.0000     -15.742475      -428.3745
   2   2.0000     -15.680945      -426.7002
   3   2.0000     -15.641191      -425.6184
   4   2.0000     -15.585005      -424.0895
   5   2.0000     -15.539087      -422.8400
   6   2.0000     -11.416826      -310.6676
   7   2.0000     -11.374376      -309.5125
   8   2.0000      -1.500340       -40.8263
   9   2.0000      -1.459947       -39.7272
  10   2.0000      -1.304214       -35.4895
  11   2.0000      -1.261260       -34.3206
  12   2.0000      -1.178572       -32.0706
  13   2.0000      -1.005710       -27.3668
  14   2.0000      -0.929898       -25.3038
  15   2.0000      -0.842097       -22.9146
  16   2.0000      -0.802534       -21.8381
  17   2.0000      -0.754345       -20.5268
  18   2.0000      -0.699233       -19.0271
  19   2.0000      -0.679117       -18.4797
  20   2.0000      -0.644936       -17.5496
  21   2.0000      -0.624332       -16.9889
  22   2.0000      -0.581628       -15.8269
  23   2.0000      -0.544613       -14.8197
  24   2.0000      -0.533363       -14.5135
  25   2.0000      -0.467776       -12.7288
  26   2.0000      -0.462676       -12.5900
  27   2.0000      -0.440113       -11.9761
  28   2.0000      -0.368021       -10.0144
  29   0.0000       0.051987         1.4146
  30   0.0000       0.130713         3.5569
  31   0.0000       0.141637         3.8541
  32   0.0000       0.144054         3.9199
  33   0.0000       0.175819         4.7843

MULLIKEN ATOMIC CHARGES
-----------------------
   0 O :   -0.362999
   1 C :    0.290138
   2 N :   -0.239785
   3 C :    0.180810
   4 N :   -0.394944
   5 N :   -0.087566
   6 N :   -0.065277
   7 N :   -0.199503
   8 H :    0.357448
   9 H :    0.236453
  10 H :    0.285224
Sum of atomic charges:   -0.0000000

LOEWDIN ATOMIC CHARGES
----------------------
   0 O :    0.134894
   1 C :   -0.469981
   2 N :    0.149430
   3 C :   -0.456001
   4 N :   -0.076388
   5 N :    0.125634
   6 N :    0.005235
   7 N :   -0.003883
   8 H :    0.210310
   9 H :    0.173751
  10 H :    0.206999

  Mayer bond orders larger than 0.1
B(  0-O ,  1-C ) :   1.1845 B(  0-O ,  8-H ) :   0.8017 B(  1-C ,  2-N ) :   1.6604
B(  1-C ,  7-N ) :   1.1212 B(  2-N ,  3-C ) :   1.1065 B(  3-C ,  4-N ) :   1.9727
B(  3-C ,  5-N ) :   0.9610 B(  4-N ,  9-H ) :   0.8559 B(  5-N ,  6-N ) :   1.1319
B(  5-N ,  7-N ) :   0.1057 B(  5-N , 10-H ) :   0.8502 B(  6-N ,  7-N ) :   1.4361

MP2 TOTAL ENERGY:     -426.203418154 Eh
FINAL SINGLE POINT ENERGY      -426.203418154419

DIPOLE MOMENT
-------------
                                X             Y             Z
Electronic contribution:      1.66166       0.98260      -0.00383
Nuclear contribution   :     -1.07945      -0.86430       0.00131
                        -----------------------------------------
Total Dipole Moment    :      0.58221       0.11830      -0.00251
                        -----------------------------------------
Magnitude (a.u.)       :      0.59411
Magnitude (Debye)      :      1.51011

                             ****ORCA TERMINATED NORMALLY****
TOTAL RUN TIME: 0 days 0 hours 9 minutes 22 seconds 395 msec
