                         Program Version 3.0.3 - RELEASE   -
|  1> ! RI-MP2 RIJK def2-TZVP def2-TZVP/C def2-TZVP/JK TIGHTSCF
|  2> % maxcore 2000
|  3> % mp2 density relaxed end
|  4> *xyz 0 1
|  5>  C       -0.0244286965     1.5943444016    -0.0341648336
|  6>  C        0.0361667971     0.0762431712     0.0393039127
|  7>  C        1.0355136658    -0.6742751322    -0.8897427406
|  8>  C        1.4053107881    -1.6213053444     0.2898686819
|  9>  C        2.8666660435    -1.9902116049     0.4949292865
| 10>  C        0.7293067708    -0.6077378082     1.2342255070
| 11>  C        1.3913672742     0.0962569390     2.3860593547
| 12>  C        0.2113647763    -0.8205870398     2.6223497409
| 13>  H        0.9723553511     2.0354075760     0.0737932241
| 14>  H       -0.4331243441     1.9223791374    -0.9964528725
| 15>  H       -0.6631550063     2.0126233862     0.7526789519
| 16>  H       -0.9727109369    -0.3370610125    -0.0859256829
| 17>  H        0.6357514931    -1.1308661321    -1.7987032827
| 18>  H        1.8807414720    -0.0329275986    -1.1632043511
| 19>  H        0.8004837304    -2.5355761997     0.2385837573
| 20>  H        3.4980432074    -1.0960947826     0.5360160340
| 21>  H        3.0162981936    -2.5493887339     1.4260484340
| 22>  H        3.2293569431    -2.6185876034    -0.3261895396
| 23>  H        2.3720791134    -0.2426142551     2.7045023727
| 24>  H        1.2368898322     1.1648630299     2.4967530753
| 25>  H       -0.7398247724    -0.3699182386     2.8907000680
| 26>  H        0.3966895841    -1.7790382954     3.0986917723
| 27> *
| 28>
| 29>                          ****END OF INPUT****

CARTESIAN COORDINATES (ANGSTROEM)
---------------------------------
  C     -0.024429    1.594344   -0.034165
  C      0.036167    0.076243    0.039304
  C      1.035514   -0.674275   -0.889743
  C      1.405311   -1.621305    0.289869
  C      2.866666   -1.990212    0.494929
  C      0.729307   -0.607738    1.234226
  C      1.391367    0.096257    2.386059
  C      0.211365   -0.820587    2.622350
  H      0.972355    2.035408    0.073793
  H     -0.433124    1.922379   -0.996453
  H     -0.663155    2.012623    0.752679
  H     -0.972711   -0.337061   -0.085926
  H      0.635751   -1.130866   -1.798703
  H      1.880741   -0.032928   -1.163204
  H      0.800484   -2.535576    0.238584
  H      3.498043   -1.096095    0.536016
  H      3.016298   -2.549389    1.426048
  H      3.229357   -2.618588   -0.326190
  H      2.372079   -0.242614    2.704502
  H      1.236890    1.164863    2.496753
  H     -0.739825   -0.369918    2.890700
  H      0.396690   -1.779038    3.098692

 Total Charge           Charge          ....    0
 Multiplicity           Mult            ....    1
 Number of Electrons    NEL             ....   62
 Basis Dimension        Dim             ....  332

ORBITAL ENERGIES
----------------

  NO   OCC          E(Eh)            E(eV)
   0   2.0000     -11.225119      -305.4510
   1   2.0000     -11.222267      -305.3734
   2   2.0000     -11.222220      -305.3721
   3   2.0000     -11.217333      -305.2391
   4   2.0000     -11.215582      -305.1915
   5   2.0000     -11.212417      -305.1054
   6   2.0000     -11.209880      -305.0364
   7   2.0000     -11.209880      -305.0363
   8   2.0000      -1.163753       -31.6673
   9   2.0000      -1.070941       -29.1418
  10   2.0000      -1.004919       -27.3452
  11   2.0000      -0.933382       -25.3986
  12   2.0000      -0.832065       -22.6416
  13   2.0000      -0.816525       -22.2188
  14   2.0000      -0.800608       -21.7857
  15   2.0000      -0.705824       -19.2065
  16   2.0000      -0.652815       -17.7640
  17   2.0000      -0.646968       -17.6049
  18   2.0000      -0.591843       -16.1049
  19   2.0000      -0.582786       -15.8584
  20   2.0000      -0.559797       -15.2329
  21   2.0000      -0.558821       -15.2063
  22   2.0000      -0.527648       -14.3580
  23   2.0000      -0.505824       -13.7642
  24   2.0000      -0.501423       -13.6444
  25   2.0000      -0.490405       -13.3446
  26   2.0000      -0.483821       -13.1654
  27   2.0000      -0.441045       -12.0015
  28   2.0000      -0.415673       -11.3110
  29   2.0000      -0.391741       -10.6598
  30   2.0000      -0.382838       -10.4175
  31   0.0000       0.136078         3.7029
  32   0.0000       0.154183         4.1955
  33   0.0000       0.154307         4.1989
  34   0.0000       0.163974         4.4620
  35   0.0000       0.195762         5.3269

MULLIKEN ATOMIC CHARGES
-----------------------
   0 C :   -0.457601
   1 C :    0.073970
   2 C :   -0.303976
   3 C :    0.073970
   4 C :   -0.457601
   5 C :   -0.045463
   6 C :   -0.284561
   7 C :   -0.287648
   8 H :    0.129910
   9 H :    0.134710
  10 H :    0.129826
  11 H :    0.089957
  12 H :    0.115578
  13 H :    0.104646
  14 H :    0.089957
  15 H :    0.129910
  16 H :    0.129826
  17 H :    0.134709
  18 H :    0.127377
  19 H :    0.127377
  20 H :    0.122565
  21 H :    0.122565
Sum of atomic charges:    0.0000000

LOEWDIN ATOMIC CHARGES
----------------------
   0 C :   -0.300723
   1 C :   -0.214568
   2 C :   -0.188885
   3 C :   -0.214569
   4 C :   -0.300723
   5 C :   -0.195337
   6 C :   -0.206945
   7 C :   -0.213037
   8 H :    0.123526
   9 H :    0.125099
  10 H :    0.123316
  11 H :    0.150960
  12 H :    0.122722
  13 H :    0.136252
  14 H :    0.150960
  15 H :    0.123526
  16 H :    0.123316
  17 H :    0.125099
  18 H :    0.132135
  19 H :    0.132135
  20 H :    0.132871
  21 H :    0.132871

  Mayer bond orders larger than 0.1
B(  0-C ,  1-C ) :   0.8563 B(  0-C ,  8-H ) :   0.9429 B(  0-C ,  9-H ) :   0.9383
B(  0-C , 10-H ) :   0.9412 B(  1-C ,  2-C ) :   0.9435 B(  1-C ,  5-C ) :   0.8832
B(  1-C , 11-H ) :   0.9218 B(  2-C ,  3-C ) :   0.9435 B(  2-C , 12-H ) :   0.9299
B(  2-C , 13-H ) :   0.9023 B(  3-C ,  4-C ) :   0.8563 B(  3-C ,  5-C ) :   0.8832
B(  3-C , 14-H ) :   0.9218 B(  4-C , 15-H ) :   0.9429 B(  4-C , 16-H ) :   0.9412
B(  4-C , 17-H ) :   0.9383 B(  5-C ,  6-C ) :   0.8334 B(  5-C ,  7-C ) :   0.8541
B(  6-C ,  7-C ) :   0.9497 B(  6-C , 18-H ) :   0.9215 B(  6-C , 19-H ) :   0.9215
B(  7-C , 20-H ) :   0.9227 B(  7-C , 21-H ) :   0.9227

MP2 TOTAL ENERGY:     -312.473082647 Eh
FINAL SINGLE POINT ENERGY      -312.473082646778

DIPOLE MOMENT
-------------
                                X             Y             Z
Electronic contribution:     -1.52813      -1.13344       0.67115
Nuclear contribution   :      1.50531       1.10511      -0.73841
                        -----------------------------------------
Total Dipole Moment    :     -0.02282      -0.02833      -0.06726
                        -----------------------------------------
Magnitude (a.u.)       :      0.07647
Magnitude (Debye)      :      0.19436

                             ****ORCA TERMINATED NORMALLY****
TOTAL RUN TIME: 0 days 0 hours 15 minutes 22 seconds 326 msec
