                         Program Version 3.0.3 - RELEASE   -
|  1> ! RI-MP2 RIJK def2-TZVP def2-TZVP/C def2-TZVP/JK TIGHTSCF
|  2> % maxcore 2000
|  3> % mp2 density relaxed end
|  4> *xyz 0 1
|  5>  C        0.0256701768     1.5813135498     0.0481920218
|  6>  C       -0.0476393377     0.0418973800    -0.0038716712
|  7>  C       -1.5084500289    -0.4489249898     0.0471199988
|  8>  C        0.6489857000    -0.4787817072    -1.1813745894
|  9>  C        1.2148297873    -0.8938604383    -2.1631346594
| 10>  C        1.8807976445    -1.3786521388    -3.3381468952
| 11>  C        3.2641114352    -2.0108566421    -3.2391618238
| 12>  C        2.0830436464    -2.8728188121    -3.5793255649
| 13>  C        1.5606973465    -3.8996938843    -2.6028269545
| 14>  H        1.0630192275     1.9258391188     0.0415724045
| 15>  H       -0.4820078925     2.0196633725    -0.8167468220
| 16>  H       -0.4590580005     1.9550534843     0.9560718651
| 17>  H        0.4650207471    -0.3451776745     0.8884284472
| 18>  H       -2.0679398789    -0.0805244566    -0.8184543347
| 19>  H       -1.5565538205    -1.5410218739     0.0398970578
| 20>  H       -2.0017212531    -0.0858059730     0.9548212453
| 21>  H        1.7035657251    -0.7865356956    -4.2319369748
| 22>  H        3.9841436685    -1.7678157417    -4.0128123846
| 23>  H        3.6838516378    -2.1028652809    -2.2433917405
| 24>  H        2.0014236589    -3.1616902921    -4.6240000063
| 25>  H        1.6184612751    -3.5298237944    -1.5754885136
| 26>  H        0.5125484630    -4.1431843311    -2.8076085546
| 27>  H        2.1401816225    -4.8273301288    -2.6651602011
| 28> *
| 29>
| 30>                          ****END OF INPUT****

CARTESIAN COORDINATES (ANGSTROEM)
---------------------------------
  C      0.025670    1.581314    0.048192
  C     -0.047639    0.041897   -0.003872
  C     -1.508450   -0.448925    0.047120
  C      0.648986   -0.478782   -1.181375
  C      1.214830   -0.893860   -2.163135
  C      1.880798   -1.378652   -3.338147
  C      3.264111   -2.010857   -3.239162
  C      2.083044   -2.872819   -3.579326
  C      1.560697   -3.899694   -2.602827
  H      1.063019    1.925839    0.041572
  H     -0.482008    2.019663   -0.816747
  H     -0.459058    1.955053    0.956072
  H      0.465021   -0.345178    0.888428
  H     -2.067940   -0.080524   -0.818454
  H     -1.556554   -1.541022    0.039897
  H     -2.001721   -0.085806    0.954821
  H      1.703566   -0.786536   -4.231937
  H      3.984144   -1.767816   -4.012812
  H      3.683852   -2.102865   -2.243392
  H      2.001424   -3.161690   -4.624000
  H      1.618461   -3.529824   -1.575489
  H      0.512548   -4.143184   -2.807609
  H      2.140182   -4.827330   -2.665160

 Total Charge           Charge          ....    0
 Multiplicity           Mult            ....    1
 Number of Electrons    NEL             ....   68
 Basis Dimension        Dim             ....  363

ORBITAL ENERGIES
----------------

  NO   OCC          E(Eh)            E(eV)
   0   2.0000     -11.249575      -306.1165
   1   2.0000     -11.246757      -306.0398
   2   2.0000     -11.237507      -305.7881
   3   2.0000     -11.228206      -305.5350
   4   2.0000     -11.216385      -305.2134
   5   2.0000     -11.216288      -305.2107
   6   2.0000     -11.214002      -305.1485
   7   2.0000     -11.213137      -305.1250
   8   2.0000     -11.208099      -304.9879
   9   2.0000      -1.155753       -31.4496
  10   2.0000      -1.089789       -29.6547
  11   2.0000      -0.999595       -27.2004
  12   2.0000      -0.960657       -26.1408
  13   2.0000      -0.930687       -25.3253
  14   2.0000      -0.862012       -23.4565
  15   2.0000      -0.815190       -22.1825
  16   2.0000      -0.785097       -21.3636
  17   2.0000      -0.681595       -18.5471
  18   2.0000      -0.659623       -17.9492
  19   2.0000      -0.636818       -17.3287
  20   2.0000      -0.608178       -16.5494
  21   2.0000      -0.569593       -15.4994
  22   2.0000      -0.564375       -15.3574
  23   2.0000      -0.548697       -14.9308
  24   2.0000      -0.540014       -14.6945
  25   2.0000      -0.537332       -14.6215
  26   2.0000      -0.514504       -14.0004
  27   2.0000      -0.498950       -13.5771
  28   2.0000      -0.491525       -13.3751
  29   2.0000      -0.489245       -13.3130
  30   2.0000      -0.452647       -12.3171
  31   2.0000      -0.428460       -11.6590
  32   2.0000      -0.354901        -9.6573
  33   2.0000      -0.336252        -9.1499
  34   0.0000       0.130444         3.5496
  35   0.0000       0.151300         4.1171
  36   0.0000       0.161364         4.3909
  37   0.0000       0.175892         4.7863
  38   0.0000       0.178732         4.8635

MULLIKEN ATOMIC CHARGES
-----------------------
   0 C :   -0.376236
   1 C :   -0.138783
   2 C :   -0.373035
   3 C :    0.014273
   4 C :    0.042191
   5 C :   -0.290588
   6 C :   -0.250864
   7 C :   -0.025981
   8 C :   -0.405185
   9 H :    0.136034
  10 H :    0.125580
  11 H :    0.128859
  12 H :    0.108178
  13 H :    0.125887
  14 H :    0.133980
  15 H :    0.128483
  16 H :    0.132880
  17 H :    0.133485
  18 H :    0.132692
  19 H :    0.117980
  20 H :    0.136495
  21 H :    0.130936
  22 H :    0.132741
Sum of atomic charges:    0.0000000

LOEWDIN ATOMIC CHARGES
----------------------
   0 C :   -0.277669
   1 C :   -0.296877
   2 C :   -0.278482
   3 C :   -0.054986
   4 C :   -0.063121
   5 C :   -0.198588
   6 C :   -0.190571
   7 C :   -0.221785
   8 C :   -0.290699
   9 H :    0.125805
  10 H :    0.125656
  11 H :    0.121841
  12 H :    0.164748
  13 H :    0.125633
  14 H :    0.125149
  15 H :    0.121738
  16 H :    0.161193
  17 H :    0.131501
  18 H :    0.138888
  19 H :    0.147140
  20 H :    0.131275
  21 H :    0.126948
  22 H :    0.125262

  Mayer bond orders larger than 0.1
B(  0-C ,  1-C ) :   0.9405 B(  0-C ,  9-H ) :   0.9369 B(  0-C , 10-H ) :   0.9295
B(  0-C , 11-H ) :   0.9395 B(  1-C ,  2-C ) :   0.9329 B(  1-C ,  3-C ) :   1.0386
B(  1-C , 12-H ) :   0.9252 B(  2-C , 13-H ) :   0.9298 B(  2-C , 14-H ) :   0.9370
B(  2-C , 15-H ) :   0.9390 B(  3-C ,  4-C ) :   2.5751 B(  3-C ,  5-C ) :  -0.1379
B(  4-C ,  5-C ) :   1.0949 B(  5-C ,  6-C ) :   0.8570 B(  5-C ,  7-C ) :   0.8623
B(  5-C , 16-H ) :   0.9377 B(  6-C ,  7-C ) :   0.8836 B(  6-C , 17-H ) :   0.9286
B(  6-C , 18-H ) :   0.9307 B(  7-C ,  8-C ) :   0.9285 B(  7-C , 19-H ) :   0.9298
B(  8-C , 20-H ) :   0.9317 B(  8-C , 21-H ) :   0.9389 B(  8-C , 22-H ) :   0.9390

MP2 TOTAL ENERGY:     -350.468227397 Eh
FINAL SINGLE POINT ENERGY      -350.468227396760

DIPOLE MOMENT
-------------
                                X             Y             Z
Electronic contribution:      2.99614       0.19266      -3.31285
Nuclear contribution   :     -2.97492      -0.29466       3.31404
                        -----------------------------------------
Total Dipole Moment    :      0.02122      -0.10200       0.00119
                        -----------------------------------------
Magnitude (a.u.)       :      0.10419
Magnitude (Debye)      :      0.26484

                             ****ORCA TERMINATED NORMALLY****
TOTAL RUN TIME: 0 days 0 hours 20 minutes 7 seconds 187 msec
