                         Program Version 3.0.3 - RELEASE   -
|  1> ! RI-MP2 RIJK def2-TZVP def2-TZVP/C def2-TZVP/JK TIGHTSCF
|  2> % maxcore 2000
|  3> % mp2 density relaxed end
|  4> *xyz 0 1
|  5>  N       -0.1376404165     1.2784073173     0.0089226053
|  6>  C       -0.0286078633     0.0172520636     0.0007684268
|  7>  N       -1.0826477104    -0.8826422573     0.0025253663
|  8>  C       -0.5945969950    -2.1829521993    -0.0086900949
|  9>  C        0.7727018308    -2.2228783677    -0.0179973803
| 10>  C        1.2487545375    -0.8496160861    -0.0128854671
| 11>  O        2.3664649563    -0.3776455532    -0.0174125013
| 12>  C       -1.4958288745    -3.2708473866    -0.0093230544
| 13>  C       -2.2794427789    -4.1842877841    -0.0096843117
| 14>  H        0.8083912462     1.6726977029     0.0049426068
| 15>  H       -2.0565756662    -0.6329708988     0.0099661044
| 16>  H        1.3777155658    -3.1142109349    -0.0273405390
| 17>  H       -2.9606825818    -5.0002580860    -0.0100873908
| 18> *
| 19>
| 20>                          ****END OF INPUT****

CARTESIAN COORDINATES (ANGSTROEM)
---------------------------------
  N     -0.137640    1.278407    0.008923
  C     -0.028608    0.017252    0.000768
  N     -1.082648   -0.882642    0.002525
  C     -0.594597   -2.182952   -0.008690
  C      0.772702   -2.222878   -0.017997
  C      1.248755   -0.849616   -0.012885
  O      2.366465   -0.377646   -0.017413
  C     -1.495829   -3.270847   -0.009323
  C     -2.279443   -4.184288   -0.009684
  H      0.808391    1.672698    0.004943
  H     -2.056576   -0.632971    0.009966
  H      1.377716   -3.114211   -0.027341
  H     -2.960683   -5.000258   -0.010087

 Total Charge           Charge          ....    0
 Multiplicity           Mult            ....    1
 Number of Electrons    NEL             ....   62
 Basis Dimension        Dim             ....  303

ORBITAL ENERGIES
----------------

  NO   OCC          E(Eh)            E(eV)
   0   2.0000     -20.556979      -559.3838
   1   2.0000     -15.621449      -425.0812
   2   2.0000     -15.565002      -423.5452
   3   2.0000     -11.359656      -309.1119
   4   2.0000     -11.348628      -308.8119
   5   2.0000     -11.334204      -308.4194
   6   2.0000     -11.286746      -307.1280
   7   2.0000     -11.280683      -306.9630
   8   2.0000     -11.248694      -306.0925
   9   2.0000      -1.398712       -38.0609
  10   2.0000      -1.332544       -36.2604
  11   2.0000      -1.210895       -32.9501
  12   2.0000      -1.099856       -29.9286
  13   2.0000      -1.065381       -28.9905
  14   2.0000      -0.966088       -26.2886
  15   2.0000      -0.840696       -22.8765
  16   2.0000      -0.793583       -21.5945
  17   2.0000      -0.782627       -21.2964
  18   2.0000      -0.737983       -20.0815
  19   2.0000      -0.677769       -18.4430
  20   2.0000      -0.647986       -17.6326
  21   2.0000      -0.634561       -17.2673
  22   2.0000      -0.630455       -17.1556
  23   2.0000      -0.626345       -17.0437
  24   2.0000      -0.534251       -14.5377
  25   2.0000      -0.492991       -13.4150
  26   2.0000      -0.488477       -13.2921
  27   2.0000      -0.446490       -12.1496
  28   2.0000      -0.417253       -11.3540
  29   2.0000      -0.415603       -11.3091
  30   2.0000      -0.344190        -9.3659
  31   0.0000       0.024114         0.6562
  32   0.0000       0.130160         3.5418
  33   0.0000       0.136576         3.7164
  34   0.0000       0.142173         3.8687
  35   0.0000       0.144924         3.9436

MULLIKEN ATOMIC CHARGES
-----------------------
   0 N :   -0.310989
   1 C :    0.061389
   2 N :   -0.328789
   3 C :    0.079029
   4 C :   -0.291877
   5 C :    0.237901
   6 O :   -0.297216
   7 C :    0.034055
   8 C :   -0.063722
   9 H :    0.248759
  10 H :    0.259903
  11 H :    0.160222
  12 H :    0.211334
Sum of atomic charges:    0.0000000

LOEWDIN ATOMIC CHARGES
----------------------
   0 N :   -0.011850
   1 C :   -0.316267
   2 N :    0.189194
   3 C :   -0.177502
   4 C :   -0.106627
   5 C :   -0.312346
   6 O :    0.148634
   7 C :   -0.055173
   8 C :   -0.028499
   9 H :    0.183880
  10 H :    0.198756
  11 H :    0.152469
  12 H :    0.135332

  Mayer bond orders larger than 0.1
B(  0-N ,  1-C ) :   1.9873 B(  0-N ,  9-H ) :   0.8432 B(  1-C ,  2-N ) :   1.0344
B(  1-C ,  5-C ) :   0.8925 B(  2-N ,  3-C ) :   1.0917 B(  2-N , 10-H ) :   0.8613
B(  3-C ,  4-C ) :   1.4557 B(  3-C ,  7-C ) :   1.1375 B(  3-C ,  8-C ) :  -0.1501
B(  4-C ,  5-C ) :   1.0645 B(  4-C , 11-H ) :   0.9246 B(  5-C ,  6-O ) :   1.8908
B(  7-C ,  8-C ) :   2.6023 B(  8-C , 12-H ) :   0.8642

MP2 TOTAL ENERGY:     -414.885439071 Eh
FINAL SINGLE POINT ENERGY      -414.885439070787

DIPOLE MOMENT
-------------
                                X             Y             Z
Electronic contribution:      1.00967       0.35423      -0.00427
Nuclear contribution   :     -2.29326      -1.60459       0.00496
                        -----------------------------------------
Total Dipole Moment    :     -1.28358      -1.25037       0.00068
                        -----------------------------------------
Magnitude (a.u.)       :      1.79193
Magnitude (Debye)      :      4.55472

                             ****ORCA TERMINATED NORMALLY****
TOTAL RUN TIME: 0 days 0 hours 13 minutes 11 seconds 970 msec
