                         Program Version 3.0.3 - RELEASE   -
|  1> ! RI-MP2 RIJK def2-TZVP def2-TZVP/C def2-TZVP/JK TIGHTSCF
|  2> % maxcore 2000
|  3> % mp2 density relaxed end
|  4> *xyz 0 1
|  5>  N       -0.4807813886    -1.0297665253    -0.5293507895
|  6>  C       -0.1718850775     0.0476558039    -0.2493331194
|  7>  C        0.1953266076     1.4158798871     0.1181340146
|  8>  C       -0.1542171788     1.8549160819     1.5638867634
|  9>  C        1.3816842258     1.9795005678     1.7388637864
| 10>  O        1.6114036146     1.5604064384     0.3738588108
| 11>  C        1.8952657036     3.3233652850     2.0074587510
| 12>  N        2.2852856048     4.3871443819     2.2331154408
| 13>  H       -0.1386121250     2.1010350712    -0.6681917999
| 14>  H       -0.7081701114     2.7891625702     1.6326055738
| 15>  H       -0.6204760110     1.0908056470     2.1828644303
| 16>  H        1.8259949260     1.2760172610     2.4508595577
| 17> *
| 18>
| 19>                          ****END OF INPUT****

CARTESIAN COORDINATES (ANGSTROEM)
---------------------------------
  N     -0.480781   -1.029767   -0.529351
  C     -0.171885    0.047656   -0.249333
  C      0.195327    1.415880    0.118134
  C     -0.154217    1.854916    1.563887
  C      1.381684    1.979501    1.738864
  O      1.611404    1.560406    0.373859
  C      1.895266    3.323365    2.007459
  N      2.285286    4.387144    2.233115
  H     -0.138612    2.101035   -0.668192
  H     -0.708170    2.789163    1.632606
  H     -0.620476    1.090806    2.182864
  H      1.825995    1.276017    2.450860

 Total Charge           Charge          ....    0
 Multiplicity           Mult            ....    1
 Number of Electrons    NEL             ....   56
 Basis Dimension        Dim             ....  272

ORBITAL ENERGIES
----------------

  NO   OCC          E(Eh)            E(eV)
   0   2.0000     -20.620353      -561.1083
   1   2.0000     -15.600562      -424.5129
   2   2.0000     -15.600560      -424.5128
   3   2.0000     -11.373304      -309.4833
   4   2.0000     -11.373303      -309.4833
   5   2.0000     -11.300253      -307.4955
   6   2.0000     -11.296233      -307.3861
   7   2.0000     -11.296232      -307.3861
   8   2.0000      -1.452409       -39.5221
   9   2.0000      -1.245042       -33.8793
  10   2.0000      -1.242078       -33.7987
  11   2.0000      -1.088957       -29.6320
  12   2.0000      -1.052047       -28.6276
  13   2.0000      -0.900652       -24.5080
  14   2.0000      -0.792945       -21.5771
  15   2.0000      -0.751953       -20.4617
  16   2.0000      -0.694029       -18.8855
  17   2.0000      -0.690134       -18.7795
  18   2.0000      -0.620472       -16.8839
  19   2.0000      -0.599038       -16.3006
  20   2.0000      -0.583648       -15.8819
  21   2.0000      -0.573348       -15.6016
  22   2.0000      -0.545074       -14.8322
  23   2.0000      -0.508199       -13.8288
  24   2.0000      -0.497778       -13.5452
  25   2.0000      -0.489974       -13.3329
  26   2.0000      -0.486941       -13.2503
  27   2.0000      -0.468539       -12.7496
  28   0.0000       0.094882         2.5819
  29   0.0000       0.103039         2.8038
  30   0.0000       0.130467         3.5502
  31   0.0000       0.135203         3.6791
  32   0.0000       0.162680         4.4267

MULLIKEN ATOMIC CHARGES
-----------------------
   0 N :   -0.043278
   1 C :   -0.209092
   2 C :    0.234623
   3 C :   -0.314258
   4 C :    0.234711
   5 O :   -0.298061
   6 C :   -0.209180
   7 N :   -0.043264
   8 H :    0.152092
   9 H :    0.171797
  10 H :    0.171791
  11 H :    0.152118
Sum of atomic charges:   -0.0000000

LOEWDIN ATOMIC CHARGES
----------------------
   0 N :    0.087903
   1 C :   -0.162461
   2 C :   -0.256090
   3 C :   -0.155612
   4 C :   -0.256057
   5 O :    0.195184
   6 C :   -0.162471
   7 N :    0.087911
   8 H :    0.163422
   9 H :    0.147423
  10 H :    0.147423
  11 H :    0.163426

  Mayer bond orders larger than 0.1
B(  0-N ,  1-C ) :   2.8258 B(  1-C ,  2-C ) :   0.9331 B(  2-C ,  3-C ) :   0.9010
B(  2-C ,  5-O ) :   0.9264 B(  2-C ,  8-H ) :   0.8984 B(  3-C ,  4-C ) :   0.9009
B(  3-C ,  9-H ) :   0.9280 B(  3-C , 10-H ) :   0.9280 B(  4-C ,  5-O ) :   0.9264
B(  4-C ,  6-C ) :   0.9330 B(  4-C , 11-H ) :   0.8984 B(  6-C ,  7-N ) :   2.8259

MP2 TOTAL ENERGY:     -376.875657063 Eh
FINAL SINGLE POINT ENERGY      -376.875657063042

DIPOLE MOMENT
-------------
                                X             Y             Z
Electronic contribution:      1.94627      -0.32461      -1.31196
Nuclear contribution   :     -2.74779       0.45836       1.85217
                        -----------------------------------------
Total Dipole Moment    :     -0.80152       0.13375       0.54022
                        -----------------------------------------
Magnitude (a.u.)       :      0.97578
Magnitude (Debye)      :      2.48025

                             ****ORCA TERMINATED NORMALLY****
TOTAL RUN TIME: 0 days 0 hours 8 minutes 25 seconds 38 msec
