                         Program Version 3.0.3 - RELEASE   -
|  1> ! RI-MP2 RIJK def2-TZVP def2-TZVP/C def2-TZVP/JK TIGHTSCF
|  2> % maxcore 2000
|  3> % mp2 density relaxed end
|  4> *xyz 0 1
|  5>  N       -0.0565186705     1.3139421187    -0.1881523145
|  6>  C       -0.0140202592     0.0706976258     0.0344841913
|  7>  C       -1.2638688127    -0.7829964033     0.0483462137
|  8>  C       -1.1174849858    -1.9622518501     0.9853688833
|  9>  C       -1.6285494259    -1.9275066035     2.4043699709
| 10>  C       -2.2642177636    -2.8328714583     1.3623400636
| 11>  O        0.1054219803    -2.6288611088     0.7525244338
| 12>  C        1.1734672065    -1.7720618442     0.9984097316
| 13>  O        1.1697360604    -0.6076423633     0.1679637043
| 14>  H        0.8907140571     1.6991604857    -0.1987464433
| 15>  H       -2.1182347952    -0.1527650557     0.2975769878
| 16>  H       -1.4113548257    -1.1635059793    -0.9709636711
| 17>  H       -1.0199875787    -2.4042712851     3.1645103477
| 18>  H       -2.1755560317    -1.0528826749     2.7389788974
| 19>  H       -3.2473397227    -2.5800315629     0.9803690832
| 20>  H       -2.0619415663    -3.8950181681     1.4392303442
| 21>  H        1.1752774121    -1.4434554928     2.0493722014
| 22>  H        2.0930984515    -2.3078575498     0.7598706647
| 23> *
| 24>
| 25>                          ****END OF INPUT****

CARTESIAN COORDINATES (ANGSTROEM)
---------------------------------
  N     -0.056519    1.313942   -0.188152
  C     -0.014020    0.070698    0.034484
  C     -1.263869   -0.782996    0.048346
  C     -1.117485   -1.962252    0.985369
  C     -1.628549   -1.927507    2.404370
  C     -2.264218   -2.832871    1.362340
  O      0.105422   -2.628861    0.752524
  C      1.173467   -1.772062    0.998410
  O      1.169736   -0.607642    0.167964
  H      0.890714    1.699160   -0.198746
  H     -2.118235   -0.152765    0.297577
  H     -1.411355   -1.163506   -0.970964
  H     -1.019988   -2.404271    3.164510
  H     -2.175556   -1.052883    2.738979
  H     -3.247340   -2.580032    0.980369
  H     -2.061942   -3.895018    1.439230
  H      1.175277   -1.443455    2.049372
  H      2.093098   -2.307858    0.759871

 Total Charge           Charge          ....    0
 Multiplicity           Mult            ....    1
 Number of Electrons    NEL             ....   68
 Basis Dimension        Dim             ....  333

ORBITAL ENERGIES
----------------

  NO   OCC          E(Eh)            E(eV)
   0   2.0000     -20.595080      -560.4206
   1   2.0000     -20.586965      -560.1998
   2   2.0000     -15.535137      -422.7326
   3   2.0000     -11.350717      -308.8687
   4   2.0000     -11.340313      -308.5856
   5   2.0000     -11.306587      -307.6679
   6   2.0000     -11.248117      -306.0768
   7   2.0000     -11.241097      -305.8858
   8   2.0000     -11.240080      -305.8581
   9   2.0000      -1.456884       -39.6438
  10   2.0000      -1.387256       -37.7492
  11   2.0000      -1.201229       -32.6871
  12   2.0000      -1.153202       -31.3802
  13   2.0000      -1.020591       -27.7717
  14   2.0000      -0.944166       -25.6921
  15   2.0000      -0.849155       -23.1067
  16   2.0000      -0.822547       -22.3826
  17   2.0000      -0.756961       -20.5979
  18   2.0000      -0.723964       -19.7001
  19   2.0000      -0.705286       -19.1918
  20   2.0000      -0.689270       -18.7560
  21   2.0000      -0.658174       -17.9098
  22   2.0000      -0.639330       -17.3971
  23   2.0000      -0.609865       -16.5953
  24   2.0000      -0.593053       -16.1378
  25   2.0000      -0.583467       -15.8769
  26   2.0000      -0.532384       -14.4869
  27   2.0000      -0.524072       -14.2607
  28   2.0000      -0.505893       -13.7660
  29   2.0000      -0.491915       -13.3857
  30   2.0000      -0.448154       -12.1949
  31   2.0000      -0.429019       -11.6742
  32   2.0000      -0.416651       -11.3376
  33   2.0000      -0.398315       -10.8387
  34   0.0000       0.136617         3.7175
  35   0.0000       0.153353         4.1730
  36   0.0000       0.156870         4.2686
  37   0.0000       0.172392         4.6910
  38   0.0000       0.180437         4.9099

MULLIKEN ATOMIC CHARGES
-----------------------
   0 N :   -0.359780
   1 C :    0.071105
   2 C :   -0.123328
   3 C :    0.191593
   4 C :   -0.326967
   5 C :   -0.263989
   6 O :   -0.291850
   7 C :    0.080314
   8 O :   -0.265157
   9 H :    0.221072
  10 H :    0.133139
  11 H :    0.135663
  12 H :    0.139283
  13 H :    0.141347
  14 H :    0.137656
  15 H :    0.142939
  16 H :    0.096059
  17 H :    0.140901
Sum of atomic charges:    0.0000000

LOEWDIN ATOMIC CHARGES
----------------------
   0 N :   -0.048643
   1 C :   -0.402470
   2 C :   -0.180806
   3 C :   -0.341389
   4 C :   -0.206559
   5 C :   -0.195657
   6 O :    0.226255
   7 C :   -0.356916
   8 O :    0.220342
   9 H :    0.167628
  10 H :    0.160545
  11 H :    0.163445
  12 H :    0.138334
  13 H :    0.136225
  14 H :    0.137756
  15 H :    0.142592
  16 H :    0.112930
  17 H :    0.126390

  Mayer bond orders larger than 0.1
B(  0-N ,  1-C ) :   2.0630 B(  0-N ,  9-H ) :   0.8550 B(  1-C ,  2-C ) :   0.9315
B(  1-C ,  8-O ) :   1.0621 B(  2-C ,  3-C ) :   0.9223 B(  2-C , 10-H ) :   0.9013
B(  2-C , 11-H ) :   0.8999 B(  3-C ,  4-C ) :   0.8823 B(  3-C ,  5-C ) :   0.8724
B(  3-C ,  6-O ) :   0.9290 B(  4-C ,  5-C ) :   0.9275 B(  4-C , 12-H ) :   0.9193
B(  4-C , 13-H ) :   0.9148 B(  5-C , 14-H ) :   0.9252 B(  5-C , 15-H ) :   0.9202
B(  6-O ,  7-C ) :   0.9914 B(  7-C ,  8-O ) :   0.9067 B(  7-C , 16-H ) :   0.9275
B(  7-C , 17-H ) :   0.9287

MP2 TOTAL ENERGY:     -438.359466978 Eh
FINAL SINGLE POINT ENERGY      -438.359466977896

DIPOLE MOMENT
-------------
                                X             Y             Z
Electronic contribution:      4.02003       1.39294      -2.85101
Nuclear contribution   :     -4.05152      -2.02466       3.47014
                        -----------------------------------------
Total Dipole Moment    :     -0.03150      -0.63172       0.61913
                        -----------------------------------------
Magnitude (a.u.)       :      0.88509
Magnitude (Debye)      :      2.24971

                             ****ORCA TERMINATED NORMALLY****
TOTAL RUN TIME: 0 days 0 hours 16 minutes 34 seconds 687 msec
