                         Program Version 3.0.3 - RELEASE   -
|  1> ! RI-MP2 RIJK def2-TZVP def2-TZVP/C def2-TZVP/JK TIGHTSCF
|  2> % maxcore 2000
|  3> % mp2 density relaxed end
|  4> *xyz 0 1
|  5>  C       -0.0497841815    -1.2142620595     0.0087226878
|  6>  C       -0.0291152805    -0.0111963213    -0.0043661528
|  7>  C       -0.0168637503     1.4040458642    -0.0162694235
|  8>  C       -0.7329728384     2.4735335359     0.7988294191
|  9>  C        0.6157363935     3.0693598643     1.1316188571
| 10>  N        1.2621385434     2.2415923132     0.0005682048
| 11>  C        1.0690209683     3.1012735530    -1.1483266607
| 12>  N       -0.1201026448     3.2305044291    -1.5851441568
| 13>  C       -0.9160251863     2.3750536421    -0.7288132478
| 14>  H       -0.0621128256    -2.2760933511     0.0163575697
| 15>  H       -1.5835702614     2.3598798978     1.4585443857
| 16>  H        0.7613898411     4.1508337339     1.0403144001
| 17>  H        1.0069404995     2.7175326013     2.0874162676
| 18>  H        1.9190738854     3.6570183768    -1.5309274498
| 19>  H       -1.8908998923     2.0692657802    -1.0842383506
| 20> *
| 21>
| 22>                          ****END OF INPUT****

CARTESIAN COORDINATES (ANGSTROEM)
---------------------------------
  C     -0.049784   -1.214262    0.008723
  C     -0.029115   -0.011196   -0.004366
  C     -0.016864    1.404046   -0.016269
  C     -0.732973    2.473534    0.798829
  C      0.615736    3.069360    1.131619
  N      1.262139    2.241592    0.000568
  C      1.069021    3.101274   -1.148327
  N     -0.120103    3.230504   -1.585144
  C     -0.916025    2.375054   -0.728813
  H     -0.062113   -2.276093    0.016358
  H     -1.583570    2.359880    1.458544
  H      0.761390    4.150834    1.040314
  H      1.006940    2.717533    2.087416
  H      1.919074    3.657018   -1.530927
  H     -1.890900    2.069266   -1.084238

 Total Charge           Charge          ....    0
 Multiplicity           Mult            ....    1
 Number of Electrons    NEL             ....   62
 Basis Dimension        Dim             ....  315

ORBITAL ENERGIES
----------------

  NO   OCC          E(Eh)            E(eV)
   0   2.0000     -15.587100      -424.1466
   1   2.0000     -15.565199      -423.5506
   2   2.0000     -11.308006      -307.7065
   3   2.0000     -11.300332      -307.4977
   4   2.0000     -11.284622      -307.0702
   5   2.0000     -11.283881      -307.0500
   6   2.0000     -11.266277      -306.5710
   7   2.0000     -11.245582      -306.0078
   8   2.0000     -11.236660      -305.7651
   9   2.0000      -1.348445       -36.6930
  10   2.0000      -1.187951       -32.3258
  11   2.0000      -1.105121       -30.0719
  12   2.0000      -1.043080       -28.3836
  13   2.0000      -0.957949       -26.0671
  14   2.0000      -0.857608       -23.3367
  15   2.0000      -0.844516       -22.9804
  16   2.0000      -0.781914       -21.2770
  17   2.0000      -0.722221       -19.6526
  18   2.0000      -0.708694       -19.2845
  19   2.0000      -0.670617       -18.2484
  20   2.0000      -0.625520       -17.0213
  21   2.0000      -0.606815       -16.5123
  22   2.0000      -0.568601       -15.4724
  23   2.0000      -0.551090       -14.9959
  24   2.0000      -0.504841       -13.7374
  25   2.0000      -0.481763       -13.1094
  26   2.0000      -0.462884       -12.5957
  27   2.0000      -0.435438       -11.8489
  28   2.0000      -0.404141       -10.9972
  29   2.0000      -0.371730       -10.1153
  30   2.0000      -0.358565        -9.7570
  31   0.0000       0.120548         3.2803
  32   0.0000       0.143809         3.9132
  33   0.0000       0.152915         4.1610
  34   0.0000       0.159635         4.3439
  35   0.0000       0.169035         4.5997

MULLIKEN ATOMIC CHARGES
-----------------------
   0 C :   -0.079693
   1 C :   -0.019853
   2 C :   -0.036081
   3 C :   -0.161853
   4 C :   -0.137035
   5 N :   -0.193262
   6 C :   -0.017967
   7 N :   -0.191334
   8 C :   -0.070963
   9 H :    0.198595
  10 H :    0.149006
  11 H :    0.131581
  12 H :    0.139933
  13 H :    0.144253
  14 H :    0.144675
Sum of atomic charges:    0.0000000

LOEWDIN ATOMIC CHARGES
----------------------
   0 C :   -0.064748
   1 C :   -0.069432
   2 C :   -0.189021
   3 C :   -0.130347
   4 C :   -0.195167
   5 N :    0.145826
   6 C :   -0.268699
   7 N :    0.124569
   8 C :   -0.185674
   9 H :    0.129544
  10 H :    0.145059
  11 H :    0.129135
  12 H :    0.140602
  13 H :    0.134947
  14 H :    0.153404

  Mayer bond orders larger than 0.1
B(  0-C ,  1-C ) :   2.6049 B(  0-C ,  2-C ) :  -0.1562 B(  0-C ,  9-H ) :   0.8617
B(  1-C ,  2-C ) :   1.1988 B(  2-C ,  3-C ) :   0.7932 B(  2-C ,  5-N ) :   0.8392
B(  2-C ,  8-C ) :   0.8622 B(  3-C ,  4-C ) :   0.9940 B(  3-C ,  8-C ) :   0.8454
B(  3-C , 10-H ) :   0.9120 B(  4-C ,  5-N ) :   0.8760 B(  4-C , 11-H ) :   0.9195
B(  4-C , 12-H ) :   0.9187 B(  5-N ,  6-C ) :   0.9934 B(  6-C ,  7-N ) :   1.8345
B(  6-C , 13-H ) :   0.9236 B(  7-N ,  8-C ) :   1.0021 B(  8-C , 14-H ) :   0.9344

MP2 TOTAL ENERGY:     -378.894242245 Eh
FINAL SINGLE POINT ENERGY      -378.894242244805

DIPOLE MOMENT
-------------
                                X             Y             Z
Electronic contribution:      0.30596      -1.29922      -2.04622
Nuclear contribution   :     -0.58875       1.23437       2.79611
                        -----------------------------------------
Total Dipole Moment    :     -0.28279      -0.06484       0.74988
                        -----------------------------------------
Magnitude (a.u.)       :      0.80405
Magnitude (Debye)      :      2.04374

                             ****ORCA TERMINATED NORMALLY****
TOTAL RUN TIME: 0 days 0 hours 18 minutes 1 seconds 879 msec
