                         Program Version 3.0.3 - RELEASE   -
|  1> ! RI-MP2 RIJK def2-TZVP def2-TZVP/C def2-TZVP/JK TIGHTSCF
|  2> % maxcore 2000
|  3> % mp2 density relaxed end
|  4> *xyz 0 1
|  5>  N        0.0123344656     1.2646075480    -0.1117789290
|  6>  C       -0.0205028098    -0.0679800535    -0.0529745201
|  7>  N       -1.1369300946    -0.7344731007    -0.0264467964
|  8>  C       -0.9939201388    -2.0888685022     0.0341621344
|  9>  O       -2.1649506909    -2.7466157723     0.0587053298
| 10>  N        0.0787742916    -2.8167188291     0.0689664839
| 11>  O        1.2964879811    -2.0760269820     0.0394113865
| 12>  C        1.3076702811    -0.7321204686    -0.0199911448
| 13>  N        2.3688378453    -0.0307266226    -0.0482067296
| 14>  H        0.9156283337     1.7124745119    -0.1292571169
| 15>  H       -0.8458730207     1.7884908698    -0.1374207705
| 16>  H       -1.9583050973    -3.6910149206     0.1006896754
| 17>  H        3.2054109238    -0.6140303181    -0.0201795427
| 18> *
| 19>
| 20>                          ****END OF INPUT****

CARTESIAN COORDINATES (ANGSTROEM)
---------------------------------
  N      0.012334    1.264608   -0.111779
  C     -0.020503   -0.067980   -0.052975
  N     -1.136930   -0.734473   -0.026447
  C     -0.993920   -2.088869    0.034162
  O     -2.164951   -2.746616    0.058705
  N      0.078774   -2.816719    0.068966
  O      1.296488   -2.076027    0.039411
  C      1.307670   -0.732120   -0.019991
  N      2.368838   -0.030727   -0.048207
  H      0.915628    1.712475   -0.129257
  H     -0.845873    1.788491   -0.137421
  H     -1.958305   -3.691015    0.100690
  H      3.205411   -0.614030   -0.020180

 Total Charge           Charge          ....    0
 Multiplicity           Mult            ....    1
 Number of Electrons    NEL             ....   66
 Basis Dimension        Dim             ....  303

ORBITAL ENERGIES
----------------

  NO   OCC          E(Eh)            E(eV)
   0   2.0000     -20.639762      -561.6365
   1   2.0000     -20.611322      -560.8626
   2   2.0000     -15.616195      -424.9383
   3   2.0000     -15.613365      -424.8613
   4   2.0000     -15.578321      -423.9077
   5   2.0000     -15.568571      -423.6424
   6   2.0000     -11.386839      -309.8516
   7   2.0000     -11.379456      -309.6507
   8   2.0000     -11.375409      -309.5406
   9   2.0000      -1.486187       -40.4412
  10   2.0000      -1.441574       -39.2272
  11   2.0000      -1.324780       -36.0491
  12   2.0000      -1.254495       -34.1365
  13   2.0000      -1.208725       -32.8911
  14   2.0000      -1.136547       -30.9270
  15   2.0000      -0.954121       -25.9630
  16   2.0000      -0.897908       -24.4333
  17   2.0000      -0.817045       -22.2329
  18   2.0000      -0.787706       -21.4346
  19   2.0000      -0.722550       -19.6616
  20   2.0000      -0.702207       -19.1080
  21   2.0000      -0.684032       -18.6135
  22   2.0000      -0.680902       -18.5283
  23   2.0000      -0.624793       -17.0015
  24   2.0000      -0.612027       -16.6541
  25   2.0000      -0.575719       -15.6661
  26   2.0000      -0.571332       -15.5467
  27   2.0000      -0.538681       -14.6582
  28   2.0000      -0.496283       -13.5045
  29   2.0000      -0.475661       -12.9434
  30   2.0000      -0.433982       -11.8092
  31   2.0000      -0.428748       -11.6668
  32   2.0000      -0.359087        -9.7712
  33   0.0000       0.068754         1.8709
  34   0.0000       0.131902         3.5892
  35   0.0000       0.150666         4.0998
  36   0.0000       0.160713         4.3732
  37   0.0000       0.177891         4.8407

MULLIKEN ATOMIC CHARGES
-----------------------
   0 N :   -0.428468
   1 C :    0.252761
   2 N :   -0.276241
   3 C :    0.293450
   4 O :   -0.388346
   5 N :   -0.199129
   6 O :   -0.137362
   7 C :    0.194549
   8 N :   -0.456408
   9 H :    0.298347
  10 H :    0.271581
  11 H :    0.344380
  12 H :    0.230887
Sum of atomic charges:    0.0000000

LOEWDIN ATOMIC CHARGES
----------------------
   0 N :    0.057408
   1 C :   -0.307995
   2 N :    0.141901
   3 C :   -0.519028
   4 O :    0.104275
   5 N :   -0.002143
   6 O :    0.241163
   7 C :   -0.399923
   8 N :   -0.066188
   9 H :    0.192006
  10 H :    0.183745
  11 H :    0.203613
  12 H :    0.171166

  Mayer bond orders larger than 0.1
B(  0-N ,  1-C ) :   1.2775 B(  0-N ,  9-H ) :   0.8356 B(  0-N , 10-H ) :   0.8521
B(  1-C ,  2-N ) :   1.5917 B(  1-C ,  7-C ) :   0.9731 B(  2-N ,  3-C ) :   1.2091
B(  3-C ,  4-O ) :   1.1450 B(  3-C ,  5-N ) :   1.6626 B(  4-O , 11-H ) :   0.8134
B(  5-N ,  6-O ) :   0.7645 B(  6-O ,  7-C ) :   1.1581 B(  7-C ,  8-N ) :   1.8438
B(  8-N , 12-H ) :   0.8539

MP2 TOTAL ENERGY:     -485.291617195 Eh
FINAL SINGLE POINT ENERGY      -485.291617194933

DIPOLE MOMENT
-------------
                                X             Y             Z
Electronic contribution:     -0.86738      -2.76332       0.12085
Nuclear contribution   :      0.94814       3.47180      -0.15219
                        -----------------------------------------
Total Dipole Moment    :      0.08075       0.70847      -0.03135
                        -----------------------------------------
Magnitude (a.u.)       :      0.71375
Magnitude (Debye)      :      1.81421

                             ****ORCA TERMINATED NORMALLY****
TOTAL RUN TIME: 0 days 0 hours 13 minutes 52 seconds 575 msec
