                         Program Version 3.0.3 - RELEASE   -
|  1> ! RI-MP2 RIJK def2-TZVP def2-TZVP/C def2-TZVP/JK TIGHTSCF
|  2> % maxcore 2000
|  3> % mp2 density relaxed end
|  4> *xyz 0 1
|  5>  C       -0.5026470250     1.3848429740    -0.0893797666
|  6>  N       -0.0242415542     0.0190445432     0.0300850013
|  7>  C        1.3322647707    -0.3995480409    -0.3169703278
|  8>  C        2.4377477632     0.5816681017    -0.7052294918
|  9>  C        3.2797140531     1.0505507932     0.4925719948
| 10>  C        2.3862348898     1.5576375602     1.6280963984
| 11>  C        1.4695879218     0.4444787746     2.1618139304
| 12>  O        0.4092145635     0.9608890923     2.9662449135
| 13>  C        0.8374459443    -0.4425709634     1.1033119843
| 14>  H        0.2662995218     2.1692346697    -0.0746427493
| 15>  H       -1.0502895801     1.4781722027    -1.0337398201
| 16>  H       -1.1923407607     1.5835426264     0.7340757555
| 17>  H        1.3521733384    -1.3370809755    -0.8707327411
| 18>  H        3.0851991232     0.0980296101    -1.4433313022
| 19>  H        2.0073582258     1.4552611512    -1.2110776142
| 20>  H        3.8902539658     0.2135015755     0.8569372307
| 21>  H        3.9795042186     1.8335671282     0.1798411717
| 22>  H        2.9983120056     1.9357699093     2.4572841237
| 23>  H        1.7748164321     2.3980442068     1.2839144525
| 24>  H        2.0969696312    -0.2314452777     2.7693871325
| 25>  H        0.8034345793     1.4771190282     3.6773296579
| 26>  H        0.5191696617    -1.4002804198     1.5147705059
| 27> *
| 28>
| 29>                          ****END OF INPUT****

CARTESIAN COORDINATES (ANGSTROEM)
---------------------------------
  C     -0.502647    1.384843   -0.089380
  N     -0.024242    0.019045    0.030085
  C      1.332265   -0.399548   -0.316970
  C      2.437748    0.581668   -0.705229
  C      3.279714    1.050551    0.492572
  C      2.386235    1.557638    1.628096
  C      1.469588    0.444479    2.161814
  O      0.409215    0.960889    2.966245
  C      0.837446   -0.442571    1.103312
  H      0.266300    2.169235   -0.074643
  H     -1.050290    1.478172   -1.033740
  H     -1.192341    1.583543    0.734076
  H      1.352173   -1.337081   -0.870733
  H      3.085199    0.098030   -1.443331
  H      2.007358    1.455261   -1.211078
  H      3.890254    0.213502    0.856937
  H      3.979504    1.833567    0.179841
  H      2.998312    1.935770    2.457284
  H      1.774816    2.398044    1.283914
  H      2.096970   -0.231445    2.769387
  H      0.803435    1.477119    3.677330
  H      0.519170   -1.400280    1.514771

 Total Charge           Charge          ....    0
 Multiplicity           Mult            ....    1
 Number of Electrons    NEL             ....   70
 Basis Dimension        Dim             ....  357

ORBITAL ENERGIES
----------------

  NO   OCC          E(Eh)            E(eV)
   0   2.0000     -20.554938      -559.3283
   1   2.0000     -15.545025      -423.0016
   2   2.0000     -11.283658      -307.0439
   3   2.0000     -11.252295      -306.1905
   4   2.0000     -11.247252      -306.0533
   5   2.0000     -11.234235      -305.6991
   6   2.0000     -11.228042      -305.5306
   7   2.0000     -11.225957      -305.4738
   8   2.0000     -11.225108      -305.4507
   9   2.0000      -1.361003       -37.0348
  10   2.0000      -1.262384       -34.3512
  11   2.0000      -1.084224       -29.5032
  12   2.0000      -0.998014       -27.1573
  13   2.0000      -0.990352       -26.9488
  14   2.0000      -0.891775       -24.2664
  15   2.0000      -0.845938       -23.0191
  16   2.0000      -0.767913       -20.8960
  17   2.0000      -0.737082       -20.0570
  18   2.0000      -0.693069       -18.8594
  19   2.0000      -0.682829       -18.5807
  20   2.0000      -0.636301       -17.3146
  21   2.0000      -0.624677       -16.9983
  22   2.0000      -0.593755       -16.1569
  23   2.0000      -0.571378       -15.5480
  24   2.0000      -0.566374       -15.4118
  25   2.0000      -0.552489       -15.0340
  26   2.0000      -0.543239       -14.7823
  27   2.0000      -0.537969       -14.6389
  28   2.0000      -0.496611       -13.5135
  29   2.0000      -0.481108       -13.0916
  30   2.0000      -0.458358       -12.4725
  31   2.0000      -0.438917       -11.9435
  32   2.0000      -0.431343       -11.7374
  33   2.0000      -0.419935       -11.4270
  34   2.0000      -0.352263        -9.5856
  35   0.0000       0.126348         3.4381
  36   0.0000       0.146554         3.9879
  37   0.0000       0.158029         4.3002
  38   0.0000       0.173700         4.7266
  39   0.0000       0.185868         5.0577

MULLIKEN ATOMIC CHARGES
-----------------------
   0 C :   -0.291627
   1 N :   -0.218405
   2 C :   -0.065464
   3 C :   -0.266141
   4 C :   -0.220140
   5 C :   -0.291664
   6 C :    0.081309
   7 O :   -0.455778
   8 C :   -0.030573
   9 H :    0.089236
  10 H :    0.138165
  11 H :    0.153322
  12 H :    0.118672
  13 H :    0.129911
  14 H :    0.131891
  15 H :    0.113319
  16 H :    0.123051
  17 H :    0.119353
  18 H :    0.134908
  19 H :    0.080112
  20 H :    0.309096
  21 H :    0.117448
Sum of atomic charges:   -0.0000000

LOEWDIN ATOMIC CHARGES
----------------------
   0 C :   -0.330369
   1 N :    0.118976
   2 C :   -0.222868
   3 C :   -0.248802
   4 C :   -0.259072
   5 C :   -0.257559
   6 C :   -0.333280
   7 O :   -0.019777
   8 C :   -0.220529
   9 H :    0.098995
  10 H :    0.116531
  11 H :    0.125453
  12 H :    0.139514
  13 H :    0.142577
  14 H :    0.142280
  15 H :    0.139669
  16 H :    0.136367
  17 H :    0.135430
  18 H :    0.138014
  19 H :    0.142424
  20 H :    0.171684
  21 H :    0.144341

  Mayer bond orders larger than 0.1
B(  0-C ,  1-N ) :   0.8922 B(  0-C ,  9-H ) :   0.9206 B(  0-C , 10-H ) :   0.9354
B(  0-C , 11-H ) :   0.9346 B(  1-N ,  2-C ) :   0.9285 B(  1-N ,  8-C ) :   0.9321
B(  2-C ,  3-C ) :   0.8944 B(  2-C ,  8-C ) :   0.9120 B(  2-C , 12-H ) :   0.9223
B(  3-C ,  4-C ) :   0.9282 B(  3-C , 13-H ) :   0.9306 B(  3-C , 14-H ) :   0.9383
B(  4-C ,  5-C ) :   0.9071 B(  4-C , 15-H ) :   0.9315 B(  4-C , 16-H ) :   0.9304
B(  5-C ,  6-C ) :   0.9019 B(  5-C , 17-H ) :   0.9233 B(  5-C , 18-H ) :   0.9425
B(  6-C ,  7-O ) :   1.0094 B(  6-C ,  8-C ) :   0.9143 B(  6-C , 19-H ) :   0.9294
B(  7-O , 20-H ) :   0.8458 B(  8-C , 21-H ) :   0.9222

MP2 TOTAL ENERGY:     -403.639721349 Eh
FINAL SINGLE POINT ENERGY      -403.639721349481

DIPOLE MOMENT
-------------
                                X             Y             Z
Electronic contribution:     -2.71522      -3.05961       2.24596
Nuclear contribution   :      3.71564       3.51457      -2.04828
                        -----------------------------------------
Total Dipole Moment    :      1.00042       0.45496       0.19768
                        -----------------------------------------
Magnitude (a.u.)       :      1.11665
Magnitude (Debye)      :      2.83829

                             ****ORCA TERMINATED NORMALLY****
TOTAL RUN TIME: 0 days 0 hours 19 minutes 49 seconds 662 msec
