                         Program Version 3.0.3 - RELEASE   -
|  1> ! RI-MP2 RIJK def2-TZVP def2-TZVP/C def2-TZVP/JK TIGHTSCF
|  2> % maxcore 2000
|  3> % mp2 density relaxed end
|  4> *xyz 0 1
|  5>  O        0.3103286901     0.2866226231    -0.9965673639
|  6>  C        0.2854305640     1.3318636471    -0.4383993231
|  7>  C       -0.8158862581     2.3742565215    -0.1063810404
|  8>  C        0.3295015154     3.4104397156     0.1690967027
|  9>  C        1.4081946874     2.2755550254     0.1264403093
| 10>  C        1.9380965206     1.8638303520     1.4121090987
| 11>  N        2.3294017292     1.5341821684     2.4493290072
| 12>  C       -1.8266427276     2.6600248370    -1.0958885121
| 13>  C       -2.6444714897     2.9008620817    -1.9426843256
| 14>  H       -1.2737857599     2.0671680340     0.8440218667
| 15>  H        0.4550569480     4.1116189370    -0.6555442666
| 16>  H        0.2525108061     3.9523971499     1.1096752083
| 17>  H        2.2242735344     2.4260113834    -0.5853130483
| 18>  H       -3.3743560799     3.1088659540    -2.6858981729
| 19> *
| 20>
| 21>                          ****END OF INPUT****

CARTESIAN COORDINATES (ANGSTROEM)
---------------------------------
  O      0.310329    0.286623   -0.996567
  C      0.285431    1.331864   -0.438399
  C     -0.815886    2.374257   -0.106381
  C      0.329502    3.410440    0.169097
  C      1.408195    2.275555    0.126440
  C      1.938097    1.863830    1.412109
  N      2.329402    1.534182    2.449329
  C     -1.826643    2.660025   -1.095889
  C     -2.644471    2.900862   -1.942684
  H     -1.273786    2.067168    0.844022
  H      0.455057    4.111619   -0.655544
  H      0.252511    3.952397    1.109675
  H      2.224274    2.426011   -0.585313
  H     -3.374356    3.108866   -2.685898

 Total Charge           Charge          ....    0
 Multiplicity           Mult            ....    1
 Number of Electrons    NEL             ....   62
 Basis Dimension        Dim             ....  309

ORBITAL ENERGIES
----------------

  NO   OCC          E(Eh)            E(eV)
   0   2.0000     -20.595189      -560.4236
   1   2.0000     -15.588442      -424.1831
   2   2.0000     -11.378244      -309.6177
   3   2.0000     -11.314099      -307.8723
   4   2.0000     -11.302803      -307.5649
   5   2.0000     -11.292525      -307.2852
   6   2.0000     -11.286457      -307.1201
   7   2.0000     -11.259027      -306.3737
   8   2.0000     -11.250263      -306.1352
   9   2.0000      -1.441619       -39.2284
  10   2.0000      -1.239051       -33.7163
  11   2.0000      -1.185777       -32.2666
  12   2.0000      -1.070744       -29.1364
  13   2.0000      -0.995113       -27.0784
  14   2.0000      -0.912926       -24.8420
  15   2.0000      -0.830478       -22.5985
  16   2.0000      -0.756993       -20.5988
  17   2.0000      -0.719875       -19.5888
  18   2.0000      -0.710251       -19.3269
  19   2.0000      -0.676241       -18.4015
  20   2.0000      -0.658488       -17.9184
  21   2.0000      -0.597330       -16.2542
  22   2.0000      -0.580289       -15.7905
  23   2.0000      -0.566349       -15.4111
  24   2.0000      -0.563828       -15.3425
  25   2.0000      -0.536438       -14.5972
  26   2.0000      -0.501370       -13.6430
  27   2.0000      -0.473303       -12.8792
  28   2.0000      -0.449094       -12.2205
  29   2.0000      -0.410726       -11.1764
  30   2.0000      -0.396953       -10.8016
  31   0.0000       0.094232         2.5642
  32   0.0000       0.110838         3.0160
  33   0.0000       0.127651         3.4736
  34   0.0000       0.147808         4.0221
  35   0.0000       0.152100         4.1388

MULLIKEN ATOMIC CHARGES
-----------------------
   0 O :   -0.194751
   1 C :    0.134534
   2 C :   -0.192086
   3 C :   -0.256009
   4 C :    0.102066
   5 C :   -0.245101
   6 N :   -0.046329
   7 C :   -0.062526
   8 C :   -0.101796
   9 H :    0.172202
  10 H :    0.157757
  11 H :    0.159426
  12 H :    0.171537
  13 H :    0.201077
Sum of atomic charges:    0.0000000

LOEWDIN ATOMIC CHARGES
----------------------
   0 O :    0.219864
   1 C :   -0.239573
   2 C :   -0.184857
   3 C :   -0.146487
   4 C :   -0.178188
   5 C :   -0.173059
   6 N :    0.073820
   7 C :   -0.091063
   8 C :   -0.070709
   9 H :    0.190093
  10 H :    0.147171
  11 H :    0.142368
  12 H :    0.179792
  13 H :    0.130828

  Mayer bond orders larger than 0.1
B(  0-O ,  1-C ) :   2.0804 B(  1-C ,  2-C ) :   0.8378 B(  1-C ,  4-C ) :   0.7726
B(  2-C ,  3-C ) :   0.9226 B(  2-C ,  4-C ) :  -0.1154 B(  2-C ,  7-C ) :   1.1746
B(  2-C ,  8-C ) :  -0.1250 B(  2-C ,  9-H ) :   0.8769 B(  3-C ,  4-C ) :   0.8683
B(  3-C , 10-H ) :   0.9259 B(  3-C , 11-H ) :   0.9271 B(  4-C ,  5-C ) :   0.9522
B(  4-C , 12-H ) :   0.8828 B(  5-C ,  6-N ) :   2.8392 B(  7-C ,  8-C ) :   2.5884
B(  8-C , 13-H ) :   0.8861

MP2 TOTAL ENERGY:     -398.821465035 Eh
FINAL SINGLE POINT ENERGY      -398.821465035486

DIPOLE MOMENT
-------------
                                X             Y             Z
Electronic contribution:      1.75758      -3.79988       0.77372
Nuclear contribution   :     -2.38134       5.06610      -1.60893
                        -----------------------------------------
Total Dipole Moment    :     -0.62376       1.26622      -0.83521
                        -----------------------------------------
Magnitude (a.u.)       :      1.64011
Magnitude (Debye)      :      4.16883

                             ****ORCA TERMINATED NORMALLY****
TOTAL RUN TIME: 0 days 0 hours 13 minutes 4 seconds 792 msec
