                         Program Version 3.0.3 - RELEASE   -
|  1> ! RI-MP2 RIJK def2-TZVP def2-TZVP/C def2-TZVP/JK TIGHTSCF
|  2> % maxcore 2000
|  3> % mp2 density relaxed end
|  4> *xyz 0 1
|  5>  C        0.1974347929     1.6123028105     0.2830893525
|  6>  C       -0.0174567115     0.1426720286    -0.0714327621
|  7>  N        0.6116404965    -0.2400700324    -1.3259806967
|  8>  C       -0.1015025031    -0.7324295979    -2.3862573580
|  9>  O       -1.2991225360    -0.9460427114    -2.3574818880
| 10>  C        0.7155705321    -0.9824857839    -3.5651089550
| 11>  C        1.3675015268    -1.1966445393    -4.5520908775
| 12>  C        0.4467747883    -0.8062451014     1.0337091802
| 13>  O        0.7330118499    -0.4631145179     2.1497801364
| 14>  H        1.2640604745     1.8441132146     0.3681026775
| 15>  H       -0.2425833737     2.2573790589    -0.4806320195
| 16>  H       -0.2614154556     1.8323825249     1.2490443064
| 17>  H       -1.0858417666    -0.0648958656    -0.2219159203
| 18>  H        1.5938770719    -0.0537749078    -1.4591252218
| 19>  H        1.9310180318    -1.3908993159    -5.4322804566
| 20>  H        0.5017332819    -1.8701839941     0.7113694026
| 21> *
| 22>
| 23>                          ****END OF INPUT****

CARTESIAN COORDINATES (ANGSTROEM)
---------------------------------
  C      0.197435    1.612303    0.283089
  C     -0.017457    0.142672   -0.071433
  N      0.611640   -0.240070   -1.325981
  C     -0.101503   -0.732430   -2.386257
  O     -1.299123   -0.946043   -2.357482
  C      0.715571   -0.982486   -3.565109
  C      1.367502   -1.196645   -4.552091
  C      0.446775   -0.806245    1.033709
  O      0.733012   -0.463115    2.149780
  H      1.264060    1.844113    0.368103
  H     -0.242583    2.257379   -0.480632
  H     -0.261415    1.832383    1.249044
  H     -1.085842   -0.064896   -0.221916
  H      1.593877   -0.053775   -1.459125
  H      1.931018   -1.390899   -5.432280
  H      0.501733   -1.870184    0.711369

 Total Charge           Charge          ....    0
 Multiplicity           Mult            ....    1
 Number of Electrons    NEL             ....   66
 Basis Dimension        Dim             ....  321

ORBITAL ENERGIES
----------------

  NO   OCC          E(Eh)            E(eV)
   0   2.0000     -20.571094      -559.7679
   1   2.0000     -20.546432      -559.0968
   2   2.0000     -15.612974      -424.8506
   3   2.0000     -11.396190      -310.1061
   4   2.0000     -11.341822      -308.6267
   5   2.0000     -11.295974      -307.3791
   6   2.0000     -11.273620      -306.7708
   7   2.0000     -11.265637      -306.5536
   8   2.0000     -11.235477      -305.7329
   9   2.0000      -1.413421       -38.4611
  10   2.0000      -1.409365       -38.3508
  11   2.0000      -1.264412       -34.4064
  12   2.0000      -1.084202       -29.5026
  13   2.0000      -1.045824       -28.4583
  14   2.0000      -0.933039       -25.3893
  15   2.0000      -0.882462       -24.0130
  16   2.0000      -0.806806       -21.9543
  17   2.0000      -0.780080       -21.2271
  18   2.0000      -0.734478       -19.9862
  19   2.0000      -0.699855       -19.0440
  20   2.0000      -0.671344       -18.2682
  21   2.0000      -0.661575       -18.0024
  22   2.0000      -0.625215       -17.0130
  23   2.0000      -0.604411       -16.4469
  24   2.0000      -0.565603       -15.3909
  25   2.0000      -0.553644       -15.0654
  26   2.0000      -0.545701       -14.8493
  27   2.0000      -0.518238       -14.1020
  28   2.0000      -0.471772       -12.8376
  29   2.0000      -0.454118       -12.3572
  30   2.0000      -0.432411       -11.7665
  31   2.0000      -0.432332       -11.7644
  32   2.0000      -0.407123       -11.0784
  33   0.0000       0.091298         2.4844
  34   0.0000       0.110043         2.9944
  35   0.0000       0.141275         3.8443
  36   0.0000       0.145340         3.9549
  37   0.0000       0.154596         4.2068

MULLIKEN ATOMIC CHARGES
-----------------------
   0 C :   -0.387884
   1 C :    0.059470
   2 N :   -0.348126
   3 C :    0.160485
   4 O :   -0.336991
   5 C :   -0.030647
   6 C :   -0.074733
   7 C :    0.068907
   8 O :   -0.252116
   9 H :    0.124299
  10 H :    0.148553
  11 H :    0.153511
  12 H :    0.158136
  13 H :    0.250851
  14 H :    0.205130
  15 H :    0.101156
Sum of atomic charges:   -0.0000000

LOEWDIN ATOMIC CHARGES
----------------------
   0 C :   -0.284436
   1 C :   -0.301701
   2 N :    0.147500
   3 C :   -0.451596
   4 O :    0.113256
   5 C :   -0.061380
   6 C :   -0.048947
   7 C :   -0.275849
   8 O :    0.146955
   9 H :    0.126653
  10 H :    0.129073
  11 H :    0.136490
  12 H :    0.177138
  13 H :    0.196588
  14 H :    0.132801
  15 H :    0.117455

  Mayer bond orders larger than 0.1
B(  0-C ,  1-C ) :   0.9298 B(  0-C ,  9-H ) :   0.9225 B(  0-C , 10-H ) :   0.9361
B(  0-C , 11-H ) :   0.9284 B(  1-C ,  2-N ) :   0.7913 B(  1-C ,  7-C ) :   0.8583
B(  1-C , 12-H ) :   0.8904 B(  2-N ,  3-C ) :   1.2302 B(  2-N , 13-H ) :   0.8644
B(  3-C ,  4-O ) :   1.9482 B(  3-C ,  5-C ) :   1.0298 B(  3-C ,  6-C ) :  -0.1082
B(  5-C ,  6-C ) :   2.6461 B(  6-C , 14-H ) :   0.8875 B(  7-C ,  8-O ) :   2.0128
B(  7-C , 15-H ) :   0.9458

MP2 TOTAL ENERGY:     -437.151321293 Eh
FINAL SINGLE POINT ENERGY      -437.151321293270

DIPOLE MOMENT
-------------
                                X             Y             Z
Electronic contribution:     -0.58540      -4.49767      -2.96933
Nuclear contribution   :      1.64301       4.84919       2.35252
                        -----------------------------------------
Total Dipole Moment    :      1.05761       0.35152      -0.61681
                        -----------------------------------------
Magnitude (a.u.)       :      1.27379
Magnitude (Debye)      :      3.23773

                             ****ORCA TERMINATED NORMALLY****
TOTAL RUN TIME: 0 days 0 hours 15 minutes 53 seconds 569 msec
