                         Program Version 3.0.3 - RELEASE   -
|  1> ! RI-MP2 RIJK def2-TZVP def2-TZVP/C def2-TZVP/JK TIGHTSCF
|  2> % maxcore 2000
|  3> % mp2 density relaxed end
|  4> *xyz 0 1
|  5>  C       -0.2275580038     1.5128333273    -0.0644569889
|  6>  N       -0.1719683750     0.0706417895     0.0420897203
|  7>  C       -1.3508334948    -0.6457484720     0.5728158512
|  8>  C       -0.3930772990    -1.5413340187     1.3590935408
|  9>  C       -0.6204643618    -2.4124072827     2.5230452073
| 10>  N       -0.2158888743    -2.9807970995     1.2187707679
| 11>  C        0.7284139748    -0.5299477096     1.0487220321
| 12>  C        2.0109707286    -1.1124559722     0.4890555401
| 13>  O        3.0461036970    -1.1727142739     1.0996413085
| 14>  H        0.7460404263     1.8984245284    -0.3830491371
| 15>  H       -0.9648154388     1.7988886967    -0.8217176199
| 16>  H       -0.5001757579     2.0093663447     0.8855048185
| 17>  H       -1.9901460434    -0.0267921507     1.2236030064
| 18>  H       -1.9788319521    -1.1220860124    -0.1907288979
| 19>  H        0.1299556804    -2.4894093948     3.3051307502
| 20>  H       -1.6454901326    -2.5501075969     2.8597480330
| 21>  H       -1.0165500779    -3.3923730762     0.7447083106
| 22>  H        0.9631594751     0.1178442200     1.9070573361
| 23>  H        1.9057904492    -1.4954478969    -0.5490388191
| 24> *
| 25>
| 26>                          ****END OF INPUT****

CARTESIAN COORDINATES (ANGSTROEM)
---------------------------------
  C     -0.227558    1.512833   -0.064457
  N     -0.171968    0.070642    0.042090
  C     -1.350833   -0.645748    0.572816
  C     -0.393077   -1.541334    1.359094
  C     -0.620464   -2.412407    2.523045
  N     -0.215889   -2.980797    1.218771
  C      0.728414   -0.529948    1.048722
  C      2.010971   -1.112456    0.489056
  O      3.046104   -1.172714    1.099641
  H      0.746040    1.898425   -0.383049
  H     -0.964815    1.798889   -0.821718
  H     -0.500176    2.009366    0.885505
  H     -1.990146   -0.026792    1.223603
  H     -1.978832   -1.122086   -0.190729
  H      0.129956   -2.489409    3.305131
  H     -1.645490   -2.550108    2.859748
  H     -1.016550   -3.392373    0.744708
  H      0.963159    0.117844    1.907057
  H      1.905790   -1.495448   -0.549039

 Total Charge           Charge          ....    0
 Multiplicity           Mult            ....    1
 Number of Electrons    NEL             ....   68
 Basis Dimension        Dim             ....  339

ORBITAL ENERGIES
----------------

  NO   OCC          E(Eh)            E(eV)
   0   2.0000     -20.551889      -559.2453
   1   2.0000     -15.571639      -423.7258
   2   2.0000     -15.565897      -423.5696
   3   2.0000     -11.322297      -308.0954
   4   2.0000     -11.285373      -307.0906
   5   2.0000     -11.272446      -306.7389
   6   2.0000     -11.271925      -306.7247
   7   2.0000     -11.267895      -306.6150
   8   2.0000     -11.256765      -306.3121
   9   2.0000      -1.390338       -37.8330
  10   2.0000      -1.296633       -35.2832
  11   2.0000      -1.245042       -33.8793
  12   2.0000      -1.022632       -27.8272
  13   2.0000      -0.974278       -26.5115
  14   2.0000      -0.904495       -24.6126
  15   2.0000      -0.851139       -23.1607
  16   2.0000      -0.816594       -22.2206
  17   2.0000      -0.757907       -20.6237
  18   2.0000      -0.706888       -19.2354
  19   2.0000      -0.669844       -18.2274
  20   2.0000      -0.665306       -18.1039
  21   2.0000      -0.645685       -17.5700
  22   2.0000      -0.612446       -16.6655
  23   2.0000      -0.595883       -16.2148
  24   2.0000      -0.582716       -15.8565
  25   2.0000      -0.560882       -15.2624
  26   2.0000      -0.535751       -14.5785
  27   2.0000      -0.511919       -13.9300
  28   2.0000      -0.497983       -13.5508
  29   2.0000      -0.474992       -12.9252
  30   2.0000      -0.464284       -12.6338
  31   2.0000      -0.423052       -11.5118
  32   2.0000      -0.405513       -11.0346
  33   2.0000      -0.369934       -10.0664
  34   0.0000       0.126849         3.4517
  35   0.0000       0.128856         3.5064
  36   0.0000       0.144579         3.9342
  37   0.0000       0.162609         4.4248
  38   0.0000       0.177236         4.8228

MULLIKEN ATOMIC CHARGES
-----------------------
   0 C :   -0.331272
   1 N :   -0.156215
   2 C :   -0.138890
   3 C :    0.066928
   4 C :   -0.206100
   5 N :   -0.390505
   6 C :    0.086694
   7 C :    0.057020
   8 O :   -0.256597
   9 H :    0.143689
  10 H :    0.140741
  11 H :    0.112062
  12 H :    0.104797
  13 H :    0.108475
  14 H :    0.133861
  15 H :    0.131331
  16 H :    0.220720
  17 H :    0.093667
  18 H :    0.079593
Sum of atomic charges:    0.0000000

LOEWDIN ATOMIC CHARGES
----------------------
   0 C :   -0.334577
   1 N :    0.095247
   2 C :   -0.213561
   3 C :   -0.269237
   4 C :   -0.237160
   5 N :    0.013960
   6 C :   -0.211645
   7 C :   -0.267137
   8 O :    0.138681
   9 H :    0.122000
  10 H :    0.120421
  11 H :    0.103621
  12 H :    0.126395
  13 H :    0.124505
  14 H :    0.131975
  15 H :    0.125482
  16 H :    0.168753
  17 H :    0.147592
  18 H :    0.114687

  Mayer bond orders larger than 0.1
B(  0-C ,  1-N ) :   0.9018 B(  0-C ,  9-H ) :   0.9346 B(  0-C , 10-H ) :   0.9362
B(  0-C , 11-H ) :   0.9281 B(  1-N ,  2-C ) :   0.9603 B(  1-N ,  6-C ) :   0.9248
B(  2-C ,  3-C ) :   0.9162 B(  2-C , 12-H ) :   0.9163 B(  2-C , 13-H ) :   0.9018
B(  3-C ,  4-C ) :   0.9260 B(  3-C ,  5-N ) :   0.8670 B(  3-C ,  6-C ) :   0.8669
B(  4-C ,  5-N ) :   0.9694 B(  4-C , 14-H ) :   0.9070 B(  4-C , 15-H ) :   0.9256
B(  5-N , 16-H ) :   0.8619 B(  6-C ,  7-C ) :   0.8009 B(  6-C , 17-H ) :   0.8974
B(  7-C ,  8-O ) :   2.0064 B(  7-C , 18-H ) :   0.9462

MP2 TOTAL ENERGY:     -418.441568424 Eh
FINAL SINGLE POINT ENERGY      -418.441568423664

DIPOLE MOMENT
-------------
                                X             Y             Z
Electronic contribution:      5.39199      -3.63961       0.20677
Nuclear contribution   :     -7.07315       4.10866      -0.16443
                        -----------------------------------------
Total Dipole Moment    :     -1.68116       0.46905       0.04234
                        -----------------------------------------
Magnitude (a.u.)       :      1.74588
Magnitude (Debye)      :      4.43767

                             ****ORCA TERMINATED NORMALLY****
TOTAL RUN TIME: 0 days 0 hours 16 minutes 52 seconds 558 msec
