                         Program Version 3.0.3 - RELEASE   -
|  1> ! RI-MP2 RIJK def2-TZVP def2-TZVP/C def2-TZVP/JK TIGHTSCF
|  2> % maxcore 2000
|  3> % mp2 density relaxed end
|  4> *xyz 0 1
|  5>  C        0.0216318911     1.4651969422    -0.0242166116
|  6>  C        0.0171409134    -0.0412439154     0.0141496782
|  7>  C       -0.3509758998    -0.7963161887    -1.2874258132
|  8>  C       -0.0612272504    -2.2777725881    -1.1457356959
|  9>  N       -0.7428088232    -2.2730213887     0.2069816380
| 10>  C        0.2813293469    -2.1116603733     1.2511508872
| 11>  C        0.9327802536    -0.7432095139     0.9776655452
| 12>  O        1.9319835868    -0.2910142603     1.4797295211
| 13>  C       -1.2344533152    -0.8840279077    -0.0823352571
| 14>  H        1.0135976753     1.8327702268    -0.3034566746
| 15>  H       -0.7037251074     1.8501013157    -0.7473943549
| 16>  H       -0.2196245893     1.8846438347     0.9574106814
| 17>  H       -0.4923915582    -0.2286653342    -2.2000520159
| 18>  H       -0.6325892711    -2.8919115962    -1.8476500078
| 19>  H        0.9823434858    -2.6123569005    -1.1376931260
| 20>  H       -0.1954607243    -2.0874668165     2.2390945846
| 21>  H        1.0059764349    -2.9294367199     1.2457840708
| 22>  H       -2.2473919190    -0.5624446561     0.1258457305
| 23> *
| 24>
| 25>                          ****END OF INPUT****

CARTESIAN COORDINATES (ANGSTROEM)
---------------------------------
  C      0.021632    1.465197   -0.024217
  C      0.017141   -0.041244    0.014150
  C     -0.350976   -0.796316   -1.287426
  C     -0.061227   -2.277773   -1.145736
  N     -0.742809   -2.273021    0.206982
  C      0.281329   -2.111660    1.251151
  C      0.932780   -0.743210    0.977666
  O      1.931984   -0.291014    1.479730
  C     -1.234453   -0.884028   -0.082335
  H      1.013598    1.832770   -0.303457
  H     -0.703725    1.850101   -0.747394
  H     -0.219625    1.884644    0.957411
  H     -0.492392   -0.228665   -2.200052
  H     -0.632589   -2.891912   -1.847650
  H      0.982343   -2.612357   -1.137693
  H     -0.195461   -2.087467    2.239095
  H      1.005976   -2.929437    1.245784
  H     -2.247392   -0.562445    0.125846

 Total Charge           Charge          ....    0
 Multiplicity           Mult            ....    1
 Number of Electrons    NEL             ....   66
 Basis Dimension        Dim             ....  333

ORBITAL ENERGIES
----------------

  NO   OCC          E(Eh)            E(eV)
   0   2.0000     -20.545576      -559.0735
   1   2.0000     -15.571983      -423.7352
   2   2.0000     -11.328486      -308.2638
   3   2.0000     -11.276809      -306.8576
   4   2.0000     -11.270981      -306.6990
   5   2.0000     -11.264163      -306.5134
   6   2.0000     -11.261112      -306.4304
   7   2.0000     -11.257796      -306.3402
   8   2.0000     -11.231427      -305.6227
   9   2.0000      -1.389615       -37.8133
  10   2.0000      -1.302804       -35.4511
  11   2.0000      -1.108582       -30.1661
  12   2.0000      -1.030132       -28.0313
  13   2.0000      -0.952298       -25.9134
  14   2.0000      -0.922242       -25.0955
  15   2.0000      -0.842734       -22.9320
  16   2.0000      -0.767409       -20.8822
  17   2.0000      -0.723033       -19.6747
  18   2.0000      -0.697188       -18.9715
  19   2.0000      -0.657461       -17.8904
  20   2.0000      -0.642220       -17.4757
  21   2.0000      -0.620403       -16.8820
  22   2.0000      -0.602115       -16.3844
  23   2.0000      -0.582620       -15.8539
  24   2.0000      -0.558815       -15.2061
  25   2.0000      -0.545620       -14.8471
  26   2.0000      -0.529369       -14.4049
  27   2.0000      -0.507167       -13.8007
  28   2.0000      -0.496904       -13.5214
  29   2.0000      -0.464913       -12.6509
  30   2.0000      -0.423455       -11.5228
  31   2.0000      -0.400239       -10.8910
  32   2.0000      -0.365084        -9.9344
  33   0.0000       0.136394         3.7115
  34   0.0000       0.139320         3.7911
  35   0.0000       0.152433         4.1479
  36   0.0000       0.161838         4.4038
  37   0.0000       0.172466         4.6930

MULLIKEN ATOMIC CHARGES
-----------------------
   0 C :   -0.435445
   1 C :    0.088188
   2 C :   -0.208694
   3 C :   -0.147019
   4 N :   -0.163099
   5 C :   -0.143540
   6 C :    0.104355
   7 O :   -0.276315
   8 C :   -0.069634
   9 H :    0.152959
  10 H :    0.137167
  11 H :    0.142706
  12 H :    0.141743
  13 H :    0.128282
  14 H :    0.122723
  15 H :    0.137796
  16 H :    0.142465
  17 H :    0.145365
Sum of atomic charges:    0.0000000

LOEWDIN ATOMIC CHARGES
----------------------
   0 C :   -0.255384
   1 C :   -0.196905
   2 C :   -0.147078
   3 C :   -0.212084
   4 N :    0.114949
   5 C :   -0.245506
   6 C :   -0.289706
   7 O :    0.150415
   8 C :   -0.152079
   9 H :    0.137735
  10 H :    0.131353
  11 H :    0.133299
  12 H :    0.143119
  13 H :    0.134330
  14 H :    0.126546
  15 H :    0.148052
  16 H :    0.141224
  17 H :    0.137719

  Mayer bond orders larger than 0.1
B(  0-C ,  1-C ) :   0.8867 B(  0-C ,  9-H ) :   0.9348 B(  0-C , 10-H ) :   0.9395
B(  0-C , 11-H ) :   0.9363 B(  1-C ,  2-C ) :   0.8026 B(  1-C ,  5-C ) :  -0.1186
B(  1-C ,  6-C ) :   0.8978 B(  1-C ,  8-C ) :   0.8231 B(  2-C ,  3-C ) :   0.9809
B(  2-C ,  8-C ) :   0.8641 B(  2-C , 12-H ) :   0.9192 B(  3-C ,  4-N ) :   0.9166
B(  3-C , 13-H ) :   0.9159 B(  3-C , 14-H ) :   0.9313 B(  4-N ,  5-C ) :   0.9366
B(  4-N ,  8-C ) :   0.9470 B(  5-C ,  6-C ) :   0.9423 B(  5-C , 15-H ) :   0.9014
B(  5-C , 16-H ) :   0.9238 B(  6-C ,  7-O ) :   2.0452 B(  8-C , 17-H ) :   0.9116

MP2 TOTAL ENERGY:     -401.234943631 Eh
FINAL SINGLE POINT ENERGY      -401.234943630710

DIPOLE MOMENT
-------------
                                X             Y             Z
Electronic contribution:      1.69614      -1.85663       2.29406
Nuclear contribution   :     -2.35373       1.94806      -3.00771
                        -----------------------------------------
Total Dipole Moment    :     -0.65760       0.09143      -0.71365
                        -----------------------------------------
Magnitude (a.u.)       :      0.97473
Magnitude (Debye)      :      2.47756

                             ****ORCA TERMINATED NORMALLY****
TOTAL RUN TIME: 0 days 0 hours 19 minutes 55 seconds 369 msec
