                         Program Version 3.0.3 - RELEASE   -
|  1> ! RI-MP2 RIJK def2-TZVP def2-TZVP/C def2-TZVP/JK TIGHTSCF
|  2> % maxcore 2000
|  3> % mp2 density relaxed end
|  4> *xyz 0 1
|  5>  C        0.0145723505     1.6003117255     0.0658970612
|  6>  C       -0.0688999573     0.0766656587    -0.0516631473
|  7>  C        0.7254045425    -0.4828248235    -1.2385918536
|  8>  O        2.1027154652    -0.1075368530    -1.1697981454
|  9>  C        0.5685085460    -2.0011747708    -1.3783386674
| 10>  C        1.3141620979    -2.5652410294    -2.6038450526
| 11>  C        1.2240071015    -4.0169654277    -2.7108542158
| 12>  C        1.1357496137    -5.2164632243    -2.7738620543
| 13>  C        1.0365168758    -6.6666673739    -2.8637194229
| 14>  H        1.0564965354     1.9251139350     0.1265102007
| 15>  H       -0.4326970181     2.0865528965    -0.8081302740
| 16>  H       -0.5130365593     1.9595203257     0.9544610586
| 17>  H        0.3059973802    -0.3922319570     0.8704155702
| 18>  H       -1.1152696067    -0.2390492282    -0.1473392518
| 19>  H        0.3669838448    -0.0028684321    -2.1598931497
| 20>  H        2.4656098348    -0.4891723189    -0.3618295469
| 21>  H        0.9446311358    -2.4900591113    -0.4691328608
| 22>  H       -0.4954755622    -2.2548362324    -1.4469041990
| 23>  H        0.9105982963    -2.1007005469    -3.5140445537
| 24>  H        2.3626938333    -2.2509561968    -2.5490863704
| 25>  H        0.5985749273    -6.9789292611    -3.8185135222
| 26>  H        2.0208354845    -7.1414323903    -2.7820878910
| 27>  H        0.4072238581    -7.0746261639    -2.0646069019
| 28> *
| 29>
| 30>                          ****END OF INPUT****

CARTESIAN COORDINATES (ANGSTROEM)
---------------------------------
  C      0.014572    1.600312    0.065897
  C     -0.068900    0.076666   -0.051663
  C      0.725405   -0.482825   -1.238592
  O      2.102715   -0.107537   -1.169798
  C      0.568509   -2.001175   -1.378339
  C      1.314162   -2.565241   -2.603845
  C      1.224007   -4.016965   -2.710854
  C      1.135750   -5.216463   -2.773862
  C      1.036517   -6.666667   -2.863719
  H      1.056497    1.925114    0.126510
  H     -0.432697    2.086553   -0.808130
  H     -0.513037    1.959520    0.954461
  H      0.305997   -0.392232    0.870416
  H     -1.115270   -0.239049   -0.147339
  H      0.366984   -0.002868   -2.159893
  H      2.465610   -0.489172   -0.361830
  H      0.944631   -2.490059   -0.469133
  H     -0.495476   -2.254836   -1.446904
  H      0.910598   -2.100701   -3.514045
  H      2.362694   -2.250956   -2.549086
  H      0.598575   -6.978929   -3.818514
  H      2.020835   -7.141432   -2.782088
  H      0.407224   -7.074626   -2.064607

 Total Charge           Charge          ....    0
 Multiplicity           Mult            ....    1
 Number of Electrons    NEL             ....   70
 Basis Dimension        Dim             ....  363

ORBITAL ENERGIES
----------------

  NO   OCC          E(Eh)            E(eV)
   0   2.0000     -20.554092      -559.3053
   1   2.0000     -11.279317      -306.9258
   2   2.0000     -11.241894      -305.9075
   3   2.0000     -11.240888      -305.8801
   4   2.0000     -11.227590      -305.5183
   5   2.0000     -11.224745      -305.4408
   6   2.0000     -11.215345      -305.1851
   7   2.0000     -11.211976      -305.0934
   8   2.0000     -11.211020      -305.0674
   9   2.0000      -1.360211       -37.0132
  10   2.0000      -1.086621       -29.5685
  11   2.0000      -1.053653       -28.6714
  12   2.0000      -1.025091       -27.8941
  13   2.0000      -0.960366       -26.1329
  14   2.0000      -0.909006       -24.7353
  15   2.0000      -0.838036       -22.8041
  16   2.0000      -0.806988       -21.9592
  17   2.0000      -0.665127       -18.0990
  18   2.0000      -0.659189       -17.9374
  19   2.0000      -0.650858       -17.7107
  20   2.0000      -0.626023       -17.0350
  21   2.0000      -0.609787       -16.5931
  22   2.0000      -0.585983       -15.9454
  23   2.0000      -0.581644       -15.8273
  24   2.0000      -0.579501       -15.7690
  25   2.0000      -0.562157       -15.2971
  26   2.0000      -0.550289       -14.9741
  27   2.0000      -0.523182       -14.2365
  28   2.0000      -0.503158       -13.6916
  29   2.0000      -0.497966       -13.5503
  30   2.0000      -0.485363       -13.2074
  31   2.0000      -0.462761       -12.5924
  32   2.0000      -0.438330       -11.9276
  33   2.0000      -0.360555        -9.8112
  34   2.0000      -0.359007        -9.7691
  35   0.0000       0.128535         3.4976
  36   0.0000       0.142282         3.8717
  37   0.0000       0.154519         4.2047
  38   0.0000       0.162234         4.4146
  39   0.0000       0.172692         4.6992

MULLIKEN ATOMIC CHARGES
-----------------------
   0 C :   -0.369658
   1 C :   -0.202911
   2 C :    0.071715
   3 O :   -0.476477
   4 C :   -0.226514
   5 C :   -0.379579
   6 C :    0.009598
   7 C :    0.068535
   8 C :   -0.479000
   9 H :    0.133591
  10 H :    0.119730
  11 H :    0.132079
  12 H :    0.100562
  13 H :    0.109791
  14 H :    0.081224
  15 H :    0.310782
  16 H :    0.114539
  17 H :    0.118794
  18 H :    0.135283
  19 H :    0.150397
  20 H :    0.159723
  21 H :    0.159532
  22 H :    0.158262
Sum of atomic charges:   -0.0000000

LOEWDIN ATOMIC CHARGES
----------------------
   0 C :   -0.319353
   1 C :   -0.285935
   2 C :   -0.349880
   3 O :   -0.021201
   4 C :   -0.243717
   5 C :   -0.251224
   6 C :   -0.091364
   7 C :   -0.114201
   8 C :   -0.298442
   9 H :    0.123549
  10 H :    0.121380
  11 H :    0.119868
  12 H :    0.134705
  13 H :    0.140017
  14 H :    0.146143
  15 H :    0.174717
  16 H :    0.140459
  17 H :    0.144909
  18 H :    0.154715
  19 H :    0.156997
  20 H :    0.139555
  21 H :    0.139331
  22 H :    0.138977

  Mayer bond orders larger than 0.1
B(  0-C ,  1-C ) :   0.9296 B(  0-C ,  9-H ) :   0.9351 B(  0-C , 10-H ) :   0.9373
B(  0-C , 11-H ) :   0.9420 B(  1-C ,  2-C ) :   0.9451 B(  1-C , 12-H ) :   0.9146
B(  1-C , 13-H ) :   0.9319 B(  2-C ,  3-O ) :   0.8668 B(  2-C ,  4-C ) :   0.9444
B(  2-C , 14-H ) :   0.9174 B(  3-O , 15-H ) :   0.8430 B(  4-C ,  5-C ) :   0.9326
B(  4-C , 16-H ) :   0.9170 B(  4-C , 17-H ) :   0.9254 B(  5-C ,  6-C ) :   1.0448
B(  5-C ,  7-C ) :  -0.1290 B(  5-C , 18-H ) :   0.9239 B(  5-C , 19-H ) :   0.9413
B(  6-C ,  7-C ) :   2.6906 B(  7-C ,  8-C ) :   0.8498 B(  8-C , 20-H ) :   0.9488
B(  8-C , 21-H ) :   0.9484 B(  8-C , 22-H ) :   0.9471

MP2 TOTAL ENERGY:     -387.591261199 Eh
FINAL SINGLE POINT ENERGY      -387.591261198822

DIPOLE MOMENT
-------------
                                X             Y             Z
Electronic contribution:      3.18397      -3.41633      -3.29495
Nuclear contribution   :     -3.51950       3.09833       3.75812
                        -----------------------------------------
Total Dipole Moment    :     -0.33553      -0.31800       0.46317
                        -----------------------------------------
Magnitude (a.u.)       :      0.65439
Magnitude (Debye)      :      1.66333

                             ****ORCA TERMINATED NORMALLY****
TOTAL RUN TIME: 0 days 0 hours 15 minutes 57 seconds 154 msec
