                         Program Version 3.0.3 - RELEASE   -
|  1> ! RI-MP2 RIJK def2-TZVP def2-TZVP/C def2-TZVP/JK TIGHTSCF
|  2> % maxcore 2000
|  3> % mp2 density relaxed end
|  4> *xyz 0 1
|  5>  O       -0.5327518260     0.6161218659    -0.6858355288
|  6>  C        0.1090882334     1.0446069525     0.2396322551
|  7>  C        1.3396514116     1.8956746306     0.0892768002
|  8>  N        1.5549319815     2.8892080438     1.1871557726
|  9>  C        2.8279873975     3.3938116096     0.5851590878
| 10>  C        3.5885895883     2.0533208549     0.5485384790
| 11>  C        2.6865053795     1.1271548218     0.2479251456
| 12>  C        2.3802510747     3.7027379034    -0.8730826819
| 13>  C        1.4734275684     2.7779727525    -1.1777958506
| 14>  H       -0.1581397954     0.8201913808     1.2956660222
| 15>  H        0.8526182957     3.6233638731     1.0783872911
| 16>  H        3.2951582066     4.2068185251     1.1394659709
| 17>  H        4.6545658414     1.9453017734     0.6876558425
| 18>  H        2.8036685936     0.0677687660     0.0740293378
| 19>  H        2.8021155888     4.4740753670    -1.5026281291
| 20>  H        0.9505174605     2.5853703495    -2.1028496744
| 21> *
| 22>
| 23>                          ****END OF INPUT****

CARTESIAN COORDINATES (ANGSTROEM)
---------------------------------
  O     -0.532752    0.616122   -0.685836
  C      0.109088    1.044607    0.239632
  C      1.339651    1.895675    0.089277
  N      1.554932    2.889208    1.187156
  C      2.827987    3.393812    0.585159
  C      3.588590    2.053321    0.548538
  C      2.686505    1.127155    0.247925
  C      2.380251    3.702738   -0.873083
  C      1.473428    2.777973   -1.177796
  H     -0.158140    0.820191    1.295666
  H      0.852618    3.623364    1.078387
  H      3.295158    4.206819    1.139466
  H      4.654566    1.945302    0.687656
  H      2.803669    0.067769    0.074029
  H      2.802116    4.474075   -1.502628
  H      0.950517    2.585370   -2.102850

 Total Charge           Charge          ....    0
 Multiplicity           Mult            ....    1
 Number of Electrons    NEL             ....   64
 Basis Dimension        Dim             ....  321

ORBITAL ENERGIES
----------------

  NO   OCC          E(Eh)            E(eV)
   0   2.0000     -20.565211      -559.6078
   1   2.0000     -15.565322      -423.5540
   2   2.0000     -11.336622      -308.4852
   3   2.0000     -11.290130      -307.2201
   4   2.0000     -11.283288      -307.0339
   5   2.0000     -11.243961      -305.9637
   6   2.0000     -11.241744      -305.9034
   7   2.0000     -11.240849      -305.8790
   8   2.0000     -11.239078      -305.8309
   9   2.0000      -1.403487       -38.1908
  10   2.0000      -1.278246       -34.7828
  11   2.0000      -1.059727       -28.8366
  12   2.0000      -1.038894       -28.2697
  13   2.0000      -1.012761       -27.5586
  14   2.0000      -0.867529       -23.6067
  15   2.0000      -0.794728       -21.6256
  16   2.0000      -0.781269       -21.2594
  17   2.0000      -0.734414       -19.9844
  18   2.0000      -0.712177       -19.3793
  19   2.0000      -0.678100       -18.4520
  20   2.0000      -0.656686       -17.8693
  21   2.0000      -0.606134       -16.4937
  22   2.0000      -0.586680       -15.9644
  23   2.0000      -0.571645       -15.5553
  24   2.0000      -0.547634       -14.9019
  25   2.0000      -0.538167       -14.6443
  26   2.0000      -0.514024       -13.9873
  27   2.0000      -0.477248       -12.9866
  28   2.0000      -0.440478       -11.9860
  29   2.0000      -0.426382       -11.6024
  30   2.0000      -0.386495       -10.5171
  31   2.0000      -0.334914        -9.1135
  32   0.0000       0.099619         2.7108
  33   0.0000       0.119642         3.2556
  34   0.0000       0.150564         4.0971
  35   0.0000       0.168273         4.5789
  36   0.0000       0.172955         4.7063

MULLIKEN ATOMIC CHARGES
-----------------------
   0 O :   -0.261775
   1 C :    0.035883
   2 C :    0.386876
   3 N :   -0.328622
   4 C :    0.038210
   5 C :   -0.170455
   6 C :   -0.270127
   7 C :   -0.199451
   8 C :   -0.273155
   9 H :    0.104534
  10 H :    0.201843
  11 H :    0.149799
  12 H :    0.146596
  13 H :    0.150873
  14 H :    0.137778
  15 H :    0.151193
Sum of atomic charges:    0.0000000

LOEWDIN ATOMIC CHARGES
----------------------
   0 O :    0.143763
   1 C :   -0.249637
   2 C :   -0.267758
   3 N :    0.059029
   4 C :   -0.221801
   5 C :   -0.118020
   6 C :   -0.096369
   7 C :   -0.133449
   8 C :   -0.108255
   9 H :    0.121649
  10 H :    0.170374
  11 H :    0.139999
  12 H :    0.138872
  13 H :    0.141643
  14 H :    0.136161
  15 H :    0.143799

  Mayer bond orders larger than 0.1
B(  0-O ,  1-C ) :   2.0091 B(  1-C ,  2-C ) :   0.7910 B(  1-C ,  9-H ) :   0.9637
B(  2-C ,  3-N ) :   0.9418 B(  2-C ,  6-C ) :   0.8417 B(  2-C ,  8-C ) :   0.9085
B(  3-N ,  4-C ) :   0.9969 B(  3-N , 10-H ) :   0.8732 B(  4-C ,  5-C ) :   0.8985
B(  4-C ,  7-C ) :   0.9331 B(  4-C , 11-H ) :   0.9055 B(  5-C ,  6-C ) :   1.7891
B(  5-C , 12-H ) :   0.9178 B(  6-C , 13-H ) :   0.9195 B(  7-C ,  8-C ) :   1.7764
B(  7-C , 14-H ) :   0.9266 B(  8-C , 15-H ) :   0.9243

MP2 TOTAL ENERGY:     -400.022723287 Eh
FINAL SINGLE POINT ENERGY      -400.022723287181

DIPOLE MOMENT
-------------
                                X             Y             Z
Electronic contribution:     -2.52878      -1.85223      -0.42947
Nuclear contribution   :      3.29828       2.49655       0.50274
                        -----------------------------------------
Total Dipole Moment    :      0.76950       0.64432       0.07328
                        -----------------------------------------
Magnitude (a.u.)       :      1.00631
Magnitude (Debye)      :      2.55783

                             ****ORCA TERMINATED NORMALLY****
TOTAL RUN TIME: 0 days 0 hours 17 minutes 32 seconds 746 msec
