                         Program Version 3.0.3 - RELEASE   -
|  1> ! RI-MP2 RIJK def2-TZVP def2-TZVP/C def2-TZVP/JK TIGHTSCF
|  2> % maxcore 2000
|  3> % mp2 density relaxed end
|  4> *xyz 0 1
|  5>  C        0.3102652112     1.4382190417     0.1035761414
|  6>  C        0.0950100847    -0.0384959178     0.0547617869
|  7>  N       -0.0624774165    -0.6981860990    -1.0950379666
|  8>  N       -0.2257433073    -1.9581794446    -0.7104275634
|  9>  N       -0.1870349744    -2.1884453110     0.5940927590
| 10>  C        0.0165277592    -0.9763596289     1.1107676522
| 11>  C        0.1170094028    -0.7700133023     2.5975923586
| 12>  C        1.3857603668    -0.1774100030     3.0191256121
| 13>  C        2.4264044620     0.3170930305     3.3603241008
| 14>  H        1.2086083675     1.6835845201     0.6779140087
| 15>  H        0.4151095076     1.8342960722    -0.9082600263
| 16>  H       -0.5313471386     1.9493129837     0.5852537009
| 17>  H       -0.3656060309    -2.7010222666    -1.3751863784
| 18>  H       -0.7072069672    -0.1309056154     2.9428048572
| 19>  H       -0.0210033152    -1.7415794007     3.0838374790
| 20>  H        3.3485075684     0.7441507111     3.6682938179
| 21> *
| 22>
| 23>                          ****END OF INPUT****

CARTESIAN COORDINATES (ANGSTROEM)
---------------------------------
  C      0.310265    1.438219    0.103576
  C      0.095010   -0.038496    0.054762
  N     -0.062477   -0.698186   -1.095038
  N     -0.225743   -1.958179   -0.710428
  N     -0.187035   -2.188445    0.594093
  C      0.016528   -0.976360    1.110768
  C      0.117009   -0.770013    2.597592
  C      1.385760   -0.177410    3.019126
  C      2.426404    0.317093    3.360324
  H      1.208608    1.683585    0.677914
  H      0.415110    1.834296   -0.908260
  H     -0.531347    1.949313    0.585254
  H     -0.365606   -2.701022   -1.375186
  H     -0.707207   -0.130906    2.942805
  H     -0.021003   -1.741579    3.083837
  H      3.348508    0.744151    3.668294

 Total Charge           Charge          ....    0
 Multiplicity           Mult            ....    1
 Number of Electrons    NEL             ....   64
 Basis Dimension        Dim             ....  321

ORBITAL ENERGIES
----------------

  NO   OCC          E(Eh)            E(eV)
   0   2.0000     -15.671781      -426.4508
   1   2.0000     -15.614129      -424.8821
   2   2.0000     -15.609615      -424.7592
   3   2.0000     -11.271013      -306.6998
   4   2.0000     -11.270282      -306.6800
   5   2.0000     -11.267323      -306.5994
   6   2.0000     -11.241491      -305.8965
   7   2.0000     -11.230420      -305.5953
   8   2.0000     -11.227273      -305.5096
   9   2.0000      -1.443265       -39.2732
  10   2.0000      -1.195351       -32.5272
  11   2.0000      -1.131921       -30.8011
  12   2.0000      -1.061416       -28.8826
  13   2.0000      -0.985290       -26.8111
  14   2.0000      -0.971710       -26.4416
  15   2.0000      -0.827927       -22.5290
  16   2.0000      -0.799588       -21.7579
  17   2.0000      -0.746593       -20.3158
  18   2.0000      -0.720847       -19.6152
  19   2.0000      -0.662117       -18.0171
  20   2.0000      -0.626851       -17.0575
  21   2.0000      -0.611698       -16.6451
  22   2.0000      -0.596189       -16.2231
  23   2.0000      -0.584924       -15.9166
  24   2.0000      -0.570442       -15.5225
  25   2.0000      -0.557500       -15.1703
  26   2.0000      -0.489095       -13.3090
  27   2.0000      -0.471470       -12.8293
  28   2.0000      -0.400562       -10.8999
  29   2.0000      -0.394852       -10.7445
  30   2.0000      -0.390718       -10.6320
  31   2.0000      -0.357810        -9.7365
  32   0.0000       0.132450         3.6042
  33   0.0000       0.136815         3.7229
  34   0.0000       0.141681         3.8553
  35   0.0000       0.165616         4.5066
  36   0.0000       0.167921         4.5694

MULLIKEN ATOMIC CHARGES
-----------------------
   0 C :   -0.434655
   1 C :    0.030257
   2 N :   -0.182416
   3 N :   -0.000242
   4 N :   -0.191239
   5 C :    0.071508
   6 C :   -0.330774
   7 C :   -0.037562
   8 C :   -0.169636
   9 H :    0.161387
  10 H :    0.156009
  11 H :    0.141742
  12 H :    0.267859
  13 H :    0.160197
  14 H :    0.167903
  15 H :    0.189662
Sum of atomic charges:    0.0000000

LOEWDIN ATOMIC CHARGES
----------------------
   0 C :   -0.269321
   1 C :   -0.279725
   2 N :    0.046104
   3 N :    0.063498
   4 N :    0.046300
   5 C :   -0.254978
   6 C :   -0.209304
   7 C :   -0.103254
   8 C :   -0.102366
   9 H :    0.138033
  10 H :    0.137380
  11 H :    0.134024
  12 H :    0.187150
  13 H :    0.167656
  14 H :    0.171564
  15 H :    0.127239

  Mayer bond orders larger than 0.1
B(  0-C ,  1-C ) :   0.8700 B(  0-C ,  9-H ) :   0.9329 B(  0-C , 10-H ) :   0.9432
B(  0-C , 11-H ) :   0.9314 B(  1-C ,  2-N ) :   1.5401 B(  1-C ,  5-C ) :   1.3428
B(  2-N ,  3-N ) :   1.1349 B(  3-N ,  4-N ) :   1.1392 B(  3-N , 12-H ) :   0.8747
B(  4-N ,  5-C ) :   1.5332 B(  5-C ,  6-C ) :   0.8767 B(  6-C ,  7-C ) :   1.0533
B(  6-C , 13-H ) :   0.9346 B(  6-C , 14-H ) :   0.9206 B(  7-C ,  8-C ) :   2.6230
B(  8-C , 15-H ) :   0.9089

MP2 TOTAL ENERGY:     -396.212468110 Eh
FINAL SINGLE POINT ENERGY      -396.212468109836

DIPOLE MOMENT
-------------
                                X             Y             Z
Electronic contribution:     -0.59712      -5.12982      -1.87585
Nuclear contribution   :      0.47579       5.24333       1.89033
                        -----------------------------------------
Total Dipole Moment    :     -0.12133       0.11351       0.01447
                        -----------------------------------------
Magnitude (a.u.)       :      0.16678
Magnitude (Debye)      :      0.42392

                             ****ORCA TERMINATED NORMALLY****
TOTAL RUN TIME: 0 days 0 hours 15 minutes 24 seconds 317 msec
