                         Program Version 3.0.3 - RELEASE   -
|  1> ! RI-MP2 RIJK def2-TZVP def2-TZVP/C def2-TZVP/JK TIGHTSCF
|  2> % maxcore 2000
|  3> % mp2 density relaxed end
|  4> *xyz 0 1
|  5>  C       -0.5420118843     1.6365676554    -0.1303024562
|  6>  C       -0.3252173191     0.1974225372    -0.1244203518
|  7>  C       -0.1456624448    -0.9946010030    -0.1083562966
|  8>  C        0.0691309279    -2.4182481135    -0.1480150534
|  9>  C        0.1206679420    -3.1893871941     1.1303375674
| 10>  N       -1.0457393045    -3.3179434517     0.2473166473
| 11>  C        0.8615690950    -2.8968902140    -1.3377874198
| 12>  C        2.3262692674    -2.9664153025    -1.2988780731
| 13>  O        1.5243969653    -4.1487015724    -1.2137289667
| 14>  H        0.1086996283     2.1283892824    -0.8616277247
| 15>  H       -1.5773097667     1.8840617524    -0.3898766032
| 16>  H       -0.3297378582     2.0766996338     0.8502814981
| 17>  H        0.7534080500    -4.0700786077     1.1655138640
| 18>  H        0.0246532166    -2.6300239414     2.0559479397
| 19>  H       -1.8110714511    -2.7498794898     0.6035273542
| 20>  H        0.3710802135    -2.7375359597    -2.2981746462
| 21>  H        2.8992549211    -2.8545735327    -2.2175250794
| 22>  H        2.8475438413    -2.6916369486    -0.3833024096
| 23> *
| 24>
| 25>                          ****END OF INPUT****

CARTESIAN COORDINATES (ANGSTROEM)
---------------------------------
  C     -0.542012    1.636568   -0.130302
  C     -0.325217    0.197423   -0.124420
  C     -0.145662   -0.994601   -0.108356
  C      0.069131   -2.418248   -0.148015
  C      0.120668   -3.189387    1.130338
  N     -1.045739   -3.317943    0.247317
  C      0.861569   -2.896890   -1.337787
  C      2.326269   -2.966415   -1.298878
  O      1.524397   -4.148702   -1.213729
  H      0.108700    2.128389   -0.861628
  H     -1.577310    1.884062   -0.389877
  H     -0.329738    2.076700    0.850281
  H      0.753408   -4.070079    1.165514
  H      0.024653   -2.630024    2.055948
  H     -1.811071   -2.749879    0.603527
  H      0.371080   -2.737536   -2.298175
  H      2.899255   -2.854574   -2.217525
  H      2.847544   -2.691637   -0.383302

 Total Charge           Charge          ....    0
 Multiplicity           Mult            ....    1
 Number of Electrons    NEL             ....   66
 Basis Dimension        Dim             ....  333

ORBITAL ENERGIES
----------------

  NO   OCC          E(Eh)            E(eV)
   0   2.0000     -20.570166      -559.7427
   1   2.0000     -15.566797      -423.5941
   2   2.0000     -11.292940      -307.2965
   3   2.0000     -11.292111      -307.2740
   4   2.0000     -11.283793      -307.0476
   5   2.0000     -11.262787      -306.4760
   6   2.0000     -11.255828      -306.2866
   7   2.0000     -11.239151      -305.8329
   8   2.0000     -11.229755      -305.5772
   9   2.0000      -1.415886       -38.5282
  10   2.0000      -1.272299       -34.6210
  11   2.0000      -1.070230       -29.1224
  12   2.0000      -1.000287       -27.2192
  13   2.0000      -0.947898       -25.7936
  14   2.0000      -0.901947       -24.5432
  15   2.0000      -0.882438       -24.0124
  16   2.0000      -0.812718       -22.1152
  17   2.0000      -0.736093       -20.0301
  18   2.0000      -0.693198       -18.8629
  19   2.0000      -0.669618       -18.2212
  20   2.0000      -0.641125       -17.4459
  21   2.0000      -0.598309       -16.2808
  22   2.0000      -0.596282       -16.2257
  23   2.0000      -0.591861       -16.1053
  24   2.0000      -0.552700       -15.0397
  25   2.0000      -0.542249       -14.7553
  26   2.0000      -0.520657       -14.1678
  27   2.0000      -0.496391       -13.5075
  28   2.0000      -0.462614       -12.5884
  29   2.0000      -0.437292       -11.8993
  30   2.0000      -0.428641       -11.6639
  31   2.0000      -0.383544       -10.4368
  32   2.0000      -0.354320        -9.6415
  33   0.0000       0.127208         3.4615
  34   0.0000       0.153528         4.1777
  35   0.0000       0.161442         4.3931
  36   0.0000       0.167037         4.5453
  37   0.0000       0.181672         4.9436

MULLIKEN ATOMIC CHARGES
-----------------------
   0 C :   -0.480741
   1 C :    0.109994
   2 C :   -0.032208
   3 C :   -0.066040
   4 C :   -0.169813
   5 N :   -0.357742
   6 C :    0.040182
   7 C :   -0.090993
   8 O :   -0.324995
   9 H :    0.165779
  10 H :    0.165118
  11 H :    0.164710
  12 H :    0.147006
  13 H :    0.132815
  14 H :    0.222790
  15 H :    0.135781
  16 H :    0.118019
  17 H :    0.120340
Sum of atomic charges:    0.0000000

LOEWDIN ATOMIC CHARGES
----------------------
   0 C :   -0.292877
   1 C :   -0.085968
   2 C :   -0.051710
   3 C :   -0.292115
   4 C :   -0.219311
   5 N :    0.029015
   6 C :   -0.244307
   7 C :   -0.252963
   8 O :    0.163028
   9 H :    0.143169
  10 H :    0.142027
  11 H :    0.141938
  12 H :    0.134487
  13 H :    0.125453
  14 H :    0.170703
  15 H :    0.145771
  16 H :    0.120424
  17 H :    0.123235

  Mayer bond orders larger than 0.1
B(  0-C ,  1-C ) :   0.8338 B(  0-C ,  9-H ) :   0.9491 B(  0-C , 10-H ) :   0.9454
B(  0-C , 11-H ) :   0.9471 B(  1-C ,  2-C ) :   2.6287 B(  1-C ,  3-C ) :  -0.1652
B(  2-C ,  3-C ) :   1.1325 B(  3-C ,  4-C ) :   0.9251 B(  3-C ,  5-N ) :   0.9299
B(  3-C ,  6-C ) :   0.9290 B(  4-C ,  5-N ) :   0.9498 B(  4-C , 12-H ) :   0.9082
B(  4-C , 13-H ) :   0.9141 B(  5-N , 14-H ) :   0.8721 B(  6-C ,  7-C ) :   0.9880
B(  6-C ,  8-O ) :   0.9013 B(  6-C , 15-H ) :   0.9035 B(  7-C ,  8-O ) :   0.9073
B(  7-C , 16-H ) :   0.9220 B(  7-C , 17-H ) :   0.9009

MP2 TOTAL ENERGY:     -401.167572027 Eh
FINAL SINGLE POINT ENERGY      -401.167572026526

DIPOLE MOMENT
-------------
                                X             Y             Z
Electronic contribution:     -0.08623      -4.91533      -1.15354
Nuclear contribution   :      0.25098       6.33396       1.46335
                        -----------------------------------------
Total Dipole Moment    :      0.16474       1.41863       0.30981
                        -----------------------------------------
Magnitude (a.u.)       :      1.46138
Magnitude (Debye)      :      3.71453

                             ****ORCA TERMINATED NORMALLY****
TOTAL RUN TIME: 0 days 0 hours 15 minutes 37 seconds 7 msec
