                         Program Version 3.0.3 - RELEASE   -
|  1> ! RI-MP2 RIJK def2-TZVP def2-TZVP/C def2-TZVP/JK TIGHTSCF
|  2> % maxcore 2000
|  3> % mp2 density relaxed end
|  4> *xyz 0 1
|  5>  O       -0.5968068766     0.6263612254     0.5773947513
|  6>  C        0.1748451745     0.9535220242    -0.2909454869
|  7>  C        1.2691625245     1.9707020642    -0.1497199560
|  8>  C        1.1386349011     3.3236826883    -0.9116236912
|  9>  C       -0.2038364112     4.0584018937    -0.7244609120
| 10>  C        0.3179363728     4.5077217237     0.6546272013
| 11>  C        0.2350519160     3.4357129272     1.7568070453
| 12>  C        1.4909147793     2.7964128776     1.1316464598
| 13>  N        1.7449067207     4.0581032589     0.2874224708
| 14>  H        0.1013027409     0.5082883829    -1.3114547212
| 15>  H        2.2087382281     1.4987614659    -0.4635957965
| 16>  H        1.6349997740     3.3982308287    -1.8807470738
| 17>  H       -0.2870508049     4.8984391324    -1.4186323397
| 18>  H       -1.1313377285     3.4799051589    -0.7609014044
| 19>  H        0.1610397132     5.5495911355     0.9401950397
| 20>  H        0.4684955387     3.8596531586     2.7368155201
| 21>  H       -0.6665323672     2.8276196707     1.8335857286
| 22>  H        2.2790800346     2.4565850830     1.8054328247
| 23> *
| 24>
| 25>                          ****END OF INPUT****

CARTESIAN COORDINATES (ANGSTROEM)
---------------------------------
  O     -0.596807    0.626361    0.577395
  C      0.174845    0.953522   -0.290945
  C      1.269163    1.970702   -0.149720
  C      1.138635    3.323683   -0.911624
  C     -0.203836    4.058402   -0.724461
  C      0.317936    4.507722    0.654627
  C      0.235052    3.435713    1.756807
  C      1.490915    2.796413    1.131646
  N      1.744907    4.058103    0.287422
  H      0.101303    0.508288   -1.311455
  H      2.208738    1.498761   -0.463596
  H      1.635000    3.398231   -1.880747
  H     -0.287051    4.898439   -1.418632
  H     -1.131338    3.479905   -0.760901
  H      0.161040    5.549591    0.940195
  H      0.468496    3.859653    2.736816
  H     -0.666532    2.827620    1.833586
  H      2.279080    2.456585    1.805433

 Total Charge           Charge          ....    0
 Multiplicity           Mult            ....    1
 Number of Electrons    NEL             ....   66
 Basis Dimension        Dim             ....  333

ORBITAL ENERGIES
----------------

  NO   OCC          E(Eh)            E(eV)
   0   2.0000     -20.563030      -559.5485
   1   2.0000     -15.551783      -423.1855
   2   2.0000     -11.338221      -308.5287
   3   2.0000     -11.274667      -306.7993
   4   2.0000     -11.266426      -306.5750
   5   2.0000     -11.262546      -306.4695
   6   2.0000     -11.252014      -306.1829
   7   2.0000     -11.235205      -305.7255
   8   2.0000     -11.225572      -305.4634
   9   2.0000      -1.401175       -38.1279
  10   2.0000      -1.287950       -35.0469
  11   2.0000      -1.047397       -28.5011
  12   2.0000      -1.023293       -27.8452
  13   2.0000      -0.976430       -26.5700
  14   2.0000      -0.870821       -23.6962
  15   2.0000      -0.820656       -22.3312
  16   2.0000      -0.779877       -21.2215
  17   2.0000      -0.716673       -19.5017
  18   2.0000      -0.686418       -18.6784
  19   2.0000      -0.675297       -18.3758
  20   2.0000      -0.646437       -17.5904
  21   2.0000      -0.633721       -17.2444
  22   2.0000      -0.599644       -16.3171
  23   2.0000      -0.573523       -15.6064
  24   2.0000      -0.571826       -15.5602
  25   2.0000      -0.530337       -14.4312
  26   2.0000      -0.500689       -13.6244
  27   2.0000      -0.481058       -13.0903
  28   2.0000      -0.476509       -12.9665
  29   2.0000      -0.438811       -11.9406
  30   2.0000      -0.421457       -11.4684
  31   2.0000      -0.415504       -11.3064
  32   2.0000      -0.370277       -10.0757
  33   0.0000       0.121525         3.3069
  34   0.0000       0.133066         3.6209
  35   0.0000       0.155826         4.2403
  36   0.0000       0.164346         4.4721
  37   0.0000       0.174059         4.7364

MULLIKEN ATOMIC CHARGES
-----------------------
   0 O :   -0.271707
   1 C :    0.083610
   2 C :   -0.111952
   3 C :   -0.023700
   4 C :   -0.290128
   5 C :    0.001397
   6 C :   -0.299380
   7 C :    0.026047
   8 N :   -0.223764
   9 H :    0.082026
  10 H :    0.130847
  11 H :    0.124269
  12 H :    0.130478
  13 H :    0.129930
  14 H :    0.117235
  15 H :    0.125368
  16 H :    0.145383
  17 H :    0.124044
Sum of atomic charges:    0.0000000

LOEWDIN ATOMIC CHARGES
----------------------
   0 O :    0.135082
   1 C :   -0.277632
   2 C :   -0.212482
   3 C :   -0.186549
   4 C :   -0.211788
   5 C :   -0.209989
   6 C :   -0.209808
   7 C :   -0.181249
   8 N :    0.128744
   9 H :    0.114060
  10 H :    0.171246
  11 H :    0.129492
  12 H :    0.141828
  13 H :    0.132573
  14 H :    0.128076
  15 H :    0.141561
  16 H :    0.135545
  17 H :    0.131288

  Mayer bond orders larger than 0.1
B(  0-O ,  1-C ) :   1.9805 B(  1-C ,  2-C ) :   0.8796 B(  1-C ,  9-H ) :   0.9407
B(  2-C ,  3-C ) :   0.9531 B(  2-C ,  7-C ) :   0.9400 B(  2-C , 10-H ) :   0.8888
B(  3-C ,  4-C ) :   0.9493 B(  3-C ,  8-N ) :   0.9574 B(  3-C , 11-H ) :   0.8999
B(  4-C ,  5-C ) :   0.9484 B(  4-C , 12-H ) :   0.9180 B(  4-C , 13-H ) :   0.9103
B(  5-C ,  6-C ) :   0.9664 B(  5-C ,  8-N ) :   0.9316 B(  5-C , 14-H ) :   0.9071
B(  6-C ,  7-C ) :   0.9381 B(  6-C , 15-H ) :   0.9169 B(  6-C , 16-H ) :   0.9126
B(  7-C ,  8-N ) :   0.9408 B(  7-C , 17-H ) :   0.8988

MP2 TOTAL ENERGY:     -401.202447077 Eh
FINAL SINGLE POINT ENERGY      -401.202447077320

DIPOLE MOMENT
-------------
                                X             Y             Z
Electronic contribution:      0.56754      -2.72026       0.29577
Nuclear contribution   :     -0.52993       2.80739      -0.82525
                        -----------------------------------------
Total Dipole Moment    :      0.03760       0.08713      -0.52948
                        -----------------------------------------
Magnitude (a.u.)       :      0.53792
Magnitude (Debye)      :      1.36728

                             ****ORCA TERMINATED NORMALLY****
TOTAL RUN TIME: 0 days 0 hours 20 minutes 31 seconds 297 msec
