                         Program Version 3.0.3 - RELEASE   -
|  1> ! RI-MP2 RIJK def2-TZVP def2-TZVP/C def2-TZVP/JK TIGHTSCF
|  2> % maxcore 2000
|  3> % mp2 density relaxed end
|  4> *xyz 0 1
|  5>  C       -0.1775129221     1.6520834382    -0.1055412611
|  6>  C       -0.0535717413     0.1323380208     0.0559837525
|  7>  N       -1.3299572023    -0.5755407880     0.0745848685
|  8>  C       -2.0624159856    -0.7036405138    -1.1748769698
|  9>  C       -2.0414280268    -0.7759572091     1.2324945539
| 10>  N       -3.2788045280    -1.0967581168     1.2208069135
| 11>  C       -3.9936240882    -1.4054591318     2.4387672266
| 12>  C       -1.2776397486    -0.6315689536     2.4696840883
| 13>  N       -0.7412235517    -0.5263224425     3.4891886586
| 14>  H        0.8164589014     2.1092453093    -0.1361913284
| 15>  H       -0.6983379393     1.9143750398    -1.0313863023
| 16>  H       -0.7277216687     2.0898771244     0.7328829602
| 17>  H        0.5391716076    -0.2848518593    -0.7658208060
| 18>  H        0.4842280392    -0.0999718310     0.9785908485
| 19>  H       -2.6493435657    -1.6238308540    -1.1616524319
| 20>  H       -2.7610804536     0.1272765444    -1.3391416471
| 21>  H       -1.3446713044    -0.7353918554    -1.9979634586
| 22>  H       -4.3476087388    -2.4429843049     2.3991915772
| 23>  H       -3.4132194240    -1.2758062209     3.3624065603
| 24>  H       -4.8865864191    -0.7723748459     2.4989797271
| 25> *
| 26>
| 27>                          ****END OF INPUT****

CARTESIAN COORDINATES (ANGSTROEM)
---------------------------------
  C     -0.177513    1.652083   -0.105541
  C     -0.053572    0.132338    0.055984
  N     -1.329957   -0.575541    0.074585
  C     -2.062416   -0.703641   -1.174877
  C     -2.041428   -0.775957    1.232495
  N     -3.278805   -1.096758    1.220807
  C     -3.993624   -1.405459    2.438767
  C     -1.277640   -0.631569    2.469684
  N     -0.741224   -0.526322    3.489189
  H      0.816459    2.109245   -0.136191
  H     -0.698338    1.914375   -1.031386
  H     -0.727722    2.089877    0.732883
  H      0.539172   -0.284852   -0.765821
  H      0.484228   -0.099972    0.978591
  H     -2.649344   -1.623831   -1.161652
  H     -2.761080    0.127277   -1.339142
  H     -1.344671   -0.735392   -1.997963
  H     -4.347609   -2.442984    2.399192
  H     -3.413219   -1.275806    3.362407
  H     -4.886586   -0.772375    2.498980

 Total Charge           Charge          ....    0
 Multiplicity           Mult            ....    1
 Number of Electrons    NEL             ....   68
 Basis Dimension        Dim             ....  345

ORBITAL ENERGIES
----------------

  NO   OCC          E(Eh)            E(eV)
   0   2.0000     -15.594790      -424.3558
   1   2.0000     -15.592024      -424.2806
   2   2.0000     -15.557664      -423.3456
   3   2.0000     -11.356422      -309.0240
   4   2.0000     -11.291399      -307.2546
   5   2.0000     -11.277417      -306.8741
   6   2.0000     -11.260815      -306.4223
   7   2.0000     -11.250469      -306.1408
   8   2.0000     -11.229295      -305.5647
   9   2.0000      -1.310322       -35.6557
  10   2.0000      -1.234100       -33.5816
  11   2.0000      -1.205980       -32.8164
  12   2.0000      -1.035625       -28.1808
  13   2.0000      -0.993484       -27.0341
  14   2.0000      -0.933877       -25.4121
  15   2.0000      -0.869123       -23.6500
  16   2.0000      -0.841425       -22.8963
  17   2.0000      -0.717581       -19.5264
  18   2.0000      -0.677711       -18.4415
  19   2.0000      -0.656410       -17.8618
  20   2.0000      -0.618481       -16.8297
  21   2.0000      -0.604269       -16.4430
  22   2.0000      -0.591757       -16.1025
  23   2.0000      -0.580986       -15.8094
  24   2.0000      -0.567858       -15.4522
  25   2.0000      -0.563770       -15.3409
  26   2.0000      -0.546926       -14.8826
  27   2.0000      -0.529907       -14.4195
  28   2.0000      -0.521748       -14.1975
  29   2.0000      -0.513232       -13.9657
  30   2.0000      -0.481775       -13.1098
  31   2.0000      -0.450769       -12.2661
  32   2.0000      -0.423344       -11.5198
  33   2.0000      -0.345520        -9.4021
  34   0.0000       0.101294         2.7563
  35   0.0000       0.128118         3.4863
  36   0.0000       0.158620         4.3163
  37   0.0000       0.164955         4.4887
  38   0.0000       0.167270         4.5516

MULLIKEN ATOMIC CHARGES
-----------------------
   0 C :   -0.382910
   1 C :   -0.184213
   2 N :   -0.091490
   3 C :   -0.307028
   4 C :    0.256112
   5 N :   -0.278707
   6 C :   -0.288653
   7 C :   -0.209978
   8 N :   -0.041099
   9 H :    0.136203
  10 H :    0.133324
  11 H :    0.139471
  12 H :    0.130655
  13 H :    0.154798
  14 H :    0.160005
  15 H :    0.139721
  16 H :    0.136191
  17 H :    0.138322
  18 H :    0.119886
  19 H :    0.139391
Sum of atomic charges:    0.0000000

LOEWDIN ATOMIC CHARGES
----------------------
   0 C :   -0.312080
   1 C :   -0.288445
   2 N :    0.174285
   3 C :   -0.290028
   4 C :   -0.346362
   5 N :    0.092102
   6 C :   -0.332683
   7 C :   -0.158221
   8 N :    0.080193
   9 H :    0.126848
  10 H :    0.122638
  11 H :    0.125843
  12 H :    0.135918
  13 H :    0.147062
  14 H :    0.129033
  15 H :    0.118264
  16 H :    0.121742
  17 H :    0.119939
  18 H :    0.114066
  19 H :    0.119887

  Mayer bond orders larger than 0.1
B(  0-C ,  1-C ) :   0.9126 B(  0-C ,  9-H ) :   0.9325 B(  0-C , 10-H ) :   0.9354
B(  0-C , 11-H ) :   0.9301 B(  1-C ,  2-N ) :   0.9033 B(  1-C , 12-H ) :   0.9376
B(  1-C , 13-H ) :   0.9217 B(  2-N ,  3-C ) :   0.8835 B(  2-N ,  4-C ) :   1.1725
B(  3-C , 14-H ) :   0.9243 B(  3-C , 15-H ) :   0.9315 B(  3-C , 16-H ) :   0.9246
B(  4-C ,  5-N ) :   1.7352 B(  4-C ,  7-C ) :   0.8721 B(  5-N ,  6-C ) :   0.8982
B(  6-C , 17-H ) :   0.9298 B(  6-C , 18-H ) :   0.9209 B(  6-C , 19-H ) :   0.9330
B(  7-C ,  8-N ) :   2.8287

MP2 TOTAL ENERGY:     -398.641372042 Eh
FINAL SINGLE POINT ENERGY      -398.641372042355

DIPOLE MOMENT
-------------
                                X             Y             Z
Electronic contribution:      0.62386      -3.18048       6.18640
Nuclear contribution   :     -0.54801       3.39877      -7.35761
                        -----------------------------------------
Total Dipole Moment    :      0.07585       0.21828      -1.17121
                        -----------------------------------------
Magnitude (a.u.)       :      1.19379
Magnitude (Debye)      :      3.03437

                             ****ORCA TERMINATED NORMALLY****
TOTAL RUN TIME: 0 days 0 hours 19 minutes 21 seconds 29 msec
