                         Program Version 3.0.3 - RELEASE   -
|  1> ! RI-MP2 RIJK def2-TZVP def2-TZVP/C def2-TZVP/JK TIGHTSCF
|  2> % maxcore 2000
|  3> % mp2 density relaxed end
|  4> *xyz 0 1
|  5>  C        0.1132950851     1.4328362866    -0.2155243786
|  6>  C       -0.0861272949    -0.0845734085    -0.0361090164
|  7>  C        0.7360525671    -0.5761109747     1.0755443586
|  8>  N        1.3943670034    -0.9617678230     1.9435644483
|  9>  C       -1.5743520870    -0.4793843576     0.1723534980
| 10>  O       -2.1207608235     0.1610956890     1.3013015624
| 11>  C       -2.3974620618    -0.4200381288    -1.1546859881
| 12>  C       -2.2383895981    -1.9594216160    -1.2833822541
| 13>  C       -1.8037057075    -2.0104939234     0.2063243070
| 14>  H        1.1581720567     1.6631753247    -0.4347960221
| 15>  H       -0.4990057193     1.8021129106    -1.0431831758
| 16>  H       -0.1570402019     1.9725756692     0.6962735569
| 17>  H        0.2661621330    -0.5934327614    -0.9423009783
| 18>  H       -2.1662929272     1.1085295837     1.1334391480
| 19>  H       -3.4278609875    -0.1306183286    -0.9344145421
| 20>  H       -2.0193262275     0.2028206843    -1.9697293248
| 21>  H       -3.1309400196    -2.5240085148    -1.5568923212
| 22>  H       -1.4332323526    -2.2411310364    -1.9670201125
| 23>  H       -0.9514570874    -2.6369191749     0.4776128952
| 24>  H       -2.6371744295    -2.2363006600     0.8742853695
| 25> *
| 26>
| 27>                          ****END OF INPUT****

CARTESIAN COORDINATES (ANGSTROEM)
---------------------------------
  C      0.113295    1.432836   -0.215524
  C     -0.086127   -0.084573   -0.036109
  C      0.736053   -0.576111    1.075544
  N      1.394367   -0.961768    1.943564
  C     -1.574352   -0.479384    0.172353
  O     -2.120761    0.161096    1.301302
  C     -2.397462   -0.420038   -1.154686
  C     -2.238390   -1.959422   -1.283382
  C     -1.803706   -2.010494    0.206324
  H      1.158172    1.663175   -0.434796
  H     -0.499006    1.802113   -1.043183
  H     -0.157040    1.972576    0.696274
  H      0.266162   -0.593433   -0.942301
  H     -2.166293    1.108530    1.133439
  H     -3.427861   -0.130618   -0.934415
  H     -2.019326    0.202821   -1.969729
  H     -3.130940   -2.524009   -1.556892
  H     -1.433232   -2.241131   -1.967020
  H     -0.951457   -2.636919    0.477613
  H     -2.637174   -2.236301    0.874285

 Total Charge           Charge          ....    0
 Multiplicity           Mult            ....    1
 Number of Electrons    NEL             ....   68
 Basis Dimension        Dim             ....  345

ORBITAL ENERGIES
----------------

  NO   OCC          E(Eh)            E(eV)
   0   2.0000     -20.571321      -559.7741
   1   2.0000     -15.563163      -423.4952
   2   2.0000     -11.309416      -307.7449
   3   2.0000     -11.287822      -307.1573
   4   2.0000     -11.266121      -306.5667
   5   2.0000     -11.250857      -306.1514
   6   2.0000     -11.238932      -305.8269
   7   2.0000     -11.236630      -305.7643
   8   2.0000     -11.230010      -305.5841
   9   2.0000      -1.384292       -37.6685
  10   2.0000      -1.213968       -33.0338
  11   2.0000      -1.146002       -31.1843
  12   2.0000      -1.078034       -29.3348
  13   2.0000      -0.938641       -25.5417
  14   2.0000      -0.915376       -24.9086
  15   2.0000      -0.872313       -23.7368
  16   2.0000      -0.765409       -20.8278
  17   2.0000      -0.733147       -19.9499
  18   2.0000      -0.682446       -18.5703
  19   2.0000      -0.674145       -18.3444
  20   2.0000      -0.646656       -17.5964
  21   2.0000      -0.599314       -16.3082
  22   2.0000      -0.591559       -16.0971
  23   2.0000      -0.573580       -15.6079
  24   2.0000      -0.557072       -15.1587
  25   2.0000      -0.548048       -14.9131
  26   2.0000      -0.539798       -14.6887
  27   2.0000      -0.521860       -14.2005
  28   2.0000      -0.491854       -13.3840
  29   2.0000      -0.482373       -13.1260
  30   2.0000      -0.468876       -12.7588
  31   2.0000      -0.453709       -12.3460
  32   2.0000      -0.445444       -12.1212
  33   2.0000      -0.424947       -11.5634
  34   0.0000       0.114218         3.1080
  35   0.0000       0.131949         3.5905
  36   0.0000       0.156171         4.2496
  37   0.0000       0.163984         4.4622
  38   0.0000       0.177653         4.8342

MULLIKEN ATOMIC CHARGES
-----------------------
   0 C :   -0.441588
   1 C :   -0.050286
   2 C :   -0.182118
   3 N :   -0.046284
   4 C :    0.262538
   5 O :   -0.461794
   6 C :   -0.249042
   7 C :   -0.255701
   8 C :   -0.245701
   9 H :    0.158210
  10 H :    0.147895
  11 H :    0.143819
  12 H :    0.132099
  13 H :    0.317965
  14 H :    0.126401
  15 H :    0.115655
  16 H :    0.125194
  17 H :    0.125619
  18 H :    0.143024
  19 H :    0.134093
Sum of atomic charges:   -0.0000000

LOEWDIN ATOMIC CHARGES
----------------------
   0 C :   -0.270787
   1 C :   -0.234990
   2 C :   -0.168600
   3 N :    0.062603
   4 C :   -0.338362
   5 O :    0.030321
   6 C :   -0.207998
   7 C :   -0.239268
   8 C :   -0.189798
   9 H :    0.134596
  10 H :    0.127804
  11 H :    0.128548
  12 H :    0.182538
  13 H :    0.176882
  14 H :    0.140746
  15 H :    0.125382
  16 H :    0.126965
  17 H :    0.131567
  18 H :    0.135668
  19 H :    0.146185

  Mayer bond orders larger than 0.1
B(  0-C ,  1-C ) :   0.8836 B(  0-C ,  9-H ) :   0.9334 B(  0-C , 10-H ) :   0.9332
B(  0-C , 11-H ) :   0.9339 B(  1-C ,  2-C ) :   0.9440 B(  1-C ,  4-C ) :   0.9011
B(  1-C , 12-H ) :   0.8990 B(  2-C ,  3-N ) :   2.8855 B(  4-C ,  5-O ) :   0.9562
B(  4-C ,  6-C ) :   0.8836 B(  4-C ,  8-C ) :   0.8584 B(  5-O , 13-H ) :   0.8383
B(  6-C ,  7-C ) :   0.9501 B(  6-C , 14-H ) :   0.9162 B(  6-C , 15-H ) :   0.9227
B(  7-C ,  8-C ) :   0.9314 B(  7-C , 16-H ) :   0.9266 B(  7-C , 17-H ) :   0.9303
B(  8-C , 18-H ) :   0.9314 B(  8-C , 19-H ) :   0.9215

MP2 TOTAL ENERGY:     -402.470720284 Eh
FINAL SINGLE POINT ENERGY      -402.470720283747

DIPOLE MOMENT
-------------
                                X             Y             Z
Electronic contribution:      3.64282      -1.10848       5.95254
Nuclear contribution   :     -4.46183       1.87338      -7.55749
                        -----------------------------------------
Total Dipole Moment    :     -0.81901       0.76490      -1.60495
                        -----------------------------------------
Magnitude (a.u.)       :      1.95748
Magnitude (Debye)      :      4.97552

                             ****ORCA TERMINATED NORMALLY****
TOTAL RUN TIME: 0 days 0 hours 20 minutes 42 seconds 536 msec
