                         Program Version 3.0.3 - RELEASE   -
|  1> ! RI-MP2 RIJK def2-TZVP def2-TZVP/C def2-TZVP/JK TIGHTSCF
|  2> % maxcore 2000
|  3> % mp2 density relaxed end
|  4> *xyz 0 1
|  5>  C       -0.0749029788     1.4657299381    -0.0910361580
|  6>  C       -0.0390258331    -0.0223314195     0.0021984318
|  7>  N       -0.0346467328    -0.8028857541    -1.0689578286
|  8>  N        0.0021005864    -2.0426061444    -0.5175337261
|  9>  C        0.0127189158    -1.9683546349     0.8306664090
| 10>  C        0.0808868030    -3.1484222817     1.7417115128
| 11>  C        1.4045962157    -3.1950222937     2.5295738142
| 12>  O        1.4725911576    -4.3156107040     3.3907413437
| 13>  N       -0.0104091681    -0.6964917797     1.1922108057
| 14>  H        0.8019912639     1.9053201690     0.3946052860
| 15>  H       -0.0945869356     1.7766156912    -1.1368246631
| 16>  H       -0.9595092406     1.8640998568     0.4156685046
| 17>  H        0.0066034567    -2.8558213672    -1.1110244591
| 18>  H       -0.7526884216    -3.0945549984     2.4522685191
| 19>  H       -0.0335427088    -4.0794581548     1.1769472905
| 20>  H        2.2435922407    -3.2962349724     1.8334401034
| 21>  H        1.5363132395    -2.2468734999     3.0674771242
| 22>  H        0.8591222301    -4.1699907303     4.1179245699
| 23> *
| 24>
| 25>                          ****END OF INPUT****

CARTESIAN COORDINATES (ANGSTROEM)
---------------------------------
  C     -0.074903    1.465730   -0.091036
  C     -0.039026   -0.022331    0.002198
  N     -0.034647   -0.802886   -1.068958
  N      0.002101   -2.042606   -0.517534
  C      0.012719   -1.968355    0.830666
  C      0.080887   -3.148422    1.741712
  C      1.404596   -3.195022    2.529574
  O      1.472591   -4.315611    3.390741
  N     -0.010409   -0.696492    1.192211
  H      0.801991    1.905320    0.394605
  H     -0.094587    1.776616   -1.136825
  H     -0.959509    1.864100    0.415669
  H      0.006603   -2.855821   -1.111024
  H     -0.752688   -3.094555    2.452269
  H     -0.033543   -4.079458    1.176947
  H      2.243592   -3.296235    1.833440
  H      1.536313   -2.246873    3.067477
  H      0.859122   -4.169991    4.117925

 Total Charge           Charge          ....    0
 Multiplicity           Mult            ....    1
 Number of Electrons    NEL             ....   68
 Basis Dimension        Dim             ....  333

ORBITAL ENERGIES
----------------

  NO   OCC          E(Eh)            E(eV)
   0   2.0000     -20.567767      -559.6774
   1   2.0000     -15.642269      -425.6478
   2   2.0000     -15.582364      -424.0177
   3   2.0000     -15.546868      -423.0518
   4   2.0000     -11.320748      -308.0532
   5   2.0000     -11.290686      -307.2352
   6   2.0000     -11.288394      -307.1728
   7   2.0000     -11.255573      -306.2797
   8   2.0000     -11.223695      -305.4123
   9   2.0000      -1.405250       -38.2388
  10   2.0000      -1.372858       -37.3574
  11   2.0000      -1.192545       -32.4508
  12   2.0000      -1.133922       -30.8556
  13   2.0000      -1.035506       -28.1776
  14   2.0000      -0.976113       -26.5614
  15   2.0000      -0.888033       -24.1646
  16   2.0000      -0.825345       -22.4588
  17   2.0000      -0.787285       -21.4231
  18   2.0000      -0.725709       -19.7475
  19   2.0000      -0.704783       -19.1781
  20   2.0000      -0.655517       -17.8375
  21   2.0000      -0.636176       -17.3112
  22   2.0000      -0.616404       -16.7732
  23   2.0000      -0.585316       -15.9273
  24   2.0000      -0.569318       -15.4919
  25   2.0000      -0.560101       -15.2411
  26   2.0000      -0.552354       -15.0303
  27   2.0000      -0.534101       -14.5336
  28   2.0000      -0.500900       -13.6302
  29   2.0000      -0.496498       -13.5104
  30   2.0000      -0.458703       -12.4819
  31   2.0000      -0.440919       -11.9980
  32   2.0000      -0.407557       -11.0902
  33   2.0000      -0.356305        -9.6956
  34   0.0000       0.120374         3.2755
  35   0.0000       0.135854         3.6968
  36   0.0000       0.156188         4.2501
  37   0.0000       0.158782         4.3207
  38   0.0000       0.177919         4.8414

MULLIKEN ATOMIC CHARGES
-----------------------
   0 C :   -0.433929
   1 C :    0.190272
   2 N :   -0.214939
   3 N :   -0.140356
   4 C :    0.197432
   5 C :   -0.268326
   6 C :   -0.041294
   7 O :   -0.466765
   8 N :   -0.333263
   9 H :    0.142821
  10 H :    0.150638
  11 H :    0.143068
  12 H :    0.260136
  13 H :    0.128699
  14 H :    0.121445
  15 H :    0.113267
  16 H :    0.132731
  17 H :    0.318364
Sum of atomic charges:   -0.0000000

LOEWDIN ATOMIC CHARGES
----------------------
   0 C :   -0.274687
   1 C :   -0.378922
   2 N :    0.035790
   3 N :    0.142950
   4 C :   -0.332815
   5 C :   -0.244370
   6 C :   -0.339065
   7 O :   -0.045688
   8 N :    0.116888
   9 H :    0.134432
  10 H :    0.134828
  11 H :    0.134505
  12 H :    0.191218
  13 H :    0.150487
  14 H :    0.145217
  15 H :    0.129902
  16 H :    0.124063
  17 H :    0.175268

  Mayer bond orders larger than 0.1
B(  0-C ,  1-C ) :   0.8675 B(  0-C ,  9-H ) :   0.9335 B(  0-C , 10-H ) :   0.9550
B(  0-C , 11-H ) :   0.9338 B(  1-C ,  2-N ) :   1.5958 B(  1-C ,  8-N ) :   1.2823
B(  2-N ,  3-N ) :   1.0619 B(  3-N ,  4-C ) :   1.2328 B(  3-N , 12-H ) :   0.8611
B(  4-C ,  5-C ) :   0.8525 B(  4-C ,  8-N ) :   1.4778 B(  5-C ,  6-C ) :   0.8997
B(  5-C , 13-H ) :   0.9241 B(  5-C , 14-H ) :   0.9454 B(  6-C ,  7-O ) :   0.9472
B(  6-C , 15-H ) :   0.9228 B(  6-C , 16-H ) :   0.9420 B(  7-O , 17-H ) :   0.8463

MP2 TOTAL ENERGY:     -434.584758938 Eh
FINAL SINGLE POINT ENERGY      -434.584758937813

DIPOLE MOMENT
-------------
                                X             Y             Z
Electronic contribution:     -0.86983      -1.46625      -2.53502
Nuclear contribution   :      0.52496       0.95914       2.55097
                        -----------------------------------------
Total Dipole Moment    :     -0.34487      -0.50711       0.01596
                        -----------------------------------------
Magnitude (a.u.)       :      0.61347
Magnitude (Debye)      :      1.55933

                             ****ORCA TERMINATED NORMALLY****
TOTAL RUN TIME: 0 days 0 hours 15 minutes 58 seconds 207 msec
