                         Program Version 3.0.3 - RELEASE   -
|  1> ! RI-MP2 RIJK def2-TZVP def2-TZVP/C def2-TZVP/JK TIGHTSCF
|  2> % maxcore 2000
|  3> % mp2 density relaxed end
|  4> *xyz 0 1
|  5>  C        0.1388282012     1.3036274985     0.2130704820
|  6>  N       -0.0776196220    -0.1134765939     0.0004809143
|  7>  C        0.5762394082    -0.7181644284    -1.0679758081
|  8>  C        1.1931175656    -0.1553314405    -2.1702561635
|  9>  N        1.6325478288    -1.2055143865    -2.9289294682
| 10>  N        1.3625934666    -2.3999377626    -2.3898945865
| 11>  C        0.7091367264    -2.1218325293    -1.2620533424
| 12>  C        0.2133207851    -3.1854756475    -0.3380295675
| 13>  O        0.6237441872    -2.9507804248     1.0165099955
| 14>  H        1.2031560902     1.5799600608     0.3064780658
| 15>  H       -0.2807385183     1.8751290901    -0.6232911525
| 16>  H       -0.3820897518     1.6168349677     1.1209389771
| 17>  H       -0.0021450109    -0.6771218276     0.8374096040
| 18>  H        1.3472836868     0.8673525562    -2.4709821707
| 19>  H        2.1288818325    -1.1636958759    -3.8015165596
| 20>  H       -0.8815480886    -3.1897183070    -0.2945533059
| 21>  H        0.5409617734    -4.1685461950    -0.6996541769
| 22>  H        1.5871218197    -2.9320834243     1.0174690831
| 23> *
| 24>
| 25>                          ****END OF INPUT****

CARTESIAN COORDINATES (ANGSTROEM)
---------------------------------
  C      0.138828    1.303627    0.213070
  N     -0.077620   -0.113477    0.000481
  C      0.576239   -0.718164   -1.067976
  C      1.193118   -0.155331   -2.170256
  N      1.632548   -1.205514   -2.928929
  N      1.362593   -2.399938   -2.389895
  C      0.709137   -2.121833   -1.262053
  C      0.213321   -3.185476   -0.338030
  O      0.623744   -2.950780    1.016510
  H      1.203156    1.579960    0.306478
  H     -0.280739    1.875129   -0.623291
  H     -0.382090    1.616835    1.120939
  H     -0.002145   -0.677122    0.837410
  H      1.347284    0.867353   -2.470982
  H      2.128882   -1.163696   -3.801517
  H     -0.881548   -3.189718   -0.294553
  H      0.540962   -4.168546   -0.699654
  H      1.587122   -2.932083    1.017469

 Total Charge           Charge          ....    0
 Multiplicity           Mult            ....    1
 Number of Electrons    NEL             ....   68
 Basis Dimension        Dim             ....  333

ORBITAL ENERGIES
----------------

  NO   OCC          E(Eh)            E(eV)
   0   2.0000     -20.562074      -559.5225
   1   2.0000     -15.629243      -425.2933
   2   2.0000     -15.589412      -424.2095
   3   2.0000     -15.554308      -423.2543
   4   2.0000     -11.281354      -306.9812
   5   2.0000     -11.260592      -306.4163
   6   2.0000     -11.255515      -306.2781
   7   2.0000     -11.252854      -306.2057
   8   2.0000     -11.247317      -306.0551
   9   2.0000      -1.373688       -37.3799
  10   2.0000      -1.360269       -37.0148
  11   2.0000      -1.223844       -33.3025
  12   2.0000      -1.100038       -29.9336
  13   2.0000      -1.034757       -28.1572
  14   2.0000      -0.942750       -25.6535
  15   2.0000      -0.921744       -25.0819
  16   2.0000      -0.793281       -21.5863
  17   2.0000      -0.775015       -21.0892
  18   2.0000      -0.746894       -20.3240
  19   2.0000      -0.680502       -18.5174
  20   2.0000      -0.650525       -17.7017
  21   2.0000      -0.630029       -17.1440
  22   2.0000      -0.626553       -17.0494
  23   2.0000      -0.614619       -16.7246
  24   2.0000      -0.594231       -16.1698
  25   2.0000      -0.582530       -15.8514
  26   2.0000      -0.553331       -15.0569
  27   2.0000      -0.534239       -14.5374
  28   2.0000      -0.510100       -13.8805
  29   2.0000      -0.469894       -12.7865
  30   2.0000      -0.450879       -12.2690
  31   2.0000      -0.441733       -12.0202
  32   2.0000      -0.351870        -9.5749
  33   2.0000      -0.294775        -8.0212
  34   0.0000       0.132624         3.6089
  35   0.0000       0.137897         3.7524
  36   0.0000       0.150610         4.0983
  37   0.0000       0.159085         4.3289
  38   0.0000       0.188125         5.1191

MULLIKEN ATOMIC CHARGES
-----------------------
   0 C :   -0.304724
   1 N :   -0.348801
   2 C :    0.130221
   3 C :   -0.180488
   4 N :   -0.102998
   5 N :   -0.210159
   6 C :   -0.083556
   7 C :   -0.027082
   8 O :   -0.492681
   9 H :    0.119173
  10 H :    0.133184
  11 H :    0.142605
  12 H :    0.246414
  13 H :    0.151639
  14 H :    0.253722
  15 H :    0.124645
  16 H :    0.129673
  17 H :    0.319212
Sum of atomic charges:    0.0000000

LOEWDIN ATOMIC CHARGES
----------------------
   0 C :   -0.333784
   1 N :    0.032766
   2 C :   -0.249086
   3 C :   -0.240751
   4 N :    0.116621
   5 N :    0.037267
   6 C :   -0.287651
   7 C :   -0.302343
   8 O :   -0.061467
   9 H :    0.103779
  10 H :    0.116994
  11 H :    0.119060
  12 H :    0.184940
  13 H :    0.135719
  14 H :    0.185470
  15 H :    0.137706
  16 H :    0.130006
  17 H :    0.174754

  Mayer bond orders larger than 0.1
B(  0-C ,  1-N ) :   0.9248 B(  0-C ,  9-H ) :   0.9283 B(  0-C , 10-H ) :   0.9363
B(  0-C , 11-H ) :   0.9377 B(  1-N ,  2-C ) :   1.0757 B(  1-N , 12-H ) :   0.8575
B(  2-C ,  3-C ) :   1.4088 B(  2-C ,  6-C ) :   1.2159 B(  3-C ,  4-N ) :   1.1504
B(  3-C ,  5-N ) :   0.1158 B(  3-C , 13-H ) :   0.9057 B(  4-N ,  5-N ) :   1.0863
B(  4-N , 14-H ) :   0.8753 B(  5-N ,  6-C ) :   1.5760 B(  6-C ,  7-C ) :   0.9315
B(  7-C ,  8-O ) :   0.8489 B(  7-C , 15-H ) :   0.9327 B(  7-C , 16-H ) :   0.9347
B(  8-O , 17-H ) :   0.8428

MP2 TOTAL ENERGY:     -434.555188825 Eh
FINAL SINGLE POINT ENERGY      -434.555188825333

DIPOLE MOMENT
-------------
                                X             Y             Z
Electronic contribution:      1.67302      -4.16327      -3.83620
Nuclear contribution   :     -1.04775       5.06622       3.55673
                        -----------------------------------------
Total Dipole Moment    :      0.62527       0.90295      -0.27947
                        -----------------------------------------
Magnitude (a.u.)       :      1.13331
Magnitude (Debye)      :      2.88064

                             ****ORCA TERMINATED NORMALLY****
TOTAL RUN TIME: 0 days 0 hours 17 minutes 55 seconds 105 msec
