                         Program Version 3.0.3 - RELEASE   -
|  1> ! RI-MP2 RIJK def2-TZVP def2-TZVP/C def2-TZVP/JK TIGHTSCF
|  2> % maxcore 2000
|  3> % mp2 density relaxed end
|  4> *xyz 0 1
|  5>  O        0.0219948464     1.3093795500     0.4623456267
|  6>  C       -0.0244602898    -0.0086404106    -0.0621486239
|  7>  C       -1.4482237842    -0.4709413175    -0.0213983367
|  8>  N       -1.7405186657    -1.7517591981     0.0983992873
|  9>  N       -3.1013680847    -1.7978503696     0.0588414469
| 10>  C       -3.8194426389    -2.9960925990     0.1588659487
| 11>  O       -3.3362630220    -4.0839917300     0.2767752890
| 12>  C       -3.6543434656    -0.5438022764    -0.0753700561
| 13>  C       -2.6183375362     0.3404105125    -0.1317831110
| 14>  H        0.9136184506     1.6471154193     0.3388044662
| 15>  H        0.3331227807    -0.0321988094    -1.1045391624
| 16>  H        0.5950878591    -0.7120599441     0.5111368170
| 17>  H       -4.9057624564    -2.7933447429     0.1118296446
| 18>  H       -4.7238497100    -0.4081460624    -0.1119759448
| 19>  H       -2.6612257433     1.4122329781    -0.2240623713
| 20> *
| 21>
| 22>                          ****END OF INPUT****

CARTESIAN COORDINATES (ANGSTROEM)
---------------------------------
  O      0.021995    1.309380    0.462346
  C     -0.024460   -0.008640   -0.062149
  C     -1.448224   -0.470941   -0.021398
  N     -1.740519   -1.751759    0.098399
  N     -3.101368   -1.797850    0.058841
  C     -3.819443   -2.996093    0.158866
  O     -3.336263   -4.083992    0.276775
  C     -3.654343   -0.543802   -0.075370
  C     -2.618338    0.340411   -0.131783
  H      0.913618    1.647115    0.338804
  H      0.333123   -0.032199   -1.104539
  H      0.595088   -0.712060    0.511137
  H     -4.905762   -2.793345    0.111830
  H     -4.723850   -0.408146   -0.111976
  H     -2.661226    1.412233   -0.224062

 Total Charge           Charge          ....    0
 Multiplicity           Mult            ....    1
 Number of Electrons    NEL             ....   66
 Basis Dimension        Dim             ....  315

ORBITAL ENERGIES
----------------

  NO   OCC          E(Eh)            E(eV)
   0   2.0000     -20.573645      -559.8374
   1   2.0000     -20.559402      -559.4498
   2   2.0000     -15.659871      -426.1268
   3   2.0000     -15.599302      -424.4786
   4   2.0000     -11.377191      -309.5891
   5   2.0000     -11.299745      -307.4817
   6   2.0000     -11.297775      -307.4281
   7   2.0000     -11.281789      -306.9931
   8   2.0000     -11.240444      -305.8680
   9   2.0000      -1.430045       -38.9135
  10   2.0000      -1.382026       -37.6068
  11   2.0000      -1.373507       -37.3750
  12   2.0000      -1.151562       -31.3356
  13   2.0000      -1.075230       -29.2585
  14   2.0000      -0.980833       -26.6898
  15   2.0000      -0.873649       -23.7732
  16   2.0000      -0.826275       -22.4841
  17   2.0000      -0.773145       -21.0383
  18   2.0000      -0.730768       -19.8852
  19   2.0000      -0.712429       -19.3862
  20   2.0000      -0.665296       -18.1036
  21   2.0000      -0.661549       -18.0017
  22   2.0000      -0.640952       -17.4412
  23   2.0000      -0.624212       -16.9857
  24   2.0000      -0.598394       -16.2831
  25   2.0000      -0.588766       -16.0211
  26   2.0000      -0.536300       -14.5935
  27   2.0000      -0.527803       -14.3622
  28   2.0000      -0.474128       -12.9017
  29   2.0000      -0.471982       -12.8433
  30   2.0000      -0.458003       -12.4629
  31   2.0000      -0.376050       -10.2328
  32   2.0000      -0.369039       -10.0421
  33   0.0000       0.092934         2.5289
  34   0.0000       0.127291         3.4638
  35   0.0000       0.141468         3.8495
  36   0.0000       0.165941         4.5155
  37   0.0000       0.175191         4.7672

MULLIKEN ATOMIC CHARGES
-----------------------
   0 O :   -0.465861
   1 C :   -0.117497
   2 C :    0.114487
   3 N :   -0.237078
   4 N :    0.122193
   5 C :    0.138706
   6 O :   -0.241855
   7 C :   -0.108735
   8 C :   -0.194228
   9 H :    0.321746
  10 H :    0.117429
  11 H :    0.129244
  12 H :    0.096902
  13 H :    0.164164
  14 H :    0.160382
Sum of atomic charges:   -0.0000000

LOEWDIN ATOMIC CHARGES
----------------------
   0 O :   -0.039998
   1 C :   -0.305862
   2 C :   -0.260255
   3 N :    0.107491
   4 N :    0.192963
   5 C :   -0.349157
   6 O :    0.150510
   7 C :   -0.195664
   8 C :   -0.148605
   9 H :    0.175702
  10 H :    0.128165
  11 H :    0.131295
  12 H :    0.119945
  13 H :    0.142714
  14 H :    0.150754

  Mayer bond orders larger than 0.1
B(  0-O ,  1-C ) :   1.0505 B(  0-O ,  2-C ) :  -0.1110 B(  0-O ,  9-H ) :   0.8457
B(  1-C ,  2-C ) :   0.9024 B(  1-C , 10-H ) :   0.9244 B(  1-C , 11-H ) :   0.9437
B(  2-C ,  3-N ) :   1.5607 B(  2-C ,  8-C ) :   1.2146 B(  3-N ,  4-N ) :   0.9599
B(  4-N ,  5-C ) :   0.9345 B(  4-N ,  7-C ) :   1.1330 B(  5-C ,  6-O ) :   2.0263
B(  5-C , 12-H ) :   0.9257 B(  7-C ,  8-C ) :   1.5175 B(  7-C , 13-H ) :   0.8974
B(  8-C , 14-H ) :   0.9121

MP2 TOTAL ENERGY:     -453.232956462 Eh
FINAL SINGLE POINT ENERGY      -453.232956461712

DIPOLE MOMENT
-------------
                                X             Y             Z
Electronic contribution:     -2.49298      -4.09828       0.54654
Nuclear contribution   :      2.27219       5.36541      -0.97515
                        -----------------------------------------
Total Dipole Moment    :     -0.22078       1.26713      -0.42862
                        -----------------------------------------
Magnitude (a.u.)       :      1.35576
Magnitude (Debye)      :      3.44606

                             ****ORCA TERMINATED NORMALLY****
TOTAL RUN TIME: 0 days 0 hours 15 minutes 29 seconds 930 msec
