                         Program Version 3.0.3 - RELEASE   -
|  1> ! RI-MP2 RIJK def2-TZVP def2-TZVP/C def2-TZVP/JK TIGHTSCF
|  2> % maxcore 2000
|  3> % mp2 density relaxed end
|  4> *xyz 0 1
|  5>  C        0.0729497527     1.5780480905    -0.0947333544
|  6>  C       -0.0425057398     0.0691568663     0.0660590119
|  7>  C       -1.4860963082    -0.4901004742     0.0364793923
|  8>  C       -1.5038717765    -1.5026159850     1.1569968579
|  9>  C       -0.3538880813    -1.5672964277     1.8308109257
| 10>  C        0.6618304676    -0.6304052129     1.2585560289
| 11>  O        1.5981560988    -1.2970030591     0.3157707029
| 12>  C        0.9704919653    -0.7363902496    -0.7644138397
| 13>  O        1.2286799001    -0.8868666736    -1.9164415493
| 14>  H        1.1092233762     1.9157940420     0.0036320021
| 15>  H       -0.2846101365     1.8821733992    -1.0833626603
| 16>  H       -0.5297409913     2.0945461494     0.6595539859
| 17>  H       -2.2195080648     0.3090474545     0.2056650243
| 18>  H       -1.7380217640    -0.9374816483    -0.9321643396
| 19>  H       -2.3806870622    -2.1055634962     1.3685364684
| 20>  H       -0.1451779203    -2.2217825862     2.6682447979
| 21>  H        1.2377463543    -0.0336439991     1.9680660251
| 22> *
| 23>
| 24>                          ****END OF INPUT****

CARTESIAN COORDINATES (ANGSTROEM)
---------------------------------
  C      0.072950    1.578048   -0.094733
  C     -0.042506    0.069157    0.066059
  C     -1.486096   -0.490100    0.036479
  C     -1.503872   -1.502616    1.156997
  C     -0.353888   -1.567296    1.830811
  C      0.661830   -0.630405    1.258556
  O      1.598156   -1.297003    0.315771
  C      0.970492   -0.736390   -0.764414
  O      1.228680   -0.886867   -1.916442
  H      1.109223    1.915794    0.003632
  H     -0.284610    1.882173   -1.083363
  H     -0.529741    2.094546    0.659554
  H     -2.219508    0.309047    0.205665
  H     -1.738022   -0.937482   -0.932164
  H     -2.380687   -2.105563    1.368536
  H     -0.145178   -2.221783    2.668245
  H      1.237746   -0.033644    1.968066

 Total Charge           Charge          ....    0
 Multiplicity           Mult            ....    1
 Number of Electrons    NEL             ....   66
 Basis Dimension        Dim             ....  327

ORBITAL ENERGIES
----------------

  NO   OCC          E(Eh)            E(eV)
   0   2.0000     -20.595000      -560.4184
   1   2.0000     -20.547626      -559.1293
   2   2.0000     -11.375854      -309.5527
   3   2.0000     -11.310717      -307.7803
   4   2.0000     -11.270212      -306.6781
   5   2.0000     -11.258202      -306.3513
   6   2.0000     -11.254824      -306.2593
   7   2.0000     -11.245634      -306.0093
   8   2.0000     -11.242650      -305.9281
   9   2.0000      -1.456725       -39.6395
  10   2.0000      -1.372763       -37.3548
  11   2.0000      -1.158827       -31.5333
  12   2.0000      -1.053410       -28.6648
  13   2.0000      -0.978256       -26.6197
  14   2.0000      -0.929302       -25.2876
  15   2.0000      -0.869000       -23.6467
  16   2.0000      -0.769431       -20.9373
  17   2.0000      -0.717606       -19.5271
  18   2.0000      -0.710497       -19.3336
  19   2.0000      -0.686433       -18.6788
  20   2.0000      -0.666006       -18.1230
  21   2.0000      -0.624009       -16.9802
  22   2.0000      -0.600390       -16.3374
  23   2.0000      -0.586176       -15.9507
  24   2.0000      -0.579815       -15.7776
  25   2.0000      -0.557014       -15.1571
  26   2.0000      -0.546185       -14.8625
  27   2.0000      -0.533409       -14.5148
  28   2.0000      -0.504890       -13.7388
  29   2.0000      -0.474352       -12.9078
  30   2.0000      -0.457099       -12.4383
  31   2.0000      -0.428732       -11.6664
  32   2.0000      -0.382084       -10.3970
  33   0.0000       0.125041         3.4025
  34   0.0000       0.127533         3.4703
  35   0.0000       0.153177         4.1681
  36   0.0000       0.165712         4.5093
  37   0.0000       0.174872         4.7585

MULLIKEN ATOMIC CHARGES
-----------------------
   0 C :   -0.432034
   1 C :    0.077130
   2 C :   -0.187099
   3 C :   -0.187027
   4 C :   -0.203281
   5 C :    0.115343
   6 O :   -0.241720
   7 C :    0.199788
   8 O :   -0.267933
   9 H :    0.145516
  10 H :    0.154867
  11 H :    0.140274
  12 H :    0.130081
  13 H :    0.151941
  14 H :    0.138000
  15 H :    0.143825
  16 H :    0.122327
Sum of atomic charges:   -0.0000000

LOEWDIN ATOMIC CHARGES
----------------------
   0 C :   -0.258146
   1 C :   -0.211369
   2 C :   -0.186321
   3 C :   -0.125148
   4 C :   -0.139443
   5 C :   -0.180302
   6 O :    0.248614
   7 C :   -0.428038
   8 O :    0.153262
   9 H :    0.133129
  10 H :    0.137221
  11 H :    0.130038
  12 H :    0.147865
  13 H :    0.153544
  14 H :    0.141147
  15 H :    0.142642
  16 H :    0.141305

  Mayer bond orders larger than 0.1
B(  0-C ,  1-C ) :   0.9006 B(  0-C ,  9-H ) :   0.9297 B(  0-C , 10-H ) :   0.9326
B(  0-C , 11-H ) :   0.9328 B(  1-C ,  2-C ) :   0.8944 B(  1-C ,  5-C ) :   0.9157
B(  1-C ,  7-C ) :   0.9072 B(  2-C ,  3-C ) :   0.9568 B(  2-C , 12-H ) :   0.9160
B(  2-C , 13-H ) :   0.9073 B(  3-C ,  4-C ) :   1.7692 B(  3-C , 14-H ) :   0.9245
B(  4-C ,  5-C ) :   0.9261 B(  4-C , 15-H ) :   0.9190 B(  5-C ,  6-O ) :   0.8568
B(  5-C , 16-H ) :   0.9161 B(  6-O ,  7-C ) :   1.1118 B(  7-C ,  8-O ) :   2.0524

MP2 TOTAL ENERGY:     -421.158582124 Eh
FINAL SINGLE POINT ENERGY      -421.158582123687

DIPOLE MOMENT
-------------
                                X             Y             Z
Electronic contribution:      4.73080      -4.63526      -2.08493
Nuclear contribution   :     -5.81956       5.27145       3.24715
                        -----------------------------------------
Total Dipole Moment    :     -1.08876       0.63619       1.16222
                        -----------------------------------------
Magnitude (a.u.)       :      1.71491
Magnitude (Debye)      :      4.35895

                             ****ORCA TERMINATED NORMALLY****
TOTAL RUN TIME: 0 days 0 hours 17 minutes 57 seconds 767 msec
