                         Program Version 3.0.3 - RELEASE   -
|  1> ! RI-MP2 RIJK def2-TZVP def2-TZVP/C def2-TZVP/JK TIGHTSCF
|  2> % maxcore 2000
|  3> % mp2 density relaxed end
|  4> *xyz 0 1
|  5>  O       -0.1818472963    -0.0111527535    -0.3582139812
|  6>  C       -0.0020151221     1.0790932342     0.1230262509
|  7>  C        1.2993477944     1.8565901256     0.0409291005
|  8>  C        1.5776522231     2.4434871436     1.4127525548
|  9>  O        0.7544829449     3.0666375823     2.0371511372
| 10>  C        2.4872811697     1.3140673871    -0.8159448903
| 11>  C        1.6478958802     1.6147710553    -2.0980679537
| 12>  C        1.4714846024     2.8595788167    -1.1874619882
| 13>  C        3.0035361840     2.7836309159    -0.9265622212
| 14>  H       -0.7933374172     1.6014459293     0.6984663367
| 15>  H        2.5818702729     2.2336033989     1.8414880316
| 16>  H        3.0713916359     0.4183575925    -0.6061392954
| 17>  H        2.2285940228     1.7889098290    -3.0069926469
| 18>  H        0.7826869334     0.9845543059    -2.2879200099
| 19>  H        0.8629395193     3.7476072596    -1.3581443531
| 20>  H        3.3942340671     3.2659787438    -0.0285874323
| 21>  H        3.6378761756     2.9981933538    -1.7895454893
| 22> *
| 23>
| 24>                          ****END OF INPUT****

CARTESIAN COORDINATES (ANGSTROEM)
---------------------------------
  O     -0.181847   -0.011153   -0.358214
  C     -0.002015    1.079093    0.123026
  C      1.299348    1.856590    0.040929
  C      1.577652    2.443487    1.412753
  O      0.754483    3.066638    2.037151
  C      2.487281    1.314067   -0.815945
  C      1.647896    1.614771   -2.098068
  C      1.471485    2.859579   -1.187462
  C      3.003536    2.783631   -0.926562
  H     -0.793337    1.601446    0.698466
  H      2.581870    2.233603    1.841488
  H      3.071392    0.418358   -0.606139
  H      2.228594    1.788910   -3.006993
  H      0.782687    0.984554   -2.287920
  H      0.862940    3.747607   -1.358144
  H      3.394234    3.265979   -0.028587
  H      3.637876    2.998193   -1.789545

 Total Charge           Charge          ....    0
 Multiplicity           Mult            ....    1
 Number of Electrons    NEL             ....   66
 Basis Dimension        Dim             ....  327

ORBITAL ENERGIES
----------------

  NO   OCC          E(Eh)            E(eV)
   0   2.0000     -20.573955      -559.8458
   1   2.0000     -20.565139      -559.6059
   2   2.0000     -11.348831      -308.8174
   3   2.0000     -11.339078      -308.5520
   4   2.0000     -11.281196      -306.9769
   5   2.0000     -11.274481      -306.7942
   6   2.0000     -11.271585      -306.7154
   7   2.0000     -11.255757      -306.2847
   8   2.0000     -11.246284      -306.0269
   9   2.0000      -1.414265       -38.4841
  10   2.0000      -1.403580       -38.1933
  11   2.0000      -1.238067       -33.6895
  12   2.0000      -1.013595       -27.5813
  13   2.0000      -0.934857       -25.4387
  14   2.0000      -0.884778       -24.0760
  15   2.0000      -0.848627       -23.0923
  16   2.0000      -0.822664       -22.3858
  17   2.0000      -0.731158       -19.8958
  18   2.0000      -0.702174       -19.1071
  19   2.0000      -0.699276       -19.0283
  20   2.0000      -0.671614       -18.2755
  21   2.0000      -0.647448       -17.6180
  22   2.0000      -0.641521       -17.4567
  23   2.0000      -0.564658       -15.3651
  24   2.0000      -0.558629       -15.2011
  25   2.0000      -0.532561       -14.4917
  26   2.0000      -0.521321       -14.1859
  27   2.0000      -0.496229       -13.5031
  28   2.0000      -0.479892       -13.0585
  29   2.0000      -0.475192       -12.9306
  30   2.0000      -0.458871       -12.4865
  31   2.0000      -0.436481       -11.8772
  32   2.0000      -0.406393       -11.0585
  33   0.0000       0.092436         2.5153
  34   0.0000       0.131505         3.5784
  35   0.0000       0.152333         4.1452
  36   0.0000       0.155773         4.2388
  37   0.0000       0.164044         4.4639

MULLIKEN ATOMIC CHARGES
-----------------------
   0 O :   -0.262654
   1 C :    0.034181
   2 C :    0.123640
   3 C :    0.024427
   4 O :   -0.261628
   5 C :   -0.121629
   6 C :   -0.233232
   7 C :   -0.127659
   8 C :   -0.234049
   9 H :    0.118001
  10 H :    0.112579
  11 H :    0.150901
  12 H :    0.122001
  13 H :    0.149996
  14 H :    0.152121
  15 H :    0.127316
  16 H :    0.125688
Sum of atomic charges:    0.0000000

LOEWDIN ATOMIC CHARGES
----------------------
   0 O :    0.144416
   1 C :   -0.248079
   2 C :   -0.203684
   3 C :   -0.252853
   4 O :    0.144826
   5 C :   -0.133856
   6 C :   -0.181427
   7 C :   -0.122088
   8 C :   -0.187954
   9 H :    0.126583
  10 H :    0.119778
  11 H :    0.131980
  12 H :    0.132046
  13 H :    0.135299
  14 H :    0.132263
  15 H :    0.130097
  16 H :    0.132652

  Mayer bond orders larger than 0.1
B(  0-O ,  1-C ) :   1.9769 B(  1-C ,  2-C ) :   0.8388 B(  1-C ,  9-H ) :   0.9451
B(  2-C ,  3-C ) :   0.8240 B(  2-C ,  5-C ) :   0.8505 B(  2-C ,  7-C ) :   0.8349
B(  3-C ,  4-O ) :   1.9736 B(  3-C , 10-H ) :   0.9499 B(  5-C ,  6-C ) :   0.8986
B(  5-C ,  8-C ) :   0.9052 B(  5-C , 11-H ) :   0.8801 B(  6-C ,  7-C ) :   0.9143
B(  6-C , 12-H ) :   0.9339 B(  6-C , 13-H ) :   0.9218 B(  7-C ,  8-C ) :   0.9032
B(  7-C , 14-H ) :   0.8905 B(  8-C , 15-H ) :   0.9286 B(  8-C , 16-H ) :   0.9343

MP2 TOTAL ENERGY:     -421.070121198 Eh
FINAL SINGLE POINT ENERGY      -421.070121197941

DIPOLE MOMENT
-------------
                                X             Y             Z
Electronic contribution:     -3.99856      -1.44804       4.30688
Nuclear contribution   :      4.90607       1.84971      -4.82266
                        -----------------------------------------
Total Dipole Moment    :      0.90751       0.40167      -0.51578
                        -----------------------------------------
Magnitude (a.u.)       :      1.11846
Magnitude (Debye)      :      2.84290

                             ****ORCA TERMINATED NORMALLY****
TOTAL RUN TIME: 0 days 0 hours 18 minutes 34 seconds 990 msec
