                         Program Version 3.0.3 - RELEASE   -
|  1> ! RI-MP2 RIJK def2-TZVP def2-TZVP/C def2-TZVP/JK TIGHTSCF
|  2> % maxcore 2000
|  3> % mp2 density relaxed end
|  4> *xyz 0 1
|  5>  C       -0.1416107465     1.4871173092    -0.1545606511
|  6>  C       -0.0202958032     0.0012260489     0.0454142486
|  7>  O        1.2672594511    -0.5832915808    -0.1262963699
|  8>  C        0.6948316333    -0.6088960620     1.1944473108
|  9>  C        1.3312269424     0.1776226191     2.2107567636
| 10>  C        1.8547600143     0.8100876393     3.1011630170
| 11>  C        2.4443937136     1.5269049182     4.0944217443
| 12>  C        2.9673099450     2.1630548541     4.9777966722
| 13>  H        0.6691843388     2.0168710176     0.3496787985
| 14>  H       -0.1059707544     1.7266526382    -1.2221320802
| 15>  H       -1.0974431978     1.8464995334     0.2406820606
| 16>  H       -0.8312681914    -0.5980570735    -0.3740380447
| 17>  H        0.3777888722    -1.6007020641     1.5174845870
| 18>  H        3.4282902427     2.7229234025     5.7533718431
| 19> *
| 20>
| 21>                          ****END OF INPUT****

CARTESIAN COORDINATES (ANGSTROEM)
---------------------------------
  C     -0.141611    1.487117   -0.154561
  C     -0.020296    0.001226    0.045414
  O      1.267259   -0.583292   -0.126296
  C      0.694832   -0.608896    1.194447
  C      1.331227    0.177623    2.210757
  C      1.854760    0.810088    3.101163
  C      2.444394    1.526905    4.094422
  C      2.967310    2.163055    4.977797
  H      0.669184    2.016871    0.349679
  H     -0.105971    1.726653   -1.222132
  H     -1.097443    1.846500    0.240682
  H     -0.831268   -0.598057   -0.374038
  H      0.377789   -1.600702    1.517485
  H      3.428290    2.722923    5.753372

 Total Charge           Charge          ....    0
 Multiplicity           Mult            ....    1
 Number of Electrons    NEL             ....   56
 Basis Dimension        Dim             ....  284

ORBITAL ENERGIES
----------------

  NO   OCC          E(Eh)            E(eV)
   0   2.0000     -20.584051      -560.1205
   1   2.0000     -11.320455      -308.0453
   2   2.0000     -11.307490      -307.6925
   3   2.0000     -11.264450      -306.5213
   4   2.0000     -11.263470      -306.4946
   5   2.0000     -11.260122      -306.4035
   6   2.0000     -11.255474      -306.2770
   7   2.0000     -11.232141      -305.6421
   8   2.0000      -1.427965       -38.8569
   9   2.0000      -1.097827       -29.8734
  10   2.0000      -1.038720       -28.2650
  11   2.0000      -1.019943       -27.7541
  12   2.0000      -0.947989       -25.7961
  13   2.0000      -0.855131       -23.2693
  14   2.0000      -0.818454       -22.2713
  15   2.0000      -0.725665       -19.7464
  16   2.0000      -0.715367       -19.4661
  17   2.0000      -0.683521       -18.5996
  18   2.0000      -0.603631       -16.4256
  19   2.0000      -0.579269       -15.7627
  20   2.0000      -0.563083       -15.3223
  21   2.0000      -0.537057       -14.6141
  22   2.0000      -0.503659       -13.7053
  23   2.0000      -0.487094       -13.2545
  24   2.0000      -0.468638       -12.7523
  25   2.0000      -0.452630       -12.3167
  26   2.0000      -0.364709        -9.9242
  27   2.0000      -0.353612        -9.6223
  28   0.0000       0.098205         2.6723
  29   0.0000       0.105002         2.8572
  30   0.0000       0.143871         3.9149
  31   0.0000       0.153992         4.1903
  32   0.0000       0.164692         4.4815

MULLIKEN ATOMIC CHARGES
-----------------------
   0 C :   -0.390070
   1 C :    0.110336
   2 O :   -0.310302
   3 C :   -0.161515
   4 C :   -0.027760
   5 C :    0.057009
   6 C :   -0.016881
   7 C :   -0.144072
   8 H :    0.152101
   9 H :    0.142839
  10 H :    0.131334
  11 H :    0.115604
  12 H :    0.144697
  13 H :    0.196679
Sum of atomic charges:    0.0000000

LOEWDIN ATOMIC CHARGES
----------------------
   0 C :   -0.287862
   1 C :   -0.278836
   2 O :    0.179625
   3 C :   -0.255961
   4 C :   -0.004249
   5 C :   -0.043790
   6 C :   -0.095767
   7 C :   -0.039025
   8 H :    0.136153
   9 H :    0.132056
  10 H :    0.132935
  11 H :    0.138013
  12 H :    0.155422
  13 H :    0.131287

  Mayer bond orders larger than 0.1
B(  0-C ,  1-C ) :   0.9066 B(  0-C ,  8-H ) :   0.9334 B(  0-C ,  9-H ) :   0.9355
B(  0-C , 10-H ) :   0.9237 B(  1-C ,  2-O ) :   0.8921 B(  1-C ,  3-C ) :   0.9693
B(  1-C , 11-H ) :   0.9205 B(  2-O ,  3-C ) :   0.9497 B(  3-C ,  4-C ) :   1.0063
B(  3-C ,  5-C ) :  -0.1375 B(  3-C , 12-H ) :   0.9229 B(  4-C ,  5-C ) :   2.5685
B(  4-C ,  7-C ) :   0.1261 B(  5-C ,  6-C ) :   1.3162 B(  6-C ,  7-C ) :   2.5494
B(  7-C , 13-H ) :   0.8843

MP2 TOTAL ENERGY:     -344.698874014 Eh
FINAL SINGLE POINT ENERGY      -344.698874013631

DIPOLE MOMENT
-------------
                                X             Y             Z
Electronic contribution:      4.07872      -2.08968       4.47132
Nuclear contribution   :     -4.73296       2.34640      -4.23387
                        -----------------------------------------
Total Dipole Moment    :     -0.65424       0.25672       0.23745
                        -----------------------------------------
Magnitude (a.u.)       :      0.74184
Magnitude (Debye)      :      1.88560

                             ****ORCA TERMINATED NORMALLY****
TOTAL RUN TIME: 0 days 0 hours 9 minutes 25 seconds 535 msec
