                         Program Version 3.0.3 - RELEASE   -
|  1> ! RI-MP2 RIJK def2-TZVP def2-TZVP/C def2-TZVP/JK TIGHTSCF
|  2> % maxcore 2000
|  3> % mp2 density relaxed end
|  4> *xyz 0 1
|  5>  N        0.0070485424    -1.1415676691     0.2127989870
|  6>  C       -0.0111398361     0.0024784853     0.0528261868
|  7>  C       -0.0371953447     1.4489004093    -0.1575188859
|  8>  C        1.3492095663     2.0960571083    -0.0428184714
|  9>  C        1.5035671992     3.6045706485     0.0151833075
| 10>  C        1.4158600705     3.9875403548     1.5101304219
| 11>  C        1.2051155913     2.6884713092     2.2654479156
| 12>  N        2.1150750779     1.9932954062     1.2692676799
| 13>  C        2.6695722262     3.4012648352     0.9349560076
| 14>  H       -0.4234757119     1.6464078803    -1.1648159848
| 15>  H       -0.7505970786     1.8978469304     0.5389350787
| 16>  H        2.0014339864     1.6681740280    -0.8096479125
| 17>  H        1.3870411496     4.3464660826    -0.7652830623
| 18>  H        1.2325133840     5.0117870844     1.8099043524
| 19>  H        1.7058123274     2.6903642028     3.2364304295
| 20>  H        0.2057522115     2.2574703685     2.3826065101
| 21>  H        3.7123953787     3.6807783852     0.9130341900
| 22> *
| 23>
| 24>                          ****END OF INPUT****

CARTESIAN COORDINATES (ANGSTROEM)
---------------------------------
  N      0.007049   -1.141568    0.212799
  C     -0.011140    0.002478    0.052826
  C     -0.037195    1.448900   -0.157519
  C      1.349210    2.096057   -0.042818
  C      1.503567    3.604571    0.015183
  C      1.415860    3.987540    1.510130
  C      1.205116    2.688471    2.265448
  N      2.115075    1.993295    1.269268
  C      2.669572    3.401265    0.934956
  H     -0.423476    1.646408   -1.164816
  H     -0.750597    1.897847    0.538935
  H      2.001434    1.668174   -0.809648
  H      1.387041    4.346466   -0.765283
  H      1.232513    5.011787    1.809904
  H      1.705812    2.690364    3.236430
  H      0.205752    2.257470    2.382607
  H      3.712395    3.680778    0.913034

 Total Charge           Charge          ....    0
 Multiplicity           Mult            ....    1
 Number of Electrons    NEL             ....   64
 Basis Dimension        Dim             ....  327

ORBITAL ENERGIES
----------------

  NO   OCC          E(Eh)            E(eV)
   0   2.0000     -15.574746      -423.8104
   1   2.0000     -15.564775      -423.5390
   2   2.0000     -11.289403      -307.2003
   3   2.0000     -11.282906      -307.0235
   4   2.0000     -11.278107      -306.8929
   5   2.0000     -11.269671      -306.6633
   6   2.0000     -11.268756      -306.6384
   7   2.0000     -11.258865      -306.3693
   8   2.0000     -11.257646      -306.3361
   9   2.0000      -1.320130       -35.9226
  10   2.0000      -1.214108       -33.0376
  11   2.0000      -1.081208       -29.4212
  12   2.0000      -1.044992       -28.4357
  13   2.0000      -0.985170       -26.8078
  14   2.0000      -0.881241       -23.9798
  15   2.0000      -0.773554       -21.0495
  16   2.0000      -0.764141       -20.7933
  17   2.0000      -0.714334       -19.4380
  18   2.0000      -0.694102       -18.8875
  19   2.0000      -0.671829       -18.2814
  20   2.0000      -0.632352       -17.2072
  21   2.0000      -0.605916       -16.4878
  22   2.0000      -0.587205       -15.9787
  23   2.0000      -0.554392       -15.0858
  24   2.0000      -0.544600       -14.8193
  25   2.0000      -0.500894       -13.6300
  26   2.0000      -0.488635       -13.2964
  27   2.0000      -0.458192       -12.4680
  28   2.0000      -0.454712       -12.3734
  29   2.0000      -0.446195       -12.1416
  30   2.0000      -0.399045       -10.8586
  31   2.0000      -0.383006       -10.4221
  32   0.0000       0.124916         3.3991
  33   0.0000       0.147428         4.0117
  34   0.0000       0.154091         4.1930
  35   0.0000       0.165958         4.5159
  36   0.0000       0.178064         4.8454

MULLIKEN ATOMIC CHARGES
-----------------------
   0 N :   -0.054732
   1 C :   -0.165479
   2 C :   -0.192359
   3 C :    0.028421
   4 C :   -0.185633
   5 C :   -0.193224
   6 C :   -0.112641
   7 N :   -0.200183
   8 C :   -0.064326
   9 H :    0.162951
  10 H :    0.170516
  11 H :    0.123750
  12 H :    0.140729
  13 H :    0.137093
  14 H :    0.130110
  15 H :    0.114830
  16 H :    0.160178
Sum of atomic charges:    0.0000000

LOEWDIN ATOMIC CHARGES
----------------------
   0 N :    0.061574
   1 C :   -0.188100
   2 C :   -0.228133
   3 C :   -0.228902
   4 C :   -0.159848
   5 C :   -0.179004
   6 C :   -0.228906
   7 N :    0.129513
   8 C :   -0.146323
   9 H :    0.170635
  10 H :    0.163823
  11 H :    0.160469
  12 H :    0.141475
  13 H :    0.139979
  14 H :    0.138471
  15 H :    0.118677
  16 H :    0.134601

  Mayer bond orders larger than 0.1
B(  0-N ,  1-C ) :   2.8679 B(  1-C ,  2-C ) :   0.9436 B(  2-C ,  3-C ) :   0.8887
B(  2-C ,  9-H ) :   0.9031 B(  2-C , 10-H ) :   0.9189 B(  3-C ,  4-C ) :   0.9678
B(  3-C ,  7-N ) :   0.9667 B(  3-C , 11-H ) :   0.9142 B(  4-C ,  5-C ) :   0.8270
B(  4-C ,  8-C ) :   0.8781 B(  4-C , 12-H ) :   0.9164 B(  5-C ,  6-C ) :   0.9721
B(  5-C ,  8-C ) :   0.8712 B(  5-C , 13-H ) :   0.9204 B(  6-C ,  7-N ) :   0.8996
B(  6-C , 14-H ) :   0.9237 B(  6-C , 15-H ) :   0.9290 B(  7-N ,  8-C ) :   0.9149
B(  8-C , 16-H ) :   0.8952

MP2 TOTAL ENERGY:     -380.125859555 Eh
FINAL SINGLE POINT ENERGY      -380.125859555298

DIPOLE MOMENT
-------------
                                X             Y             Z
Electronic contribution:     -0.14011      -4.41825      -0.93507
Nuclear contribution   :      0.00808       6.61514       0.64391
                        -----------------------------------------
Total Dipole Moment    :     -0.13203       2.19689      -0.29116
                        -----------------------------------------
Magnitude (a.u.)       :      2.22003
Magnitude (Debye)      :      5.64288

                             ****ORCA TERMINATED NORMALLY****
TOTAL RUN TIME: 0 days 0 hours 16 minutes 26 seconds 157 msec
