                         Program Version 3.0.3 - RELEASE   -
|  1> ! RI-MP2 RIJK def2-TZVP def2-TZVP/C def2-TZVP/JK TIGHTSCF
|  2> % maxcore 2000
|  3> % mp2 density relaxed end
|  4> *xyz 0 1
|  5>  C        0.0358225912     1.4706023688    -0.3666461011
|  6>  C       -0.0425237542     0.0447413364     0.1971421141
|  7>  C       -1.4406993318    -0.5632233842     0.1350090651
|  8>  C       -2.4811484283     0.1680044606     0.9692223849
|  9>  C       -1.9102168116    -1.1593839271    -1.1778174873
| 10>  O       -1.0387579482    -1.0615987281    -2.2715650026
| 11>  C       -1.5899127465    -2.0737549709    -0.0057894111
| 12>  C       -0.4047968833    -3.0120911231    -0.0669750754
| 13>  O       -2.6866155693    -2.6101921342     0.6981554807
| 14>  H        1.0639320298     1.8439350504    -0.3215553722
| 15>  H       -0.2841156048     1.4877411932    -1.4126144985
| 16>  H       -0.5912710871     2.1707626782     0.1933251240
| 17>  H        0.6646246711    -0.5774475785    -0.3538640627
| 18>  H        0.2889168709     0.0432554993     1.2442473496
| 19>  H       -2.6379032985     1.1845654454     0.5949595263
| 20>  H       -3.4378410175    -0.3542701159     0.9608318357
| 21>  H       -2.1547535591     0.2422233859     2.0131684729
| 22>  H       -2.9681903765    -1.0373775497    -1.4167956193
| 23>  H       -1.1670980395    -1.8351596177    -2.8304545205
| 24>  H        0.3665726271    -2.6559397913    -0.7512259349
| 25>  H        0.0380996096    -3.1557016200     0.9234881136
| 26>  H       -0.7325744446    -3.9966688264    -0.4264908471
| 27>  H       -3.0093910689    -3.3719812412     0.2038961261
| 28> *
| 29>
| 30>                          ****END OF INPUT****

CARTESIAN COORDINATES (ANGSTROEM)
---------------------------------
  C      0.035823    1.470602   -0.366646
  C     -0.042524    0.044741    0.197142
  C     -1.440699   -0.563223    0.135009
  C     -2.481148    0.168004    0.969222
  C     -1.910217   -1.159384   -1.177817
  O     -1.038758   -1.061599   -2.271565
  C     -1.589913   -2.073755   -0.005789
  C     -0.404797   -3.012091   -0.066975
  O     -2.686616   -2.610192    0.698155
  H      1.063932    1.843935   -0.321555
  H     -0.284116    1.487741   -1.412614
  H     -0.591271    2.170763    0.193325
  H      0.664625   -0.577448   -0.353864
  H      0.288917    0.043255    1.244247
  H     -2.637903    1.184565    0.594960
  H     -3.437841   -0.354270    0.960832
  H     -2.154754    0.242223    2.013168
  H     -2.968190   -1.037378   -1.416796
  H     -1.167098   -1.835160   -2.830455
  H      0.366573   -2.655940   -0.751226
  H      0.038100   -3.155702    0.923488
  H     -0.732574   -3.996669   -0.426491
  H     -3.009391   -3.371981    0.203896

 Total Charge           Charge          ....    0
 Multiplicity           Mult            ....    1
 Number of Electrons    NEL             ....   72
 Basis Dimension        Dim             ....  363

ORBITAL ENERGIES
----------------

  NO   OCC          E(Eh)            E(eV)
   0   2.0000     -20.565592      -559.6182
   1   2.0000     -20.560294      -559.4741
   2   2.0000     -11.282922      -307.0239
   3   2.0000     -11.273509      -306.7678
   4   2.0000     -11.230749      -305.6042
   5   2.0000     -11.220699      -305.3307
   6   2.0000     -11.214721      -305.1681
   7   2.0000     -11.205072      -304.9055
   8   2.0000     -11.202439      -304.8339
   9   2.0000      -1.379286       -37.5323
  10   2.0000      -1.363829       -37.1117
  11   2.0000      -1.134975       -30.8842
  12   2.0000      -1.017275       -27.6815
  13   2.0000      -0.980156       -26.6714
  14   2.0000      -0.931657       -25.3517
  15   2.0000      -0.853896       -23.2357
  16   2.0000      -0.798896       -21.7391
  17   2.0000      -0.725566       -19.7436
  18   2.0000      -0.700476       -19.0609
  19   2.0000      -0.684067       -18.6144
  20   2.0000      -0.651116       -17.7178
  21   2.0000      -0.610338       -16.6081
  22   2.0000      -0.590963       -16.0809
  23   2.0000      -0.586604       -15.9623
  24   2.0000      -0.560114       -15.2415
  25   2.0000      -0.555237       -15.1088
  26   2.0000      -0.542562       -14.7639
  27   2.0000      -0.534354       -14.5405
  28   2.0000      -0.526045       -14.3144
  29   2.0000      -0.507583       -13.8120
  30   2.0000      -0.496992       -13.5238
  31   2.0000      -0.488318       -13.2878
  32   2.0000      -0.475769       -12.9463
  33   2.0000      -0.456466       -12.4211
  34   2.0000      -0.385496       -10.4899
  35   2.0000      -0.368263       -10.0209
  36   0.0000       0.119711         3.2575
  37   0.0000       0.154794         4.2121
  38   0.0000       0.156400         4.2559
  39   0.0000       0.173152         4.7117
  40   0.0000       0.185914         5.0590

MULLIKEN ATOMIC CHARGES
-----------------------
   0 C :   -0.431567
   1 C :   -0.149157
   2 C :    0.130368
   3 C :   -0.437527
   4 C :   -0.094913
   5 O :   -0.466388
   6 C :    0.149404
   7 C :   -0.435287
   8 O :   -0.463132
   9 H :    0.129619
  10 H :    0.146924
  11 H :    0.124928
  12 H :    0.104758
  13 H :    0.113312
  14 H :    0.136381
  15 H :    0.154057
  16 H :    0.128834
  17 H :    0.115235
  18 H :    0.322031
  19 H :    0.146893
  20 H :    0.146676
  21 H :    0.114072
  22 H :    0.314477
Sum of atomic charges:   -0.0000000

LOEWDIN ATOMIC CHARGES
----------------------
   0 C :   -0.310861
   1 C :   -0.242273
   2 C :   -0.220248
   3 C :   -0.261813
   4 C :   -0.276751
   5 O :    0.000020
   6 C :   -0.338756
   7 C :   -0.280551
   8 O :    0.021074
   9 H :    0.120149
  10 H :    0.126661
  11 H :    0.117972
  12 H :    0.142999
  13 H :    0.140777
  14 H :    0.125526
  15 H :    0.131322
  16 H :    0.128671
  17 H :    0.135308
  18 H :    0.179111
  19 H :    0.129775
  20 H :    0.131619
  21 H :    0.123384
  22 H :    0.176886

  Mayer bond orders larger than 0.1
B(  0-C ,  1-C ) :   0.9076 B(  0-C ,  9-H ) :   0.9405 B(  0-C , 10-H ) :   0.9390
B(  0-C , 11-H ) :   0.9398 B(  1-C ,  2-C ) :   0.9210 B(  1-C , 12-H ) :   0.9240
B(  1-C , 13-H ) :   0.9347 B(  2-C ,  3-C ) :   0.8924 B(  2-C ,  4-C ) :   0.8414
B(  2-C ,  6-C ) :   0.8265 B(  3-C , 14-H ) :   0.9417 B(  3-C , 15-H ) :   0.9271
B(  3-C , 16-H ) :   0.9384 B(  4-C ,  5-O ) :   1.0226 B(  4-C ,  6-C ) :   0.8705
B(  4-C , 17-H ) :   0.9675 B(  5-O , 18-H ) :   0.8422 B(  6-C ,  7-C ) :   0.9219
B(  6-C ,  8-O ) :   0.9928 B(  7-C , 19-H ) :   0.9353 B(  7-C , 20-H ) :   0.9424
B(  7-C , 21-H ) :   0.9201 B(  8-O , 22-H ) :   0.8408

MP2 TOTAL ENERGY:     -424.713791732 Eh
FINAL SINGLE POINT ENERGY      -424.713791731727

DIPOLE MOMENT
-------------
                                X             Y             Z
Electronic contribution:     -3.39643      -4.45872      -2.22077
Nuclear contribution   :      3.30886       3.73767       1.75248
                        -----------------------------------------
Total Dipole Moment    :     -0.08757      -0.72104      -0.46829
                        -----------------------------------------
Magnitude (a.u.)       :      0.86422
Magnitude (Debye)      :      2.19666

                             ****ORCA TERMINATED NORMALLY****
TOTAL RUN TIME: 0 days 0 hours 22 minutes 16 seconds 45 msec
