                         Program Version 3.0.3 - RELEASE   -
|  1> ! RI-MP2 RIJK def2-TZVP def2-TZVP/C def2-TZVP/JK TIGHTSCF
|  2> % maxcore 2000
|  3> % mp2 density relaxed end
|  4> *xyz 0 1
|  5>  C       -0.1636600633     1.5765789830    -0.0195534116
|  6>  C        0.0467308057     0.0617209644     0.0461756285
|  7>  C        0.6755610032    -0.5150591395    -1.2270196151
|  8>  C        0.8803563485    -2.0329537899    -1.1710310954
|  9>  C        1.5240562286    -2.6059687755    -2.4274692168
| 10>  C        1.5378338220    -4.1566935730    -2.5839854486
| 11>  C        0.7035240964    -3.9276791135    -3.8683872882
| 12>  O        0.2465687664    -4.6137830912    -4.7420548883
| 13>  N        0.6903977778    -2.5713176513    -3.6427850097
| 14>  H        0.7859402785     2.1027043210    -0.1682999774
| 15>  H       -0.8249551217     1.8488200037    -0.8497266058
| 16>  H       -0.6138114606     1.9574661952     0.9022980865
| 17>  H        0.6838398750    -0.1844087806     0.9059117753
| 18>  H       -0.9146787371    -0.4354223330     0.2302035268
| 19>  H        0.0376272361    -0.2661679304    -2.0866640509
| 20>  H        1.6409956343    -0.0225080781    -1.4107306860
| 21>  H        1.5174733950    -2.2867101000    -0.3130230424
| 22>  H       -0.0838519606    -2.5321806447    -1.0088266657
| 23>  H        2.5109844282    -2.1529860416    -2.5882550413
| 24>  H        2.5147819841    -4.6085142677    -2.7634210486
| 25>  H        1.0159688387    -4.7061460224    -1.7978289837
| 26>  H        0.3791543648    -1.8094488149    -4.2272440415
| 27> *
| 28>
| 29>                          ****END OF INPUT****

CARTESIAN COORDINATES (ANGSTROEM)
---------------------------------
  C     -0.163660    1.576579   -0.019553
  C      0.046731    0.061721    0.046176
  C      0.675561   -0.515059   -1.227020
  C      0.880356   -2.032954   -1.171031
  C      1.524056   -2.605969   -2.427469
  C      1.537834   -4.156694   -2.583985
  C      0.703524   -3.927679   -3.868387
  O      0.246569   -4.613783   -4.742055
  N      0.690398   -2.571318   -3.642785
  H      0.785940    2.102704   -0.168300
  H     -0.824955    1.848820   -0.849727
  H     -0.613811    1.957466    0.902298
  H      0.683840   -0.184409    0.905912
  H     -0.914679   -0.435422    0.230204
  H      0.037627   -0.266168   -2.086664
  H      1.640996   -0.022508   -1.410731
  H      1.517473   -2.286710   -0.313023
  H     -0.083852   -2.532181   -1.008827
  H      2.510984   -2.152986   -2.588255
  H      2.514782   -4.608514   -2.763421
  H      1.015969   -4.706146   -1.797829
  H      0.379154   -1.809449   -4.227244

 Total Charge           Charge          ....    0
 Multiplicity           Mult            ....    1
 Number of Electrons    NEL             ....   70
 Basis Dimension        Dim             ....  357

ORBITAL ENERGIES
----------------

  NO   OCC          E(Eh)            E(eV)
   0   2.0000     -20.521261      -558.4119
   1   2.0000     -15.580206      -423.9590
   2   2.0000     -11.348034      -308.7957
   3   2.0000     -11.284288      -307.0611
   4   2.0000     -11.245311      -306.0005
   5   2.0000     -11.233365      -305.6754
   6   2.0000     -11.231068      -305.6129
   7   2.0000     -11.228164      -305.5339
   8   2.0000     -11.219560      -305.2998
   9   2.0000      -1.383562       -37.6486
  10   2.0000      -1.266123       -34.4530
  11   2.0000      -1.088876       -29.6298
  12   2.0000      -1.026015       -27.9193
  13   2.0000      -0.990926       -26.9645
  14   2.0000      -0.907731       -24.7006
  15   2.0000      -0.825531       -22.4638
  16   2.0000      -0.801938       -21.8218
  17   2.0000      -0.782935       -21.3048
  18   2.0000      -0.691897       -18.8275
  19   2.0000      -0.655102       -17.8262
  20   2.0000      -0.644910       -17.5489
  21   2.0000      -0.639071       -17.3900
  22   2.0000      -0.596594       -16.2341
  23   2.0000      -0.585819       -15.9409
  24   2.0000      -0.559631       -15.2283
  25   2.0000      -0.544004       -14.8031
  26   2.0000      -0.540393       -14.7048
  27   2.0000      -0.527376       -14.3506
  28   2.0000      -0.513446       -13.9716
  29   2.0000      -0.500459       -13.6182
  30   2.0000      -0.479078       -13.0364
  31   2.0000      -0.475183       -12.9304
  32   2.0000      -0.464588       -12.6421
  33   2.0000      -0.413112       -11.2413
  34   2.0000      -0.394536       -10.7359
  35   0.0000       0.125499         3.4150
  36   0.0000       0.141181         3.8417
  37   0.0000       0.146927         3.9981
  38   0.0000       0.155861         4.2412
  39   0.0000       0.168133         4.5751

MULLIKEN ATOMIC CHARGES
-----------------------
   0 C :   -0.384391
   1 C :   -0.185475
   2 C :   -0.260458
   3 C :   -0.229709
   4 C :    0.088115
   5 C :   -0.235756
   6 C :    0.217211
   7 O :   -0.315607
   8 N :   -0.348485
   9 H :    0.122351
  10 H :    0.122975
  11 H :    0.135883
  12 H :    0.106620
  13 H :    0.110312
  14 H :    0.102718
  15 H :    0.109546
  16 H :    0.113618
  17 H :    0.117238
  18 H :    0.111390
  19 H :    0.134634
  20 H :    0.132132
  21 H :    0.235137
Sum of atomic charges:    0.0000000

LOEWDIN ATOMIC CHARGES
----------------------
   0 C :   -0.320976
   1 C :   -0.296549
   2 C :   -0.272569
   3 C :   -0.255253
   4 C :   -0.249053
   5 C :   -0.182404
   6 C :   -0.442548
   7 O :    0.098697
   8 N :    0.135956
   9 H :    0.120284
  10 H :    0.120454
  11 H :    0.121387
  12 H :    0.134901
  13 H :    0.135776
  14 H :    0.134749
  15 H :    0.137123
  16 H :    0.144163
  17 H :    0.143374
  18 H :    0.140506
  19 H :    0.140482
  20 H :    0.142129
  21 H :    0.169369

  Mayer bond orders larger than 0.1
B(  0-C ,  1-C ) :   0.9231 B(  0-C ,  9-H ) :   0.9392 B(  0-C , 10-H ) :   0.9393
B(  0-C , 11-H ) :   0.9428 B(  1-C ,  2-C ) :   0.9371 B(  1-C , 12-H ) :   0.9345
B(  1-C , 13-H ) :   0.9334 B(  2-C ,  3-C ) :   0.9268 B(  2-C , 14-H ) :   0.9301
B(  2-C , 15-H ) :   0.9293 B(  3-C ,  4-C ) :   0.9082 B(  3-C , 16-H ) :   0.9245
B(  3-C , 17-H ) :   0.9232 B(  4-C ,  5-C ) :   0.8983 B(  4-C ,  8-N ) :   0.8713
B(  4-C , 18-H ) :   0.9354 B(  5-C ,  6-C ) :   0.8965 B(  5-C , 19-H ) :   0.9088
B(  5-C , 20-H ) :   0.9030 B(  6-C ,  7-O ) :   2.0281 B(  6-C ,  8-N ) :   1.1478
B(  8-N , 21-H ) :   0.8597

MP2 TOTAL ENERGY:     -403.687284264 Eh
FINAL SINGLE POINT ENERGY      -403.687284264017

DIPOLE MOMENT
-------------
                                X             Y             Z
Electronic contribution:      0.55449     -11.68943     -11.24786
Nuclear contribution   :     -0.02728      12.83205      12.31044
                        -----------------------------------------
Total Dipole Moment    :      0.52722       1.14262       1.06257
                        -----------------------------------------
Magnitude (a.u.)       :      1.64700
Magnitude (Debye)      :      4.18633

                             ****ORCA TERMINATED NORMALLY****
TOTAL RUN TIME: 0 days 0 hours 16 minutes 53 seconds 234 msec
