                         Program Version 3.0.3 - RELEASE   -
|  1> ! RI-MP2 RIJK def2-TZVP def2-TZVP/C def2-TZVP/JK TIGHTSCF
|  2> % maxcore 2000
|  3> % mp2 density relaxed end
|  4> *xyz 0 1
|  5>  C        0.1071193463     1.3768716687     0.1352983114
|  6>  O       -0.1512099498     0.0112723265    -0.1142428618
|  7>  C        0.5933131980    -0.5341520783    -1.1686467775
|  8>  C        2.1560823820    -0.5462612378    -1.1154477671
|  9>  C        2.0418405568    -1.8847379303    -1.9052753915
| 10>  C        0.6611371326    -2.0811905136    -1.2090027834
| 11>  C        1.8602593901    -1.6059958121    -3.4085201432
| 12>  C        0.7785799255    -0.5700678343    -3.6147957132
| 13>  C        0.1704005847    -0.0519091370    -2.5484629393
| 14>  H        1.1594724756     1.5489593441     0.4042174006
| 15>  H       -0.1336128644     2.0142305043    -0.7281132200
| 16>  H       -0.5250181580     1.6739224268     0.9753862390
| 17>  H        2.6960933168     0.2843589831    -1.5761133485
| 18>  H        2.5135249254    -0.7168333680    -0.0960897730
| 19>  H        2.8077533426    -2.6411096418    -1.7254618980
| 20>  H        0.7773254127    -2.4889163972    -0.2017334153
| 21>  H       -0.1309118558    -2.6084372576    -1.7452113025
| 22>  H        2.8081279705    -1.2668904451    -3.8503390453
| 23>  H        1.5996340817    -2.5335079767    -3.9379160920
| 24>  H        0.5094634743    -0.2846699623    -4.6277672666
| 25>  H       -0.6369459978     0.6697853285    -2.6207907227
| 26> *
| 27>
| 28>                          ****END OF INPUT****

CARTESIAN COORDINATES (ANGSTROEM)
---------------------------------
  C      0.107119    1.376872    0.135298
  O     -0.151210    0.011272   -0.114243
  C      0.593313   -0.534152   -1.168647
  C      2.156082   -0.546261   -1.115448
  C      2.041841   -1.884738   -1.905275
  C      0.661137   -2.081191   -1.209003
  C      1.860259   -1.605996   -3.408520
  C      0.778580   -0.570068   -3.614796
  C      0.170401   -0.051909   -2.548463
  H      1.159472    1.548959    0.404217
  H     -0.133613    2.014231   -0.728113
  H     -0.525018    1.673922    0.975386
  H      2.696093    0.284359   -1.576113
  H      2.513525   -0.716833   -0.096090
  H      2.807753   -2.641110   -1.725462
  H      0.777325   -2.488916   -0.201733
  H     -0.130912   -2.608437   -1.745211
  H      2.808128   -1.266890   -3.850339
  H      1.599634   -2.533508   -3.937916
  H      0.509463   -0.284670   -4.627767
  H     -0.636946    0.669785   -2.620791

 Total Charge           Charge          ....    0
 Multiplicity           Mult            ....    1
 Number of Electrons    NEL             ....   68
 Basis Dimension        Dim             ....  351

ORBITAL ENERGIES
----------------

  NO   OCC          E(Eh)            E(eV)
   0   2.0000     -20.552707      -559.2676
   1   2.0000     -11.284586      -307.0692
   2   2.0000     -11.268356      -306.6276
   3   2.0000     -11.232182      -305.6432
   4   2.0000     -11.226751      -305.4954
   5   2.0000     -11.223864      -305.4169
   6   2.0000     -11.220924      -305.3369
   7   2.0000     -11.219541      -305.2992
   8   2.0000     -11.216260      -305.2100
   9   2.0000      -1.376480       -37.4559
  10   2.0000      -1.164811       -31.6961
  11   2.0000      -1.035323       -28.1726
  12   2.0000      -0.985974       -26.8297
  13   2.0000      -0.927103       -25.2278
  14   2.0000      -0.895901       -24.3787
  15   2.0000      -0.804593       -21.8941
  16   2.0000      -0.795703       -21.6522
  17   2.0000      -0.701827       -19.0977
  18   2.0000      -0.689169       -18.7532
  19   2.0000      -0.633585       -17.2407
  20   2.0000      -0.632406       -17.2086
  21   2.0000      -0.621737       -16.9183
  22   2.0000      -0.592495       -16.1226
  23   2.0000      -0.577424       -15.7125
  24   2.0000      -0.563720       -15.3396
  25   2.0000      -0.536781       -14.6065
  26   2.0000      -0.529885       -14.4189
  27   2.0000      -0.506344       -13.7783
  28   2.0000      -0.468668       -12.7531
  29   2.0000      -0.458336       -12.4719
  30   2.0000      -0.450129       -12.2486
  31   2.0000      -0.436898       -11.8886
  32   2.0000      -0.396678       -10.7942
  33   2.0000      -0.339810        -9.2467
  34   0.0000       0.135633         3.6908
  35   0.0000       0.145994         3.9727
  36   0.0000       0.162793         4.4298
  37   0.0000       0.172352         4.6899
  38   0.0000       0.180703         4.9172

MULLIKEN ATOMIC CHARGES
-----------------------
   0 C :   -0.219474
   1 O :   -0.305526
   2 C :    0.396594
   3 C :   -0.347662
   4 C :    0.021359
   5 C :   -0.286330
   6 C :   -0.236019
   7 C :   -0.143986
   8 C :   -0.346644
   9 H :    0.117677
  10 H :    0.111778
  11 H :    0.142886
  12 H :    0.121669
  13 H :    0.124866
  14 H :    0.115205
  15 H :    0.122032
  16 H :    0.117004
  17 H :    0.121782
  18 H :    0.122835
  19 H :    0.123040
  20 H :    0.126913
Sum of atomic charges:   -0.0000000

LOEWDIN ATOMIC CHARGES
----------------------
   0 C :   -0.348113
   1 O :    0.183106
   2 C :   -0.334321
   3 C :   -0.181806
   4 C :   -0.206282
   5 C :   -0.165814
   6 C :   -0.229055
   7 C :   -0.161386
   8 C :   -0.127823
   9 H :    0.104239
  10 H :    0.102447
  11 H :    0.113674
  12 H :    0.129109
  13 H :    0.140222
  14 H :    0.136828
  15 H :    0.141406
  16 H :    0.130936
  17 H :    0.144175
  18 H :    0.145038
  19 H :    0.138760
  20 H :    0.144660

  Mayer bond orders larger than 0.1
B(  0-C ,  1-O ) :   0.9025 B(  0-C ,  9-H ) :   0.9329 B(  0-C , 10-H ) :   0.9299
B(  0-C , 11-H ) :   0.9416 B(  1-O ,  2-C ) :   1.0178 B(  2-C ,  3-C ) :   0.8836
B(  2-C ,  5-C ) :   0.8859 B(  2-C ,  8-C ) :   0.8872 B(  3-C ,  4-C ) :   0.9046
B(  3-C , 12-H ) :   0.9161 B(  3-C , 13-H ) :   0.9179 B(  4-C ,  5-C ) :   0.9040
B(  4-C ,  6-C ) :   0.9150 B(  4-C , 14-H ) :   0.9282 B(  5-C , 15-H ) :   0.9214
B(  5-C , 16-H ) :   0.9207 B(  6-C ,  7-C ) :   0.9618 B(  6-C , 17-H ) :   0.9113
B(  6-C , 18-H ) :   0.9131 B(  7-C ,  8-C ) :   1.7815 B(  7-C , 19-H ) :   0.9277
B(  8-C , 20-H ) :   0.9243

MP2 TOTAL ENERGY:     -386.399647867 Eh
FINAL SINGLE POINT ENERGY      -386.399647866782

DIPOLE MOMENT
-------------
                                X             Y             Z
Electronic contribution:     -2.07396      -0.86045       0.13344
Nuclear contribution   :      2.47624       1.03826      -0.36589
                        -----------------------------------------
Total Dipole Moment    :      0.40229       0.17780      -0.23244
                        -----------------------------------------
Magnitude (a.u.)       :      0.49747
Magnitude (Debye)      :      1.26448

                             ****ORCA TERMINATED NORMALLY****
TOTAL RUN TIME: 0 days 0 hours 19 minutes 35 seconds 972 msec
