                         Program Version 3.0.3 - RELEASE   -
|  1> ! RI-MP2 RIJK def2-TZVP def2-TZVP/C def2-TZVP/JK TIGHTSCF
|  2> % maxcore 2000
|  3> % mp2 density relaxed end
|  4> *xyz 0 1
|  5>  O        0.1788445504    -1.1579731922     1.6207760800
|  6>  C        0.0512566629    -0.5473989126     0.3420451172
|  7>  C       -1.4070834253    -0.5836972851    -0.0491938487
|  8>  C       -2.3284353785     0.1665943440     0.9094263182
|  9>  C       -2.0792309392     1.6101497535     0.9143746225
| 10>  N       -1.8624932091     2.7454173947     0.9073428756
| 11>  C       -1.7498027813    -0.6021567810    -1.5164016069
| 12>  C       -1.9437664974    -1.8437189915    -0.6806268172
| 13>  H        1.0381034618    -0.9239635850     1.9831787282
| 14>  H        0.4019108908     0.4953647879     0.3657725523
| 15>  H        0.6452997137    -1.0810369924    -0.4159737432
| 16>  H       -3.3773739988    -0.0024906012     0.6451879832
| 17>  H       -2.1789312029    -0.2151561460     1.9248532784
| 18>  H       -2.6294472605    -0.0553234801    -1.8383399175
| 19>  H       -0.9341779758    -0.5841975779    -2.2312392975
| 20>  H       -1.2548000691    -2.6699214084    -0.8159134461
| 21>  H       -2.9572092517    -2.1469013066    -0.4405795287
| 22> *
| 23>
| 24>                          ****END OF INPUT****

CARTESIAN COORDINATES (ANGSTROEM)
---------------------------------
  O      0.178845   -1.157973    1.620776
  C      0.051257   -0.547399    0.342045
  C     -1.407083   -0.583697   -0.049194
  C     -2.328435    0.166594    0.909426
  C     -2.079231    1.610150    0.914375
  N     -1.862493    2.745417    0.907343
  C     -1.749803   -0.602157   -1.516402
  C     -1.943766   -1.843719   -0.680627
  H      1.038103   -0.923964    1.983179
  H      0.401911    0.495365    0.365773
  H      0.645300   -1.081037   -0.415974
  H     -3.377374   -0.002491    0.645188
  H     -2.178931   -0.215156    1.924853
  H     -2.629447   -0.055323   -1.838340
  H     -0.934178   -0.584198   -2.231239
  H     -1.254800   -2.669921   -0.815913
  H     -2.957209   -2.146901   -0.440580

 Total Charge           Charge          ....    0
 Multiplicity           Mult            ....    1
 Number of Electrons    NEL             ....   60
 Basis Dimension        Dim             ....  302

ORBITAL ENERGIES
----------------

  NO   OCC          E(Eh)            E(eV)
   0   2.0000     -20.568923      -559.7088
   1   2.0000     -15.564346      -423.5274
   2   2.0000     -11.292129      -307.2744
   3   2.0000     -11.278676      -306.9084
   4   2.0000     -11.269230      -306.6513
   5   2.0000     -11.262134      -306.4582
   6   2.0000     -11.242852      -305.9336
   7   2.0000     -11.241793      -305.9047
   8   2.0000      -1.373740       -37.3814
   9   2.0000      -1.216072       -33.0910
  10   2.0000      -1.175816       -31.9956
  11   2.0000      -1.032148       -28.0862
  12   2.0000      -0.955755       -26.0074
  13   2.0000      -0.844260       -22.9735
  14   2.0000      -0.779715       -21.2171
  15   2.0000      -0.712987       -19.4014
  16   2.0000      -0.698228       -18.9998
  17   2.0000      -0.674613       -18.3572
  18   2.0000      -0.662057       -18.0155
  19   2.0000      -0.615317       -16.7436
  20   2.0000      -0.597732       -16.2651
  21   2.0000      -0.567175       -15.4336
  22   2.0000      -0.552458       -15.0331
  23   2.0000      -0.531430       -14.4610
  24   2.0000      -0.517697       -14.0872
  25   2.0000      -0.468060       -12.7366
  26   2.0000      -0.456451       -12.4207
  27   2.0000      -0.453243       -12.3334
  28   2.0000      -0.433793       -11.8041
  29   2.0000      -0.426155       -11.5963
  30   0.0000       0.123642         3.3645
  31   0.0000       0.139746         3.8027
  32   0.0000       0.156039         4.2460
  33   0.0000       0.164213         4.4685
  34   0.0000       0.180443         4.9101

MULLIKEN ATOMIC CHARGES
-----------------------
   0 O :   -0.474345
   1 C :   -0.121879
   2 C :    0.117257
   3 C :   -0.103822
   4 C :   -0.220017
   5 N :   -0.062879
   6 C :   -0.302517
   7 C :   -0.275843
   8 H :    0.322248
   9 H :    0.137046
  10 H :    0.099818
  11 H :    0.155508
  12 H :    0.177760
  13 H :    0.140922
  14 H :    0.138029
  15 H :    0.139079
  16 H :    0.133634
Sum of atomic charges:    0.0000000

LOEWDIN ATOMIC CHARGES
----------------------
   0 O :   -0.041613
   1 C :   -0.300521
   2 C :   -0.253033
   3 C :   -0.201264
   4 C :   -0.185711
   5 N :    0.052299
   6 C :   -0.197167
   7 C :   -0.196266
   8 H :    0.175192
   9 H :    0.129956
  10 H :    0.125572
  11 H :    0.168566
  12 H :    0.174040
  13 H :    0.138670
  14 H :    0.136981
  15 H :    0.138926
  16 H :    0.135373

  Mayer bond orders larger than 0.1
B(  0-O ,  1-C ) :   1.0417 B(  0-O ,  8-H ) :   0.8439 B(  1-C ,  2-C ) :   0.9431
B(  1-C ,  9-H ) :   0.9260 B(  1-C , 10-H ) :   0.9188 B(  2-C ,  3-C ) :   0.8797
B(  2-C ,  6-C ) :   0.8725 B(  2-C ,  7-C ) :   0.8652 B(  3-C ,  4-C ) :   0.9326
B(  3-C , 11-H ) :   0.9086 B(  3-C , 12-H ) :   0.8996 B(  4-C ,  5-N ) :   2.8722
B(  6-C ,  7-C ) :   0.9062 B(  6-C , 13-H ) :   0.9231 B(  6-C , 14-H ) :   0.9230
B(  7-C , 15-H ) :   0.9259 B(  7-C , 16-H ) :   0.9245

MP2 TOTAL ENERGY:     -363.246241527 Eh
FINAL SINGLE POINT ENERGY      -363.246241527107

DIPOLE MOMENT
-------------
                                X             Y             Z
Electronic contribution:     -0.42817       4.82751       3.23462
Nuclear contribution   :      0.72320      -6.06110      -3.54903
                        -----------------------------------------
Total Dipole Moment    :      0.29503      -1.23359      -0.31441
                        -----------------------------------------
Magnitude (a.u.)       :      1.30677
Magnitude (Debye)      :      3.32154

                             ****ORCA TERMINATED NORMALLY****
TOTAL RUN TIME: 0 days 0 hours 11 minutes 29 seconds 131 msec
