                         Program Version 3.0.3 - RELEASE   -
|  1> ! RI-MP2 RIJK def2-TZVP def2-TZVP/C def2-TZVP/JK TIGHTSCF
|  2> % maxcore 2000
|  3> % mp2 density relaxed end
|  4> *xyz 0 1
|  5>  C        0.5274312935     0.9230441701     0.4955138791
|  6>  C        0.1609039595    -0.4528631733    -0.0822605036
|  7>  C       -1.3222113872    -0.7872235968     0.0232704981
|  8>  C       -2.2420675440     0.0972748159    -0.8031199550
|  9>  C       -1.7714669489    -2.2479964358     0.1616719613
| 10>  C       -0.8042074043    -3.3713603700     0.1728160817
| 11>  O        0.2524266089    -3.4249103679     0.7653907076
| 12>  N       -1.9226177430    -1.2659211790     1.2482539195
| 13>  C       -1.1767991582    -1.4150597292     2.4952950011
| 14>  H        1.6035508546     1.0961301169     0.4007483042
| 15>  H        0.0167575884     1.7389665135    -0.0246084210
| 16>  H        0.2732354169     0.9937523369     1.5574724321
| 17>  H        0.4332054032    -0.4795989403    -1.1450026335
| 18>  H        0.7549834403    -1.2273286657     0.4044738396
| 19>  H       -1.9759654705     0.0532480875    -1.8647223071
| 20>  H       -3.2819302526    -0.2138669334    -0.6839892882
| 21>  H       -2.1687896757     1.1406781664    -0.4802588009
| 22>  H       -2.7123657518    -2.5175405079    -0.3168383600
| 23>  H       -1.1436837461    -4.2345855045    -0.4434768697
| 24>  H       -0.1506264282    -1.7766405204     2.3881177030
| 25>  H       -1.1744014738    -0.4449000159     3.0014796131
| 26>  H       -1.7195597311    -2.1215115371     3.1308719888
| 27> *
| 28>
| 29>                          ****END OF INPUT****

CARTESIAN COORDINATES (ANGSTROEM)
---------------------------------
  C      0.527431    0.923044    0.495514
  C      0.160904   -0.452863   -0.082261
  C     -1.322211   -0.787224    0.023270
  C     -2.242068    0.097275   -0.803120
  C     -1.771467   -2.247996    0.161672
  C     -0.804207   -3.371360    0.172816
  O      0.252427   -3.424910    0.765391
  N     -1.922618   -1.265921    1.248254
  C     -1.176799   -1.415060    2.495295
  H      1.603551    1.096130    0.400748
  H      0.016758    1.738967   -0.024608
  H      0.273235    0.993752    1.557472
  H      0.433205   -0.479599   -1.145003
  H      0.754983   -1.227329    0.404474
  H     -1.975965    0.053248   -1.864722
  H     -3.281930   -0.213867   -0.683989
  H     -2.168790    1.140678   -0.480259
  H     -2.712366   -2.517541   -0.316838
  H     -1.143684   -4.234586   -0.443477
  H     -0.150626   -1.776641    2.388118
  H     -1.174401   -0.444900    3.001480
  H     -1.719560   -2.121512    3.130872

 Total Charge           Charge          ....    0
 Multiplicity           Mult            ....    1
 Number of Electrons    NEL             ....   70
 Basis Dimension        Dim             ....  357

ORBITAL ENERGIES
----------------

  NO   OCC          E(Eh)            E(eV)
   0   2.0000     -20.555336      -559.3391
   1   2.0000     -15.569421      -423.6655
   2   2.0000     -11.336195      -308.4736
   3   2.0000     -11.283667      -307.0442
   4   2.0000     -11.265951      -306.5621
   5   2.0000     -11.242540      -305.9251
   6   2.0000     -11.226026      -305.4757
   7   2.0000     -11.221625      -305.3559
   8   2.0000     -11.218611      -305.2739
   9   2.0000      -1.394500       -37.9463
  10   2.0000      -1.281892       -34.8820
  11   2.0000      -1.057309       -28.7708
  12   2.0000      -1.010254       -27.4904
  13   2.0000      -0.972380       -26.4598
  14   2.0000      -0.911119       -24.7928
  15   2.0000      -0.873164       -23.7600
  16   2.0000      -0.767372       -20.8812
  17   2.0000      -0.736921       -20.0526
  18   2.0000      -0.697384       -18.9768
  19   2.0000      -0.652837       -17.7646
  20   2.0000      -0.643111       -17.4999
  21   2.0000      -0.612858       -16.6767
  22   2.0000      -0.594308       -16.1720
  23   2.0000      -0.585731       -15.9386
  24   2.0000      -0.568454       -15.4684
  25   2.0000      -0.559713       -15.2306
  26   2.0000      -0.542484       -14.7617
  27   2.0000      -0.535650       -14.5758
  28   2.0000      -0.516631       -14.0582
  29   2.0000      -0.510013       -13.8782
  30   2.0000      -0.494131       -13.4460
  31   2.0000      -0.455028       -12.3820
  32   2.0000      -0.442100       -12.0302
  33   2.0000      -0.412399       -11.2219
  34   2.0000      -0.364951        -9.9308
  35   0.0000       0.109994         2.9931
  36   0.0000       0.136373         3.7109
  37   0.0000       0.158080         4.3016
  38   0.0000       0.167547         4.5592
  39   0.0000       0.178701         4.8627

MULLIKEN ATOMIC CHARGES
-----------------------
   0 C :   -0.421360
   1 C :   -0.199499
   2 C :    0.191162
   3 C :   -0.424128
   4 C :   -0.134995
   5 C :    0.119155
   6 O :   -0.304578
   7 N :   -0.218751
   8 C :   -0.335083
   9 H :    0.140490
  10 H :    0.130091
  11 H :    0.132307
  12 H :    0.118102
  13 H :    0.155699
  14 H :    0.127529
  15 H :    0.144133
  16 H :    0.137112
  17 H :    0.120822
  18 H :    0.086427
  19 H :    0.155945
  20 H :    0.138833
  21 H :    0.140587
Sum of atomic charges:   -0.0000000

LOEWDIN ATOMIC CHARGES
----------------------
   0 C :   -0.308741
   1 C :   -0.249624
   2 C :   -0.272210
   3 C :   -0.260536
   4 C :   -0.224596
   5 C :   -0.296648
   6 O :    0.115527
   7 N :    0.145864
   8 C :   -0.319470
   9 H :    0.124416
  10 H :    0.119710
  11 H :    0.121829
  12 H :    0.146090
  13 H :    0.149358
  14 H :    0.127752
  15 H :    0.131779
  16 H :    0.128434
  17 H :    0.148936
  18 H :    0.117344
  19 H :    0.114608
  20 H :    0.118608
  21 H :    0.121571

  Mayer bond orders larger than 0.1
B(  0-C ,  1-C ) :   0.8990 B(  0-C ,  9-H ) :   0.9406 B(  0-C , 10-H ) :   0.9394
B(  0-C , 11-H ) :   0.9385 B(  1-C ,  2-C ) :   0.9178 B(  1-C , 12-H ) :   0.9256
B(  1-C , 13-H ) :   0.9300 B(  2-C ,  3-C ) :   0.8846 B(  2-C ,  4-C ) :   0.8457
B(  2-C ,  7-N ) :   0.8469 B(  3-C , 14-H ) :   0.9339 B(  3-C , 15-H ) :   0.9364
B(  3-C , 16-H ) :   0.9386 B(  4-C ,  5-C ) :   0.9346 B(  4-C ,  7-N ) :   0.9332
B(  4-C , 17-H ) :   0.8930 B(  5-C ,  6-O ) :   1.8871 B(  5-C , 18-H ) :   0.9434
B(  7-N ,  8-C ) :   0.8766 B(  8-C , 19-H ) :   0.9225 B(  8-C , 20-H ) :   0.9325
B(  8-C , 21-H ) :   0.9357

MP2 TOTAL ENERGY:     -403.636878433 Eh
FINAL SINGLE POINT ENERGY      -403.636878433470

DIPOLE MOMENT
-------------
                                X             Y             Z
Electronic contribution:     -0.68436      -8.17758       0.27192
Nuclear contribution   :      0.37748       8.55265      -0.69474
                        -----------------------------------------
Total Dipole Moment    :     -0.30688       0.37507      -0.42282
                        -----------------------------------------
Magnitude (a.u.)       :      0.64314
Magnitude (Debye)      :      1.63474

                             ****ORCA TERMINATED NORMALLY****
TOTAL RUN TIME: 0 days 0 hours 23 minutes 26 seconds 442 msec
