                         Program Version 3.0.3 - RELEASE   -
|  1> ! RI-MP2 RIJK def2-TZVP def2-TZVP/C def2-TZVP/JK TIGHTSCF
|  2> % maxcore 2000
|  3> % mp2 density relaxed end
|  4> *xyz 0 1
|  5>  C       -0.0318814882     1.4941528316    -0.0142695746
|  6>  C        0.0599421353    -0.0176099446     0.0008524863
|  7>  O        1.1322263466    -0.5916408433     0.0471888737
|  8>  N       -1.1478763482    -0.7088504510    -0.0381761649
|  9>  C       -2.4372137539    -0.1344623032     0.0141145323
| 10>  C       -3.3415448449    -1.1448693231     0.0533723882
| 11>  C       -2.6349938184    -2.3923656272     0.0206597620
| 12>  C       -1.2954344267    -2.1103478512    -0.0399310829
| 13>  N       -0.2073820841    -2.9467378206    -0.1779612082
| 14>  H        0.9833989160     1.8883277324    -0.0230695344
| 15>  H       -0.5727128983     1.8489836326    -0.8962102315
| 16>  H       -0.5573840089     1.8635118772     0.8715049449
| 17>  H       -2.5628044918     0.9321996837     0.0275696348
| 18>  H       -4.4133399007    -1.0233006227     0.0993757155
| 19>  H       -3.0650666394    -3.3817385776     0.0220432522
| 20>  H       -0.3586491201    -3.8769165985     0.1808693900
| 21>  H        0.6731166858    -2.5244748544     0.0845381166
| 22> *
| 23>
| 24>                          ****END OF INPUT****

CARTESIAN COORDINATES (ANGSTROEM)
---------------------------------
  C     -0.031881    1.494153   -0.014270
  C      0.059942   -0.017610    0.000852
  O      1.132226   -0.591641    0.047189
  N     -1.147876   -0.708850   -0.038176
  C     -2.437214   -0.134462    0.014115
  C     -3.341545   -1.144869    0.053372
  C     -2.634994   -2.392366    0.020660
  C     -1.295434   -2.110348   -0.039931
  N     -0.207382   -2.946738   -0.177961
  H      0.983399    1.888328   -0.023070
  H     -0.572713    1.848984   -0.896210
  H     -0.557384    1.863512    0.871505
  H     -2.562804    0.932200    0.027570
  H     -4.413340   -1.023301    0.099376
  H     -3.065067   -3.381739    0.022043
  H     -0.358649   -3.876917    0.180869
  H      0.673117   -2.524475    0.084538

 Total Charge           Charge          ....    0
 Multiplicity           Mult            ....    1
 Number of Electrons    NEL             ....   66
 Basis Dimension        Dim             ....  327

ORBITAL ENERGIES
----------------

  NO   OCC          E(Eh)            E(eV)
   0   2.0000     -20.547686      -559.1310
   1   2.0000     -15.623642      -425.1409
   2   2.0000     -15.560500      -423.4227
   3   2.0000     -11.379168      -309.6429
   4   2.0000     -11.311905      -307.8126
   5   2.0000     -11.253375      -306.2199
   6   2.0000     -11.250068      -306.1299
   7   2.0000     -11.228158      -305.5337
   8   2.0000     -11.204257      -304.8833
   9   2.0000      -1.413874       -38.4735
  10   2.0000      -1.307674       -35.5836
  11   2.0000      -1.199972       -32.6529
  12   2.0000      -1.084330       -29.5061
  13   2.0000      -1.014534       -27.6069
  14   2.0000      -0.961873       -26.1739
  15   2.0000      -0.853787       -23.2327
  16   2.0000      -0.793776       -21.5998
  17   2.0000      -0.747454       -20.3393
  18   2.0000      -0.716653       -19.5011
  19   2.0000      -0.664630       -18.0855
  20   2.0000      -0.652801       -17.7636
  21   2.0000      -0.643425       -17.5085
  22   2.0000      -0.626955       -17.0603
  23   2.0000      -0.599544       -16.3144
  24   2.0000      -0.580793       -15.8042
  25   2.0000      -0.576776       -15.6949
  26   2.0000      -0.547960       -14.9107
  27   2.0000      -0.537039       -14.6136
  28   2.0000      -0.514577       -14.0024
  29   2.0000      -0.465789       -12.6748
  30   2.0000      -0.448077       -12.1928
  31   2.0000      -0.366679        -9.9778
  32   2.0000      -0.277961        -7.5637
  33   0.0000       0.115718         3.1489
  34   0.0000       0.131965         3.5910
  35   0.0000       0.150948         4.1075
  36   0.0000       0.176398         4.8000
  37   0.0000       0.197197         5.3660

MULLIKEN ATOMIC CHARGES
-----------------------
   0 C :   -0.440411
   1 C :    0.307133
   2 O :   -0.368946
   3 N :   -0.018515
   4 C :   -0.170718
   5 C :   -0.163256
   6 C :   -0.266962
   7 C :    0.195620
   8 N :   -0.504044
   9 H :    0.168576
  10 H :    0.160672
  11 H :    0.159522
  12 H :    0.150393
  13 H :    0.132609
  14 H :    0.130435
  15 H :    0.247695
  16 H :    0.280197
Sum of atomic charges:    0.0000000

LOEWDIN ATOMIC CHARGES
----------------------
   0 C :   -0.269511
   1 C :   -0.389019
   2 O :    0.109602
   3 N :    0.283229
   4 C :   -0.213016
   5 C :   -0.184663
   6 C :   -0.187310
   7 C :   -0.269276
   8 N :   -0.059324
   9 H :    0.140036
  10 H :    0.138900
  11 H :    0.139326
  12 H :    0.136959
  13 H :    0.141820
  14 H :    0.138987
  15 H :    0.172132
  16 H :    0.171126

  Mayer bond orders larger than 0.1
B(  0-C ,  1-C ) :   0.9180 B(  0-C ,  9-H ) :   0.9334 B(  0-C , 10-H ) :   0.9197
B(  0-C , 11-H ) :   0.9160 B(  1-C ,  2-O ) :   1.8460 B(  1-C ,  3-N ) :   1.0388
B(  3-N ,  4-C ) :   1.0136 B(  3-N ,  7-C ) :   1.0379 B(  4-C ,  5-C ) :   1.5874
B(  4-C , 12-H ) :   0.9175 B(  5-C ,  6-C ) :   1.1779 B(  5-C , 13-H ) :   0.9328
B(  6-C ,  7-C ) :   1.5060 B(  6-C , 14-H ) :   0.9281 B(  7-C ,  8-N ) :   1.0837
B(  8-N , 15-H ) :   0.8744 B(  8-N , 16-H ) :   0.8364

MP2 TOTAL ENERGY:     -417.356988809 Eh
FINAL SINGLE POINT ENERGY      -417.356988809085

DIPOLE MOMENT
-------------
                                X             Y             Z
Electronic contribution:      1.21884      -2.66248      -0.12125
Nuclear contribution   :     -1.54308       3.04101       0.43355
                        -----------------------------------------
Total Dipole Moment    :     -0.32424       0.37853       0.31229
                        -----------------------------------------
Magnitude (a.u.)       :      0.58817
Magnitude (Debye)      :      1.49501

                             ****ORCA TERMINATED NORMALLY****
TOTAL RUN TIME: 0 days 0 hours 16 minutes 52 seconds 319 msec
