                         Program Version 3.0.3 - RELEASE   -
|  1> ! RI-MP2 RIJK def2-TZVP def2-TZVP/C def2-TZVP/JK TIGHTSCF
|  2> % maxcore 2000
|  3> % mp2 density relaxed end
|  4> *xyz 0 1
|  5>  O        0.5441061874     0.7368853880    -0.5906123055
|  6>  C        0.1307122953    -0.5216153305    -0.1175123408
|  7>  C        0.2327442246    -0.8221832041     1.3914324687
|  8>  C        1.4357707536    -1.2422775757     2.1748995876
|  9>  C        0.8328210449     0.1277107832     2.3893094797
| 10>  C       -1.1994954981    -1.3827213050     1.4152904802
| 11>  C       -1.3783283814    -0.8175980503    -0.0041237398
| 12>  C       -2.4484917256     0.1370530580    -0.4530570378
| 13>  C       -2.3267267433    -1.2315649839    -1.0842831098
| 14>  H        0.0883498633     1.4023374330    -0.0622662453
| 15>  H        0.6635277183    -1.2533179560    -0.7350142253
| 16>  H        1.3038684197    -1.9863138989     2.9543973103
| 17>  H        2.3873280051    -1.3022226231     1.6554718879
| 18>  H        1.3798494846     0.9823955391     2.0028635859
| 19>  H        0.2914052318     0.3144132974     3.3113597502
| 20>  H       -1.2366730154    -2.4767214747     1.4546157327
| 21>  H       -1.8657185932    -0.9821674643     2.1857144035
| 22>  H       -3.2832867128     0.3245895233     0.2148598900
| 23>  H       -2.1412336306     0.9924212648    -1.0471984200
| 24>  H       -1.9485194133    -1.2898781179    -2.1003631093
| 25>  H       -3.0818612348    -1.9738259324    -0.8446466032
| 26> *
| 27>
| 28>                          ****END OF INPUT****

CARTESIAN COORDINATES (ANGSTROEM)
---------------------------------
  O      0.544106    0.736885   -0.590612
  C      0.130712   -0.521615   -0.117512
  C      0.232744   -0.822183    1.391432
  C      1.435771   -1.242278    2.174900
  C      0.832821    0.127711    2.389309
  C     -1.199495   -1.382721    1.415290
  C     -1.378328   -0.817598   -0.004124
  C     -2.448492    0.137053   -0.453057
  C     -2.326727   -1.231565   -1.084283
  H      0.088350    1.402337   -0.062266
  H      0.663528   -1.253318   -0.735014
  H      1.303868   -1.986314    2.954397
  H      2.387328   -1.302223    1.655472
  H      1.379849    0.982396    2.002864
  H      0.291405    0.314413    3.311360
  H     -1.236673   -2.476721    1.454616
  H     -1.865719   -0.982167    2.185714
  H     -3.283287    0.324590    0.214860
  H     -2.141234    0.992421   -1.047198
  H     -1.948519   -1.289878   -2.100363
  H     -3.081861   -1.973826   -0.844647

 Total Charge           Charge          ....    0
 Multiplicity           Mult            ....    1
 Number of Electrons    NEL             ....   68
 Basis Dimension        Dim             ....  351

ORBITAL ENERGIES
----------------

  NO   OCC          E(Eh)            E(eV)
   0   2.0000     -20.555472      -559.3428
   1   2.0000     -11.277610      -306.8794
   2   2.0000     -11.233979      -305.6921
   3   2.0000     -11.233961      -305.6916
   4   2.0000     -11.226206      -305.4806
   5   2.0000     -11.226025      -305.4757
   6   2.0000     -11.226020      -305.4755
   7   2.0000     -11.224291      -305.4285
   8   2.0000     -11.224290      -305.4285
   9   2.0000      -1.363788       -37.1105
  10   2.0000      -1.173368       -31.9290
  11   2.0000      -1.130013       -30.7492
  12   2.0000      -1.023213       -27.8430
  13   2.0000      -0.896058       -24.3830
  14   2.0000      -0.828223       -22.5371
  15   2.0000      -0.822459       -22.3802
  16   2.0000      -0.767016       -20.8716
  17   2.0000      -0.747639       -20.3443
  18   2.0000      -0.679423       -18.4881
  19   2.0000      -0.666669       -18.1410
  20   2.0000      -0.635664       -17.2973
  21   2.0000      -0.622465       -16.9381
  22   2.0000      -0.594755       -16.1841
  23   2.0000      -0.583683       -15.8828
  24   2.0000      -0.566228       -15.4078
  25   2.0000      -0.530433       -14.4338
  26   2.0000      -0.513430       -13.9711
  27   2.0000      -0.511591       -13.9211
  28   2.0000      -0.451444       -12.2844
  29   2.0000      -0.442111       -12.0305
  30   2.0000      -0.433662       -11.8005
  31   2.0000      -0.418804       -11.3962
  32   2.0000      -0.392688       -10.6856
  33   2.0000      -0.378693       -10.3048
  34   0.0000       0.142571         3.8795
  35   0.0000       0.148334         4.0364
  36   0.0000       0.163421         4.4469
  37   0.0000       0.166099         4.5198
  38   0.0000       0.182203         4.9580

MULLIKEN ATOMIC CHARGES
-----------------------
   0 O :   -0.455635
   1 C :    0.087128
   2 C :    0.025457
   3 C :   -0.296652
   4 C :   -0.300995
   5 C :   -0.160335
   6 C :    0.025460
   7 C :   -0.300994
   8 C :   -0.296653
   9 H :    0.319020
  10 H :    0.100122
  11 H :    0.127748
  12 H :    0.131991
  13 H :    0.128689
  14 H :    0.127465
  15 H :    0.110023
  16 H :    0.112270
  17 H :    0.127464
  18 H :    0.128689
  19 H :    0.131991
  20 H :    0.127748
Sum of atomic charges:   -0.0000000

LOEWDIN ATOMIC CHARGES
----------------------
   0 O :   -0.002270
   1 C :   -0.251684
   2 C :   -0.210195
   3 C :   -0.208543
   4 C :   -0.210538
   5 C :   -0.153345
   6 C :   -0.210195
   7 C :   -0.210537
   8 C :   -0.208544
   9 H :    0.176621
  10 H :    0.145823
  11 H :    0.134254
  12 H :    0.136393
  13 H :    0.133468
  14 H :    0.132276
  15 H :    0.137706
  16 H :    0.132919
  17 H :    0.132276
  18 H :    0.133468
  19 H :    0.136392
  20 H :    0.134254

  Mayer bond orders larger than 0.1
B(  0-O ,  1-C ) :   0.9930 B(  0-O ,  9-H ) :   0.8364 B(  1-C ,  2-C ) :   0.9175
B(  1-C ,  6-C ) :   0.9175 B(  1-C , 10-H ) :   0.9214 B(  2-C ,  3-C ) :   0.8442
B(  2-C ,  4-C ) :   0.8228 B(  2-C ,  5-C ) :   0.9054 B(  3-C ,  4-C ) :   0.9595
B(  3-C , 11-H ) :   0.9236 B(  3-C , 12-H ) :   0.9231 B(  4-C , 13-H ) :   0.9201
B(  4-C , 14-H ) :   0.9238 B(  5-C ,  6-C ) :   0.9054 B(  5-C , 15-H ) :   0.9058
B(  5-C , 16-H ) :   0.9049 B(  6-C ,  7-C ) :   0.8228 B(  6-C ,  8-C ) :   0.8442
B(  7-C ,  8-C ) :   0.9595 B(  7-C , 17-H ) :   0.9238 B(  7-C , 18-H ) :   0.9201
B(  8-C , 19-H ) :   0.9231 B(  8-C , 20-H ) :   0.9236

MP2 TOTAL ENERGY:     -386.368353656 Eh
FINAL SINGLE POINT ENERGY      -386.368353655660

DIPOLE MOMENT
-------------
                                X             Y             Z
Electronic contribution:      1.52835       0.82960      -1.76166
Nuclear contribution   :     -1.93656      -0.92343       2.23261
                        -----------------------------------------
Total Dipole Moment    :     -0.40820      -0.09383       0.47095
                        -----------------------------------------
Magnitude (a.u.)       :      0.63026
Magnitude (Debye)      :      1.60199

                             ****ORCA TERMINATED NORMALLY****
TOTAL RUN TIME: 0 days 0 hours 18 minutes 22 seconds 460 msec
