                         Program Version 3.0.3 - RELEASE   -
|  1> ! RI-MP2 RIJK def2-TZVP def2-TZVP/C def2-TZVP/JK TIGHTSCF
|  2> % maxcore 2000
|  3> % mp2 density relaxed end
|  4> *xyz 0 1
|  5>  O       -0.0974576695    -0.0159845255     0.0372419465
|  6>  C       -0.0338687864     1.1907005893    -0.0037120503
|  7>  C        1.2190910652     1.9462930205     0.0275435933
|  8>  C        1.3432518156     3.4367099782     0.3156339906
|  9>  C        1.7913097024     2.9413891017    -1.0043247794
| 10>  O        3.0809476233     2.3565185378    -0.9644226452
| 11>  C        2.6195991053     1.3209604434    -0.0277507377
| 12>  C        3.4022448473     1.2424313293     1.1900347542
| 13>  C        4.0441744869     1.1761435944     2.2035621353
| 14>  H       -0.9497982633     1.8194981277    -0.0840094956
| 15>  H        0.3935387860     3.9641573606     0.3212256515
| 16>  H        2.0705807600     3.7665840210     1.0508615518
| 17>  H        1.3995746654     3.2505969771    -1.9663313723
| 18>  H        2.5916561492     0.3564258165    -0.5436617822
| 19>  H        4.6138558725     1.1099613080     3.0979312396
| 20> *
| 21>
| 22>                          ****END OF INPUT****

CARTESIAN COORDINATES (ANGSTROEM)
---------------------------------
  O     -0.097458   -0.015985    0.037242
  C     -0.033869    1.190701   -0.003712
  C      1.219091    1.946293    0.027544
  C      1.343252    3.436710    0.315634
  C      1.791310    2.941389   -1.004325
  O      3.080948    2.356519   -0.964423
  C      2.619599    1.320960   -0.027751
  C      3.402245    1.242431    1.190035
  C      4.044174    1.176144    2.203562
  H     -0.949798    1.819498   -0.084009
  H      0.393539    3.964157    0.321226
  H      2.070581    3.766584    1.050862
  H      1.399575    3.250597   -1.966331
  H      2.591656    0.356426   -0.543662
  H      4.613856    1.109961    3.097931

 Total Charge           Charge          ....    0
 Multiplicity           Mult            ....    1
 Number of Electrons    NEL             ....   64
 Basis Dimension        Dim             ....  315

ORBITAL ENERGIES
----------------

  NO   OCC          E(Eh)            E(eV)
   0   2.0000     -20.583961      -560.1181
   1   2.0000     -20.562109      -559.5234
   2   2.0000     -11.346516      -308.7544
   3   2.0000     -11.332893      -308.3837
   4   2.0000     -11.326911      -308.2209
   5   2.0000     -11.272455      -306.7391
   6   2.0000     -11.267941      -306.6163
   7   2.0000     -11.244965      -305.9911
   8   2.0000     -11.240364      -305.8659
   9   2.0000      -1.423885       -38.7459
  10   2.0000      -1.400062       -38.0976
  11   2.0000      -1.156293       -31.4643
  12   2.0000      -1.067195       -29.0398
  13   2.0000      -0.982528       -26.7360
  14   2.0000      -0.914940       -24.8968
  15   2.0000      -0.848638       -23.0926
  16   2.0000      -0.789112       -21.4728
  17   2.0000      -0.737324       -20.0636
  18   2.0000      -0.721703       -19.6385
  19   2.0000      -0.692385       -18.8408
  20   2.0000      -0.678772       -18.4703
  21   2.0000      -0.646999       -17.6057
  22   2.0000      -0.602767       -16.4021
  23   2.0000      -0.582574       -15.8526
  24   2.0000      -0.571321       -15.5464
  25   2.0000      -0.547394       -14.8953
  26   2.0000      -0.530093       -14.4246
  27   2.0000      -0.455025       -12.3819
  28   2.0000      -0.434144       -11.8137
  29   2.0000      -0.409648       -11.1471
  30   2.0000      -0.407421       -11.0865
  31   2.0000      -0.390755       -10.6330
  32   0.0000       0.111363         3.0303
  33   0.0000       0.138645         3.7727
  34   0.0000       0.141837         3.8596
  35   0.0000       0.158910         4.3242
  36   0.0000       0.162938         4.4338

MULLIKEN ATOMIC CHARGES
-----------------------
   0 O :   -0.276579
   1 C :    0.062903
   2 C :    0.003920
   3 C :   -0.240180
   4 C :    0.045834
   5 O :   -0.303156
   6 C :    0.003323
   7 C :   -0.078147
   8 C :   -0.088333
   9 H :    0.074812
  10 H :    0.145775
  11 H :    0.161690
  12 H :    0.144365
  13 H :    0.144638
  14 H :    0.199135
Sum of atomic charges:    0.0000000

LOEWDIN ATOMIC CHARGES
----------------------
   0 O :    0.130160
   1 C :   -0.279084
   2 C :   -0.177838
   3 C :   -0.165362
   4 C :   -0.212056
   5 O :    0.187958
   6 C :   -0.197442
   7 C :   -0.077194
   8 C :   -0.065628
   9 H :    0.118585
  10 H :    0.150393
  11 H :    0.148501
  12 H :    0.138649
  13 H :    0.169940
  14 H :    0.130417

  Mayer bond orders larger than 0.1
B(  0-O ,  1-C ) :   1.9861 B(  1-C ,  2-C ) :   0.9017 B(  1-C ,  9-H ) :   0.9542
B(  2-C ,  3-C ) :   0.8456 B(  2-C ,  4-C ) :   0.8269 B(  2-C ,  6-C ) :   0.8865
B(  3-C ,  4-C ) :   0.8993 B(  3-C , 10-H ) :   0.9168 B(  3-C , 11-H ) :   0.8901
B(  4-C ,  5-O ) :   0.9939 B(  4-C , 12-H ) :   0.9182 B(  5-O ,  6-C ) :   0.9186
B(  6-C ,  7-C ) :   1.2187 B(  6-C ,  8-C ) :  -0.1130 B(  6-C , 13-H ) :   0.8883
B(  7-C ,  8-C ) :   2.5487 B(  8-C , 14-H ) :   0.8903

MP2 TOTAL ENERGY:     -419.829842651 Eh
FINAL SINGLE POINT ENERGY      -419.829842650666

DIPOLE MOMENT
-------------
                                X             Y             Z
Electronic contribution:      0.91209      -2.62539      -0.65240
Nuclear contribution   :     -1.15268       3.64165       0.84284
                        -----------------------------------------
Total Dipole Moment    :     -0.24059       1.01626       0.19045
                        -----------------------------------------
Magnitude (a.u.)       :      1.06157
Magnitude (Debye)      :      2.69830

                             ****ORCA TERMINATED NORMALLY****
TOTAL RUN TIME: 0 days 0 hours 15 minutes 15 seconds 447 msec
