                         Program Version 3.0.3 - RELEASE   -
|  1> ! RI-MP2 RIJK def2-TZVP def2-TZVP/C def2-TZVP/JK TIGHTSCF
|  2> % maxcore 2000
|  3> % mp2 density relaxed end
|  4> *xyz 0 1
|  5>  C       -0.0682887236     1.5210505413    -0.0010409597
|  6>  C       -0.0111416400     0.0070122920    -0.0265867708
|  7>  C       -1.2589147055    -0.6577066198    -0.5748605187
|  8>  C        1.3072497398    -0.6557277912    -0.2536909656
|  9>  C        0.7104948171    -0.6920275832     1.1672096689
| 10>  C        1.3259032706     0.0966095995     2.2009510442
| 11>  C        1.8397204374     0.7504315452     3.0687549134
| 12>  C        0.1836751424    -1.9579818000     1.6209395136
| 13>  N       -0.2444876140    -2.9725620615     1.9752045201
| 14>  H        0.8333192277     1.9577367099     0.4320438958
| 15>  H       -0.1794588731     1.9014103505    -1.0223335672
| 16>  H       -0.9266633088     1.8693132403     0.5825789652
| 17>  H       -1.4160692357    -0.3438687810    -1.6126190751
| 18>  H       -1.1903415988    -1.7474439437    -0.5562348012
| 19>  H       -2.1427200673    -0.3659929136     0.0017159928
| 20>  H        1.3340949289    -1.6015174555    -0.7832060661
| 21>  H        2.1924407416    -0.0400482044    -0.3645575533
| 22>  H        2.2926084715     1.3230401651     3.8401504237
| 23> *
| 24>
| 25>                          ****END OF INPUT****

CARTESIAN COORDINATES (ANGSTROEM)
---------------------------------
  C     -0.068289    1.521051   -0.001041
  C     -0.011142    0.007012   -0.026587
  C     -1.258915   -0.657707   -0.574861
  C      1.307250   -0.655728   -0.253691
  C      0.710495   -0.692028    1.167210
  C      1.325903    0.096610    2.200951
  C      1.839720    0.750432    3.068755
  C      0.183675   -1.957982    1.620940
  N     -0.244488   -2.972562    1.975205
  H      0.833319    1.957737    0.432044
  H     -0.179459    1.901410   -1.022334
  H     -0.926663    1.869313    0.582579
  H     -1.416069   -0.343869   -1.612619
  H     -1.190342   -1.747444   -0.556235
  H     -2.142720   -0.365993    0.001716
  H      1.334095   -1.601517   -0.783206
  H      2.192441   -0.040048   -0.364558
  H      2.292608    1.323040    3.840150

 Total Charge           Charge          ....    0
 Multiplicity           Mult            ....    1
 Number of Electrons    NEL             ....   64
 Basis Dimension        Dim             ....  333

ORBITAL ENERGIES
----------------

  NO   OCC          E(Eh)            E(eV)
   0   2.0000     -15.568157      -423.6311
   1   2.0000     -11.311683      -307.8065
   2   2.0000     -11.285524      -307.0947
   3   2.0000     -11.276157      -306.8398
   4   2.0000     -11.267084      -306.5929
   5   2.0000     -11.254211      -306.2426
   6   2.0000     -11.240893      -305.8802
   7   2.0000     -11.237166      -305.7788
   8   2.0000     -11.236893      -305.7714
   9   2.0000      -1.231738       -33.5173
  10   2.0000      -1.193093       -32.4657
  11   2.0000      -1.058381       -28.8000
  12   2.0000      -1.009751       -27.4767
  13   2.0000      -0.961268       -26.1574
  14   2.0000      -0.923408       -25.1272
  15   2.0000      -0.790676       -21.5154
  16   2.0000      -0.777629       -21.1604
  17   2.0000      -0.708359       -19.2754
  18   2.0000      -0.667885       -18.1741
  19   2.0000      -0.620281       -16.8787
  20   2.0000      -0.617733       -16.8094
  21   2.0000      -0.591400       -16.0928
  22   2.0000      -0.562351       -15.3023
  23   2.0000      -0.555739       -15.1224
  24   2.0000      -0.548021       -14.9124
  25   2.0000      -0.524157       -14.2630
  26   2.0000      -0.511827       -13.9275
  27   2.0000      -0.492233       -13.3943
  28   2.0000      -0.448919       -12.2157
  29   2.0000      -0.440822       -11.9954
  30   2.0000      -0.404831       -11.0160
  31   2.0000      -0.371719       -10.1150
  32   0.0000       0.125002         3.4015
  33   0.0000       0.145543         3.9604
  34   0.0000       0.147137         4.0038
  35   0.0000       0.155322         4.2265
  36   0.0000       0.166892         4.5414

MULLIKEN ATOMIC CHARGES
-----------------------
   0 C :   -0.399067
   1 C :    0.065730
   2 C :   -0.390928
   3 C :   -0.260631
   4 C :    0.005758
   5 C :   -0.028271
   6 C :   -0.094039
   7 C :   -0.217970
   8 N :   -0.053209
   9 H :    0.146991
  10 H :    0.140372
  11 H :    0.141956
  12 H :    0.139401
  13 H :    0.153537
  14 H :    0.143742
  15 H :    0.155767
  16 H :    0.153006
  17 H :    0.197855
Sum of atomic charges:   -0.0000000

LOEWDIN ATOMIC CHARGES
----------------------
   0 C :   -0.250588
   1 C :   -0.231844
   2 C :   -0.250560
   3 C :   -0.115220
   4 C :   -0.184765
   5 C :   -0.058636
   6 C :   -0.071391
   7 C :   -0.140086
   8 N :    0.069165
   9 H :    0.135849
  10 H :    0.132820
  11 H :    0.133965
  12 H :    0.133089
  13 H :    0.137338
  14 H :    0.134531
  15 H :    0.148021
  16 H :    0.147908
  17 H :    0.130402

  Mayer bond orders larger than 0.1
B(  0-C ,  1-C ) :   0.9189 B(  0-C ,  9-H ) :   0.9243 B(  0-C , 10-H ) :   0.9353
B(  0-C , 11-H ) :   0.9341 B(  1-C ,  2-C ) :   0.9190 B(  1-C ,  3-C ) :   0.9265
B(  1-C ,  4-C ) :   0.7780 B(  2-C , 12-H ) :   0.9319 B(  2-C , 13-H ) :   0.9219
B(  2-C , 14-H ) :   0.9336 B(  3-C ,  4-C ) :   0.7906 B(  3-C , 15-H ) :   0.9154
B(  3-C , 16-H ) :   0.9213 B(  4-C ,  5-C ) :   1.2331 B(  4-C ,  6-C ) :  -0.1315
B(  4-C ,  7-C ) :   0.9573 B(  5-C ,  6-C ) :   2.5368 B(  6-C , 17-H ) :   0.8865
B(  7-C ,  8-N ) :   2.8446

MP2 TOTAL ENERGY:     -364.117237701 Eh
FINAL SINGLE POINT ENERGY      -364.117237701217

DIPOLE MOMENT
-------------
                                X             Y             Z
Electronic contribution:      2.85139      -5.44574       6.74252
Nuclear contribution   :     -2.49841       6.84742      -7.63509
                        -----------------------------------------
Total Dipole Moment    :      0.35297       1.40168      -0.89256
                        -----------------------------------------
Magnitude (a.u.)       :      1.69881
Magnitude (Debye)      :      4.31804

                             ****ORCA TERMINATED NORMALLY****
TOTAL RUN TIME: 0 days 0 hours 20 minutes 5 seconds 341 msec
