                         Program Version 3.0.3 - RELEASE   -
|  1> ! RI-MP2 RIJK def2-TZVP def2-TZVP/C def2-TZVP/JK TIGHTSCF
|  2> % maxcore 2000
|  3> % mp2 density relaxed end
|  4> *xyz 0 1
|  5>  C        0.5871382961     0.2178107280    -0.6952670043
|  6>  C        0.0942826151    -0.0541953891     0.7247990765
|  7>  O        0.1099998441     1.1298583766     1.5138849964
|  8>  C       -1.3046931138    -0.7127549507     0.7850216789
|  9>  C       -1.3889694340    -2.0607923189     0.1288583633
| 10>  C       -1.0343831941    -3.2473884051     0.6188173458
| 11>  C       -1.2890576194    -4.3287947899    -0.3904666032
| 12>  O       -1.8054908074    -3.6548996241    -1.5366470838
| 13>  C       -1.9326579151    -2.2656967635    -1.2655349761
| 14>  H        1.5555765633     0.7241897309    -0.6627500681
| 15>  H        0.7004350469    -0.7096315174    -1.2636691283
| 16>  H       -0.1177628460     0.8617971076    -1.2372822032
| 17>  H        0.8023061308    -0.7258068872     1.2240771992
| 18>  H       -0.4370126887     1.7868908460     1.0689314350
| 19>  H       -1.5726106766    -0.7892273465     1.8434024392
| 20>  H       -2.0293893767    -0.0264004043     0.3240036209
| 21>  H       -0.6331458241    -3.4438034544     1.6058570196
| 22>  H       -0.3761867207    -4.8800179410    -0.6668694795
| 23>  H       -2.0170079368    -5.0748064413    -0.0309544828
| 24>  H       -2.9904813806    -1.9573258940    -1.3323293006
| 25>  H       -1.3860642922    -1.6879871417    -2.0276398049
| 26> *
| 27>
| 28>                          ****END OF INPUT****

CARTESIAN COORDINATES (ANGSTROEM)
---------------------------------
  C      0.587138    0.217811   -0.695267
  C      0.094283   -0.054195    0.724799
  O      0.110000    1.129858    1.513885
  C     -1.304693   -0.712755    0.785022
  C     -1.388969   -2.060792    0.128858
  C     -1.034383   -3.247388    0.618817
  C     -1.289058   -4.328795   -0.390467
  O     -1.805491   -3.654900   -1.536647
  C     -1.932658   -2.265697   -1.265535
  H      1.555577    0.724190   -0.662750
  H      0.700435   -0.709632   -1.263669
  H     -0.117763    0.861797   -1.237282
  H      0.802306   -0.725807    1.224077
  H     -0.437013    1.786891    1.068931
  H     -1.572611   -0.789227    1.843402
  H     -2.029389   -0.026400    0.324004
  H     -0.633146   -3.443803    1.605857
  H     -0.376187   -4.880018   -0.666869
  H     -2.017008   -5.074806   -0.030954
  H     -2.990481   -1.957326   -1.332329
  H     -1.386064   -1.687987   -2.027640

 Total Charge           Charge          ....    0
 Multiplicity           Mult            ....    1
 Number of Electrons    NEL             ....   70
 Basis Dimension        Dim             ....  351

ORBITAL ENERGIES
----------------

  NO   OCC          E(Eh)            E(eV)
   0   2.0000     -20.557150      -559.3885
   1   2.0000     -20.550486      -559.2072
   2   2.0000     -11.287224      -307.1410
   3   2.0000     -11.279360      -306.9270
   4   2.0000     -11.278130      -306.8935
   5   2.0000     -11.239906      -305.8534
   6   2.0000     -11.236328      -305.7560
   7   2.0000     -11.228136      -305.5331
   8   2.0000     -11.222415      -305.3774
   9   2.0000      -1.375940       -37.4412
  10   2.0000      -1.364303       -37.1246
  11   2.0000      -1.103259       -30.0212
  12   2.0000      -1.032430       -28.0939
  13   2.0000      -0.992538       -27.0083
  14   2.0000      -0.943694       -25.6792
  15   2.0000      -0.828737       -22.5511
  16   2.0000      -0.826666       -22.4947
  17   2.0000      -0.742452       -20.2031
  18   2.0000      -0.685389       -18.6504
  19   2.0000      -0.672514       -18.3000
  20   2.0000      -0.659695       -17.9512
  21   2.0000      -0.635618       -17.2960
  22   2.0000      -0.604087       -16.4380
  23   2.0000      -0.595136       -16.1945
  24   2.0000      -0.581986       -15.8367
  25   2.0000      -0.564983       -15.3740
  26   2.0000      -0.543974       -14.8023
  27   2.0000      -0.537827       -14.6350
  28   2.0000      -0.520764       -14.1707
  29   2.0000      -0.501049       -13.6342
  30   2.0000      -0.487757       -13.2725
  31   2.0000      -0.466429       -12.6922
  32   2.0000      -0.453600       -12.3431
  33   2.0000      -0.428074       -11.6485
  34   2.0000      -0.343581        -9.3493
  35   0.0000       0.125889         3.4256
  36   0.0000       0.146536         3.9874
  37   0.0000       0.152274         4.1436
  38   0.0000       0.164426         4.4743
  39   0.0000       0.174887         4.7589

MULLIKEN ATOMIC CHARGES
-----------------------
   0 C :   -0.445461
   1 C :    0.113037
   2 O :   -0.459884
   3 C :   -0.238758
   4 C :   -0.022881
   5 C :   -0.234213
   6 C :    0.021599
   7 O :   -0.339650
   8 C :   -0.026710
   9 H :    0.151481
  10 H :    0.143567
  11 H :    0.116493
  12 H :    0.098195
  13 H :    0.310032
  14 H :    0.144312
  15 H :    0.112818
  16 H :    0.136934
  17 H :    0.105121
  18 H :    0.103790
  19 H :    0.101237
  20 H :    0.108941
Sum of atomic charges:    0.0000000

LOEWDIN ATOMIC CHARGES
----------------------
   0 C :   -0.305193
   1 C :   -0.365904
   2 O :   -0.022914
   3 C :   -0.219094
   4 C :   -0.174422
   5 C :   -0.143192
   6 C :   -0.286827
   7 O :    0.147311
   8 C :   -0.267412
   9 H :    0.127853
  10 H :    0.129456
  11 H :    0.120843
  12 H :    0.145547
  13 H :    0.173443
  14 H :    0.153669
  15 H :    0.143672
  16 H :    0.142428
  17 H :    0.124947
  18 H :    0.124665
  19 H :    0.126333
  20 H :    0.124791

  Mayer bond orders larger than 0.1
B(  0-C ,  1-C ) :   0.9360 B(  0-C ,  9-H ) :   0.9389 B(  0-C , 10-H ) :   0.9269
B(  0-C , 11-H ) :   0.9224 B(  1-C ,  2-O ) :   0.9312 B(  1-C ,  3-C ) :   0.9217
B(  1-C , 12-H ) :   0.9167 B(  2-O , 13-H ) :   0.8425 B(  3-C ,  4-C ) :   0.8263
B(  3-C , 14-H ) :   0.9300 B(  3-C , 15-H ) :   0.9296 B(  4-C ,  5-C ) :   1.7536
B(  4-C ,  8-C ) :   0.9720 B(  5-C ,  6-C ) :   0.9852 B(  5-C , 16-H ) :   0.9147
B(  6-C ,  7-O ) :   0.9333 B(  6-C , 17-H ) :   0.9148 B(  6-C , 18-H ) :   0.9170
B(  7-O ,  8-C ) :   0.9477 B(  8-C , 19-H ) :   0.9026 B(  8-C , 20-H ) :   0.9172

MP2 TOTAL ENERGY:     -423.518775996 Eh
FINAL SINGLE POINT ENERGY      -423.518775996288

DIPOLE MOMENT
-------------
                                X             Y             Z
Electronic contribution:     -1.87108      -2.89775       0.90006
Nuclear contribution   :      1.77329       3.16735      -0.85033
                        -----------------------------------------
Total Dipole Moment    :     -0.09778       0.26959       0.04973
                        -----------------------------------------
Magnitude (a.u.)       :      0.29106
Magnitude (Debye)      :      0.73981

                             ****ORCA TERMINATED NORMALLY****
TOTAL RUN TIME: 0 days 0 hours 19 minutes 37 seconds 417 msec
