                         Program Version 3.0.3 - RELEASE   -
|  1> ! RI-MP2 RIJK def2-TZVP def2-TZVP/C def2-TZVP/JK TIGHTSCF
|  2> % maxcore 2000
|  3> % mp2 density relaxed end
|  4> *xyz 0 1
|  5>  O       -0.0813058051     1.3925362030     0.0165586218
|  6>  C       -0.0057472963     0.0038887010     0.0157307049
|  7>  C        0.3271055885    -0.8344772666     1.2923173839
|  8>  C       -0.4368643166    -1.9536522604     0.5051451484
|  9>  C       -1.3302137958    -0.7918339851    -0.0532937961
| 10>  C        0.5103330887    -2.1553314679    -0.6678853853
| 11>  O        0.9003629236    -3.1740780429    -1.1682765735
| 12>  C        0.8516306156    -0.6972444680    -1.0594477001
| 13>  H        0.8088663609     1.7510243755    -0.0664567366
| 14>  H        1.3747879519    -1.0079297220     1.5544867859
| 15>  H       -0.2389989809    -0.4951086943     2.1618693780
| 16>  H       -0.8470851396    -2.8396544920     0.9820164563
| 17>  H       -2.0529624238    -0.4483412368     0.6892507924
| 18>  H       -1.8088459607    -0.9221559206    -1.0274029232
| 19>  H        0.5395143681    -0.4684521223    -2.0829127904
| 20>  H        1.9260337316    -0.5026799206    -0.9681995962
| 21> *
| 22>
| 23>                          ****END OF INPUT****

CARTESIAN COORDINATES (ANGSTROEM)
---------------------------------
  O     -0.081306    1.392536    0.016559
  C     -0.005747    0.003889    0.015731
  C      0.327106   -0.834477    1.292317
  C     -0.436864   -1.953652    0.505145
  C     -1.330214   -0.791834   -0.053294
  C      0.510333   -2.155331   -0.667885
  O      0.900363   -3.174078   -1.168277
  C      0.851631   -0.697244   -1.059448
  H      0.808866    1.751024   -0.066457
  H      1.374788   -1.007930    1.554487
  H     -0.238999   -0.495109    2.161869
  H     -0.847085   -2.839654    0.982016
  H     -2.052962   -0.448341    0.689251
  H     -1.808846   -0.922156   -1.027403
  H      0.539514   -0.468452   -2.082913
  H      1.926034   -0.502680   -0.968200

 Total Charge           Charge          ....    0
 Multiplicity           Mult            ....    1
 Number of Electrons    NEL             ....   60
 Basis Dimension        Dim             ....  296

ORBITAL ENERGIES
----------------

  NO   OCC          E(Eh)            E(eV)
   0   2.0000     -20.577398      -559.9395
   1   2.0000     -20.549079      -559.1689
   2   2.0000     -11.334660      -308.4318
   3   2.0000     -11.310708      -307.7800
   4   2.0000     -11.254646      -306.2545
   5   2.0000     -11.246780      -306.0404
   6   2.0000     -11.245789      -306.0135
   7   2.0000     -11.244750      -305.9852
   8   2.0000      -1.395250       -37.9667
   9   2.0000      -1.388608       -37.7859
  10   2.0000      -1.198130       -32.6028
  11   2.0000      -0.995191       -27.0805
  12   2.0000      -0.926406       -25.2088
  13   2.0000      -0.918114       -24.9832
  14   2.0000      -0.784089       -21.3362
  15   2.0000      -0.734088       -19.9755
  16   2.0000      -0.720131       -19.5958
  17   2.0000      -0.673256       -18.3202
  18   2.0000      -0.650609       -17.7040
  19   2.0000      -0.632041       -17.1987
  20   2.0000      -0.597082       -16.2474
  21   2.0000      -0.589131       -16.0311
  22   2.0000      -0.554631       -15.0923
  23   2.0000      -0.541661       -14.7394
  24   2.0000      -0.526192       -14.3184
  25   2.0000      -0.525314       -14.2945
  26   2.0000      -0.467526       -12.7220
  27   2.0000      -0.460733       -12.5372
  28   2.0000      -0.431707       -11.7474
  29   2.0000      -0.397580       -10.8187
  30   0.0000       0.121263         3.2997
  31   0.0000       0.144338         3.9276
  32   0.0000       0.148986         4.0541
  33   0.0000       0.171798         4.6749
  34   0.0000       0.174877         4.7586

MULLIKEN ATOMIC CHARGES
-----------------------
   0 O :   -0.446816
   1 C :    0.182868
   2 C :   -0.277587
   3 C :   -0.028346
   4 C :   -0.254240
   5 C :    0.071173
   6 O :   -0.252669
   7 C :   -0.251876
   8 H :    0.322077
   9 H :    0.127212
  10 H :    0.129012
  11 H :    0.142753
  12 H :    0.131395
  13 H :    0.129504
  14 H :    0.144357
  15 H :    0.131184
Sum of atomic charges:   -0.0000000

LOEWDIN ATOMIC CHARGES
----------------------
   0 O :    0.025967
   1 C :   -0.367249
   2 C :   -0.172757
   3 C :   -0.167048
   4 C :   -0.160811
   5 C :   -0.298666
   6 O :    0.157665
   7 C :   -0.188189
   8 H :    0.182802
   9 H :    0.129789
  10 H :    0.143507
  11 H :    0.141019
  12 H :    0.146024
  13 H :    0.133191
  14 H :    0.149406
  15 H :    0.145348

  Mayer bond orders larger than 0.1
B(  0-O ,  1-C ) :   1.0222 B(  0-O ,  8-H ) :   0.8357 B(  1-C ,  2-C ) :   0.8752
B(  1-C ,  4-C ) :   0.8849 B(  1-C ,  7-C ) :   0.8877 B(  2-C ,  3-C ) :   0.8684
B(  2-C ,  9-H ) :   0.9185 B(  2-C , 10-H ) :   0.9124 B(  3-C ,  4-C ) :   0.8807
B(  3-C ,  5-C ) :   0.8374 B(  3-C ,  7-C ) :  -0.1324 B(  3-C , 11-H ) :   0.9086
B(  4-C , 12-H ) :   0.9134 B(  4-C , 13-H ) :   0.9215 B(  5-C ,  6-O ) :   2.0659
B(  5-C ,  7-C ) :   0.9010 B(  7-C , 14-H ) :   0.9041 B(  7-C , 15-H ) :   0.8963

MP2 TOTAL ENERGY:     -383.119163217 Eh
FINAL SINGLE POINT ENERGY      -383.119163216601

DIPOLE MOMENT
-------------
                                X             Y             Z
Electronic contribution:      1.16883      -2.03054      -1.80511
Nuclear contribution   :     -1.06087       2.78372       2.27658
                        -----------------------------------------
Total Dipole Moment    :      0.10797       0.75318       0.47148
                        -----------------------------------------
Magnitude (a.u.)       :      0.89511
Magnitude (Debye)      :      2.27519

                             ****ORCA TERMINATED NORMALLY****
TOTAL RUN TIME: 0 days 0 hours 12 minutes 19 seconds 396 msec
