                         Program Version 3.0.3 - RELEASE   -
|  1> ! RI-MP2 RIJK def2-TZVP def2-TZVP/C def2-TZVP/JK TIGHTSCF
|  2> % maxcore 2000
|  3> % mp2 density relaxed end
|  4> *xyz 0 1
|  5>  C       -0.0030970641     1.4686847682     0.0052420757
|  6>  C        0.0063585418     0.0141377537     0.0083505919
|  7>  C        0.0211635030    -1.1923572183     0.0106151659
|  8>  C        0.0116637188    -2.6067903353     0.0103680712
|  9>  C        1.0826006440    -3.4342009501     0.1759383921
| 10>  O        0.6830831829    -4.7429717266     0.1151630800
| 11>  C       -0.6579848849    -4.7432025294    -0.0878066838
| 12>  N       -1.2275670519    -5.9972478498    -0.2518106470
| 13>  C       -1.1372718128    -3.4722944908    -0.1603900832
| 14>  H        0.6567973462     1.8716562426    -0.7717103318
| 15>  H       -1.0100181656     1.8576206558    -0.1828624288
| 16>  H        0.3330645850     1.8739658702     0.9666738787
| 17>  H        2.1317536752    -3.2655755919     0.3423563364
| 18>  H       -0.7708566804    -6.7083502967     0.3055241198
| 19>  H       -2.2242296481    -5.9973752082    -0.0853385740
| 20>  H       -2.1580029592    -3.1638790334    -0.3131677631
| 21> *
| 22>
| 23>                          ****END OF INPUT****

CARTESIAN COORDINATES (ANGSTROEM)
---------------------------------
  C     -0.003097    1.468685    0.005242
  C      0.006359    0.014138    0.008351
  C      0.021164   -1.192357    0.010615
  C      0.011664   -2.606790    0.010368
  C      1.082601   -3.434201    0.175938
  O      0.683083   -4.742972    0.115163
  C     -0.657985   -4.743203   -0.087807
  N     -1.227567   -5.997248   -0.251811
  C     -1.137272   -3.472294   -0.160390
  H      0.656797    1.871656   -0.771710
  H     -1.010018    1.857621   -0.182862
  H      0.333065    1.873966    0.966674
  H      2.131754   -3.265576    0.342356
  H     -0.770857   -6.708350    0.305524
  H     -2.224230   -5.997375   -0.085339
  H     -2.158003   -3.163879   -0.313168

 Total Charge           Charge          ....    0
 Multiplicity           Mult            ....    1
 Number of Electrons    NEL             ....   64
 Basis Dimension        Dim             ....  321

ORBITAL ENERGIES
----------------

  NO   OCC          E(Eh)            E(eV)
   0   2.0000     -20.621771      -561.1469
   1   2.0000     -15.580098      -423.9560
   2   2.0000     -11.331614      -308.3489
   3   2.0000     -11.281182      -306.9766
   4   2.0000     -11.249671      -306.1191
   5   2.0000     -11.245964      -306.0182
   6   2.0000     -11.226208      -305.4807
   7   2.0000     -11.220152      -305.3159
   8   2.0000     -11.214307      -305.1568
   9   2.0000      -1.465018       -39.8652
  10   2.0000      -1.220929       -33.2232
  11   2.0000      -1.103994       -30.0412
  12   2.0000      -1.046833       -28.4858
  13   2.0000      -0.987867       -26.8812
  14   2.0000      -0.948828       -25.8189
  15   2.0000      -0.834504       -22.7080
  16   2.0000      -0.783767       -21.3274
  17   2.0000      -0.746247       -20.3064
  18   2.0000      -0.691188       -18.8082
  19   2.0000      -0.651909       -17.7393
  20   2.0000      -0.636967       -17.3328
  21   2.0000      -0.625235       -17.0135
  22   2.0000      -0.599652       -16.3173
  23   2.0000      -0.586072       -15.9478
  24   2.0000      -0.585358       -15.9284
  25   2.0000      -0.566085       -15.4040
  26   2.0000      -0.553587       -15.0639
  27   2.0000      -0.489590       -13.3224
  28   2.0000      -0.449707       -12.2371
  29   2.0000      -0.372580       -10.1384
  30   2.0000      -0.346431        -9.4269
  31   2.0000      -0.282495        -7.6871
  32   0.0000       0.129502         3.5239
  33   0.0000       0.135136         3.6772
  34   0.0000       0.141061         3.8385
  35   0.0000       0.177598         4.8327
  36   0.0000       0.183965         5.0059

MULLIKEN ATOMIC CHARGES
-----------------------
   0 C :   -0.466492
   1 C :    0.005814
   2 C :    0.077962
   3 C :   -0.022332
   4 C :   -0.093737
   5 O :   -0.234118
   6 C :    0.311167
   7 N :   -0.510393
   8 C :   -0.360662
   9 H :    0.161895
  10 H :    0.161125
  11 H :    0.161292
  12 H :    0.150645
  13 H :    0.260603
  14 H :    0.255931
  15 H :    0.141301
Sum of atomic charges:   -0.0000000

LOEWDIN ATOMIC CHARGES
----------------------
   0 C :   -0.295802
   1 C :   -0.086681
   2 C :   -0.046037
   3 C :   -0.188133
   4 C :   -0.198871
   5 O :    0.343365
   6 C :   -0.353917
   7 N :   -0.076308
   8 C :   -0.151508
   9 H :    0.140983
  10 H :    0.141299
  11 H :    0.140714
  12 H :    0.135626
  13 H :    0.174933
  14 H :    0.175581
  15 H :    0.144757

  Mayer bond orders larger than 0.1
B(  0-C ,  1-C ) :   0.8651 B(  0-C ,  9-H ) :   0.9445 B(  0-C , 10-H ) :   0.9452
B(  0-C , 11-H ) :   0.9447 B(  1-C ,  2-C ) :   2.6033 B(  1-C ,  3-C ) :  -0.1681
B(  2-C ,  3-C ) :   1.0789 B(  3-C ,  4-C ) :   1.5177 B(  3-C ,  8-C ) :   1.1476
B(  4-C ,  5-O ) :   1.0238 B(  4-C , 12-H ) :   0.9239 B(  5-O ,  6-C ) :   1.0614
B(  6-C ,  7-N ) :   1.0500 B(  6-C ,  8-C ) :   1.5439 B(  7-N , 13-H ) :   0.8668
B(  7-N , 14-H ) :   0.8781 B(  8-C , 15-H ) :   0.9089

MP2 TOTAL ENERGY:     -400.045858006 Eh
FINAL SINGLE POINT ENERGY      -400.045858006154

DIPOLE MOMENT
-------------
                                X             Y             Z
Electronic contribution:      1.46263      -5.88618       0.05279
Nuclear contribution   :     -1.90075       5.75985       0.34752
                        -----------------------------------------
Total Dipole Moment    :     -0.43812      -0.12633       0.40031
                        -----------------------------------------
Magnitude (a.u.)       :      0.60676
Magnitude (Debye)      :      1.54226

                             ****ORCA TERMINATED NORMALLY****
TOTAL RUN TIME: 0 days 0 hours 12 minutes 54 seconds 285 msec
