                         Program Version 3.0.3 - RELEASE   -
|  1> ! RI-MP2 RIJK def2-TZVP def2-TZVP/C def2-TZVP/JK TIGHTSCF
|  2> % maxcore 2000
|  3> % mp2 density relaxed end
|  4> *xyz 0 1
|  5>  O       -0.1896756814     1.3638317817     0.0599307068
|  6>  C        0.0197706743    -0.0311175655    -0.0546891229
|  7>  C        0.7328525750    -0.4038852967    -1.2723185022
|  8>  C        1.3623551051    -0.6760291697    -2.2585969670
|  9>  C        0.7681992867    -0.5565416133     1.2177622996
| 10>  C        0.0957499559     0.0414325543     2.4702347780
| 11>  O        0.6827043420     0.7126769010     3.2679903895
| 12>  C        0.7337140689    -2.0134990263     1.2890112128
| 13>  N        0.6644410695    -3.1648997788     1.3623781024
| 14>  H        0.6363454828     1.8156393284    -0.1494391895
| 15>  H       -0.9822637604    -0.4749194069    -0.0615046562
| 16>  H        1.8995302113    -0.9299692329    -3.1398499572
| 17>  H        1.8062060161    -0.2104521376     1.2027270105
| 18>  H       -0.9816269358    -0.2059266578     2.5687915752
| 19> *
| 20>
| 21>                          ****END OF INPUT****

CARTESIAN COORDINATES (ANGSTROEM)
---------------------------------
  O     -0.189676    1.363832    0.059931
  C      0.019771   -0.031118   -0.054689
  C      0.732853   -0.403885   -1.272319
  C      1.362355   -0.676029   -2.258597
  C      0.768199   -0.556542    1.217762
  C      0.095750    0.041433    2.470235
  O      0.682704    0.712677    3.267990
  C      0.733714   -2.013499    1.289011
  N      0.664441   -3.164900    1.362378
  H      0.636345    1.815639   -0.149439
  H     -0.982264   -0.474919   -0.061505
  H      1.899530   -0.929969   -3.139850
  H      1.806206   -0.210452    1.202727
  H     -0.981627   -0.205927    2.568792

 Total Charge           Charge          ....    0
 Multiplicity           Mult            ....    1
 Number of Electrons    NEL             ....   64
 Basis Dimension        Dim             ....  309

ORBITAL ENERGIES
----------------

  NO   OCC          E(Eh)            E(eV)
   0   2.0000     -20.606255      -560.7247
   1   2.0000     -20.590870      -560.3061
   2   2.0000     -15.595966      -424.3878
   3   2.0000     -11.369423      -309.3777
   4   2.0000     -11.364585      -309.2461
   5   2.0000     -11.319259      -308.0127
   6   2.0000     -11.296971      -307.4062
   7   2.0000     -11.267523      -306.6049
   8   2.0000     -11.263670      -306.5000
   9   2.0000      -1.433533       -39.0084
  10   2.0000      -1.416543       -38.5461
  11   2.0000      -1.243793       -33.8453
  12   2.0000      -1.130798       -30.7706
  13   2.0000      -1.063774       -28.9468
  14   2.0000      -0.956705       -26.0333
  15   2.0000      -0.857318       -23.3288
  16   2.0000      -0.786128       -21.3916
  17   2.0000      -0.762237       -20.7415
  18   2.0000      -0.730807       -19.8863
  19   2.0000      -0.702810       -19.1244
  20   2.0000      -0.677673       -18.4404
  21   2.0000      -0.663834       -18.0638
  22   2.0000      -0.628598       -17.1050
  23   2.0000      -0.582235       -15.8434
  24   2.0000      -0.573920       -15.6172
  25   2.0000      -0.551927       -15.0187
  26   2.0000      -0.527885       -14.3645
  27   2.0000      -0.501762       -13.6536
  28   2.0000      -0.479299       -13.0424
  29   2.0000      -0.452279       -12.3071
  30   2.0000      -0.431879       -11.7520
  31   2.0000      -0.420005       -11.4289
  32   0.0000       0.098830         2.6893
  33   0.0000       0.108579         2.9546
  34   0.0000       0.132965         3.6181
  35   0.0000       0.137252         3.7348
  36   0.0000       0.150573         4.0973

MULLIKEN ATOMIC CHARGES
-----------------------
   0 O :   -0.438297
   1 C :   -0.060248
   2 C :   -0.088657
   3 C :   -0.087601
   4 C :    0.144947
   5 C :    0.115741
   6 O :   -0.229007
   7 C :   -0.228874
   8 N :   -0.045199
   9 H :    0.334265
  10 H :    0.145179
  11 H :    0.206900
  12 H :    0.133411
  13 H :    0.097441
Sum of atomic charges:    0.0000000

LOEWDIN ATOMIC CHARGES
----------------------
   0 O :    0.022346
   1 C :   -0.305021
   2 C :   -0.093410
   3 C :   -0.055490
   4 C :   -0.210950
   5 C :   -0.247784
   6 O :    0.169256
   7 C :   -0.166118
   8 N :    0.084755
   9 H :    0.189188
  10 H :    0.171990
  11 H :    0.133634
  12 H :    0.183509
  13 H :    0.124095

  Mayer bond orders larger than 0.1
B(  0-O ,  1-C ) :   0.9268 B(  0-O ,  9-H ) :   0.8299 B(  1-C ,  2-C ) :   1.1683
B(  1-C ,  4-C ) :   0.8934 B(  1-C , 10-H ) :   0.8947 B(  2-C ,  3-C ) :   2.5855
B(  3-C , 11-H ) :   0.8837 B(  4-C ,  5-C ) :   0.8049 B(  4-C ,  7-C ) :   0.9111
B(  4-C , 12-H ) :   0.8645 B(  5-C ,  6-O ) :   2.0027 B(  5-C , 13-H ) :   0.9180
B(  7-C ,  8-N ) :   2.8352

MP2 TOTAL ENERGY:     -435.928691658 Eh
FINAL SINGLE POINT ENERGY      -435.928691657966

DIPOLE MOMENT
-------------
                                X             Y             Z
Electronic contribution:      0.43723      -1.38078       1.94276
Nuclear contribution   :     -0.22179       2.11281      -2.98284
                        -----------------------------------------
Total Dipole Moment    :      0.21544       0.73203      -1.04008
                        -----------------------------------------
Magnitude (a.u.)       :      1.28998
Magnitude (Debye)      :      3.27888

                             ****ORCA TERMINATED NORMALLY****
TOTAL RUN TIME: 0 days 0 hours 13 minutes 43 seconds 282 msec
