                         Program Version 3.0.3 - RELEASE   -
|  1> ! RI-MP2 RIJK def2-TZVP def2-TZVP/C def2-TZVP/JK TIGHTSCF
|  2> % maxcore 2000
|  3> % mp2 density relaxed end
|  4> *xyz 0 1
|  5>  C        0.0050602194    -1.1545049230     0.0844790713
|  6>  C       -0.0132511323     0.0472889069     0.0539664316
|  7>  C        0.0005279657     1.4762642280    -0.0094801568
|  8>  C       -0.8500932372     2.2572581994    -1.0396895297
|  9>  C       -0.0708284445     3.5594221310    -0.7994559244
| 10>  O        1.2612268613     3.1930214855    -1.2758252809
| 11>  C        1.3419078588     2.3895498473    -0.1109769393
| 12>  C        0.4017638662     3.2730883726     0.7040195407
| 13>  O       -0.3521516317     2.1860772157     1.2287343881
| 14>  H        0.0135472572    -2.2161299317     0.1152687875
| 15>  H       -0.7421592137     1.9168338840    -2.0701370240
| 16>  H       -1.8965521638     2.2730125001    -0.7319930523
| 17>  H       -0.4328881878     4.5121265716    -1.1786271733
| 18>  H        2.3149860387     1.9781498440     0.1469198942
| 19>  H        0.6459915235     4.0743448785     1.3970879675
| 20> *
| 21>
| 22>                          ****END OF INPUT****

CARTESIAN COORDINATES (ANGSTROEM)
---------------------------------
  C      0.005060   -1.154505    0.084479
  C     -0.013251    0.047289    0.053966
  C      0.000528    1.476264   -0.009480
  C     -0.850093    2.257258   -1.039690
  C     -0.070828    3.559422   -0.799456
  O      1.261227    3.193021   -1.275825
  C      1.341908    2.389550   -0.110977
  C      0.401764    3.273088    0.704020
  O     -0.352152    2.186077    1.228734
  H      0.013547   -2.216130    0.115269
  H     -0.742159    1.916834   -2.070137
  H     -1.896552    2.273013   -0.731993
  H     -0.432888    4.512127   -1.178627
  H      2.314986    1.978150    0.146920
  H      0.645992    4.074345    1.397088

 Total Charge           Charge          ....    0
 Multiplicity           Mult            ....    1
 Number of Electrons    NEL             ....   64
 Basis Dimension        Dim             ....  315

ORBITAL ENERGIES
----------------

  NO   OCC          E(Eh)            E(eV)
   0   2.0000     -20.572610      -559.8092
   1   2.0000     -20.571177      -559.7702
   2   2.0000     -11.328377      -308.2608
   3   2.0000     -11.308187      -307.7114
   4   2.0000     -11.305756      -307.6453
   5   2.0000     -11.303851      -307.5934
   6   2.0000     -11.245937      -306.0175
   7   2.0000     -11.243799      -305.9593
   8   2.0000     -11.241310      -305.8916
   9   2.0000      -1.445070       -39.3223
  10   2.0000      -1.377765       -37.4909
  11   2.0000      -1.080771       -29.4093
  12   2.0000      -1.042858       -28.3776
  13   2.0000      -0.980239       -26.6737
  14   2.0000      -0.959829       -26.1183
  15   2.0000      -0.832396       -22.6507
  16   2.0000      -0.780228       -21.2311
  17   2.0000      -0.748111       -20.3571
  18   2.0000      -0.713337       -19.4109
  19   2.0000      -0.691298       -18.8112
  20   2.0000      -0.649407       -17.6713
  21   2.0000      -0.647609       -17.6223
  22   2.0000      -0.580863       -15.8061
  23   2.0000      -0.568554       -15.4712
  24   2.0000      -0.547367       -14.8946
  25   2.0000      -0.521318       -14.1858
  26   2.0000      -0.497642       -13.5415
  27   2.0000      -0.485821       -13.2199
  28   2.0000      -0.450459       -12.2576
  29   2.0000      -0.422682       -11.5018
  30   2.0000      -0.406269       -11.0551
  31   2.0000      -0.376610       -10.2481
  32   0.0000       0.143563         3.9066
  33   0.0000       0.148816         4.0495
  34   0.0000       0.156988         4.2719
  35   0.0000       0.160188         4.3589
  36   0.0000       0.172640         4.6978

MULLIKEN ATOMIC CHARGES
-----------------------
   0 C :   -0.070156
   1 C :    0.047296
   2 C :   -0.063539
   3 C :   -0.239992
   4 C :    0.051016
   5 O :   -0.308825
   6 C :    0.003352
   7 C :   -0.025994
   8 O :   -0.296895
   9 H :    0.198784
  10 H :    0.133177
  11 H :    0.134558
  12 H :    0.145353
  13 H :    0.145886
  14 H :    0.145980
Sum of atomic charges:   -0.0000000

LOEWDIN ATOMIC CHARGES
----------------------
   0 C :   -0.060049
   1 C :   -0.066012
   2 C :   -0.253108
   3 C :   -0.177909
   4 C :   -0.215984
   5 O :    0.177899
   6 C :   -0.200437
   7 C :   -0.230348
   8 O :    0.198147
   9 H :    0.130174
  10 H :    0.148374
  11 H :    0.148026
  12 H :    0.131809
  13 H :    0.136265
  14 H :    0.133153

  Mayer bond orders larger than 0.1
B(  0-C ,  1-C ) :   2.6317 B(  0-C ,  2-C ) :  -0.1816 B(  0-C ,  9-H ) :   0.8647
B(  1-C ,  2-C ) :   1.1654 B(  2-C ,  3-C ) :   0.9520 B(  2-C ,  6-C ) :   0.7937
B(  2-C ,  8-O ) :   0.9477 B(  3-C ,  4-C ) :   0.9349 B(  3-C , 10-H ) :   0.9138
B(  3-C , 11-H ) :   0.9159 B(  4-C ,  5-O ) :   0.8809 B(  4-C ,  7-C ) :   0.8646
B(  4-C , 12-H ) :   0.9090 B(  5-O ,  6-C ) :   1.0111 B(  6-C ,  7-C ) :   0.9613
B(  6-C , 13-H ) :   0.9076 B(  7-C ,  8-O ) :   0.9861 B(  7-C , 14-H ) :   0.9116

MP2 TOTAL ENERGY:     -419.821753060 Eh
FINAL SINGLE POINT ENERGY      -419.821753059821

DIPOLE MOMENT
-------------
                                X             Y             Z
Electronic contribution:      1.12723      -0.61719       1.30487
Nuclear contribution   :     -1.20064       0.67541      -1.41359
                        -----------------------------------------
Total Dipole Moment    :     -0.07341       0.05822      -0.10872
                        -----------------------------------------
Magnitude (a.u.)       :      0.14352
Magnitude (Debye)      :      0.36481

                             ****ORCA TERMINATED NORMALLY****
TOTAL RUN TIME: 0 days 0 hours 16 minutes 48 seconds 613 msec
