                         Program Version 3.0.3 - RELEASE   -
|  1> ! RI-MP2 RIJK def2-TZVP def2-TZVP/C def2-TZVP/JK TIGHTSCF
|  2> % maxcore 2000
|  3> % mp2 density relaxed end
|  4> *xyz 0 1
|  5>  C        0.1404060061     1.4816351278    -0.1043276674
|  6>  C       -0.0346450486    -0.0037206503     0.0912598855
|  7>  C       -0.7572999353    -0.7906607042    -1.0958466582
|  8>  C       -0.7938162595    -2.3752633629    -1.0306509700
|  9>  C       -0.8285320946    -2.0911439751     0.4620254827
| 10>  C        0.3157717147    -2.0987405567     1.1861013856
| 11>  C        0.8856880594    -0.7143885137     1.0744985051
| 12>  O        1.9341901934    -0.2867992376     1.4962975447
| 13>  C       -1.3752182644    -0.6815478703     0.2523069750
| 14>  H        1.1025813329     1.6901470076    -0.5818994248
| 15>  H       -0.6526830668     1.9102532428    -0.7234360835
| 16>  H        0.1392935901     1.9967860748     0.8612233385
| 17>  H       -1.0065659049    -0.2323052644    -1.9947328681
| 18>  H       -1.7330731121    -2.6911788537    -1.4966006810
| 19>  H        0.0447135229    -2.9667275993    -1.4066009509
| 20>  H        1.0019568426    -2.9380546908     1.2429223018
| 21>  H       -2.2934254456    -0.2320040540     0.6056678849
| 22> *
| 23>
| 24>                          ****END OF INPUT****

CARTESIAN COORDINATES (ANGSTROEM)
---------------------------------
  C      0.140406    1.481635   -0.104328
  C     -0.034645   -0.003721    0.091260
  C     -0.757300   -0.790661   -1.095847
  C     -0.793816   -2.375263   -1.030651
  C     -0.828532   -2.091144    0.462025
  C      0.315772   -2.098741    1.186101
  C      0.885688   -0.714389    1.074499
  O      1.934190   -0.286799    1.496298
  C     -1.375218   -0.681548    0.252307
  H      1.102581    1.690147   -0.581899
  H     -0.652683    1.910253   -0.723436
  H      0.139294    1.996786    0.861223
  H     -1.006566   -0.232305   -1.994733
  H     -1.733073   -2.691179   -1.496601
  H      0.044714   -2.966728   -1.406601
  H      1.001957   -2.938055    1.242922
  H     -2.293425   -0.232004    0.605668

 Total Charge           Charge          ....    0
 Multiplicity           Mult            ....    1
 Number of Electrons    NEL             ....   64
 Basis Dimension        Dim             ....  327

ORBITAL ENERGIES
----------------

  NO   OCC          E(Eh)            E(eV)
   0   2.0000     -20.533433      -558.7431
   1   2.0000     -11.332027      -308.3601
   2   2.0000     -11.280437      -306.9563
   3   2.0000     -11.277008      -306.8630
   4   2.0000     -11.276295      -306.8436
   5   2.0000     -11.270142      -306.6762
   6   2.0000     -11.255682      -306.2827
   7   2.0000     -11.239496      -305.8422
   8   2.0000     -11.227528      -305.5166
   9   2.0000      -1.378664       -37.5154
  10   2.0000      -1.250400       -34.0251
  11   2.0000      -1.058081       -28.7919
  12   2.0000      -1.029364       -28.0104
  13   2.0000      -0.950703       -25.8699
  14   2.0000      -0.863781       -23.5047
  15   2.0000      -0.820904       -22.3379
  16   2.0000      -0.752840       -20.4858
  17   2.0000      -0.719688       -19.5837
  18   2.0000      -0.676643       -18.4124
  19   2.0000      -0.649329       -17.6691
  20   2.0000      -0.622379       -16.9358
  21   2.0000      -0.606675       -16.5085
  22   2.0000      -0.582921       -15.8621
  23   2.0000      -0.566505       -15.4154
  24   2.0000      -0.550120       -14.9695
  25   2.0000      -0.523827       -14.2541
  26   2.0000      -0.507287       -13.8040
  27   2.0000      -0.500797       -13.6274
  28   2.0000      -0.450414       -12.2564
  29   2.0000      -0.412496       -11.2246
  30   2.0000      -0.389819       -10.6075
  31   2.0000      -0.340323        -9.2607
  32   0.0000       0.057245         1.5577
  33   0.0000       0.137118         3.7312
  34   0.0000       0.147316         4.0087
  35   0.0000       0.160617         4.3706
  36   0.0000       0.169710         4.6181

MULLIKEN ATOMIC CHARGES
-----------------------
   0 C :   -0.438278
   1 C :    0.039907
   2 C :   -0.167175
   3 C :   -0.198111
   4 C :    0.102791
   5 C :   -0.228852
   6 C :    0.177298
   7 O :   -0.288673
   8 C :   -0.138914
   9 H :    0.150905
  10 H :    0.135023
  11 H :    0.148368
  12 H :    0.141292
  13 H :    0.131937
  14 H :    0.128832
  15 H :    0.140246
  16 H :    0.163407
Sum of atomic charges:   -0.0000000

LOEWDIN ATOMIC CHARGES
----------------------
   0 C :   -0.259035
   1 C :   -0.159776
   2 C :   -0.107878
   3 C :   -0.152191
   4 C :   -0.100050
   5 C :   -0.076941
   6 C :   -0.298506
   7 O :    0.142373
   8 C :   -0.104989
   9 H :    0.137457
  10 H :    0.129514
  11 H :    0.136146
  12 H :    0.142167
  13 H :    0.145880
  14 H :    0.131301
  15 H :    0.147620
  16 H :    0.146908

  Mayer bond orders larger than 0.1
B(  0-C ,  1-C ) :   0.8962 B(  0-C ,  9-H ) :   0.9315 B(  0-C , 10-H ) :   0.9392
B(  0-C , 11-H ) :   0.9328 B(  1-C ,  2-C ) :   0.8086 B(  1-C ,  6-C ) :   0.9096
B(  1-C ,  8-C ) :   0.8136 B(  2-C ,  3-C ) :   0.8771 B(  2-C ,  8-C ) :   0.8714
B(  2-C , 12-H ) :   0.9078 B(  3-C ,  4-C ) :   0.9324 B(  3-C , 13-H ) :   0.9043
B(  3-C , 14-H ) :   0.9197 B(  4-C ,  5-C ) :   1.5584 B(  4-C ,  8-C ) :   0.8991
B(  5-C ,  6-C ) :   1.0234 B(  5-C , 15-H ) :   0.9294 B(  6-C ,  7-O ) :   1.9689
B(  8-C , 16-H ) :   0.8855

MP2 TOTAL ENERGY:     -383.933232590 Eh
FINAL SINGLE POINT ENERGY      -383.933232589751

DIPOLE MOMENT
-------------
                                X             Y             Z
Electronic contribution:      1.94680      -2.89408       4.14497
Nuclear contribution   :     -3.04103       2.72065      -5.16129
                        -----------------------------------------
Total Dipole Moment    :     -1.09423      -0.17342      -1.01632
                        -----------------------------------------
Magnitude (a.u.)       :      1.50344
Magnitude (Debye)      :      3.82144

                             ****ORCA TERMINATED NORMALLY****
TOTAL RUN TIME: 0 days 0 hours 20 minutes 32 seconds 80 msec
