                         Program Version 3.0.3 - RELEASE   -
|  1> ! RI-MP2 RIJK def2-TZVP def2-TZVP/C def2-TZVP/JK TIGHTSCF
|  2> % maxcore 2000
|  3> % mp2 density relaxed end
|  4> *xyz 0 1
|  5>  O       -0.9224925273     0.8428472138     0.4328044908
|  6>  C        0.1598217308     0.6474090297    -0.0534971416
|  7>  C        1.2448916226     1.7071997546    -0.1012013140
|  8>  N        2.4858140278     1.3407737836    -0.7956080010
|  9>  C        2.4094372096     2.4909420912    -1.7400235207
| 10>  C        1.0117670640     2.8106258523    -1.2124008604
| 11>  O        0.1114073928     3.5282470475    -1.4926822596
| 12>  C        1.4273238877     2.3534090319     1.2649861128
| 13>  O        2.5168532934     2.6027895995     1.7114484727
| 14>  H        0.4616478343    -0.3103465289    -0.5256842656
| 15>  H        3.2791227342     1.4137668782    -0.1633041593
| 16>  H        3.1168750290     3.3072739250    -1.5463436725
| 17>  H        2.4590154141     2.2182264042    -2.7993782005
| 18>  H        0.4838695167     2.5615362076     1.8016092791
| 19> *
| 20>
| 21>                          ****END OF INPUT****

CARTESIAN COORDINATES (ANGSTROEM)
---------------------------------
  O     -0.922493    0.842847    0.432804
  C      0.159822    0.647409   -0.053497
  C      1.244892    1.707200   -0.101201
  N      2.485814    1.340774   -0.795608
  C      2.409437    2.490942   -1.740024
  C      1.011767    2.810626   -1.212401
  O      0.111407    3.528247   -1.492682
  C      1.427324    2.353409    1.264986
  O      2.516853    2.602790    1.711448
  H      0.461648   -0.310347   -0.525684
  H      3.279123    1.413767   -0.163304
  H      3.116875    3.307274   -1.546344
  H      2.459015    2.218226   -2.799378
  H      0.483870    2.561536    1.801609

 Total Charge           Charge          ....    0
 Multiplicity           Mult            ....    1
 Number of Electrons    NEL             ....   66
 Basis Dimension        Dim             ....  309

ORBITAL ENERGIES
----------------

  NO   OCC          E(Eh)            E(eV)
   0   2.0000     -20.599701      -560.5464
   1   2.0000     -20.594545      -560.4061
   2   2.0000     -20.588326      -560.2368
   3   2.0000     -15.591288      -424.2605
   4   2.0000     -11.380237      -309.6720
   5   2.0000     -11.368464      -309.3516
   6   2.0000     -11.362780      -309.1970
   7   2.0000     -11.315809      -307.9188
   8   2.0000     -11.301563      -307.5312
   9   2.0000      -1.448056       -39.4036
  10   2.0000      -1.435063       -39.0500
  11   2.0000      -1.426823       -38.8258
  12   2.0000      -1.285952       -34.9925
  13   2.0000      -1.042521       -28.3684
  14   2.0000      -0.981879       -26.7183
  15   2.0000      -0.885515       -24.0961
  16   2.0000      -0.845421       -23.0051
  17   2.0000      -0.750650       -20.4262
  18   2.0000      -0.734904       -19.9978
  19   2.0000      -0.723824       -19.6963
  20   2.0000      -0.693059       -18.8591
  21   2.0000      -0.673897       -18.3377
  22   2.0000      -0.667919       -18.1750
  23   2.0000      -0.641937       -17.4680
  24   2.0000      -0.595902       -16.2153
  25   2.0000      -0.585683       -15.9372
  26   2.0000      -0.569775       -15.5044
  27   2.0000      -0.553625       -15.0649
  28   2.0000      -0.549220       -14.9450
  29   2.0000      -0.491982       -13.3875
  30   2.0000      -0.462886       -12.5958
  31   2.0000      -0.426767       -11.6129
  32   2.0000      -0.419088       -11.4040
  33   0.0000       0.080454         2.1893
  34   0.0000       0.081140         2.2079
  35   0.0000       0.133785         3.6405
  36   0.0000       0.146089         3.9753
  37   0.0000       0.167251         4.5511

MULLIKEN ATOMIC CHARGES
-----------------------
   0 O :   -0.253890
   1 C :    0.075220
   2 C :    0.150216
   3 N :   -0.335500
   4 C :   -0.152535
   5 C :    0.124812
   6 O :   -0.196797
   7 C :    0.067957
   8 O :   -0.268825
   9 H :    0.120631
  10 H :    0.235013
  11 H :    0.151353
  12 H :    0.146439
  13 H :    0.135904
Sum of atomic charges:    0.0000000

LOEWDIN ATOMIC CHARGES
----------------------
   0 O :    0.158179
   1 C :   -0.250251
   2 C :   -0.293424
   3 N :    0.037607
   4 C :   -0.224954
   5 C :   -0.261697
   6 O :    0.214970
   7 C :   -0.240151
   8 O :    0.146994
   9 H :    0.124072
  10 H :    0.171364
  11 H :    0.143270
  12 H :    0.139188
  13 H :    0.134835

  Mayer bond orders larger than 0.1
B(  0-O ,  1-C ) :   1.9742 B(  1-C ,  2-C ) :   0.8200 B(  1-C ,  9-H ) :   0.9290
B(  2-C ,  3-N ) :   1.0396 B(  2-C ,  5-C ) :   0.7466 B(  2-C ,  7-C ) :   0.8607
B(  3-N ,  4-C ) :   0.9616 B(  3-N , 10-H ) :   0.8615 B(  4-C ,  5-C ) :   0.9225
B(  4-C , 11-H ) :   0.8994 B(  4-C , 12-H ) :   0.9013 B(  5-C ,  6-O ) :   2.0802
B(  7-C ,  8-O ) :   1.9425 B(  7-C , 13-H ) :   0.9230

MP2 TOTAL ENERGY:     -473.062751857 Eh
FINAL SINGLE POINT ENERGY      -473.062751856895

DIPOLE MOMENT
-------------
                                X             Y             Z
Electronic contribution:     -2.86354       0.78633       1.61050
Nuclear contribution   :      3.74690      -0.95933      -2.05427
                        -----------------------------------------
Total Dipole Moment    :      0.88336      -0.17300      -0.44377
                        -----------------------------------------
Magnitude (a.u.)       :      1.00359
Magnitude (Debye)      :      2.55092

                             ****ORCA TERMINATED NORMALLY****
TOTAL RUN TIME: 0 days 0 hours 13 minutes 49 seconds 659 msec
