                         Program Version 3.0.3 - RELEASE   -
|  1> ! RI-MP2 RIJK def2-TZVP def2-TZVP/C def2-TZVP/JK TIGHTSCF
|  2> % maxcore 2000
|  3> % mp2 density relaxed end
|  4> *xyz 0 1
|  5>  C       -0.1211385555     1.5531548886    -0.0855940656
|  6>  C        0.0065786765     0.0429723274     0.0516254869
|  7>  C        1.0006659520    -0.6676600059    -0.8779376360
|  8>  O        2.3166153747    -0.2008542581    -0.5415694938
|  9>  C        1.7420617803    -1.2433900023     0.2519408784
| 10>  C        0.8017765092    -0.5865701108     1.2856431797
| 11>  C        1.4623954882     0.3684512226     2.2734704825
| 12>  C       -0.0466439088    -1.6363092387     1.9928456091
| 13>  O       -1.1303384817    -0.9747604951     2.6312593266
| 14>  H        0.8615756386     2.0297443834    -0.1230611421
| 15>  H       -0.6563601288     1.8112418501    -1.0063695292
| 16>  H       -0.6810048108     1.9770276286     0.7536603402
| 17>  H       -0.9815340109    -0.4234677837    -0.0044021879
| 18>  H        0.8578389661    -1.0358951218    -1.8880698065
| 19>  H        2.3056102431    -2.1673047666     0.3365618583
| 20>  H        2.1158958663     1.0729274586     1.7553885047
| 21>  H        0.7099025971     0.9277308322     2.8355594375
| 22>  H        2.0710288722    -0.1888958793     2.9956332351
| 23>  H       -0.4102496067    -2.3753004013     1.2595265175
| 24>  H        0.5737168782    -2.1786828919     2.7257085149
| 25>  H       -1.6608038392    -1.6343195060     3.0873245400
| 26> *
| 27>
| 28>                          ****END OF INPUT****

CARTESIAN COORDINATES (ANGSTROEM)
---------------------------------
  C     -0.121139    1.553155   -0.085594
  C      0.006579    0.042972    0.051625
  C      1.000666   -0.667660   -0.877938
  O      2.316615   -0.200854   -0.541569
  C      1.742062   -1.243390    0.251941
  C      0.801777   -0.586570    1.285643
  C      1.462395    0.368451    2.273470
  C     -0.046644   -1.636309    1.992846
  O     -1.130338   -0.974760    2.631259
  H      0.861576    2.029744   -0.123061
  H     -0.656360    1.811242   -1.006370
  H     -0.681005    1.977028    0.753660
  H     -0.981534   -0.423468   -0.004402
  H      0.857839   -1.035895   -1.888070
  H      2.305610   -2.167305    0.336562
  H      2.115896    1.072927    1.755389
  H      0.709903    0.927731    2.835559
  H      2.071029   -0.188896    2.995633
  H     -0.410250   -2.375300    1.259527
  H      0.573717   -2.178683    2.725709
  H     -1.660804   -1.634320    3.087325

 Total Charge           Charge          ....    0
 Multiplicity           Mult            ....    1
 Number of Electrons    NEL             ....   70
 Basis Dimension        Dim             ....  351

ORBITAL ENERGIES
----------------

  NO   OCC          E(Eh)            E(eV)
   0   2.0000     -20.563078      -559.5498
   1   2.0000     -20.562245      -559.5271
   2   2.0000     -11.281777      -306.9928
   3   2.0000     -11.280536      -306.9590
   4   2.0000     -11.279238      -306.9237
   5   2.0000     -11.240782      -305.8772
   6   2.0000     -11.232532      -305.6527
   7   2.0000     -11.206766      -304.9516
   8   2.0000     -11.204761      -304.8970
   9   2.0000      -1.413428       -38.4613
  10   2.0000      -1.366459       -37.1832
  11   2.0000      -1.110777       -30.2258
  12   2.0000      -1.004737       -27.3403
  13   2.0000      -0.949077       -25.8257
  14   2.0000      -0.915330       -24.9074
  15   2.0000      -0.851903       -23.1815
  16   2.0000      -0.813303       -22.1311
  17   2.0000      -0.721879       -19.6433
  18   2.0000      -0.713008       -19.4019
  19   2.0000      -0.686642       -18.6845
  20   2.0000      -0.643230       -17.5032
  21   2.0000      -0.624030       -16.9807
  22   2.0000      -0.597932       -16.2706
  23   2.0000      -0.576243       -15.6804
  24   2.0000      -0.560653       -15.2562
  25   2.0000      -0.542807       -14.7705
  26   2.0000      -0.536967       -14.6116
  27   2.0000      -0.525804       -14.3078
  28   2.0000      -0.520140       -14.1537
  29   2.0000      -0.479115       -13.0374
  30   2.0000      -0.467562       -12.7230
  31   2.0000      -0.452847       -12.3226
  32   2.0000      -0.445534       -12.1236
  33   2.0000      -0.413585       -11.2542
  34   2.0000      -0.395538       -10.7631
  35   0.0000       0.127518         3.4700
  36   0.0000       0.157551         4.2872
  37   0.0000       0.159462         4.3392
  38   0.0000       0.166515         4.5311
  39   0.0000       0.192403         5.2355

MULLIKEN ATOMIC CHARGES
-----------------------
   0 C :   -0.448862
   1 C :   -0.048395
   2 C :   -0.043800
   3 O :   -0.335167
   4 C :   -0.049894
   5 C :    0.231584
   6 C :   -0.452313
   7 C :   -0.134630
   8 O :   -0.470252
   9 H :    0.146391
  10 H :    0.130000
  11 H :    0.139116
  12 H :    0.115629
  13 H :    0.130798
  14 H :    0.134219
  15 H :    0.152856
  16 H :    0.150369
  17 H :    0.122319
  18 H :    0.109257
  19 H :    0.103989
  20 H :    0.316786
Sum of atomic charges:    0.0000000

LOEWDIN ATOMIC CHARGES
----------------------
   0 C :   -0.292463
   1 C :   -0.192772
   2 C :   -0.220690
   3 O :    0.175320
   4 C :   -0.211657
   5 C :   -0.245314
   6 C :   -0.267056
   7 C :   -0.309722
   8 O :   -0.039347
   9 H :    0.128395
  10 H :    0.124873
  11 H :    0.127856
  12 H :    0.156937
  13 H :    0.128638
  14 H :    0.131132
  15 H :    0.131146
  16 H :    0.131757
  17 H :    0.126648
  18 H :    0.122430
  19 H :    0.120642
  20 H :    0.173248

  Mayer bond orders larger than 0.1
B(  0-C ,  1-C ) :   0.8808 B(  0-C ,  9-H ) :   0.9407 B(  0-C , 10-H ) :   0.9336
B(  0-C , 11-H ) :   0.9393 B(  1-C ,  2-C ) :   0.8988 B(  1-C ,  5-C ) :   0.9176
B(  1-C , 12-H ) :   0.9046 B(  2-C ,  3-O ) :   0.9092 B(  2-C ,  4-C ) :   0.9068
B(  2-C , 13-H ) :   0.9326 B(  3-O ,  4-C ) :   0.9136 B(  4-C ,  5-C ) :   0.8506
B(  4-C , 14-H ) :   0.9240 B(  5-C ,  6-C ) :   0.8865 B(  5-C ,  7-C ) :   0.8818
B(  6-C , 15-H ) :   0.9404 B(  6-C , 16-H ) :   0.9365 B(  6-C , 17-H ) :   0.9307
B(  7-C ,  8-O ) :   1.0341 B(  7-C , 18-H ) :   0.9258 B(  7-C , 19-H ) :   0.9266
B(  8-O , 20-H ) :   0.8471

MP2 TOTAL ENERGY:     -423.485359272 Eh
FINAL SINGLE POINT ENERGY      -423.485359272349

DIPOLE MOMENT
-------------
                                X             Y             Z
Electronic contribution:      1.85273      -3.02304      -2.46445
Nuclear contribution   :     -2.44285       2.07762       2.72267
                        -----------------------------------------
Total Dipole Moment    :     -0.59012      -0.94542       0.25822
                        -----------------------------------------
Magnitude (a.u.)       :      1.14400
Magnitude (Debye)      :      2.90782

                             ****ORCA TERMINATED NORMALLY****
TOTAL RUN TIME: 0 days 0 hours 18 minutes 36 seconds 182 msec
