                         Program Version 3.0.3 - RELEASE   -
|  1> ! RI-MP2 RIJK def2-TZVP def2-TZVP/C def2-TZVP/JK TIGHTSCF
|  2> % maxcore 2000
|  3> % mp2 density relaxed end
|  4> *xyz 0 1
|  5>  C       -0.1909351324     1.5347879573    -0.0326182563
|  6>  C        0.0306521791     0.0317698465     0.0239288715
|  7>  O        0.8398756831    -0.4003561718    -1.0881325259
|  8>  C        1.9157097627    -1.2018370226    -0.5176343453
|  9>  C        1.2128802929    -1.8997757786     0.6536038553
| 10>  C        0.8058236017    -0.5314152417     1.2638154615
| 11>  C        2.1574189318     0.1602053950     1.2956526446
| 12>  C        2.8460851380    -0.2364611184     0.2158036178
| 13>  C        4.1615340055     0.2290809210    -0.3104915147
| 14>  H        0.7551961769     2.0751465277     0.0514148637
| 15>  H       -0.6563533493     1.8084853412    -0.9841004638
| 16>  H       -0.8563216684     1.8566333354     0.7763028807
| 17>  H       -0.9415074186    -0.4795626302    -0.0395108810
| 18>  H        2.3440034922    -1.8056181802    -1.3176729362
| 19>  H        0.3692158388    -2.5194751365     0.3353485366
| 20>  H        1.8863820926    -2.4690336593     1.2959275016
| 21>  H        0.2254858687    -0.5360119133     2.1864427100
| 22>  H        2.4475559791     0.9239451013     2.0072513999
| 23>  H        4.6306474285     0.9540375167     0.3609353408
| 24>  H        4.8586368736    -0.6069279183    -0.4502948190
| 25>  H        4.0412956336     0.7035286589    -1.2927256218
| 26> *
| 27>
| 28>                          ****END OF INPUT****

CARTESIAN COORDINATES (ANGSTROEM)
---------------------------------
  C     -0.190935    1.534788   -0.032618
  C      0.030652    0.031770    0.023929
  O      0.839876   -0.400356   -1.088133
  C      1.915710   -1.201837   -0.517634
  C      1.212880   -1.899776    0.653604
  C      0.805824   -0.531415    1.263815
  C      2.157419    0.160205    1.295653
  C      2.846085   -0.236461    0.215804
  C      4.161534    0.229081   -0.310492
  H      0.755196    2.075147    0.051415
  H     -0.656353    1.808485   -0.984100
  H     -0.856322    1.856633    0.776303
  H     -0.941507   -0.479563   -0.039511
  H      2.344003   -1.805618   -1.317673
  H      0.369216   -2.519475    0.335349
  H      1.886382   -2.469034    1.295928
  H      0.225486   -0.536012    2.186443
  H      2.447556    0.923945    2.007251
  H      4.630647    0.954038    0.360935
  H      4.858637   -0.606928   -0.450295
  H      4.041296    0.703529   -1.292726

 Total Charge           Charge          ....    0
 Multiplicity           Mult            ....    1
 Number of Electrons    NEL             ....   68
 Basis Dimension        Dim             ....  351

ORBITAL ENERGIES
----------------

  NO   OCC          E(Eh)            E(eV)
   0   2.0000     -20.540319      -558.9305
   1   2.0000     -11.277595      -306.8790
   2   2.0000     -11.272727      -306.7465
   3   2.0000     -11.234420      -305.7041
   4   2.0000     -11.228159      -305.5337
   5   2.0000     -11.223983      -305.4201
   6   2.0000     -11.222716      -305.3856
   7   2.0000     -11.218003      -305.2574
   8   2.0000     -11.207124      -304.9613
   9   2.0000      -1.364526       -37.1306
  10   2.0000      -1.132332       -30.8123
  11   2.0000      -1.038446       -28.2576
  12   2.0000      -1.005502       -27.3611
  13   2.0000      -0.932054       -25.3625
  14   2.0000      -0.907893       -24.7050
  15   2.0000      -0.798075       -21.7167
  16   2.0000      -0.784562       -21.3490
  17   2.0000      -0.710624       -19.3371
  18   2.0000      -0.678079       -18.4515
  19   2.0000      -0.650730       -17.7073
  20   2.0000      -0.620273       -16.8785
  21   2.0000      -0.585915       -15.9436
  22   2.0000      -0.572813       -15.5870
  23   2.0000      -0.563217       -15.3259
  24   2.0000      -0.544372       -14.8131
  25   2.0000      -0.543273       -14.7832
  26   2.0000      -0.513045       -13.9607
  27   2.0000      -0.508185       -13.8284
  28   2.0000      -0.490537       -13.3482
  29   2.0000      -0.489066       -13.3082
  30   2.0000      -0.474613       -12.9149
  31   2.0000      -0.445559       -12.1243
  32   2.0000      -0.393709       -10.7134
  33   2.0000      -0.337687        -9.1889
  34   0.0000       0.135834         3.6962
  35   0.0000       0.148179         4.0322
  36   0.0000       0.154422         4.2020
  37   0.0000       0.165964         4.5161
  38   0.0000       0.188769         5.1367

MULLIKEN ATOMIC CHARGES
-----------------------
   0 C :   -0.413894
   1 C :    0.071782
   2 O :   -0.327685
   3 C :    0.121153
   4 C :   -0.257729
   5 C :    0.007832
   6 C :   -0.263326
   7 C :   -0.013001
   8 C :   -0.460487
   9 H :    0.135915
  10 H :    0.139266
  11 H :    0.119056
  12 H :    0.085621
  13 H :    0.122664
  14 H :    0.121451
  15 H :    0.121939
  16 H :    0.132505
  17 H :    0.128482
  18 H :    0.138128
  19 H :    0.139668
  20 H :    0.150660
Sum of atomic charges:    0.0000000

LOEWDIN ATOMIC CHARGES
----------------------
   0 C :   -0.295321
   1 C :   -0.296946
   2 O :    0.170664
   3 C :   -0.238282
   4 C :   -0.197099
   5 C :   -0.200296
   6 C :   -0.114213
   7 C :   -0.161703
   8 C :   -0.277540
   9 H :    0.126410
  10 H :    0.127429
  11 H :    0.124719
  12 H :    0.137674
  13 H :    0.138916
  14 H :    0.136477
  15 H :    0.140614
  16 H :    0.144489
  17 H :    0.136027
  18 H :    0.130774
  19 H :    0.131043
  20 H :    0.136161

  Mayer bond orders larger than 0.1
B(  0-C ,  1-C ) :   0.9029 B(  0-C ,  9-H ) :   0.9374 B(  0-C , 10-H ) :   0.9386
B(  0-C , 11-H ) :   0.9327 B(  1-C ,  2-O ) :   0.9271 B(  1-C ,  5-C ) :   0.8930
B(  1-C , 12-H ) :   0.9208 B(  2-O ,  3-C ) :   0.8813 B(  3-C ,  4-C ) :   0.9716
B(  3-C ,  7-C ) :   0.9032 B(  3-C , 13-H ) :   0.9234 B(  4-C ,  5-C ) :   0.9171
B(  4-C , 14-H ) :   0.9280 B(  4-C , 15-H ) :   0.9156 B(  5-C ,  6-C ) :   0.9196
B(  5-C , 16-H ) :   0.9141 B(  6-C ,  7-C ) :   1.7513 B(  6-C , 17-H ) :   0.9344
B(  7-C ,  8-C ) :   0.8894 B(  8-C , 18-H ) :   0.9528 B(  8-C , 19-H ) :   0.9349
B(  8-C , 20-H ) :   0.9294

MP2 TOTAL ENERGY:     -386.426722836 Eh
FINAL SINGLE POINT ENERGY      -386.426722836400

DIPOLE MOMENT
-------------
                                X             Y             Z
Electronic contribution:     -0.70204      -2.65449      -0.72045
Nuclear contribution   :      0.85989       2.58170       1.21825
                        -----------------------------------------
Total Dipole Moment    :      0.15785      -0.07279       0.49780
                        -----------------------------------------
Magnitude (a.u.)       :      0.52727
Magnitude (Debye)      :      1.34022

                             ****ORCA TERMINATED NORMALLY****
TOTAL RUN TIME: 0 days 0 hours 21 minutes 43 seconds 121 msec
