                         Program Version 3.0.3 - RELEASE   -
|  1> ! RI-MP2 RIJK def2-TZVP def2-TZVP/C def2-TZVP/JK TIGHTSCF
|  2> % maxcore 2000
|  3> % mp2 density relaxed end
|  4> *xyz 0 1
|  5>  C        1.1999921764     0.5887753900     1.0574877818
|  6>  C        0.1488528263     0.5204452686    -0.0513071940
|  7>  O       -0.2021321273     1.8277270451    -0.5128045157
|  8>  C        0.6596652529    -0.2304870003    -1.2741746917
|  9>  C        1.0437581341    -1.7084961170    -1.1280834713
| 10>  C       -0.1614850189    -2.5731249594    -0.8690252568
| 11>  C        0.0979949930    -2.0922350193    -2.2680009549
| 12>  C       -0.3260721395    -0.6238990586    -2.4457158128
| 13>  C       -1.8073229183    -0.2690208293    -2.3688520290
| 14>  H        1.4668925082    -0.4135221709     1.4071760268
| 15>  H        2.1049942922     1.0870357565     0.6946621365
| 16>  H        0.8233187476     1.1523369360     1.9191963904
| 17>  H       -0.7468513651     0.0161339251     0.3435486440
| 18>  H       -0.5500684794     2.3224938371     0.2357554651
| 19>  H        1.4925931727     0.3507692698    -1.6828754698
| 20>  H        2.0468281061    -2.0703692221    -0.9348461968
| 21>  H        0.0605780493    -3.6216598508    -0.6965554374
| 22>  H       -1.0085780356    -2.2091229442    -0.2944224681
| 23>  H        0.2722495465    -2.7899513216    -3.0788054939
| 24>  H        0.0804024118    -0.2301437556    -3.3819328527
| 25>  H       -2.2919561988    -0.7041173548    -1.4889428962
| 26>  H       -1.9399272282     0.8151138018    -2.3187580525
| 27>  H       -2.3372706759    -0.6448095662    -3.2512202510
| 28> *
| 29>
| 30>                          ****END OF INPUT****

CARTESIAN COORDINATES (ANGSTROEM)
---------------------------------
  C      1.199992    0.588775    1.057488
  C      0.148853    0.520445   -0.051307
  O     -0.202132    1.827727   -0.512805
  C      0.659665   -0.230487   -1.274175
  C      1.043758   -1.708496   -1.128083
  C     -0.161485   -2.573125   -0.869025
  C      0.097995   -2.092235   -2.268001
  C     -0.326072   -0.623899   -2.445716
  C     -1.807323   -0.269021   -2.368852
  H      1.466893   -0.413522    1.407176
  H      2.104994    1.087036    0.694662
  H      0.823319    1.152337    1.919196
  H     -0.746851    0.016134    0.343549
  H     -0.550068    2.322494    0.235755
  H      1.492593    0.350769   -1.682875
  H      2.046828   -2.070369   -0.934846
  H      0.060578   -3.621660   -0.696555
  H     -1.008578   -2.209123   -0.294422
  H      0.272250   -2.789951   -3.078805
  H      0.080402   -0.230144   -3.381933
  H     -2.291956   -0.704117   -1.488943
  H     -1.939927    0.815114   -2.318758
  H     -2.337271   -0.644810   -3.251220

 Total Charge           Charge          ....    0
 Multiplicity           Mult            ....    1
 Number of Electrons    NEL             ....   70
 Basis Dimension        Dim             ....  363

ORBITAL ENERGIES
----------------

  NO   OCC          E(Eh)            E(eV)
   0   2.0000     -20.549219      -559.1727
   1   2.0000     -11.273762      -306.7747
   2   2.0000     -11.226365      -305.4849
   3   2.0000     -11.224472      -305.4334
   4   2.0000     -11.223852      -305.4165
   5   2.0000     -11.222808      -305.3881
   6   2.0000     -11.221860      -305.3623
   7   2.0000     -11.214865      -305.1720
   8   2.0000     -11.200825      -304.7900
   9   2.0000      -1.354588       -36.8602
  10   2.0000      -1.184466       -32.2310
  11   2.0000      -1.031797       -28.0766
  12   2.0000      -1.002885       -27.2899
  13   2.0000      -0.932854       -25.3843
  14   2.0000      -0.865564       -23.5532
  15   2.0000      -0.819581       -22.3019
  16   2.0000      -0.768869       -20.9220
  17   2.0000      -0.717515       -19.5246
  18   2.0000      -0.694016       -18.8851
  19   2.0000      -0.667358       -18.1597
  20   2.0000      -0.618467       -16.8293
  21   2.0000      -0.606110       -16.4931
  22   2.0000      -0.598232       -16.2787
  23   2.0000      -0.565121       -15.3777
  24   2.0000      -0.542979       -14.7752
  25   2.0000      -0.536838       -14.6081
  26   2.0000      -0.531186       -14.4543
  27   2.0000      -0.520655       -14.1677
  28   2.0000      -0.504683       -13.7331
  29   2.0000      -0.479476       -13.0472
  30   2.0000      -0.450517       -12.2592
  31   2.0000      -0.443194       -12.0599
  32   2.0000      -0.418970       -11.4008
  33   2.0000      -0.400737       -10.9046
  34   2.0000      -0.370292       -10.0762
  35   0.0000       0.133091         3.6216
  36   0.0000       0.151332         4.1179
  37   0.0000       0.156690         4.2638
  38   0.0000       0.166590         4.5332
  39   0.0000       0.184782         5.0282

MULLIKEN ATOMIC CHARGES
-----------------------
   0 C :   -0.422356
   1 C :    0.085252
   2 O :   -0.471628
   3 C :   -0.061281
   4 C :   -0.148328
   5 C :   -0.293105
   6 C :   -0.102544
   7 C :   -0.045805
   8 C :   -0.399036
   9 H :    0.135983
  10 H :    0.134594
  11 H :    0.121771
  12 H :    0.066087
  13 H :    0.310258
  14 H :    0.100976
  15 H :    0.127841
  16 H :    0.128606
  17 H :    0.128137
  18 H :    0.124456
  19 H :    0.097908
  20 H :    0.106654
  21 H :    0.146860
  22 H :    0.128703
Sum of atomic charges:   -0.0000000

LOEWDIN ATOMIC CHARGES
----------------------
   0 C :   -0.300307
   1 C :   -0.354684
   2 O :   -0.021876
   3 C :   -0.174132
   4 C :   -0.164924
   5 C :   -0.211235
   6 C :   -0.163115
   7 C :   -0.203105
   8 C :   -0.296588
   9 H :    0.129008
  10 H :    0.126285
  11 H :    0.118756
  12 H :    0.132494
  13 H :    0.170950
  14 H :    0.158046
  15 H :    0.133442
  16 H :    0.139168
  17 H :    0.126146
  18 H :    0.133227
  19 H :    0.152453
  20 H :    0.118748
  21 H :    0.127906
  22 H :    0.123337

  Mayer bond orders larger than 0.1
B(  0-C ,  1-C ) :   0.9173 B(  0-C ,  9-H ) :   0.9331 B(  0-C , 10-H ) :   0.9381
B(  0-C , 11-H ) :   0.9342 B(  1-C ,  2-O ) :   0.9666 B(  1-C ,  3-C ) :   0.9088
B(  1-C , 12-H ) :   0.9240 B(  2-O , 13-H ) :   0.8471 B(  3-C ,  4-C ) :   0.9322
B(  3-C ,  7-C ) :   0.9797 B(  3-C , 14-H ) :   0.9166 B(  4-C ,  5-C ) :   0.8697
B(  4-C ,  6-C ) :   0.8327 B(  4-C , 15-H ) :   0.9270 B(  5-C ,  6-C ) :   0.8799
B(  5-C , 16-H ) :   0.9313 B(  5-C , 17-H ) :   0.9253 B(  6-C ,  7-C ) :   0.9369
B(  6-C , 18-H ) :   0.9281 B(  7-C ,  8-C ) :   0.9125 B(  7-C , 19-H ) :   0.9268
B(  8-C , 20-H ) :   0.9343 B(  8-C , 21-H ) :   0.9362 B(  8-C , 22-H ) :   0.9342

MP2 TOTAL ENERGY:     -387.590593774 Eh
FINAL SINGLE POINT ENERGY      -387.590593774126

DIPOLE MOMENT
-------------
                                X             Y             Z
Electronic contribution:      1.19242       0.64610      -1.62559
Nuclear contribution   :     -1.17543      -0.80718       2.10801
                        -----------------------------------------
Total Dipole Moment    :      0.01699      -0.16108       0.48242
                        -----------------------------------------
Magnitude (a.u.)       :      0.50888
Magnitude (Debye)      :      1.29348

                             ****ORCA TERMINATED NORMALLY****
TOTAL RUN TIME: 0 days 0 hours 22 minutes 47 seconds 5 msec
