                         Program Version 3.0.3 - RELEASE   -
|  1> ! RI-MP2 RIJK def2-TZVP def2-TZVP/C def2-TZVP/JK TIGHTSCF
|  2> % maxcore 2000
|  3> % mp2 density relaxed end
|  4> *xyz 0 1
|  5>  C       -0.4534294664     1.3793087534    -0.1809911298
|  6>  C        0.0748347463    -0.0158602454     0.0881695660
|  7>  O       -0.9385373657    -0.9121297994     0.5167030105
|  8>  C        0.9331030685    -0.7233810820    -1.0310517216
|  9>  C        2.0004965093    -1.1376440845     0.0430425132
| 10>  C        1.3075726145    -0.1828393141     1.0208073369
| 11>  O        1.5843617870     0.2793948869     2.0895251974
| 12>  C        0.3140996195    -1.7660750111    -1.8180131107
| 13>  C       -0.1828623655    -2.6330789542    -2.4856574339
| 14>  H        0.3348100955     2.0412423574    -0.5529248765
| 15>  H       -1.2595323451     1.3384790231    -0.9197159675
| 16>  H       -0.8467738018     1.8193826350     0.7421317183
| 17>  H       -1.2681832992    -0.5915957311     1.3646973399
| 18>  H        1.3489897467     0.0459127350    -1.6898231724
| 19>  H        1.8969393239    -2.1805649677     0.3549456073
| 20>  H        3.0488495505    -0.9330759773    -0.1825942243
| 21>  H       -0.6320252781    -3.4007643239    -3.0655029628
| 22> *
| 23>
| 24>                          ****END OF INPUT****

CARTESIAN COORDINATES (ANGSTROEM)
---------------------------------
  C     -0.453429    1.379309   -0.180991
  C      0.074835   -0.015860    0.088170
  O     -0.938537   -0.912130    0.516703
  C      0.933103   -0.723381   -1.031052
  C      2.000497   -1.137644    0.043043
  C      1.307573   -0.182839    1.020807
  O      1.584362    0.279395    2.089525
  C      0.314100   -1.766075   -1.818013
  C     -0.182862   -2.633079   -2.485657
  H      0.334810    2.041242   -0.552925
  H     -1.259532    1.338479   -0.919716
  H     -0.846774    1.819383    0.742132
  H     -1.268183   -0.591596    1.364697
  H      1.348990    0.045913   -1.689823
  H      1.896939   -2.180565    0.354946
  H      3.048850   -0.933076   -0.182594
  H     -0.632025   -3.400764   -3.065503

 Total Charge           Charge          ....    0
 Multiplicity           Mult            ....    1
 Number of Electrons    NEL             ....   66
 Basis Dimension        Dim             ....  327

ORBITAL ENERGIES
----------------

  NO   OCC          E(Eh)            E(eV)
   0   2.0000     -20.579710      -560.0024
   1   2.0000     -20.568098      -559.6864
   2   2.0000     -11.340637      -308.5944
   3   2.0000     -11.315202      -307.9023
   4   2.0000     -11.275125      -306.8118
   5   2.0000     -11.254308      -306.2453
   6   2.0000     -11.237391      -305.7850
   7   2.0000     -11.236827      -305.7696
   8   2.0000     -11.225919      -305.4728
   9   2.0000      -1.413043       -38.4509
  10   2.0000      -1.385063       -37.6895
  11   2.0000      -1.150316       -31.3017
  12   2.0000      -1.034740       -28.1567
  13   2.0000      -1.009423       -27.4678
  14   2.0000      -0.909116       -24.7383
  15   2.0000      -0.875938       -23.8355
  16   2.0000      -0.755670       -20.5628
  17   2.0000      -0.729136       -19.8408
  18   2.0000      -0.690855       -18.7991
  19   2.0000      -0.678879       -18.4732
  20   2.0000      -0.673415       -18.3246
  21   2.0000      -0.623710       -16.9720
  22   2.0000      -0.605708       -16.4822
  23   2.0000      -0.583900       -15.8887
  24   2.0000      -0.576144       -15.6777
  25   2.0000      -0.557939       -15.1823
  26   2.0000      -0.535360       -14.5679
  27   2.0000      -0.514046       -13.9879
  28   2.0000      -0.508445       -13.8355
  29   2.0000      -0.487678       -13.2704
  30   2.0000      -0.401578       -10.9275
  31   2.0000      -0.389187       -10.5903
  32   2.0000      -0.380739       -10.3604
  33   0.0000       0.119190         3.2433
  34   0.0000       0.121636         3.3099
  35   0.0000       0.152147         4.1401
  36   0.0000       0.160377         4.3641
  37   0.0000       0.163229         4.4417

MULLIKEN ATOMIC CHARGES
-----------------------
   0 C :   -0.430112
   1 C :    0.246401
   2 O :   -0.443439
   3 C :   -0.156944
   4 C :   -0.211051
   5 C :    0.075928
   6 O :   -0.243551
   7 C :   -0.050864
   8 C :   -0.163296
   9 H :    0.131823
  10 H :    0.155595
  11 H :    0.137498
  12 H :    0.325921
  13 H :    0.135498
  14 H :    0.154658
  15 H :    0.144095
  16 H :    0.191840
Sum of atomic charges:    0.0000000

LOEWDIN ATOMIC CHARGES
----------------------
   0 C :   -0.272927
   1 C :   -0.329196
   2 O :    0.038653
   3 C :   -0.172133
   4 C :   -0.163999
   5 C :   -0.279733
   6 O :    0.171052
   7 C :   -0.090125
   8 C :   -0.088979
   9 H :    0.131948
  10 H :    0.135924
  11 H :    0.132368
  12 H :    0.186095
  13 H :    0.172673
  14 H :    0.159809
  15 H :    0.141518
  16 H :    0.127053

  Mayer bond orders larger than 0.1
B(  0-C ,  1-C ) :   0.9355 B(  0-C ,  9-H ) :   0.9255 B(  0-C , 10-H ) :   0.9378
B(  0-C , 11-H ) :   0.9175 B(  1-C ,  2-O ) :   1.0200 B(  1-C ,  3-C ) :   0.8438
B(  1-C ,  4-C ) :  -0.1273 B(  1-C ,  5-C ) :   0.8092 B(  2-O ,  3-C ) :  -0.1688
B(  2-O , 12-H ) :   0.8336 B(  3-C ,  4-C ) :   0.9171 B(  3-C ,  7-C ) :   1.1814
B(  3-C , 13-H ) :   0.9060 B(  4-C ,  5-C ) :   0.9129 B(  4-C , 14-H ) :   0.8901
B(  4-C , 15-H ) :   0.9061 B(  5-C ,  6-O ) :   2.0504 B(  7-C ,  8-C ) :   2.5978
B(  8-C , 16-H ) :   0.8877

MP2 TOTAL ENERGY:     -421.080602537 Eh
FINAL SINGLE POINT ENERGY      -421.080602536795

DIPOLE MOMENT
-------------
                                X             Y             Z
Electronic contribution:      1.12864      -2.44531       2.33704
Nuclear contribution   :     -1.22886       2.67625      -2.77412
                        -----------------------------------------
Total Dipole Moment    :     -0.10023       0.23094      -0.43708
                        -----------------------------------------
Magnitude (a.u.)       :      0.50440
Magnitude (Debye)      :      1.28208

                             ****ORCA TERMINATED NORMALLY****
TOTAL RUN TIME: 0 days 0 hours 18 minutes 27 seconds 488 msec
