                         Program Version 3.0.3 - RELEASE   -
|  1> ! RI-MP2 RIJK def2-TZVP def2-TZVP/C def2-TZVP/JK TIGHTSCF
|  2> % maxcore 2000
|  3> % mp2 density relaxed end
|  4> *xyz 0 1
|  5>  O       -0.0543583519     1.3412616885    -0.0596187418
|  6>  C        0.0221602007    -0.0554200247    -0.0210238065
|  7>  C       -0.4192709846    -0.7330814504     1.2614688317
|  8>  C       -1.3151635527    -0.7304525112     0.0252451923
|  9>  C       -1.3247431496    -2.2512807763    -0.2345222254
| 10>  C       -1.6133073025    -2.8378845545     1.1741275278
| 11>  C       -0.1848057199    -2.2551895075     1.3516881995
| 12>  O        0.0746951093    -2.6288510467    -0.0390224512
| 13>  H        0.7523469320     1.6898315681     0.3336495992
| 14>  H        0.8213188190    -0.5016936017    -0.6059964929
| 15>  H       -0.6334394961    -0.1394850012     2.1413855561
| 16>  H       -2.2180343720    -0.1382079704    -0.0503985983
| 17>  H       -1.7644280710    -2.6367419774    -1.1539239500
| 18>  H       -2.4332053312    -2.4206724564     1.7645634087
| 19>  H       -1.6184500807    -3.9292838886     1.1740207474
| 20>  H        0.5452121510    -2.6473930695     2.0594268834
| 21> *
| 22>
| 23>                          ****END OF INPUT****

CARTESIAN COORDINATES (ANGSTROEM)
---------------------------------
  O     -0.054358    1.341262   -0.059619
  C      0.022160   -0.055420   -0.021024
  C     -0.419271   -0.733081    1.261469
  C     -1.315164   -0.730453    0.025245
  C     -1.324743   -2.251281   -0.234522
  C     -1.613307   -2.837885    1.174128
  C     -0.184806   -2.255190    1.351688
  O      0.074695   -2.628851   -0.039022
  H      0.752347    1.689832    0.333650
  H      0.821319   -0.501694   -0.605996
  H     -0.633439   -0.139485    2.141386
  H     -2.218034   -0.138208   -0.050399
  H     -1.764428   -2.636742   -1.153924
  H     -2.433205   -2.420672    1.764563
  H     -1.618450   -3.929284    1.174021
  H      0.545212   -2.647393    2.059427

 Total Charge           Charge          ....    0
 Multiplicity           Mult            ....    1
 Number of Electrons    NEL             ....   60
 Basis Dimension        Dim             ....  296

ORBITAL ENERGIES
----------------

  NO   OCC          E(Eh)            E(eV)
   0   2.0000     -20.563951      -559.5735
   1   2.0000     -20.551358      -559.2309
   2   2.0000     -11.295312      -307.3611
   3   2.0000     -11.294535      -307.3399
   4   2.0000     -11.285517      -307.0945
   5   2.0000     -11.233654      -305.6833
   6   2.0000     -11.230990      -305.6108
   7   2.0000     -11.230290      -305.5917
   8   2.0000      -1.397110       -38.0173
   9   2.0000      -1.371515       -37.3208
  10   2.0000      -1.138561       -30.9818
  11   2.0000      -1.011970       -27.5371
  12   2.0000      -0.949810       -25.8457
  13   2.0000      -0.835150       -22.7256
  14   2.0000      -0.772266       -21.0144
  15   2.0000      -0.761230       -20.7141
  16   2.0000      -0.721234       -19.6258
  17   2.0000      -0.694210       -18.8904
  18   2.0000      -0.658388       -17.9156
  19   2.0000      -0.628698       -17.1078
  20   2.0000      -0.586147       -15.9499
  21   2.0000      -0.563795       -15.3416
  22   2.0000      -0.539626       -14.6840
  23   2.0000      -0.513364       -13.9693
  24   2.0000      -0.510566       -13.8932
  25   2.0000      -0.487325       -13.2608
  26   2.0000      -0.476241       -12.9592
  27   2.0000      -0.422552       -11.4982
  28   2.0000      -0.402987       -10.9658
  29   2.0000      -0.381928       -10.3928
  30   0.0000       0.143287         3.8990
  31   0.0000       0.151191         4.1141
  32   0.0000       0.169268         4.6060
  33   0.0000       0.175437         4.7739
  34   0.0000       0.188798         5.1374

MULLIKEN ATOMIC CHARGES
-----------------------
   0 O :   -0.456646
   1 C :   -0.005343
   2 C :   -0.172554
   3 C :   -0.140099
   4 C :    0.040994
   5 C :   -0.229931
   6 C :    0.045177
   7 O :   -0.324002
   8 H :    0.323847
   9 H :    0.133574
  10 H :    0.135747
  11 H :    0.138224
  12 H :    0.137675
  13 H :    0.114910
  14 H :    0.122624
  15 H :    0.135802
Sum of atomic charges:    0.0000000

LOEWDIN ATOMIC CHARGES
----------------------
   0 O :   -0.001269
   1 C :   -0.294455
   2 C :   -0.177423
   3 C :   -0.165030
   4 C :   -0.229633
   5 C :   -0.197677
   6 C :   -0.233223
   7 O :    0.159953
   8 H :    0.181297
   9 H :    0.136765
  10 H :    0.143996
  11 H :    0.148614
  12 H :    0.132276
  13 H :    0.128666
  14 H :    0.135997
  15 H :    0.131146

  Mayer bond orders larger than 0.1
B(  0-O ,  1-C ) :   1.0233 B(  0-O ,  8-H ) :   0.8428 B(  1-C ,  2-C ) :   0.8991
B(  1-C ,  3-C ) :   0.9159 B(  1-C ,  9-H ) :   0.9194 B(  2-C ,  3-C ) :   0.8618
B(  2-C ,  6-C ) :   0.8863 B(  2-C , 10-H ) :   0.9156 B(  3-C ,  4-C ) :   0.9023
B(  3-C , 11-H ) :   0.9175 B(  4-C ,  5-C ) :   0.9437 B(  4-C ,  7-O ) :   0.9094
B(  4-C , 12-H ) :   0.9083 B(  5-C ,  6-C ) :   0.9379 B(  5-C , 13-H ) :   0.9091
B(  5-C , 14-H ) :   0.9266 B(  6-C ,  7-O ) :   0.9081 B(  6-C , 15-H ) :   0.9065

MP2 TOTAL ENERGY:     -383.051245721 Eh
FINAL SINGLE POINT ENERGY      -383.051245721097

DIPOLE MOMENT
-------------
                                X             Y             Z
Electronic contribution:      1.73233       0.77739      -1.51222
Nuclear contribution   :     -1.81917      -0.81508       2.16267
                        -----------------------------------------
Total Dipole Moment    :     -0.08685      -0.03769       0.65045
                        -----------------------------------------
Magnitude (a.u.)       :      0.65731
Magnitude (Debye)      :      1.67074

                             ****ORCA TERMINATED NORMALLY****
TOTAL RUN TIME: 0 days 0 hours 11 minutes 45 seconds 244 msec
