                         Program Version 3.0.3 - RELEASE   -
|  1> ! RI-MP2 RIJK def2-TZVP def2-TZVP/C def2-TZVP/JK TIGHTSCF
|  2> % maxcore 2000
|  3> % mp2 density relaxed end
|  4> *xyz 0 1
|  5>  C       -0.0439209716     1.5640685159    -0.0266347376
|  6>  C        0.0084956130     0.0359621059     0.0119689474
|  7>  N        0.7105545337    -0.4673609352     1.1881532457
|  8>  C        2.0817277325    -0.7067634752     1.2077342413
|  9>  O        2.8203439534    -0.5305388455     0.2699449254
| 10>  C        2.4459525229    -1.2217791075     2.5977569426
| 11>  C        1.1227275973    -1.2474535733     3.3766011009
| 12>  C        0.0694039145    -0.7467964106     2.3917591948
| 13>  O       -1.1135969601    -0.6080850455     2.5849487576
| 14>  H        0.9647029566     1.9852741474    -0.0539978200
| 15>  H       -0.5775023527     1.8958850546    -0.9222016084
| 16>  H       -0.5691443923     1.9554800279     0.8488248734
| 17>  H       -0.9997050762    -0.3836696994     0.0425093975
| 18>  H        0.5362282751    -0.3537931389    -0.8615786614
| 19>  H        2.9123635910    -2.2050207493     2.4959339565
| 20>  H        3.1971958581    -0.5575427737     3.0325285947
| 21>  H        0.8361700730    -2.2451512054     3.7188476468
| 22>  H        1.1190884620    -0.5972479823     4.2551481926
| 23> *
| 24>
| 25>                          ****END OF INPUT****

CARTESIAN COORDINATES (ANGSTROEM)
---------------------------------
  C     -0.043921    1.564069   -0.026635
  C      0.008496    0.035962    0.011969
  N      0.710555   -0.467361    1.188153
  C      2.081728   -0.706763    1.207734
  O      2.820344   -0.530539    0.269945
  C      2.445953   -1.221779    2.597757
  C      1.122728   -1.247454    3.376601
  C      0.069404   -0.746796    2.391759
  O     -1.113597   -0.608085    2.584949
  H      0.964703    1.985274   -0.053998
  H     -0.577502    1.895885   -0.922202
  H     -0.569144    1.955480    0.848825
  H     -0.999705   -0.383670    0.042509
  H      0.536228   -0.353793   -0.861579
  H      2.912364   -2.205021    2.495934
  H      3.197196   -0.557543    3.032529
  H      0.836170   -2.245151    3.718848
  H      1.119088   -0.597248    4.255148

 Total Charge           Charge          ....    0
 Multiplicity           Mult            ....    1
 Number of Electrons    NEL             ....   68
 Basis Dimension        Dim             ....  333

ORBITAL ENERGIES
----------------

  NO   OCC          E(Eh)            E(eV)
   0   2.0000     -20.546594      -559.1012
   1   2.0000     -20.546593      -559.1012
   2   2.0000     -15.617864      -424.9837
   3   2.0000     -11.372915      -309.4728
   4   2.0000     -11.372898      -309.4723
   5   2.0000     -11.273303      -306.7622
   6   2.0000     -11.264740      -306.5292
   7   2.0000     -11.264143      -306.5129
   8   2.0000     -11.223697      -305.4123
   9   2.0000      -1.422104       -38.6974
  10   2.0000      -1.400614       -38.1126
  11   2.0000      -1.278553       -34.7912
  12   2.0000      -1.107638       -30.1404
  13   2.0000      -1.018631       -27.7184
  14   2.0000      -0.951822       -25.9004
  15   2.0000      -0.882672       -24.0187
  16   2.0000      -0.845107       -22.9965
  17   2.0000      -0.742989       -20.2178
  18   2.0000      -0.691842       -18.8260
  19   2.0000      -0.683799       -18.6071
  20   2.0000      -0.672775       -18.3071
  21   2.0000      -0.627878       -17.0854
  22   2.0000      -0.609105       -16.5746
  23   2.0000      -0.601627       -16.3711
  24   2.0000      -0.597266       -16.2524
  25   2.0000      -0.583503       -15.8779
  26   2.0000      -0.574220       -15.6253
  27   2.0000      -0.538813       -14.6619
  28   2.0000      -0.526457       -14.3256
  29   2.0000      -0.511242       -13.9116
  30   2.0000      -0.497957       -13.5501
  31   2.0000      -0.457203       -12.4411
  32   2.0000      -0.429246       -11.6804
  33   2.0000      -0.411530       -11.1983
  34   0.0000       0.120462         3.2779
  35   0.0000       0.141827         3.8593
  36   0.0000       0.145099         3.9483
  37   0.0000       0.161406         4.3921
  38   0.0000       0.166315         4.5257

MULLIKEN ATOMIC CHARGES
-----------------------
   0 C :   -0.425451
   1 C :   -0.121541
   2 N :   -0.074328
   3 C :    0.184653
   4 O :   -0.319865
   5 C :   -0.208191
   6 C :   -0.208202
   7 C :    0.184650
   8 O :   -0.319860
   9 H :    0.146390
  10 H :    0.135289
  11 H :    0.146372
  12 H :    0.147430
  13 H :    0.147409
  14 H :    0.146571
  15 H :    0.146050
  16 H :    0.146578
  17 H :    0.146047
Sum of atomic charges:    0.0000000

LOEWDIN ATOMIC CHARGES
----------------------
   0 C :   -0.308888
   1 C :   -0.259007
   2 N :    0.241050
   3 C :   -0.390734
   4 O :    0.121168
   5 C :   -0.210303
   6 C :   -0.210303
   7 C :   -0.390734
   8 O :    0.121167
   9 H :    0.126635
  10 H :    0.127291
  11 H :    0.126632
  12 H :    0.144499
  13 H :    0.144492
  14 H :    0.154447
  15 H :    0.154070
  16 H :    0.154430
  17 H :    0.154088

  Mayer bond orders larger than 0.1
B(  0-C ,  1-C ) :   0.9210 B(  0-C ,  9-H ) :   0.9364 B(  0-C , 10-H ) :   0.9355
B(  0-C , 11-H ) :   0.9364 B(  1-C ,  2-N ) :   0.8242 B(  1-C , 12-H ) :   0.9193
B(  1-C , 13-H ) :   0.9193 B(  2-N ,  3-C ) :   1.0410 B(  2-N ,  7-C ) :   1.0410
B(  3-C ,  4-O ) :   1.9815 B(  3-C ,  5-C ) :   0.9228 B(  5-C ,  6-C ) :   0.9289
B(  5-C , 14-H ) :   0.9077 B(  5-C , 15-H ) :   0.9099 B(  6-C ,  7-C ) :   0.9229
B(  6-C , 16-H ) :   0.9078 B(  6-C , 17-H ) :   0.9098 B(  7-C ,  8-O ) :   1.9815

MP2 TOTAL ENERGY:     -438.456887945 Eh
FINAL SINGLE POINT ENERGY      -438.456887944830

DIPOLE MOMENT
-------------
                                X             Y             Z
Electronic contribution:      0.79553      -3.17515       1.24681
Nuclear contribution   :     -0.54653       3.05188      -0.82782
                        -----------------------------------------
Total Dipole Moment    :      0.24899      -0.12326       0.41899
                        -----------------------------------------
Magnitude (a.u.)       :      0.50273
Magnitude (Debye)      :      1.27785

                             ****ORCA TERMINATED NORMALLY****
TOTAL RUN TIME: 0 days 0 hours 15 minutes 57 seconds 865 msec
