                         Program Version 3.0.3 - RELEASE   -
|  1> ! RI-MP2 RIJK def2-TZVP def2-TZVP/C def2-TZVP/JK TIGHTSCF
|  2> % maxcore 2000
|  3> % mp2 density relaxed end
|  4> *xyz 0 1
|  5>  O       -0.0062626409     1.3837131800    -0.0737202965
|  6>  C        0.0173421477    -0.0280554592    -0.0111692603
|  7>  C        0.9823997428    -0.5548357838    -0.9697341926
|  8>  C        1.8204491444    -0.9172787874    -1.7531740402
|  9>  C       -0.0551566564    -0.7053148082     1.4111108681
| 10>  C       -1.4853489179    -0.0993784481     1.5314982342
| 11>  C       -1.3992318342    -0.6742686931     0.0830021603
| 12>  C       -0.7151730535    -1.9245732511     0.7075407504
| 13>  H        0.9009465145     1.6876366290    -0.1785527072
| 14>  H        2.5476384341    -1.2510209607    -2.4517954815
| 15>  H        0.7356732168    -0.7172038449     2.1625050869
| 16>  H       -2.1637422303    -0.6267374237     2.2056760012
| 17>  H       -1.5604536868     0.9810574020     1.6327643499
| 18>  H       -2.1616468036    -0.6478529195    -0.6960663179
| 19>  H       -0.0866773547    -2.5322794321     0.0550134756
| 20>  H       -1.3570455920    -2.5396002292     1.3407994496
| 21> *
| 22>
| 23>                          ****END OF INPUT****

CARTESIAN COORDINATES (ANGSTROEM)
---------------------------------
  O     -0.006263    1.383713   -0.073720
  C      0.017342   -0.028055   -0.011169
  C      0.982400   -0.554836   -0.969734
  C      1.820449   -0.917279   -1.753174
  C     -0.055157   -0.705315    1.411111
  C     -1.485349   -0.099378    1.531498
  C     -1.399232   -0.674269    0.083002
  C     -0.715173   -1.924573    0.707541
  H      0.900947    1.687637   -0.178553
  H      2.547638   -1.251021   -2.451795
  H      0.735673   -0.717204    2.162505
  H     -2.163742   -0.626737    2.205676
  H     -1.560454    0.981057    1.632764
  H     -2.161647   -0.647853   -0.696066
  H     -0.086677   -2.532279    0.055013
  H     -1.357046   -2.539600    1.340799

 Total Charge           Charge          ....    0
 Multiplicity           Mult            ....    1
 Number of Electrons    NEL             ....   58
 Basis Dimension        Dim             ....  296

ORBITAL ENERGIES
----------------

  NO   OCC          E(Eh)            E(eV)
   0   2.0000     -20.564679      -559.5934
   1   2.0000     -11.318036      -307.9794
   2   2.0000     -11.250512      -306.1420
   3   2.0000     -11.250431      -306.1398
   4   2.0000     -11.239083      -305.8310
   5   2.0000     -11.232381      -305.6486
   6   2.0000     -11.231982      -305.6378
   7   2.0000     -11.228864      -305.5529
   8   2.0000      -1.379704       -37.5437
   9   2.0000      -1.209037       -32.8996
  10   2.0000      -1.042076       -28.3563
  11   2.0000      -0.918686       -24.9987
  12   2.0000      -0.904422       -24.6106
  13   2.0000      -0.865792       -23.5594
  14   2.0000      -0.773685       -21.0531
  15   2.0000      -0.728303       -19.8181
  16   2.0000      -0.697634       -18.9836
  17   2.0000      -0.680862       -18.5272
  18   2.0000      -0.644835       -17.5468
  19   2.0000      -0.601535       -16.3686
  20   2.0000      -0.543125       -14.7792
  21   2.0000      -0.537669       -14.6307
  22   2.0000      -0.480207       -13.0671
  23   2.0000      -0.468318       -12.7436
  24   2.0000      -0.461340       -12.5537
  25   2.0000      -0.451148       -12.2764
  26   2.0000      -0.439831       -11.9684
  27   2.0000      -0.400500       -10.8982
  28   2.0000      -0.377600       -10.2750
  29   0.0000       0.140901         3.8341
  30   0.0000       0.157094         4.2748
  31   0.0000       0.161326         4.3899
  32   0.0000       0.162907         4.4329
  33   0.0000       0.178090         4.8461

MULLIKEN ATOMIC CHARGES
-----------------------
   0 O :   -0.473504
   1 C :    0.097294
   2 C :   -0.073518
   3 C :   -0.135046
   4 C :   -0.120160
   5 C :   -0.239802
   6 C :   -0.110380
   7 C :   -0.244305
   8 H :    0.325807
   9 H :    0.194382
  10 H :    0.137086
  11 H :    0.116044
  12 H :    0.138354
  13 H :    0.136240
  14 H :    0.133355
  15 H :    0.118153
Sum of atomic charges:    0.0000000

LOEWDIN ATOMIC CHARGES
----------------------
   0 O :    0.031147
   1 C :   -0.308891
   2 C :   -0.075710
   3 C :   -0.085437
   4 C :   -0.141052
   5 C :   -0.191012
   6 C :   -0.132941
   7 C :   -0.189917
   8 H :    0.183502
   9 H :    0.128288
  10 H :    0.125826
  11 H :    0.129016
  12 H :    0.132614
  13 H :    0.128865
  14 H :    0.134329
  15 H :    0.131374

  Mayer bond orders larger than 0.1
B(  0-O ,  1-C ) :   0.9522 B(  0-O ,  8-H ) :   0.8329 B(  1-C ,  2-C ) :   1.1314
B(  1-C ,  3-C ) :  -0.1064 B(  1-C ,  4-C ) :   0.8703 B(  1-C ,  6-C ) :   0.8924
B(  2-C ,  3-C ) :   2.6226 B(  3-C ,  9-H ) :   0.8767 B(  4-C ,  5-C ) :   0.9133
B(  4-C ,  7-C ) :   0.9227 B(  4-C , 10-H ) :   0.8791 B(  5-C ,  6-C ) :   0.9232
B(  5-C , 11-H ) :   0.9319 B(  5-C , 12-H ) :   0.9153 B(  6-C ,  7-C ) :   0.9295
B(  6-C , 13-H ) :   0.8841 B(  7-C , 14-H ) :   0.9203 B(  7-C , 15-H ) :   0.9264

MP2 TOTAL ENERGY:     -345.906513752 Eh
FINAL SINGLE POINT ENERGY      -345.906513752292

DIPOLE MOMENT
-------------
                                X             Y             Z
Electronic contribution:      2.43377       2.04889      -2.71260
Nuclear contribution   :     -2.02629      -2.32434       2.77982
                        -----------------------------------------
Total Dipole Moment    :      0.40748      -0.27545       0.06722
                        -----------------------------------------
Magnitude (a.u.)       :      0.49642
Magnitude (Debye)      :      1.26180

                             ****ORCA TERMINATED NORMALLY****
TOTAL RUN TIME: 0 days 0 hours 13 minutes 25 seconds 520 msec
