                         Program Version 3.0.3 - RELEASE   -
|  1> ! RI-MP2 RIJK def2-TZVP def2-TZVP/C def2-TZVP/JK TIGHTSCF
|  2> % maxcore 2000
|  3> % mp2 density relaxed end
|  4> *xyz 0 1
|  5>  O        0.0981029465     1.4339453886    -0.1013976541
|  6>  C        0.0330564779     0.0237641305    -0.0615238030
|  7>  C       -1.3959537106    -0.4198589713     0.0597139675
|  8>  C       -2.4480743340     0.3898334372     0.0078339958
|  9>  C       -3.8326663747    -0.1733430245     0.1730946885
| 10>  C       -3.9530624014    -1.5870953624    -0.3522052659
| 11>  N       -5.0449853762    -2.0163297635    -0.8290888775
| 12>  O       -2.8429782463    -2.3765469612    -0.3063833626
| 13>  C       -1.6267555428    -1.8913785045     0.2726636710
| 14>  H        1.0110050850     1.6890030076    -0.2601241689
| 15>  H        0.4701620364    -0.4265906624    -0.9708522130
| 16>  H        0.6125533878    -0.3818626316     0.7884004091
| 17>  H       -2.3209256990     1.4563607393    -0.1327042481
| 18>  H       -4.1099322000    -0.1775253102     1.2389943143
| 19>  H       -4.5916065583     0.4275175558    -0.3305201678
| 20>  H       -4.9391643830    -2.9896780881    -1.1230699294
| 21>  H       -0.8337198368    -2.4908339145    -0.1879358801
| 22>  H       -1.6253176306    -2.1316677749     1.3475973741
| 23> *
| 24>
| 25>                          ****END OF INPUT****

CARTESIAN COORDINATES (ANGSTROEM)
---------------------------------
  O      0.098103    1.433945   -0.101398
  C      0.033056    0.023764   -0.061524
  C     -1.395954   -0.419859    0.059714
  C     -2.448074    0.389833    0.007834
  C     -3.832666   -0.173343    0.173095
  C     -3.953062   -1.587095   -0.352205
  N     -5.044985   -2.016330   -0.829089
  O     -2.842978   -2.376547   -0.306383
  C     -1.626756   -1.891379    0.272664
  H      1.011005    1.689003   -0.260124
  H      0.470162   -0.426591   -0.970852
  H      0.612553   -0.381863    0.788400
  H     -2.320926    1.456361   -0.132704
  H     -4.109932   -0.177525    1.238994
  H     -4.591607    0.427518   -0.330520
  H     -4.939164   -2.989678   -1.123070
  H     -0.833720   -2.490834   -0.187936
  H     -1.625318   -2.131668    1.347597

 Total Charge           Charge          ....    0
 Multiplicity           Mult            ....    1
 Number of Electrons    NEL             ....   68
 Basis Dimension        Dim             ....  333

ORBITAL ENERGIES
----------------

  NO   OCC          E(Eh)            E(eV)
   0   2.0000     -20.591524      -560.3238
   1   2.0000     -20.573169      -559.8244
   2   2.0000     -15.520393      -422.3314
   3   2.0000     -11.333120      -308.3899
   4   2.0000     -11.303970      -307.5967
   5   2.0000     -11.300470      -307.5014
   6   2.0000     -11.243656      -305.9554
   7   2.0000     -11.242515      -305.9244
   8   2.0000     -11.235074      -305.7219
   9   2.0000      -1.423030       -38.7226
  10   2.0000      -1.380226       -37.5579
  11   2.0000      -1.188626       -32.3442
  12   2.0000      -1.114886       -30.3376
  13   2.0000      -1.023105       -27.8401
  14   2.0000      -0.943127       -25.6638
  15   2.0000      -0.903176       -24.5767
  16   2.0000      -0.804302       -21.8862
  17   2.0000      -0.725212       -19.7340
  18   2.0000      -0.697470       -18.9791
  19   2.0000      -0.688573       -18.7370
  20   2.0000      -0.683535       -18.5999
  21   2.0000      -0.657947       -17.9036
  22   2.0000      -0.645585       -17.5673
  23   2.0000      -0.609519       -16.5859
  24   2.0000      -0.585261       -15.9258
  25   2.0000      -0.569645       -15.5008
  26   2.0000      -0.551973       -15.0200
  27   2.0000      -0.524886       -14.2829
  28   2.0000      -0.507906       -13.8208
  29   2.0000      -0.481182       -13.0936
  30   2.0000      -0.469296       -12.7702
  31   2.0000      -0.430840       -11.7238
  32   2.0000      -0.386273       -10.5110
  33   2.0000      -0.356664        -9.7053
  34   0.0000       0.120983         3.2921
  35   0.0000       0.138138         3.7589
  36   0.0000       0.144528         3.9328
  37   0.0000       0.156370         4.2550
  38   0.0000       0.180009         4.8983

MULLIKEN ATOMIC CHARGES
-----------------------
   0 O :   -0.461453
   1 C :   -0.094631
   2 C :    0.010887
   3 C :   -0.208026
   4 C :   -0.125806
   5 C :    0.114851
   6 N :   -0.378675
   7 O :   -0.253170
   8 C :   -0.073261
   9 H :    0.319677
  10 H :    0.117059
  11 H :    0.108833
  12 H :    0.158801
  13 H :    0.138393
  14 H :    0.152538
  15 H :    0.215654
  16 H :    0.132900
  17 H :    0.125428
Sum of atomic charges:    0.0000000

LOEWDIN ATOMIC CHARGES
----------------------
   0 O :   -0.030623
   1 C :   -0.314922
   2 C :   -0.193670
   3 C :   -0.128853
   4 C :   -0.209204
   5 C :   -0.403312
   6 N :   -0.066666
   7 O :    0.241552
   8 C :   -0.241640
   9 H :    0.176806
  10 H :    0.127727
  11 H :    0.126192
  12 H :    0.152801
  13 H :    0.162631
  14 H :    0.160835
  15 H :    0.164288
  16 H :    0.139466
  17 H :    0.136591

  Mayer bond orders larger than 0.1
B(  0-O ,  1-C ) :   1.0359 B(  0-O ,  2-C ) :  -0.1038 B(  0-O ,  9-H ) :   0.8448
B(  1-C ,  2-C ) :   0.9004 B(  1-C , 10-H ) :   0.9319 B(  1-C , 11-H ) :   0.9309
B(  2-C ,  3-C ) :   1.7706 B(  2-C ,  8-C ) :   0.9104 B(  3-C ,  4-C ) :   0.9023
B(  3-C , 12-H ) :   0.9172 B(  4-C ,  5-C ) :   0.9349 B(  4-C , 13-H ) :   0.8952
B(  4-C , 14-H ) :   0.9244 B(  5-C ,  6-N ) :   2.0470 B(  5-C ,  7-O ) :   1.0795
B(  6-N , 15-H ) :   0.8584 B(  7-O ,  8-C ) :   0.9004 B(  8-C , 16-H ) :   0.9320
B(  8-C , 17-H ) :   0.9218

MP2 TOTAL ENERGY:     -438.367696486 Eh
FINAL SINGLE POINT ENERGY      -438.367696486467

DIPOLE MOMENT
-------------
                                X             Y             Z
Electronic contribution:     -2.18651      -1.32254      -1.03595
Nuclear contribution   :      3.94403       1.41723       1.44121
                        -----------------------------------------
Total Dipole Moment    :      1.75752       0.09469       0.40525
                        -----------------------------------------
Magnitude (a.u.)       :      1.80612
Magnitude (Debye)      :      4.59080

                             ****ORCA TERMINATED NORMALLY****
TOTAL RUN TIME: 0 days 0 hours 15 minutes 24 seconds 912 msec
