                         Program Version 3.0.3 - RELEASE   -
|  1> ! RI-MP2 RIJK def2-TZVP def2-TZVP/C def2-TZVP/JK TIGHTSCF
|  2> % maxcore 2000
|  3> % mp2 density relaxed end
|  4> *xyz 0 1
|  5>  N        0.0798275234    -1.1480133407     0.0103294820
|  6>  C        0.0061096768     0.0087522626    -0.0001319933
|  7>  C       -0.0373689230     1.4227714898    -0.0333947212
|  8>  C       -1.1113055046     2.2180942951     0.0974526321
|  9>  C       -0.6567572002     3.6253875062     0.0647306373
| 10>  C        0.5167359456     4.0474592594     0.9205153941
| 11>  C        1.3827096330     2.8977127631     1.4003743382
| 12>  C        1.1952914540     2.3103284525    -0.0360007475
| 13>  N        0.7042512600     3.6791491393    -0.5255215885
| 14>  H       -2.1386478858     1.9048770713     0.2228959078
| 15>  H       -1.3326876024     4.4122448462    -0.2530303878
| 16>  H        0.5873103556     5.0748812912     1.2644365145
| 17>  H        2.4088395747     3.2402297488     1.5455804244
| 18>  H        1.0672694268     2.2960555389     2.2568826794
| 19>  H        2.0687459964     1.9276874765    -0.5588399514
| 20> *
| 21>
| 22>                          ****END OF INPUT****

CARTESIAN COORDINATES (ANGSTROEM)
---------------------------------
  N      0.079828   -1.148013    0.010329
  C      0.006110    0.008752   -0.000132
  C     -0.037369    1.422771   -0.033395
  C     -1.111306    2.218094    0.097453
  C     -0.656757    3.625388    0.064731
  C      0.516736    4.047459    0.920515
  C      1.382710    2.897713    1.400374
  C      1.195291    2.310328   -0.036001
  N      0.704251    3.679149   -0.525522
  H     -2.138648    1.904877    0.222896
  H     -1.332688    4.412245   -0.253030
  H      0.587310    5.074881    1.264437
  H      2.408840    3.240230    1.545580
  H      1.067269    2.296056    2.256883
  H      2.068746    1.927687   -0.558840

 Total Charge           Charge          ....    0
 Multiplicity           Mult            ....    1
 Number of Electrons    NEL             ....   62
 Basis Dimension        Dim             ....  315

ORBITAL ENERGIES
----------------

  NO   OCC          E(Eh)            E(eV)
   0   2.0000     -15.586877      -424.1405
   1   2.0000     -15.578275      -423.9064
   2   2.0000     -11.296583      -307.3957
   3   2.0000     -11.291964      -307.2700
   4   2.0000     -11.290546      -307.2314
   5   2.0000     -11.285230      -307.0867
   6   2.0000     -11.282441      -307.0108
   7   2.0000     -11.282047      -307.0001
   8   2.0000     -11.255859      -306.2875
   9   2.0000      -1.334514       -36.3140
  10   2.0000      -1.224109       -33.3097
  11   2.0000      -1.112098       -30.2617
  12   2.0000      -1.044008       -28.4089
  13   2.0000      -0.961801       -26.1719
  14   2.0000      -0.891933       -24.2707
  15   2.0000      -0.817802       -22.2535
  16   2.0000      -0.768524       -20.9126
  17   2.0000      -0.748583       -20.3700
  18   2.0000      -0.682710       -18.5775
  19   2.0000      -0.632809       -17.2196
  20   2.0000      -0.612245       -16.6600
  21   2.0000      -0.588384       -16.0107
  22   2.0000      -0.567280       -15.4365
  23   2.0000      -0.556671       -15.1478
  24   2.0000      -0.534583       -14.5467
  25   2.0000      -0.494142       -13.4463
  26   2.0000      -0.490790       -13.3551
  27   2.0000      -0.476260       -12.9597
  28   2.0000      -0.451058       -12.2739
  29   2.0000      -0.423287       -11.5182
  30   2.0000      -0.350156        -9.5282
  31   0.0000       0.073978         2.0130
  32   0.0000       0.135505         3.6873
  33   0.0000       0.155450         4.2300
  34   0.0000       0.157273         4.2796
  35   0.0000       0.163739         4.4556

MULLIKEN ATOMIC CHARGES
-----------------------
   0 N :   -0.044585
   1 C :   -0.219302
   2 C :    0.049562
   3 C :   -0.173183
   4 C :   -0.044469
   5 C :   -0.078568
   6 C :   -0.243322
   7 C :    0.100464
   8 N :   -0.223230
   9 H :    0.159116
  10 H :    0.149592
  11 H :    0.138523
  12 H :    0.138566
  13 H :    0.131460
  14 H :    0.159376
Sum of atomic charges:   -0.0000000

LOEWDIN ATOMIC CHARGES
----------------------
   0 N :    0.079637
   1 C :   -0.155147
   2 C :   -0.142388
   3 C :   -0.060389
   4 C :   -0.210772
   5 C :   -0.191991
   6 C :   -0.197588
   7 C :   -0.150105
   8 N :    0.159769
   9 H :    0.151887
  10 H :    0.151724
  11 H :    0.136961
  12 H :    0.148292
  13 H :    0.134291
  14 H :    0.145818

  Mayer bond orders larger than 0.1
B(  0-N ,  1-C ) :   2.8415 B(  1-C ,  2-C ) :   0.9049 B(  2-C ,  3-C ) :   1.6842
B(  2-C ,  7-C ) :   0.9365 B(  3-C ,  4-C ) :   0.9944 B(  3-C ,  9-H ) :   0.9159
B(  4-C ,  5-C ) :   0.9100 B(  4-C ,  8-N ) :   0.9247 B(  4-C , 10-H ) :   0.9112
B(  5-C ,  6-C ) :   0.9719 B(  5-C ,  8-N ) :   0.8528 B(  5-C , 11-H ) :   0.9076
B(  6-C ,  7-C ) :   0.8965 B(  6-C , 12-H ) :   0.9187 B(  6-C , 13-H ) :   0.9042
B(  7-C ,  8-N ) :   0.9334 B(  7-C , 14-H ) :   0.9011

MP2 TOTAL ENERGY:     -378.963827657 Eh
FINAL SINGLE POINT ENERGY      -378.963827656574

DIPOLE MOMENT
-------------
                                X             Y             Z
Electronic contribution:     -1.29691      -4.23123      -2.26455
Nuclear contribution   :      1.10547       5.62530       2.94330
                        -----------------------------------------
Total Dipole Moment    :     -0.19144       1.39408       0.67875
                        -----------------------------------------
Magnitude (a.u.)       :      1.56231
Magnitude (Debye)      :      3.97107

                             ****ORCA TERMINATED NORMALLY****
TOTAL RUN TIME: 0 days 0 hours 17 minutes 28 seconds 198 msec
