                         Program Version 3.0.3 - RELEASE   -
|  1> ! RI-MP2 RIJK def2-TZVP def2-TZVP/C def2-TZVP/JK TIGHTSCF
|  2> % maxcore 2000
|  3> % mp2 density relaxed end
|  4> *xyz 0 1
|  5>  C       -0.7679498157     1.3170777967    -0.0150202476
|  6>  C        0.0499408900     0.0302376362    -0.0850382534
|  7>  C        1.2645774914     0.0584341620    -1.0194571881
|  8>  C        2.1875642362    -1.0062573757    -0.4373711579
|  9>  O        3.1198236473    -1.5515441934    -0.9519312715
| 10>  O        1.7935473709    -1.2838204364     0.8362760043
| 11>  C        0.6921569121    -0.4403437290     1.2467440741
| 12>  C        1.2209809508     0.6557081523     2.1655939177
| 13>  H       -0.1510325619     2.1727810995     0.2762948424
| 14>  H       -1.2103927090     1.5438003418    -0.9898486715
| 15>  H       -1.5873023958     1.2299723919     0.7065066751
| 16>  H       -0.6074604246    -0.7819429480    -0.4190734967
| 17>  H        1.0455258593    -0.1600112716    -2.0655293658
| 18>  H        1.7861802228     1.0230738818    -0.9886180060
| 19>  H        0.0086196860    -1.0858040573     1.8064211846
| 20>  H        1.8895063580     1.3407088177     1.6343730920
| 21>  H        0.3981867357     1.2375446943     2.5908184008
| 22>  H        1.7835342763     0.2052046672     2.9872431276
| 23> *
| 24>
| 25>                          ****END OF INPUT****

CARTESIAN COORDINATES (ANGSTROEM)
---------------------------------
  C     -0.767950    1.317078   -0.015020
  C      0.049941    0.030238   -0.085038
  C      1.264577    0.058434   -1.019457
  C      2.187564   -1.006257   -0.437371
  O      3.119824   -1.551544   -0.951931
  O      1.793547   -1.283820    0.836276
  C      0.692157   -0.440344    1.246744
  C      1.220981    0.655708    2.165594
  H     -0.151033    2.172781    0.276295
  H     -1.210393    1.543800   -0.989849
  H     -1.587302    1.229972    0.706507
  H     -0.607460   -0.781943   -0.419073
  H      1.045526   -0.160011   -2.065529
  H      1.786180    1.023074   -0.988618
  H      0.008620   -1.085804    1.806421
  H      1.889506    1.340709    1.634373
  H      0.398187    1.237545    2.590818
  H      1.783534    0.205205    2.987243

 Total Charge           Charge          ....    0
 Multiplicity           Mult            ....    1
 Number of Electrons    NEL             ....   62
 Basis Dimension        Dim             ....  308

ORBITAL ENERGIES
----------------

  NO   OCC          E(Eh)            E(eV)
   0   2.0000     -20.594310      -560.3997
   1   2.0000     -20.535128      -558.7892
   2   2.0000     -11.373379      -309.4854
   3   2.0000     -11.304540      -307.6122
   4   2.0000     -11.256330      -306.3003
   5   2.0000     -11.251385      -306.1657
   6   2.0000     -11.238360      -305.8113
   7   2.0000     -11.232764      -305.6590
   8   2.0000      -1.452195       -39.5162
   9   2.0000      -1.361561       -37.0500
  10   2.0000      -1.113401       -30.2972
  11   2.0000      -1.033627       -28.1264
  12   2.0000      -0.977858       -26.6089
  13   2.0000      -0.902056       -24.5462
  14   2.0000      -0.811008       -22.0687
  15   2.0000      -0.760490       -20.6940
  16   2.0000      -0.705142       -19.1879
  17   2.0000      -0.678436       -18.4612
  18   2.0000      -0.652095       -17.7444
  19   2.0000      -0.621301       -16.9065
  20   2.0000      -0.603764       -16.4293
  21   2.0000      -0.588777       -16.0214
  22   2.0000      -0.570237       -15.5169
  23   2.0000      -0.555850       -15.1255
  24   2.0000      -0.549121       -14.9423
  25   2.0000      -0.540634       -14.7114
  26   2.0000      -0.521961       -14.2033
  27   2.0000      -0.482944       -13.1416
  28   2.0000      -0.477368       -12.9899
  29   2.0000      -0.447070       -12.1654
  30   2.0000      -0.430213       -11.7067
  31   0.0000       0.116570         3.1720
  32   0.0000       0.142410         3.8752
  33   0.0000       0.158601         4.3158
  34   0.0000       0.165651         4.5076
  35   0.0000       0.170582         4.6418

MULLIKEN ATOMIC CHARGES
-----------------------
   0 C :   -0.416515
   1 C :   -0.076138
   2 C :   -0.279860
   3 C :    0.255114
   4 O :   -0.285148
   5 O :   -0.224343
   6 C :    0.107471
   7 C :   -0.439205
   8 H :    0.134460
   9 H :    0.145492
  10 H :    0.140405
  11 H :    0.110346
  12 H :    0.148913
  13 H :    0.137340
  14 H :    0.114531
  15 H :    0.135804
  16 H :    0.136098
  17 H :    0.155235
Sum of atomic charges:    0.0000000

LOEWDIN ATOMIC CHARGES
----------------------
   0 C :   -0.290028
   1 C :   -0.257827
   2 C :   -0.206876
   3 C :   -0.465167
   4 O :    0.135416
   5 O :    0.271495
   6 C :   -0.278422
   7 C :   -0.290185
   8 H :    0.125897
   9 H :    0.128626
  10 H :    0.127246
  11 H :    0.158976
  12 H :    0.151712
  13 H :    0.155947
  14 H :    0.144722
  15 H :    0.126955
  16 H :    0.129047
  17 H :    0.132466

  Mayer bond orders larger than 0.1
B(  0-C ,  1-C ) :   0.9030 B(  0-C ,  8-H ) :   0.9297 B(  0-C ,  9-H ) :   0.9365
B(  0-C , 10-H ) :   0.9418 B(  1-C ,  2-C ) :   0.9280 B(  1-C ,  6-C ) :   0.9049
B(  1-C , 11-H ) :   0.9252 B(  2-C ,  3-C ) :   0.9253 B(  2-C , 12-H ) :   0.9142
B(  2-C , 13-H ) :   0.9035 B(  3-C ,  4-O ) :   2.0443 B(  3-C ,  5-O ) :   1.1137
B(  5-O ,  6-C ) :   0.8499 B(  6-C ,  7-C ) :   0.9199 B(  6-C , 14-H ) :   0.9233
B(  7-C , 15-H ) :   0.9315 B(  7-C , 16-H ) :   0.9301 B(  7-C , 17-H ) :   0.9333

MP2 TOTAL ENERGY:     -384.365873538 Eh
FINAL SINGLE POINT ENERGY      -384.365873538290

DIPOLE MOMENT
-------------
                                X             Y             Z
Electronic contribution:      6.70767      -7.71701      -2.69557
Nuclear contribution   :     -8.14202       8.84000       3.04921
                        -----------------------------------------
Total Dipole Moment    :     -1.43435       1.12299       0.35364
                        -----------------------------------------
Magnitude (a.u.)       :      1.85567
Magnitude (Debye)      :      4.71674

                             ****ORCA TERMINATED NORMALLY****
TOTAL RUN TIME: 0 days 0 hours 13 minutes 6 seconds 181 msec
