                         Program Version 3.0.3 - RELEASE   -
|  1> ! RI-MP2 RIJK def2-TZVP def2-TZVP/C def2-TZVP/JK TIGHTSCF
|  2> % maxcore 2000
|  3> % mp2 density relaxed end
|  4> *xyz 0 1
|  5>  O        0.2410084880     1.3579967443     0.2030713718
|  6>  C        0.1022647149    -0.0211866882    -0.0638564575
|  7>  C       -1.3662030289    -0.5136300658     0.0089537303
|  8>  C       -2.2457659029    -0.0708099897    -1.1907397667
|  9>  C       -2.3982935853     1.4272345897    -1.3795412668
| 10>  C       -1.5194147459     2.1939359133    -2.3544935273
| 11>  C       -2.9759677413     1.9513266974    -2.6652249814
| 12>  C       -1.3919959553    -1.9695691524     0.1243044498
| 13>  C       -1.3861816309    -3.1703933375     0.1878318193
| 14>  H       -0.2009857546     1.8388390673    -0.5042739452
| 15>  H        0.5280053971    -0.3003444176    -1.0407446680
| 16>  H        0.6837489690    -0.5397699942     0.7032894154
| 17>  H       -1.7877075112    -0.0798817041     0.9266548965
| 18>  H       -1.8372697557    -0.5157086131    -2.1071375997
| 19>  H       -3.2390922740    -0.5147021410    -1.0552144802
| 20>  H       -2.6867651503     1.9678955190    -0.4813882627
| 21>  H       -1.2153304392     3.2063822648    -2.1076559105
| 22>  H       -0.7848498725     1.6352500448    -2.9261487748
| 23>  H       -3.2094795625     1.2314984740    -3.4429993794
| 24>  H       -3.6551240394     2.7951370693    -2.6214162226
| 25>  H       -1.3905145290    -4.2295985604     0.2620919196
| 26> *
| 27>
| 28>                          ****END OF INPUT****

CARTESIAN COORDINATES (ANGSTROEM)
---------------------------------
  O      0.241008    1.357997    0.203071
  C      0.102265   -0.021187   -0.063856
  C     -1.366203   -0.513630    0.008954
  C     -2.245766   -0.070810   -1.190740
  C     -2.398294    1.427235   -1.379541
  C     -1.519415    2.193936   -2.354494
  C     -2.975968    1.951327   -2.665225
  C     -1.391996   -1.969569    0.124304
  C     -1.386182   -3.170393    0.187832
  H     -0.200986    1.838839   -0.504274
  H      0.528005   -0.300344   -1.040745
  H      0.683749   -0.539770    0.703289
  H     -1.787708   -0.079882    0.926655
  H     -1.837270   -0.515709   -2.107138
  H     -3.239092   -0.514702   -1.055214
  H     -2.686765    1.967896   -0.481388
  H     -1.215330    3.206382   -2.107656
  H     -0.784850    1.635250   -2.926149
  H     -3.209480    1.231498   -3.442999
  H     -3.655124    2.795137   -2.621416
  H     -1.390515   -4.229599    0.262092

 Total Charge           Charge          ....    0
 Multiplicity           Mult            ....    1
 Number of Electrons    NEL             ....   68
 Basis Dimension        Dim             ....  351

ORBITAL ENERGIES
----------------

  NO   OCC          E(Eh)            E(eV)
   0   2.0000     -20.551494      -559.2346
   1   2.0000     -11.278950      -306.9158
   2   2.0000     -11.257251      -306.3254
   3   2.0000     -11.246381      -306.0296
   4   2.0000     -11.239637      -305.8461
   5   2.0000     -11.239328      -305.8377
   6   2.0000     -11.235959      -305.7460
   7   2.0000     -11.233789      -305.6869
   8   2.0000     -11.222381      -305.3765
   9   2.0000      -1.360329       -37.0164
  10   2.0000      -1.159605       -31.5545
  11   2.0000      -1.095036       -29.7974
  12   2.0000      -1.002520       -27.2799
  13   2.0000      -0.944557       -25.7027
  14   2.0000      -0.854545       -23.2534
  15   2.0000      -0.836063       -22.7504
  16   2.0000      -0.789374       -21.4800
  17   2.0000      -0.721980       -19.6461
  18   2.0000      -0.699992       -19.0477
  19   2.0000      -0.676449       -18.4071
  20   2.0000      -0.661707       -18.0060
  21   2.0000      -0.628526       -17.1031
  22   2.0000      -0.602668       -16.3994
  23   2.0000      -0.590067       -16.0565
  24   2.0000      -0.558367       -15.1939
  25   2.0000      -0.532889       -14.5006
  26   2.0000      -0.526674       -14.3315
  27   2.0000      -0.503434       -13.6991
  28   2.0000      -0.490650       -13.3513
  29   2.0000      -0.453592       -12.3429
  30   2.0000      -0.433877       -11.8064
  31   2.0000      -0.415821       -11.3151
  32   2.0000      -0.385586       -10.4923
  33   2.0000      -0.382539       -10.4094
  34   0.0000       0.138066         3.7570
  35   0.0000       0.145608         3.9622
  36   0.0000       0.151938         4.1344
  37   0.0000       0.159579         4.3424
  38   0.0000       0.168778         4.5927

MULLIKEN ATOMIC CHARGES
-----------------------
   0 O :   -0.464799
   1 C :   -0.049146
   2 C :   -0.165558
   3 C :   -0.214628
   4 C :   -0.175523
   5 C :   -0.332074
   6 C :   -0.245646
   7 C :   -0.037679
   8 C :   -0.140596
   9 H :    0.327494
  10 H :    0.100227
  11 H :    0.128375
  12 H :    0.108135
  13 H :    0.125487
  14 H :    0.135045
  15 H :    0.142913
  16 H :    0.149965
  17 H :    0.146579
  18 H :    0.133562
  19 H :    0.137201
  20 H :    0.190668
Sum of atomic charges:   -0.0000000

LOEWDIN ATOMIC CHARGES
----------------------
   0 O :   -0.033502
   1 C :   -0.311726
   2 C :   -0.246963
   3 C :   -0.213827
   4 C :   -0.241901
   5 C :   -0.250633
   6 C :   -0.224121
   7 C :   -0.089855
   8 C :   -0.100406
   9 H :    0.168723
  10 H :    0.120911
  11 H :    0.136025
  12 H :    0.172199
  13 H :    0.149084
  14 H :    0.151712
  15 H :    0.151371
  16 H :    0.132413
  17 H :    0.134155
  18 H :    0.135987
  19 H :    0.133725
  20 H :    0.126628

  Mayer bond orders larger than 0.1
B(  0-O ,  1-C ) :   0.9496 B(  0-O ,  9-H ) :   0.8391 B(  1-C ,  2-C ) :   0.9012
B(  1-C , 10-H ) :   0.9311 B(  1-C , 11-H ) :   0.9279 B(  2-C ,  3-C ) :   0.9603
B(  2-C ,  7-C ) :   1.1507 B(  2-C , 12-H ) :   0.8992 B(  3-C ,  4-C ) :   0.8659
B(  3-C , 13-H ) :   0.9208 B(  3-C , 14-H ) :   0.9331 B(  4-C ,  5-C ) :   0.8925
B(  4-C ,  6-C ) :   0.8797 B(  4-C , 15-H ) :   0.9267 B(  5-C ,  6-C ) :   0.8947
B(  5-C , 16-H ) :   0.9292 B(  5-C , 17-H ) :   0.9272 B(  6-C , 18-H ) :   0.9285
B(  6-C , 19-H ) :   0.9310 B(  7-C ,  8-C ) :   2.6012 B(  8-C , 20-H ) :   0.8885

MP2 TOTAL ENERGY:     -386.356801352 Eh
FINAL SINGLE POINT ENERGY      -386.356801351567

DIPOLE MOMENT
-------------
                                X             Y             Z
Electronic contribution:      1.37970      -3.69843       3.87125
Nuclear contribution   :     -1.88792       3.73569      -4.48470
                        -----------------------------------------
Total Dipole Moment    :     -0.50822       0.03726      -0.61345
                        -----------------------------------------
Magnitude (a.u.)       :      0.79749
Magnitude (Debye)      :      2.02707

                             ****ORCA TERMINATED NORMALLY****
TOTAL RUN TIME: 0 days 0 hours 19 minutes 36 seconds 845 msec
