                         Program Version 3.0.3 - RELEASE   -
|  1> ! RI-MP2 RIJK def2-TZVP def2-TZVP/C def2-TZVP/JK TIGHTSCF
|  2> % maxcore 2000
|  3> % mp2 density relaxed end
|  4> *xyz 0 1
|  5>  C        0.2153011276     1.6654131485     0.2542804462
|  6>  C        0.0868522600     0.1346600795     0.0958314971
|  7>  C        0.8835172883    -0.5658904366     1.2180492605
|  8>  C       -1.3820281297    -0.3295539074     0.0395271641
|  9>  C       -2.2235362762    -0.0423353734     1.2873204012
| 10>  C       -3.6566463381    -0.5377790594     1.1348916621
| 11>  O       -4.3546061966    -0.2288012434     2.3331156152
| 12>  C        0.7810469860    -0.2238356194    -1.2155533066
| 13>  O        0.2752189321    -0.7813812618    -2.1540815270
| 14>  H        1.2591510284     1.9852203943     0.1610203860
| 15>  H       -0.3697077871     2.1949831794    -0.5046073299
| 16>  H       -0.1374729989     1.9827874667     1.2393441794
| 17>  H        0.5295189873    -0.2447683055     2.2014588208
| 18>  H        0.7831846238    -1.6544289252     1.1579887886
| 19>  H        1.9496322722    -0.3203978886     1.1570017651
| 20>  H       -1.8525488910     0.1365580175    -0.8348199348
| 21>  H       -1.3904250843    -1.4065976506    -0.1679598265
| 22>  H       -1.7932537481    -0.5236220336     2.1729559236
| 23>  H       -2.2595745245     1.0321212012     1.5003284896
| 24>  H       -4.1272441467    -0.0536664745     0.2634368783
| 25>  H       -3.6568408122    -1.6231914651     0.9421722071
| 26>  H       -5.2602403776    -0.5393859768     2.2426070518
| 27>  H        1.8546184252     0.0837485143    -1.2458673920
| 28> *
| 29>
| 30>                          ****END OF INPUT****

CARTESIAN COORDINATES (ANGSTROEM)
---------------------------------
  C      0.215301    1.665413    0.254280
  C      0.086852    0.134660    0.095831
  C      0.883517   -0.565890    1.218049
  C     -1.382028   -0.329554    0.039527
  C     -2.223536   -0.042335    1.287320
  C     -3.656646   -0.537779    1.134892
  O     -4.354606   -0.228801    2.333116
  C      0.781047   -0.223836   -1.215553
  O      0.275219   -0.781381   -2.154082
  H      1.259151    1.985220    0.161020
  H     -0.369708    2.194983   -0.504607
  H     -0.137473    1.982787    1.239344
  H      0.529519   -0.244768    2.201459
  H      0.783185   -1.654429    1.157989
  H      1.949632   -0.320398    1.157002
  H     -1.852549    0.136558   -0.834820
  H     -1.390425   -1.406598   -0.167960
  H     -1.793254   -0.523622    2.172956
  H     -2.259575    1.032121    1.500328
  H     -4.127244   -0.053666    0.263437
  H     -3.656841   -1.623191    0.942172
  H     -5.260240   -0.539386    2.242607
  H      1.854618    0.083749   -1.245867

 Total Charge           Charge          ....    0
 Multiplicity           Mult            ....    1
 Number of Electrons    NEL             ....   72
 Basis Dimension        Dim             ....  363

ORBITAL ENERGIES
----------------

  NO   OCC          E(Eh)            E(eV)
   0   2.0000     -20.555493      -559.3434
   1   2.0000     -20.555287      -559.3378
   2   2.0000     -11.326800      -308.2179
   3   2.0000     -11.275418      -306.8197
   4   2.0000     -11.253630      -306.2269
   5   2.0000     -11.231032      -305.6119
   6   2.0000     -11.231013      -305.6114
   7   2.0000     -11.224096      -305.4232
   8   2.0000     -11.220509      -305.3256
   9   2.0000      -1.395619       -37.9767
  10   2.0000      -1.358908       -36.9778
  11   2.0000      -1.120801       -30.4985
  12   2.0000      -1.037974       -28.2447
  13   2.0000      -0.948047       -25.7977
  14   2.0000      -0.922215       -25.0947
  15   2.0000      -0.872946       -23.7541
  16   2.0000      -0.812567       -22.1111
  17   2.0000      -0.740387       -20.1470
  18   2.0000      -0.689475       -18.7616
  19   2.0000      -0.660849       -17.9826
  20   2.0000      -0.659824       -17.9547
  21   2.0000      -0.653956       -17.7950
  22   2.0000      -0.612975       -16.6799
  23   2.0000      -0.603450       -16.4207
  24   2.0000      -0.571423       -15.5492
  25   2.0000      -0.569174       -15.4880
  26   2.0000      -0.548308       -14.9202
  27   2.0000      -0.540274       -14.7016
  28   2.0000      -0.521686       -14.1958
  29   2.0000      -0.500361       -13.6155
  30   2.0000      -0.498702       -13.5704
  31   2.0000      -0.494259       -13.4495
  32   2.0000      -0.467132       -12.7113
  33   2.0000      -0.460818       -12.5395
  34   2.0000      -0.443831       -12.0773
  35   2.0000      -0.408737       -11.1223
  36   0.0000       0.127000         3.4558
  37   0.0000       0.132928         3.6172
  38   0.0000       0.138694         3.7740
  39   0.0000       0.164956         4.4887
  40   0.0000       0.172046         4.6816

MULLIKEN ATOMIC CHARGES
-----------------------
   0 C :   -0.456574
   1 C :    0.195283
   2 C :   -0.456543
   3 C :   -0.304456
   4 C :   -0.172006
   5 C :   -0.070465
   6 O :   -0.466781
   7 C :    0.062148
   8 O :   -0.258924
   9 H :    0.138461
  10 H :    0.144615
  11 H :    0.147994
  12 H :    0.148001
  13 H :    0.144621
  14 H :    0.138463
  15 H :    0.125926
  16 H :    0.125919
  17 H :    0.114873
  18 H :    0.114897
  19 H :    0.094692
  20 H :    0.094693
  21 H :    0.315473
  22 H :    0.079689
Sum of atomic charges:    0.0000000

LOEWDIN ATOMIC CHARGES
----------------------
   0 C :   -0.263263
   1 C :   -0.329035
   2 C :   -0.263245
   3 C :   -0.222695
   4 C :   -0.267843
   5 C :   -0.351202
   6 O :   -0.054057
   7 C :   -0.258294
   8 O :    0.141842
   9 H :    0.128182
  10 H :    0.130333
  11 H :    0.129410
  12 H :    0.129415
  13 H :    0.130336
  14 H :    0.128182
  15 H :    0.147142
  16 H :    0.147142
  17 H :    0.140023
  18 H :    0.140028
  19 H :    0.114796
  20 H :    0.114794
  21 H :    0.171678
  22 H :    0.116330

  Mayer bond orders larger than 0.1
B(  0-C ,  1-C ) :   0.8941 B(  0-C ,  9-H ) :   0.9282 B(  0-C , 10-H ) :   0.9327
B(  0-C , 11-H ) :   0.9319 B(  1-C ,  2-C ) :   0.8941 B(  1-C ,  3-C ) :   0.9057
B(  1-C ,  7-C ) :   0.8188 B(  2-C , 12-H ) :   0.9319 B(  2-C , 13-H ) :   0.9327
B(  2-C , 14-H ) :   0.9282 B(  3-C ,  4-C ) :   0.8921 B(  3-C , 15-H ) :   0.9243
B(  3-C , 16-H ) :   0.9243 B(  4-C ,  5-C ) :   0.9445 B(  4-C ,  6-O ) :  -0.1070
B(  4-C , 17-H ) :   0.9231 B(  4-C , 18-H ) :   0.9231 B(  5-C ,  6-O ) :   1.0265
B(  5-C , 19-H ) :   0.9337 B(  5-C , 20-H ) :   0.9337 B(  6-O , 21-H ) :   0.8495
B(  7-C ,  8-O ) :   2.0173 B(  7-C , 22-H ) :   0.9540

MP2 TOTAL ENERGY:     -424.737057236 Eh
FINAL SINGLE POINT ENERGY      -424.737057236273

DIPOLE MOMENT
-------------
                                X             Y             Z
Electronic contribution:     -0.92105      -2.21110      -4.48114
Nuclear contribution   :      0.86902       2.37455       4.89585
                        -----------------------------------------
Total Dipole Moment    :     -0.05204       0.16345       0.41471
                        -----------------------------------------
Magnitude (a.u.)       :      0.44879
Magnitude (Debye)      :      1.14073

                             ****ORCA TERMINATED NORMALLY****
TOTAL RUN TIME: 0 days 0 hours 19 minutes 26 seconds 414 msec
