                         Program Version 3.0.3 - RELEASE   -
|  1> ! RI-MP2 RIJK def2-TZVP def2-TZVP/C def2-TZVP/JK TIGHTSCF
|  2> % maxcore 2000
|  3> % mp2 density relaxed end
|  4> *xyz 0 1
|  5>  C        0.0155378021     1.3768461005     0.1058677986
|  6>  N        0.0147366986    -0.0609460369    -0.0168144449
|  7>  C       -0.1769793537    -0.8098471360    -1.1259882549
|  8>  C       -0.0891962469    -2.1366126048    -0.7545287841
|  9>  C        0.1633080997    -2.0735766296     0.6309202503
| 10>  O        0.3289839077    -3.1331355101     1.4502383117
| 11>  N        0.2276220306    -0.8284677684     1.0843136671
| 12>  H        0.9818694591     1.7295383186     0.4786326471
| 13>  H       -0.1706043918     1.8137576064    -0.8768828199
| 14>  H       -0.7664144234     1.7032657671     0.7980746391
| 15>  H       -0.3593859985    -0.3512796124    -2.0856836449
| 16>  H       -0.1895063099    -3.0108933979    -1.3743684369
| 17>  H        0.4855598865    -2.7812891165     2.3354681217
| 18> *
| 19>
| 20>                          ****END OF INPUT****

CARTESIAN COORDINATES (ANGSTROEM)
---------------------------------
  C      0.015538    1.376846    0.105868
  N      0.014737   -0.060946   -0.016814
  C     -0.176979   -0.809847   -1.125988
  C     -0.089196   -2.136613   -0.754529
  C      0.163308   -2.073577    0.630920
  O      0.328984   -3.133136    1.450238
  N      0.227622   -0.828468    1.084314
  H      0.981869    1.729538    0.478633
  H     -0.170604    1.813758   -0.876883
  H     -0.766414    1.703266    0.798075
  H     -0.359386   -0.351280   -2.085684
  H     -0.189506   -3.010893   -1.374368
  H      0.485560   -2.781289    2.335468

 Total Charge           Charge          ....    0
 Multiplicity           Mult            ....    1
 Number of Electrons    NEL             ....   52
 Basis Dimension        Dim             ....  253

ORBITAL ENERGIES
----------------

  NO   OCC          E(Eh)            E(eV)
   0   2.0000     -20.585899      -560.1708
   1   2.0000     -15.634397      -425.4336
   2   2.0000     -15.568842      -423.6497
   3   2.0000     -11.313642      -307.8599
   4   2.0000     -11.279940      -306.9428
   5   2.0000     -11.274256      -306.7881
   6   2.0000     -11.214319      -305.1571
   7   2.0000      -1.417742       -38.5787
   8   2.0000      -1.361983       -37.0614
   9   2.0000      -1.115457       -30.3531
  10   2.0000      -1.059828       -28.8394
  11   2.0000      -0.942101       -25.6359
  12   2.0000      -0.812652       -22.1134
  13   2.0000      -0.800391       -21.7797
  14   2.0000      -0.725757       -19.7489
  15   2.0000      -0.673175       -18.3180
  16   2.0000      -0.656905       -17.8753
  17   2.0000      -0.608014       -16.5449
  18   2.0000      -0.595841       -16.2137
  19   2.0000      -0.591126       -16.0854
  20   2.0000      -0.564101       -15.3500
  21   2.0000      -0.545012       -14.8305
  22   2.0000      -0.522333       -14.2134
  23   2.0000      -0.461576       -12.5601
  24   2.0000      -0.349418        -9.5081
  25   2.0000      -0.329472        -8.9654
  26   0.0000       0.139814         3.8045
  27   0.0000       0.148768         4.0482
  28   0.0000       0.160422         4.3653
  29   0.0000       0.172249         4.6871
  30   0.0000       0.198570         5.4034

MULLIKEN ATOMIC CHARGES
-----------------------
   0 C :   -0.300279
   1 N :    0.100548
   2 C :   -0.109578
   3 C :   -0.256510
   4 C :    0.207539
   5 O :   -0.433650
   6 N :   -0.282943
   7 H :    0.152171
   8 H :    0.140734
   9 H :    0.152162
  10 H :    0.146638
  11 H :    0.146754
  12 H :    0.336415
Sum of atomic charges:   -0.0000000

LOEWDIN ATOMIC CHARGES
----------------------
   0 C :   -0.277852
   1 N :    0.167544
   2 C :   -0.229731
   3 C :   -0.190390
   4 C :   -0.423444
   5 O :    0.068040
   6 N :    0.030253
   7 H :    0.124913
   8 H :    0.126879
   9 H :    0.124910
  10 H :    0.137666
  11 H :    0.143964
  12 H :    0.197249

  Mayer bond orders larger than 0.1
B(  0-C ,  1-N ) :   0.8767 B(  0-C ,  7-H ) :   0.9283 B(  0-C ,  8-H ) :   0.9302
B(  0-C ,  9-H ) :   0.9283 B(  1-N ,  2-C ) :   1.2303 B(  1-N ,  6-N ) :   0.9952
B(  2-C ,  3-C ) :   1.4353 B(  2-C , 10-H ) :   0.9070 B(  3-C ,  4-C ) :   1.3220
B(  3-C , 11-H ) :   0.9146 B(  4-C ,  5-O ) :   1.0957 B(  4-C ,  6-N ) :   1.4952
B(  5-O , 12-H ) :   0.8209

MP2 TOTAL ENERGY:     -340.093893692 Eh
FINAL SINGLE POINT ENERGY      -340.093893692393

DIPOLE MOMENT
-------------
                                X             Y             Z
Electronic contribution:      0.36182      -4.31517       1.62342
Nuclear contribution   :     -0.44867       5.28916      -2.01796
                        -----------------------------------------
Total Dipole Moment    :     -0.08684       0.97399      -0.39454
                        -----------------------------------------
Magnitude (a.u.)       :      1.05445
Magnitude (Debye)      :      2.68019

                             ****ORCA TERMINATED NORMALLY****
TOTAL RUN TIME: 0 days 0 hours 7 minutes 16 seconds 194 msec
