                         Program Version 3.0.3 - RELEASE   -
|  1> ! RI-MP2 RIJK def2-TZVP def2-TZVP/C def2-TZVP/JK TIGHTSCF
|  2> % maxcore 2000
|  3> % mp2 density relaxed end
|  4> *xyz 0 1
|  5>  C       -0.1605869359     1.5971754039    -0.0009963236
|  6>  C       -0.0329853719     0.0829580477     0.0005382065
|  7>  C        1.1868436059    -0.5915768351    -0.6617767640
|  8>  C        2.1350393680    -0.3000389848     0.5546261295
|  9>  C        2.5799470221    -1.7706509772     0.6576855054
| 10>  C        1.0930854528    -1.8492843910     0.2681333630
| 11>  C        0.7105239574    -0.6126761379     1.1754109622
| 12>  C        0.3648593212    -0.6368758837     2.5640075971
| 13>  C        0.0603291334    -0.6435570922     3.7289315424
| 14>  H        0.7917659500     2.0845512489     0.2313858254
| 15>  H       -0.4919361417     1.9605340286    -0.9799794095
| 16>  H       -0.8946048375     1.9276704345     0.7416067453
| 17>  H       -0.9915047989    -0.3926867762    -0.2429562477
| 18>  H        1.4842960027    -0.5990828039    -1.7109265649
| 19>  H        2.7161272122     0.6050398516     0.7315228696
| 20>  H        3.2994806252    -2.1156159607    -0.0912644155
| 21>  H        2.8488813211    -2.1348110017     1.6533170962
| 22>  H        0.4572325919    -2.7214573301     0.1089911680
| 23>  H       -0.2053404179    -0.6519868106     4.7568285644
| 24> *
| 25>
| 26>                          ****END OF INPUT****

CARTESIAN COORDINATES (ANGSTROEM)
---------------------------------
  C     -0.160587    1.597175   -0.000996
  C     -0.032985    0.082958    0.000538
  C      1.186844   -0.591577   -0.661777
  C      2.135039   -0.300039    0.554626
  C      2.579947   -1.770651    0.657686
  C      1.093085   -1.849284    0.268133
  C      0.710524   -0.612676    1.175411
  C      0.364859   -0.636876    2.564008
  C      0.060329   -0.643557    3.728932
  H      0.791766    2.084551    0.231386
  H     -0.491936    1.960534   -0.979979
  H     -0.894605    1.927670    0.741607
  H     -0.991505   -0.392687   -0.242956
  H      1.484296   -0.599083   -1.710927
  H      2.716127    0.605040    0.731523
  H      3.299481   -2.115616   -0.091264
  H      2.848881   -2.134811    1.653317
  H      0.457233   -2.721457    0.108991
  H     -0.205340   -0.651987    4.756829

 Total Charge           Charge          ....    0
 Multiplicity           Mult            ....    1
 Number of Electrons    NEL             ....   64
 Basis Dimension        Dim             ....  339

ORBITAL ENERGIES
----------------

  NO   OCC          E(Eh)            E(eV)
   0   2.0000     -11.263096      -306.4844
   1   2.0000     -11.248883      -306.0977
   2   2.0000     -11.248613      -306.0903
   3   2.0000     -11.242945      -305.9361
   4   2.0000     -11.236548      -305.7620
   5   2.0000     -11.231139      -305.6148
   6   2.0000     -11.226274      -305.4825
   7   2.0000     -11.221791      -305.3605
   8   2.0000     -11.213127      -305.1247
   9   2.0000      -1.248987       -33.9867
  10   2.0000      -1.041394       -28.3378
  11   2.0000      -1.029117       -28.0037
  12   2.0000      -0.936777       -25.4910
  13   2.0000      -0.892048       -24.2739
  14   2.0000      -0.867077       -23.5944
  15   2.0000      -0.797363       -21.6974
  16   2.0000      -0.747820       -20.3492
  17   2.0000      -0.689361       -18.7585
  18   2.0000      -0.685252       -18.6466
  19   2.0000      -0.642685       -17.4883
  20   2.0000      -0.608841       -16.5674
  21   2.0000      -0.580928       -15.8079
  22   2.0000      -0.561574       -15.2812
  23   2.0000      -0.527988       -14.3673
  24   2.0000      -0.472471       -12.8566
  25   2.0000      -0.465099       -12.6560
  26   2.0000      -0.457278       -12.4432
  27   2.0000      -0.451297       -12.2804
  28   2.0000      -0.431456       -11.7405
  29   2.0000      -0.428817       -11.6687
  30   2.0000      -0.372512       -10.1366
  31   2.0000      -0.363661        -9.8957
  32   0.0000       0.140227         3.8158
  33   0.0000       0.152446         4.1483
  34   0.0000       0.154262         4.1977
  35   0.0000       0.159824         4.3490
  36   0.0000       0.176429         4.8009

MULLIKEN ATOMIC CHARGES
-----------------------
   0 C :   -0.419124
   1 C :   -0.007810
   2 C :   -0.141584
   3 C :   -0.109482
   4 C :   -0.217246
   5 C :   -0.085028
   6 C :   -0.216360
   7 C :    0.021373
   8 C :   -0.128144
   9 H :    0.128740
  10 H :    0.132374
  11 H :    0.137326
  12 H :    0.097090
  13 H :    0.126262
  14 H :    0.131337
  15 H :    0.113293
  16 H :    0.120623
  17 H :    0.127837
  18 H :    0.188524
Sum of atomic charges:   -0.0000000

LOEWDIN ATOMIC CHARGES
----------------------
   0 C :   -0.290566
   1 C :   -0.181115
   2 C :   -0.118477
   3 C :   -0.106094
   4 C :   -0.199525
   5 C :   -0.103923
   6 C :   -0.143682
   7 C :   -0.070199
   8 C :   -0.086997
   9 H :    0.126813
  10 H :    0.125542
  11 H :    0.128202
  12 H :    0.146607
  13 H :    0.128559
  14 H :    0.128554
  15 H :    0.128316
  16 H :    0.131268
  17 H :    0.130118
  18 H :    0.126598

  Mayer bond orders larger than 0.1
B(  0-C ,  1-C ) :   0.9104 B(  0-C ,  9-H ) :   0.9358 B(  0-C , 10-H ) :   0.9369
B(  0-C , 11-H ) :   0.9353 B(  1-C ,  2-C ) :   0.9217 B(  1-C ,  6-C ) :   0.8539
B(  1-C , 12-H ) :   0.9216 B(  2-C ,  3-C ) :   0.8596 B(  2-C ,  5-C ) :   0.8656
B(  2-C , 13-H ) :   0.9039 B(  3-C ,  4-C ) :   0.9348 B(  3-C ,  6-C ) :   0.8194
B(  3-C , 14-H ) :   0.8976 B(  4-C ,  5-C ) :   0.9353 B(  4-C , 15-H ) :   0.9255
B(  4-C , 16-H ) :   0.9166 B(  5-C ,  6-C ) :   0.8202 B(  5-C , 17-H ) :   0.8999
B(  6-C ,  7-C ) :   1.1828 B(  6-C ,  8-C ) :  -0.1601 B(  7-C ,  8-C ) :   2.6465
B(  8-C , 18-H ) :   0.8667

MP2 TOTAL ENERGY:     -347.995965036 Eh
FINAL SINGLE POINT ENERGY      -347.995965036322

DIPOLE MOMENT
-------------
                                X             Y             Z
Electronic contribution:     -0.12019      -2.72844       3.22350
Nuclear contribution   :      0.16772       2.75608      -3.44014
                        -----------------------------------------
Total Dipole Moment    :      0.04753       0.02764      -0.21664
                        -----------------------------------------
Magnitude (a.u.)       :      0.22351
Magnitude (Debye)      :      0.56811

                             ****ORCA TERMINATED NORMALLY****
TOTAL RUN TIME: 0 days 0 hours 20 minutes 55 seconds 722 msec
