                         Program Version 3.0.3 - RELEASE   -
|  1> ! RI-MP2 RIJK def2-TZVP def2-TZVP/C def2-TZVP/JK TIGHTSCF
|  2> % maxcore 2000
|  3> % mp2 density relaxed end
|  4> *xyz 0 1
|  5>  O        0.1735715222     1.0207285520    -1.1505666990
|  6>  C        0.1952271247     1.4373664269    -0.0105816440
|  7>  N        1.2728975925     1.4015912140     0.8162324954
|  8>  C        2.5777227699     0.9121285528     0.3854659676
|  9>  C        3.4975167809     2.0206311396    -0.0387791301
| 10>  C        3.4111463929     2.8304420194    -1.3448899709
| 11>  C        4.9745567534     2.9225433044    -1.3515881764
| 12>  C        4.9979740726     2.1214964713    -0.0416072694
| 13>  N        4.2029347759     2.7765816014     0.9962344134
| 14>  H       -0.6890904507     1.8852928859     0.4853887967
| 15>  H        1.2097894551     1.8644705310     1.7092309085
| 16>  H        3.0362589848     0.3538617785     1.2072411386
| 17>  H        2.3937242972     0.2289034800    -0.4470886804
| 18>  H        3.0182946460     2.2501620076    -2.1819876214
| 19>  H        2.8512852017     3.7690992114    -1.2809438489
| 20>  H        5.4162611022     2.3858003201    -2.1942516847
| 21>  H        5.4212357028     3.9212617197    -1.3010299993
| 22>  H        5.7518776878     1.4084355365     0.2735919625
| 23>  H        4.1440838981     3.7847881076     0.8591761619
| 24> *
| 25>
| 26>                          ****END OF INPUT****

CARTESIAN COORDINATES (ANGSTROEM)
---------------------------------
  O      0.173572    1.020729   -1.150567
  C      0.195227    1.437366   -0.010582
  N      1.272898    1.401591    0.816232
  C      2.577723    0.912129    0.385466
  C      3.497517    2.020631   -0.038779
  C      3.411146    2.830442   -1.344890
  C      4.974557    2.922543   -1.351588
  C      4.997974    2.121496   -0.041607
  N      4.202935    2.776582    0.996234
  H     -0.689090    1.885293    0.485389
  H      1.209789    1.864471    1.709231
  H      3.036259    0.353862    1.207241
  H      2.393724    0.228903   -0.447089
  H      3.018295    2.250162   -2.181988
  H      2.851285    3.769099   -1.280944
  H      5.416261    2.385800   -2.194252
  H      5.421236    3.921262   -1.301030
  H      5.751878    1.408436    0.273592
  H      4.144084    3.784788    0.859176

 Total Charge           Charge          ....    0
 Multiplicity           Mult            ....    1
 Number of Electrons    NEL             ....   68
 Basis Dimension        Dim             ....  339

ORBITAL ENERGIES
----------------

  NO   OCC          E(Eh)            E(eV)
   0   2.0000     -20.521461      -558.4174
   1   2.0000     -15.588650      -424.1887
   2   2.0000     -15.562035      -423.4645
   3   2.0000     -11.348375      -308.8050
   4   2.0000     -11.268689      -306.6366
   5   2.0000     -11.267275      -306.5981
   6   2.0000     -11.263466      -306.4945
   7   2.0000     -11.235634      -305.7371
   8   2.0000     -11.232136      -305.6420
   9   2.0000      -1.381933       -37.6043
  10   2.0000      -1.291568       -35.1454
  11   2.0000      -1.232524       -33.5387
  12   2.0000      -1.046961       -28.4892
  13   2.0000      -0.995788       -27.0968
  14   2.0000      -0.893903       -24.3243
  15   2.0000      -0.854427       -23.2501
  16   2.0000      -0.802944       -21.8492
  17   2.0000      -0.753768       -20.5111
  18   2.0000      -0.727036       -19.7837
  19   2.0000      -0.678582       -18.4652
  20   2.0000      -0.658157       -17.9094
  21   2.0000      -0.645815       -17.5735
  22   2.0000      -0.621244       -16.9049
  23   2.0000      -0.593590       -16.1524
  24   2.0000      -0.570133       -15.5141
  25   2.0000      -0.557830       -15.1793
  26   2.0000      -0.527654       -14.3582
  27   2.0000      -0.496733       -13.5168
  28   2.0000      -0.478261       -13.0141
  29   2.0000      -0.454464       -12.3666
  30   2.0000      -0.437274       -11.8988
  31   2.0000      -0.427181       -11.6242
  32   2.0000      -0.407842       -11.0980
  33   2.0000      -0.379687       -10.3318
  34   0.0000       0.130951         3.5634
  35   0.0000       0.146716         3.9923
  36   0.0000       0.159032         4.3275
  37   0.0000       0.169412         4.6099
  38   0.0000       0.176049         4.7905

MULLIKEN ATOMIC CHARGES
-----------------------
   0 O :   -0.373970
   1 C :    0.197623
   2 N :   -0.326603
   3 C :   -0.123371
   4 C :    0.090820
   5 C :   -0.238199
   6 C :   -0.193875
   7 C :   -0.138794
   8 N :   -0.363721
   9 H :    0.081045
  10 H :    0.245285
  11 H :    0.148982
  12 H :    0.150159
  13 H :    0.140462
  14 H :    0.118023
  15 H :    0.120009
  16 H :    0.119134
  17 H :    0.132965
  18 H :    0.214027
Sum of atomic charges:    0.0000000

LOEWDIN ATOMIC CHARGES
----------------------
   0 O :    0.049866
   1 C :   -0.440720
   2 N :    0.091450
   3 C :   -0.240618
   4 C :   -0.277933
   5 C :   -0.198892
   6 C :   -0.226032
   7 C :   -0.219073
   8 N :    0.037529
   9 H :    0.109577
  10 H :    0.186651
  11 H :    0.145336
  12 H :    0.153130
  13 H :    0.142745
  14 H :    0.128061
  15 H :    0.136497
  16 H :    0.125728
  17 H :    0.131556
  18 H :    0.165142

  Mayer bond orders larger than 0.1
B(  0-O ,  1-C ) :   1.8723 B(  1-C ,  2-N ) :   1.1701 B(  1-C ,  9-H ) :   0.9298
B(  2-N ,  3-C ) :   0.8368 B(  2-N , 10-H ) :   0.8707 B(  3-C ,  4-C ) :   0.9033
B(  3-C , 11-H ) :   0.9384 B(  3-C , 12-H ) :   0.9235 B(  4-C ,  5-C ) :   0.9271
B(  4-C ,  7-C ) :   0.8344 B(  4-C ,  8-N ) :   0.8818 B(  5-C ,  6-C ) :   0.9394
B(  5-C , 13-H ) :   0.9194 B(  5-C , 14-H ) :   0.9237 B(  6-C ,  7-C ) :   0.9116
B(  6-C , 15-H ) :   0.9154 B(  6-C , 16-H ) :   0.9247 B(  7-C ,  8-N ) :   0.9614
B(  7-C , 17-H ) :   0.9175 B(  8-N , 18-H ) :   0.8652

MP2 TOTAL ENERGY:     -418.485893333 Eh
FINAL SINGLE POINT ENERGY      -418.485893333460

DIPOLE MOMENT
-------------
                                X             Y             Z
Electronic contribution:     -3.99355      -1.80629       1.45925
Nuclear contribution   :      4.59717       2.34798      -0.85356
                        -----------------------------------------
Total Dipole Moment    :      0.60362       0.54169       0.60569
                        -----------------------------------------
Magnitude (a.u.)       :      1.01225
Magnitude (Debye)      :      2.57293

                             ****ORCA TERMINATED NORMALLY****
TOTAL RUN TIME: 0 days 0 hours 16 minutes 9 seconds 323 msec
