                         Program Version 3.0.3 - RELEASE   -
|  1> ! RI-MP2 RIJK def2-TZVP def2-TZVP/C def2-TZVP/JK TIGHTSCF
|  2> % maxcore 2000
|  3> % mp2 density relaxed end
|  4> *xyz 0 1
|  5>  O       -0.2103410184     0.3033414361    -0.6779503477
|  6>  C        0.1315842510     1.0301527137     0.2098847854
|  7>  C        1.3266660044     1.9605611401     0.0910618790
|  8>  O        2.2606525271     1.6782377507    -0.9381867627
|  9>  C        1.4669564403     2.8426508363    -1.1284952835
| 10>  C        0.4975209766     2.8574913867    -2.1822950266
| 11>  C       -0.2982933651     2.9325953842    -3.0784923384
| 12>  C        1.8680752094     2.4369249016     1.3482865784
| 13>  N        2.2565284818     2.8035928793     2.3731382982
| 14>  H       -0.3975720576     1.0970164697     1.1818167411
| 15>  H        2.0012009259     3.7775666362    -0.9616856857
| 16>  H       -1.0061399755     2.9783946054    -3.8702668776
| 17> *
| 18>
| 19>                          ****END OF INPUT****

CARTESIAN COORDINATES (ANGSTROEM)
---------------------------------
  O     -0.210341    0.303341   -0.677950
  C      0.131584    1.030153    0.209885
  C      1.326666    1.960561    0.091062
  O      2.260653    1.678238   -0.938187
  C      1.466956    2.842651   -1.128495
  C      0.497521    2.857491   -2.182295
  C     -0.298293    2.932595   -3.078492
  C      1.868075    2.436925    1.348287
  N      2.256528    2.803593    2.373138
  H     -0.397572    1.097016    1.181817
  H      2.001201    3.777567   -0.961686
  H     -1.006140    2.978395   -3.870267

 Total Charge           Charge          ....    0
 Multiplicity           Mult            ....    1
 Number of Electrons    NEL             ....   62
 Basis Dimension        Dim             ....  297

ORBITAL ENERGIES
----------------

  NO   OCC          E(Eh)            E(eV)
   0   2.0000     -20.641271      -561.6775
   1   2.0000     -20.598179      -560.5050
   2   2.0000     -15.611509      -424.8108
   3   2.0000     -11.382169      -309.7246
   4   2.0000     -11.376647      -309.5743
   5   2.0000     -11.375584      -309.5454
   6   2.0000     -11.307763      -307.6999
   7   2.0000     -11.269907      -306.6698
   8   2.0000     -11.265861      -306.5596
   9   2.0000      -1.493252       -40.6334
  10   2.0000      -1.434604       -39.0376
  11   2.0000      -1.253298       -34.1040
  12   2.0000      -1.087724       -29.5985
  13   2.0000      -1.055608       -28.7246
  14   2.0000      -0.970527       -26.4094
  15   2.0000      -0.876071       -23.8391
  16   2.0000      -0.798879       -21.7386
  17   2.0000      -0.776572       -21.1316
  18   2.0000      -0.727609       -19.7993
  19   2.0000      -0.693992       -18.8845
  20   2.0000      -0.670727       -18.2514
  21   2.0000      -0.652687       -17.7605
  22   2.0000      -0.596853       -16.2412
  23   2.0000      -0.591914       -16.1068
  24   2.0000      -0.552504       -15.0344
  25   2.0000      -0.528478       -14.3806
  26   2.0000      -0.509116       -13.8538
  27   2.0000      -0.487278       -13.2595
  28   2.0000      -0.467544       -12.7225
  29   2.0000      -0.430739       -11.7210
  30   2.0000      -0.412475       -11.2240
  31   0.0000       0.063896         1.7387
  32   0.0000       0.119508         3.2520
  33   0.0000       0.122498         3.3333
  34   0.0000       0.141390         3.8474
  35   0.0000       0.151182         4.1139

MULLIKEN ATOMIC CHARGES
-----------------------
   0 O :   -0.216896
   1 C :    0.049371
   2 C :    0.383619
   3 O :   -0.258767
   4 C :   -0.207798
   5 C :    0.042380
   6 C :   -0.055647
   7 C :   -0.197996
   8 N :   -0.033250
   9 H :    0.123352
  10 H :    0.162988
  11 H :    0.208644
Sum of atomic charges:    0.0000000

LOEWDIN ATOMIC CHARGES
----------------------
   0 O :    0.193526
   1 C :   -0.241521
   2 C :   -0.283959
   3 O :    0.265515
   4 C :   -0.199991
   5 C :   -0.084936
   6 C :   -0.034231
   7 C :   -0.144727
   8 N :    0.099737
   9 H :    0.129018
  10 H :    0.166824
  11 H :    0.134745

  Mayer bond orders larger than 0.1
B(  0-O ,  1-C ) :   2.0060 B(  1-C ,  2-C ) :   0.8333 B(  1-C ,  9-H ) :   0.9467
B(  2-C ,  3-O ) :   0.9176 B(  2-C ,  4-C ) :   0.8927 B(  2-C ,  7-C ) :   0.8773
B(  3-O ,  4-C ) :   0.9304 B(  4-C ,  5-C ) :   1.1274 B(  4-C ,  6-C ) :  -0.1230
B(  4-C , 10-H ) :   0.9465 B(  5-C ,  6-C ) :   2.5818 B(  6-C , 11-H ) :   0.8814
B(  7-C ,  8-N ) :   2.8200

MP2 TOTAL ENERGY:     -434.693479749 Eh
FINAL SINGLE POINT ENERGY      -434.693479749174

DIPOLE MOMENT
-------------
                                X             Y             Z
Electronic contribution:      1.61549      -0.97362       1.52800
Nuclear contribution   :     -2.33768       1.58173      -2.18274
                        -----------------------------------------
Total Dipole Moment    :     -0.72219       0.60811      -0.65474
                        -----------------------------------------
Magnitude (a.u.)       :      1.14893
Magnitude (Debye)      :      2.92035

                             ****ORCA TERMINATED NORMALLY****
TOTAL RUN TIME: 0 days 0 hours 12 minutes 12 seconds 494 msec
