                         Program Version 3.0.3 - RELEASE   -
|  1> ! RI-MP2 RIJK def2-TZVP def2-TZVP/C def2-TZVP/JK TIGHTSCF
|  2> % maxcore 2000
|  3> % mp2 density relaxed end
|  4> *xyz 0 1
|  5>  O        0.0433114752     1.3967565329     0.3110165123
|  6>  C       -0.0268693469     0.0633481846    -0.1567826839
|  7>  C       -1.4036440164    -0.5262357831     0.0249103571
|  8>  C       -1.8063056460    -1.1698409181     1.3201809085
|  9>  C       -1.6129790321    -2.0172231731     0.0675051003
| 10>  C       -2.8301602873    -2.5519154151    -0.6802767211
| 11>  O       -3.3403871364    -1.6097352103    -1.6231170268
| 12>  C       -3.5329479178    -0.3618323508    -1.0379451467
| 13>  O       -2.3168979713     0.2711215867    -0.6964467712
| 14>  H       -0.6768449650     1.8703792736    -0.1207819918
| 15>  H        0.2463655082    -0.0026532132    -1.2219738145
| 16>  H        0.7036948374    -0.5151600522     0.4170871515
| 17>  H       -1.0632916237    -1.2294322622     2.1077090414
| 18>  H       -2.8231868596    -1.0356729907     1.6757589117
| 19>  H       -0.7268389221    -2.6425381432     0.0231117438
| 20>  H       -2.5632311561    -3.4354881796    -1.2638918917
| 21>  H       -3.6312292186    -2.8379321846     0.0193119906
| 22>  H       -4.0105833341     0.2824325517    -1.7785953296
| 23>  H       -4.1796948774    -0.4486997032    -0.1451868999
| 24> *
| 25>
| 26>                          ****END OF INPUT****

CARTESIAN COORDINATES (ANGSTROEM)
---------------------------------
  O      0.043311    1.396757    0.311017
  C     -0.026869    0.063348   -0.156783
  C     -1.403644   -0.526236    0.024910
  C     -1.806306   -1.169841    1.320181
  C     -1.612979   -2.017223    0.067505
  C     -2.830160   -2.551915   -0.680277
  O     -3.340387   -1.609735   -1.623117
  C     -3.532948   -0.361832   -1.037945
  O     -2.316898    0.271122   -0.696447
  H     -0.676845    1.870379   -0.120782
  H      0.246366   -0.002653   -1.221974
  H      0.703695   -0.515160    0.417087
  H     -1.063292   -1.229432    2.107709
  H     -2.823187   -1.035673    1.675759
  H     -0.726839   -2.642538    0.023112
  H     -2.563231   -3.435488   -1.263892
  H     -3.631229   -2.837932    0.019312
  H     -4.010583    0.282433   -1.778595
  H     -4.179695   -0.448700   -0.145187

 Total Charge           Charge          ....    0
 Multiplicity           Mult            ....    1
 Number of Electrons    NEL             ....   70
 Basis Dimension        Dim             ....  339

ORBITAL ENERGIES
----------------

  NO   OCC          E(Eh)            E(eV)
   0   2.0000     -20.573708      -559.8391
   1   2.0000     -20.570591      -559.7542
   2   2.0000     -20.550146      -559.1979
   3   2.0000     -11.336700      -308.4873
   4   2.0000     -11.297428      -307.4187
   5   2.0000     -11.292129      -307.2744
   6   2.0000     -11.277862      -306.8862
   7   2.0000     -11.244929      -305.9901
   8   2.0000     -11.234932      -305.7181
   9   2.0000      -1.435094       -39.0509
  10   2.0000      -1.366956       -37.1968
  11   2.0000      -1.347364       -36.6637
  12   2.0000      -1.156717       -31.4759
  13   2.0000      -0.978452       -26.6250
  14   2.0000      -0.966812       -26.3083
  15   2.0000      -0.893278       -24.3073
  16   2.0000      -0.821180       -22.3454
  17   2.0000      -0.765793       -20.8383
  18   2.0000      -0.724823       -19.7234
  19   2.0000      -0.702093       -19.1049
  20   2.0000      -0.671232       -18.2652
  21   2.0000      -0.659060       -17.9339
  22   2.0000      -0.638516       -17.3749
  23   2.0000      -0.633876       -17.2487
  24   2.0000      -0.601325       -16.3629
  25   2.0000      -0.584412       -15.9026
  26   2.0000      -0.576535       -15.6883
  27   2.0000      -0.544943       -14.8287
  28   2.0000      -0.511861       -13.9284
  29   2.0000      -0.497048       -13.5254
  30   2.0000      -0.490276       -13.3411
  31   2.0000      -0.456113       -12.4115
  32   2.0000      -0.455359       -12.3910
  33   2.0000      -0.411627       -11.2010
  34   2.0000      -0.390835       -10.6352
  35   0.0000       0.141232         3.8431
  36   0.0000       0.151594         4.1251
  37   0.0000       0.165128         4.4934
  38   0.0000       0.177147         4.8204
  39   0.0000       0.186144         5.0652

MULLIKEN ATOMIC CHARGES
-----------------------
   0 O :   -0.472475
   1 C :   -0.020969
   2 C :    0.218649
   3 C :   -0.307519
   4 C :   -0.181440
   5 C :   -0.060897
   6 O :   -0.299707
   7 C :    0.048711
   8 O :   -0.324360
   9 H :    0.326785
  10 H :    0.106099
  11 H :    0.099516
  12 H :    0.137792
  13 H :    0.134041
  14 H :    0.132000
  15 H :    0.129893
  16 H :    0.108033
  17 H :    0.135682
  18 H :    0.090166
Sum of atomic charges:   -0.0000000

LOEWDIN ATOMIC CHARGES
----------------------
   0 O :   -0.040589
   1 C :   -0.305467
   2 C :   -0.327339
   3 C :   -0.186734
   4 C :   -0.190718
   5 C :   -0.284245
   6 O :    0.165288
   7 C :   -0.388482
   8 O :    0.197216
   9 H :    0.179076
  10 H :    0.125840
  11 H :    0.134854
  12 H :    0.139869
  13 H :    0.137061
  14 H :    0.151281
  15 H :    0.135657
  16 H :    0.125255
  17 H :    0.125576
  18 H :    0.106602

  Mayer bond orders larger than 0.1
B(  0-O ,  1-C ) :   0.9484 B(  0-O ,  9-H ) :   0.8355 B(  1-C ,  2-C ) :   0.9560
B(  1-C , 10-H ) :   0.9289 B(  1-C , 11-H ) :   0.9145 B(  2-C ,  3-C ) :   0.8662
B(  2-C ,  4-C ) :   0.8378 B(  2-C ,  8-O ) :   0.9311 B(  3-C ,  4-C ) :   0.8666
B(  3-C , 12-H ) :   0.9195 B(  3-C , 13-H ) :   0.9108 B(  4-C ,  5-C ) :   0.9125
B(  4-C , 14-H ) :   0.9134 B(  5-C ,  6-O ) :   0.9208 B(  5-C , 15-H ) :   0.9306
B(  5-C , 16-H ) :   0.9359 B(  6-O ,  7-C ) :   0.9969 B(  7-C ,  8-O ) :   0.9549
B(  7-C , 17-H ) :   0.9271 B(  7-C , 18-H ) :   0.9364

MP2 TOTAL ENERGY:     -459.405762292 Eh
FINAL SINGLE POINT ENERGY      -459.405762292292

DIPOLE MOMENT
-------------
                                X             Y             Z
Electronic contribution:     -0.41913       2.30708      -2.27094
Nuclear contribution   :     -0.02312      -3.00361       2.45136
                        -----------------------------------------
Total Dipole Moment    :     -0.44225      -0.69653       0.18042
                        -----------------------------------------
Magnitude (a.u.)       :      0.84456
Magnitude (Debye)      :      2.14670

                             ****ORCA TERMINATED NORMALLY****
TOTAL RUN TIME: 0 days 0 hours 15 minutes 55 seconds 303 msec
