                         Program Version 3.0.3 - RELEASE   -
|  1> ! RI-MP2 RIJK def2-TZVP def2-TZVP/C def2-TZVP/JK TIGHTSCF
|  2> % maxcore 2000
|  3> % mp2 density relaxed end
|  4> *xyz 0 1
|  5>  C        0.3515506897     0.9430880864     0.7134283981
|  6>  C       -0.4233301105     0.3162622540    -0.4604693059
|  7>  C        0.4973959232    -0.2230942043    -1.5148992604
|  8>  N        0.6920464668     0.3719625343    -2.6353018497
|  9>  C        1.5981073468    -0.2066234336    -3.5285865644
| 10>  O        1.8553624102     0.2573475891    -4.6150970033
| 11>  C        2.2387987772    -1.4538779740    -3.0454028565
| 12>  N        2.0170742844    -2.0187425124    -1.9183632826
| 13>  O        1.0827875928    -1.3721015501    -1.0994632553
| 14>  H        0.9955814141     0.2048825129     1.1981423959
| 15>  H        0.9740714848     1.7736533201     0.3689978467
| 16>  H       -0.3492919438     1.3281638192     1.4582483412
| 17>  H       -1.0525790447    -0.5019889961    -0.0949541801
| 18>  H       -1.0609734922     1.0583080686    -0.9441309216
| 19>  H        2.9624637313    -1.9544710440    -3.6826525522
| 20> *
| 21>
| 22>                          ****END OF INPUT****

CARTESIAN COORDINATES (ANGSTROEM)
---------------------------------
  C      0.351551    0.943088    0.713428
  C     -0.423330    0.316262   -0.460469
  C      0.497396   -0.223094   -1.514899
  N      0.692046    0.371963   -2.635302
  C      1.598107   -0.206623   -3.528587
  O      1.855362    0.257348   -4.615097
  C      2.238799   -1.453878   -3.045403
  N      2.017074   -2.018743   -1.918363
  O      1.082788   -1.372102   -1.099463
  H      0.995581    0.204883    1.198142
  H      0.974071    1.773653    0.368998
  H     -0.349292    1.328164    1.458248
  H     -1.052579   -0.501989   -0.094954
  H     -1.060973    1.058308   -0.944131
  H      2.962464   -1.954471   -3.682653

 Total Charge           Charge          ....    0
 Multiplicity           Mult            ....    1
 Number of Electrons    NEL             ....   66
 Basis Dimension        Dim             ....  315

ORBITAL ENERGIES
----------------

  NO   OCC          E(Eh)            E(eV)
   0   2.0000     -20.676890      -562.6468
   1   2.0000     -20.558424      -559.4231
   2   2.0000     -15.688191      -426.8974
   3   2.0000     -15.583948      -424.0608
   4   2.0000     -11.395364      -310.0836
   5   2.0000     -11.379443      -309.6504
   6   2.0000     -11.320252      -308.0397
   7   2.0000     -11.265270      -306.5436
   8   2.0000     -11.245864      -306.0155
   9   2.0000      -1.521854       -41.4118
  10   2.0000      -1.412460       -38.4350
  11   2.0000      -1.268111       -34.5070
  12   2.0000      -1.230614       -33.4867
  13   2.0000      -1.078044       -29.3351
  14   2.0000      -0.952848       -25.9283
  15   2.0000      -0.938564       -25.5396
  16   2.0000      -0.855783       -23.2870
  17   2.0000      -0.792489       -21.5647
  18   2.0000      -0.745934       -20.2979
  19   2.0000      -0.702913       -19.1272
  20   2.0000      -0.677844       -18.4451
  21   2.0000      -0.646528       -17.5929
  22   2.0000      -0.635562       -17.2945
  23   2.0000      -0.597780       -16.2664
  24   2.0000      -0.579888       -15.7796
  25   2.0000      -0.561094       -15.2682
  26   2.0000      -0.558729       -15.2038
  27   2.0000      -0.540226       -14.7003
  28   2.0000      -0.522402       -14.2153
  29   2.0000      -0.497333       -13.5331
  30   2.0000      -0.479620       -13.0511
  31   2.0000      -0.427127       -11.6227
  32   2.0000      -0.423316       -11.5190
  33   0.0000       0.062901         1.7116
  34   0.0000       0.102477         2.7885
  35   0.0000       0.134630         3.6635
  36   0.0000       0.164902         4.4872
  37   0.0000       0.169379         4.6090

MULLIKEN ATOMIC CHARGES
-----------------------
   0 C :   -0.417014
   1 C :   -0.189131
   2 C :    0.248899
   3 N :   -0.234771
   4 C :    0.228998
   5 O :   -0.273140
   6 C :   -0.084074
   7 N :   -0.061440
   8 O :   -0.119081
   9 H :    0.147997
  10 H :    0.144554
  11 H :    0.145204
  12 H :    0.138662
  13 H :    0.151830
  14 H :    0.172508
Sum of atomic charges:    0.0000000

LOEWDIN ATOMIC CHARGES
----------------------
   0 C :   -0.298754
   1 C :   -0.240304
   2 C :   -0.331290
   3 N :    0.160836
   4 C :   -0.440078
   5 O :    0.153184
   6 C :   -0.196325
   7 N :    0.082509
   8 O :    0.257961
   9 H :    0.127048
  10 H :    0.128162
  11 H :    0.127575
  12 H :    0.153219
  13 H :    0.156553
  14 H :    0.159704

  Mayer bond orders larger than 0.1
B(  0-C ,  1-C ) :   0.9035 B(  0-C ,  9-H ) :   0.9354 B(  0-C , 10-H ) :   0.9329
B(  0-C , 11-H ) :   0.9346 B(  1-C ,  2-C ) :   0.9001 B(  1-C , 12-H ) :   0.9211
B(  1-C , 13-H ) :   0.9340 B(  2-C ,  3-N ) :   1.6857 B(  2-C ,  8-O ) :   1.1020
B(  3-N ,  4-C ) :   1.0919 B(  4-C ,  5-O ) :   1.9683 B(  4-C ,  6-C ) :   0.9882
B(  6-C ,  7-N ) :   1.7132 B(  6-C , 14-H ) :   0.8965 B(  7-N ,  8-O ) :   0.8089

MP2 TOTAL ENERGY:     -453.196627268 Eh
FINAL SINGLE POINT ENERGY      -453.196627268230

DIPOLE MOMENT
-------------
                                X             Y             Z
Electronic contribution:      3.53259      -4.12581      -8.39613
Nuclear contribution   :     -3.85776       3.85436       9.58464
                        -----------------------------------------
Total Dipole Moment    :     -0.32516      -0.27146       1.18850
                        -----------------------------------------
Magnitude (a.u.)       :      1.26173
Magnitude (Debye)      :      3.20706

                             ****ORCA TERMINATED NORMALLY****
TOTAL RUN TIME: 0 days 0 hours 15 minutes 8 seconds 422 msec
