                         Program Version 3.0.3 - RELEASE   -
|  1> ! RI-MP2 RIJK def2-TZVP def2-TZVP/C def2-TZVP/JK TIGHTSCF
|  2> % maxcore 2000
|  3> % mp2 density relaxed end
|  4> *xyz 0 1
|  5>  C        0.0754098137     1.5205077269    -0.2537431379
|  6>  C        0.0063421489     0.0304350093     0.1059106632
|  7>  C       -1.3888925746    -0.5078954025     0.1429044829
|  8>  C       -2.0154071659    -1.8594060906     0.0417387759
|  9>  C       -2.9303347067    -1.6114831669     1.2436633249
| 10>  C       -2.6860091679    -0.0997509229     0.9791516469
| 11>  C       -3.3268947352     0.1370991308    -0.4031115755
| 12>  O       -4.1117411213     0.9405792687    -0.8252581893
| 13>  C       -2.3590980923    -0.8100645312    -1.0331431984
| 14>  H        1.1115501448     1.8710294352    -0.2581274481
| 15>  H       -0.3520920838     1.7070215261    -1.2435634134
| 16>  H       -0.4803154022     2.1269277630     0.4685763759
| 17>  H        0.5865639412    -0.5553646031    -0.6181334491
| 18>  H        0.4822666159    -0.1343533338     1.0816376187
| 19>  H       -1.5469701012    -2.7864467475    -0.2673598857
| 20>  H       -3.9668497523    -1.9642550701     1.2012150483
| 21>  H       -2.4613592818    -1.9459493298     2.1728334953
| 22>  H       -2.7583186121     0.6509707355     1.7616153431
| 23>  H       -2.1126930873    -0.9540322970    -2.0765062677
| 24> *
| 25>
| 26>                          ****END OF INPUT****

CARTESIAN COORDINATES (ANGSTROEM)
---------------------------------
  C      0.075410    1.520508   -0.253743
  C      0.006342    0.030435    0.105911
  C     -1.388893   -0.507895    0.142904
  C     -2.015407   -1.859406    0.041739
  C     -2.930335   -1.611483    1.243663
  C     -2.686009   -0.099751    0.979152
  C     -3.326895    0.137099   -0.403112
  O     -4.111741    0.940579   -0.825258
  C     -2.359098   -0.810065   -1.033143
  H      1.111550    1.871029   -0.258127
  H     -0.352092    1.707022   -1.243563
  H     -0.480315    2.126928    0.468576
  H      0.586564   -0.555365   -0.618133
  H      0.482267   -0.134353    1.081638
  H     -1.546970   -2.786447   -0.267360
  H     -3.966850   -1.964255    1.201215
  H     -2.461359   -1.945949    2.172833
  H     -2.758319    0.650971    1.761615
  H     -2.112693   -0.954032   -2.076506

 Total Charge           Charge          ....    0
 Multiplicity           Mult            ....    1
 Number of Electrons    NEL             ....   66
 Basis Dimension        Dim             ....  339

ORBITAL ENERGIES
----------------

  NO   OCC          E(Eh)            E(eV)
   0   2.0000     -20.533821      -558.7537
   1   2.0000     -11.327818      -308.2456
   2   2.0000     -11.266705      -306.5826
   3   2.0000     -11.258803      -306.3676
   4   2.0000     -11.252275      -306.1900
   5   2.0000     -11.247727      -306.0662
   6   2.0000     -11.246133      -306.0228
   7   2.0000     -11.244380      -305.9751
   8   2.0000     -11.223480      -305.4064
   9   2.0000      -1.381020       -37.5795
  10   2.0000      -1.249997       -34.0141
  11   2.0000      -1.053157       -28.6579
  12   2.0000      -0.987396       -26.8684
  13   2.0000      -0.949873       -25.8474
  14   2.0000      -0.893740       -24.3199
  15   2.0000      -0.817446       -22.2438
  16   2.0000      -0.738480       -20.0951
  17   2.0000      -0.724675       -19.7194
  18   2.0000      -0.676812       -18.4170
  19   2.0000      -0.646956       -17.6046
  20   2.0000      -0.629979       -17.1426
  21   2.0000      -0.611094       -16.6287
  22   2.0000      -0.589727       -16.0473
  23   2.0000      -0.572839       -15.5877
  24   2.0000      -0.548701       -14.9309
  25   2.0000      -0.537129       -14.6160
  26   2.0000      -0.523564       -14.2469
  27   2.0000      -0.507514       -13.8102
  28   2.0000      -0.492484       -13.4012
  29   2.0000      -0.453563       -12.3421
  30   2.0000      -0.420363       -11.4386
  31   2.0000      -0.387561       -10.5461
  32   2.0000      -0.381699       -10.3866
  33   0.0000       0.124097         3.3769
  34   0.0000       0.145436         3.9575
  35   0.0000       0.158801         4.3212
  36   0.0000       0.167937         4.5698
  37   0.0000       0.181486         4.9385

MULLIKEN ATOMIC CHARGES
-----------------------
   0 C :   -0.401012
   1 C :   -0.220191
   2 C :    0.027781
   3 C :   -0.155813
   4 C :   -0.209331
   5 C :   -0.065017
   6 C :    0.124059
   7 O :   -0.276112
   8 C :   -0.149139
   9 H :    0.138150
  10 H :    0.137381
  11 H :    0.132409
  12 H :    0.117484
  13 H :    0.122254
  14 H :    0.140475
  15 H :    0.123150
  16 H :    0.123905
  17 H :    0.139959
  18 H :    0.149609
Sum of atomic charges:   -0.0000000

LOEWDIN ATOMIC CHARGES
----------------------
   0 C :   -0.303674
   1 C :   -0.257712
   2 C :   -0.115544
   3 C :   -0.139018
   4 C :   -0.186084
   5 C :   -0.106292
   6 C :   -0.303171
   7 O :    0.142035
   8 C :   -0.096287
   9 H :    0.122624
  10 H :    0.125968
  11 H :    0.124628
  12 H :    0.147845
  13 H :    0.145779
  14 H :    0.143156
  15 H :    0.129848
  16 H :    0.140490
  17 H :    0.139357
  18 H :    0.146050

  Mayer bond orders larger than 0.1
B(  0-C ,  1-C ) :   0.9396 B(  0-C ,  9-H ) :   0.9361 B(  0-C , 10-H ) :   0.9359
B(  0-C , 11-H ) :   0.9379 B(  1-C ,  2-C ) :   0.8548 B(  1-C , 12-H ) :   0.9312
B(  1-C , 13-H ) :   0.9367 B(  2-C ,  3-C ) :   0.8007 B(  2-C ,  5-C ) :   0.8111
B(  2-C ,  8-C ) :   0.7931 B(  3-C ,  4-C ) :   0.9618 B(  3-C ,  8-C ) :   0.7861
B(  3-C , 14-H ) :   0.9173 B(  4-C ,  5-C ) :   0.9105 B(  4-C , 15-H ) :   0.9278
B(  4-C , 16-H ) :   0.9177 B(  5-C ,  6-C ) :   0.8917 B(  5-C ,  8-C ) :  -0.1421
B(  5-C , 17-H ) :   0.9052 B(  6-C ,  7-O ) :   2.0426 B(  6-C ,  8-C ) :   0.9472
B(  8-C , 18-H ) :   0.9111

MP2 TOTAL ENERGY:     -385.185025491 Eh
FINAL SINGLE POINT ENERGY      -385.185025491365

DIPOLE MOMENT
-------------
                                X             Y             Z
Electronic contribution:     -7.42226      -0.88143      -1.69174
Nuclear contribution   :      8.61406       0.10533       2.15519
                        -----------------------------------------
Total Dipole Moment    :      1.19180      -0.77610       0.46346
                        -----------------------------------------
Magnitude (a.u.)       :      1.49583
Magnitude (Debye)      :      3.80209

                             ****ORCA TERMINATED NORMALLY****
TOTAL RUN TIME: 0 days 0 hours 18 minutes 51 seconds 837 msec
