                         Program Version 3.0.3 - RELEASE   -
|  1> ! RI-MP2 RIJK def2-TZVP def2-TZVP/C def2-TZVP/JK TIGHTSCF
|  2> % maxcore 2000
|  3> % mp2 density relaxed end
|  4> *xyz 0 1
|  5>  C        0.0048446587     1.4731127903     0.1231544154
|  6>  O        1.4416456992     1.4415746163    -0.1339851928
|  7>  C        1.3418813217     0.1123129073    -0.7167751559
|  8>  C        2.1719150632    -1.0382271326    -0.1553200931
|  9>  O        1.4684245114    -2.2239058236    -0.5205805078
| 10>  C        0.1980932211    -2.4030885050     0.0938430032
| 11>  C       -0.5825330474    -1.1247949731     0.2894888324
| 12>  C       -0.0489153401    -0.0046938639    -0.1683821830
| 13>  H       -0.2338882158     1.7944168398     1.1432173021
| 14>  H       -0.5115229035     2.1268537934    -0.5934492794
| 15>  H        1.4371371058     0.1596892408    -1.8096179402
| 16>  H        3.1662875923    -1.1322891847    -0.5986446219
| 17>  H        2.2703769612    -0.9287744339     0.9345853758
| 18>  H       -0.3342508530    -3.1224278602    -0.5400594403
| 19>  H        0.3211029631    -2.8790949679     1.0831951601
| 20>  H       -1.4793822078    -1.1633371030     0.9010950554
| 21> *
| 22>
| 23>                          ****END OF INPUT****

CARTESIAN COORDINATES (ANGSTROEM)
---------------------------------
  C      0.004845    1.473113    0.123154
  O      1.441646    1.441575   -0.133985
  C      1.341881    0.112313   -0.716775
  C      2.171915   -1.038227   -0.155320
  O      1.468425   -2.223906   -0.520581
  C      0.198093   -2.403089    0.093843
  C     -0.582533   -1.124795    0.289489
  C     -0.048915   -0.004694   -0.168382
  H     -0.233888    1.794417    1.143217
  H     -0.511523    2.126854   -0.593449
  H      1.437137    0.159689   -1.809618
  H      3.166288   -1.132289   -0.598645
  H      2.270377   -0.928774    0.934585
  H     -0.334251   -3.122428   -0.540059
  H      0.321103   -2.879095    1.083195
  H     -1.479382   -1.163337    0.901095

 Total Charge           Charge          ....    0
 Multiplicity           Mult            ....    1
 Number of Electrons    NEL             ....   60
 Basis Dimension        Dim             ....  296

ORBITAL ENERGIES
----------------

  NO   OCC          E(Eh)            E(eV)
   0   2.0000     -20.562860      -559.5439
   1   2.0000     -20.558437      -559.4235
   2   2.0000     -11.293423      -307.3097
   3   2.0000     -11.288691      -307.1809
   4   2.0000     -11.283890      -307.0502
   5   2.0000     -11.280310      -306.9528
   6   2.0000     -11.242344      -305.9197
   7   2.0000     -11.239471      -305.8416
   8   2.0000      -1.390222       -37.8299
   9   2.0000      -1.373436       -37.3731
  10   2.0000      -1.084540       -29.5118
  11   2.0000      -1.023757       -27.8578
  12   2.0000      -0.957139       -26.0451
  13   2.0000      -0.867216       -23.5982
  14   2.0000      -0.848041       -23.0764
  15   2.0000      -0.733535       -19.9605
  16   2.0000      -0.695988       -18.9388
  17   2.0000      -0.667902       -18.1745
  18   2.0000      -0.649686       -17.6789
  19   2.0000      -0.646655       -17.5964
  20   2.0000      -0.612736       -16.6734
  21   2.0000      -0.576233       -15.6801
  22   2.0000      -0.558560       -15.1992
  23   2.0000      -0.541298       -14.7295
  24   2.0000      -0.531206       -14.4548
  25   2.0000      -0.489069       -13.3082
  26   2.0000      -0.462500       -12.5853
  27   2.0000      -0.442813       -12.0496
  28   2.0000      -0.415373       -11.3029
  29   2.0000      -0.357673        -9.7328
  30   0.0000       0.139026         3.7831
  31   0.0000       0.146677         3.9913
  32   0.0000       0.160958         4.3799
  33   0.0000       0.176340         4.7984
  34   0.0000       0.185267         5.0414

MULLIKEN ATOMIC CHARGES
-----------------------
   0 C :   -0.009284
   1 O :   -0.324775
   2 C :    0.105667
   3 C :   -0.063169
   4 O :   -0.312144
   5 C :   -0.009863
   6 C :   -0.189427
   7 C :   -0.115256
   8 H :    0.114269
   9 H :    0.106093
  10 H :    0.091420
  11 H :    0.126492
  12 H :    0.105909
  13 H :    0.132785
  14 H :    0.104716
  15 H :    0.136565
Sum of atomic charges:   -0.0000000

LOEWDIN ATOMIC CHARGES
----------------------
   0 C :   -0.220919
   1 O :    0.131094
   2 C :   -0.249663
   3 C :   -0.278005
   4 O :    0.160943
   5 C :   -0.294748
   6 C :   -0.151958
   7 C :   -0.157888
   8 H :    0.124725
   9 H :    0.125019
  10 H :    0.142388
  11 H :    0.129143
  12 H :    0.127904
  13 H :    0.136673
  14 H :    0.130126
  15 H :    0.145164

  Mayer bond orders larger than 0.1
B(  0-C ,  1-O ) :   0.9392 B(  0-C ,  7-C ) :   1.0079 B(  0-C ,  8-H ) :   0.9162
B(  0-C ,  9-H ) :   0.8974 B(  1-O ,  2-C ) :   0.9794 B(  2-C ,  3-C ) :   0.8996
B(  2-C ,  7-C ) :   0.9753 B(  2-C , 10-H ) :   0.9035 B(  3-C ,  4-O ) :   0.8976
B(  3-C , 11-H ) :   0.9271 B(  3-C , 12-H ) :   0.9270 B(  4-O ,  5-C ) :   0.9441
B(  5-C ,  6-C ) :   0.9287 B(  5-C , 13-H ) :   0.9178 B(  5-C , 14-H ) :   0.9319
B(  6-C ,  7-C ) :   1.7240 B(  6-C , 15-H ) :   0.9063

MP2 TOTAL ENERGY:     -383.060642193 Eh
FINAL SINGLE POINT ENERGY      -383.060642192781

DIPOLE MOMENT
-------------
                                X             Y             Z
Electronic contribution:      0.87780       1.08728      -1.24383
Nuclear contribution   :     -1.54069      -1.23923       1.57798
                        -----------------------------------------
Total Dipole Moment    :     -0.66288      -0.15195       0.33415
                        -----------------------------------------
Magnitude (a.u.)       :      0.75773
Magnitude (Debye)      :      1.92600

                             ****ORCA TERMINATED NORMALLY****
TOTAL RUN TIME: 0 days 0 hours 12 minutes 23 seconds 655 msec
