                         Program Version 3.0.3 - RELEASE   -
|  1> ! RI-MP2 RIJK def2-TZVP def2-TZVP/C def2-TZVP/JK TIGHTSCF
|  2> % maxcore 2000
|  3> % mp2 density relaxed end
|  4> *xyz 0 1
|  5>  C        0.2053298388     1.1459558589     0.3295932362
|  6>  O       -0.1850880998    -0.1025197294    -0.2235629914
|  7>  C        0.5890625445    -0.5387443929    -1.2899339858
|  8>  C        1.9825414154    -1.0910504578    -1.0537776343
|  9>  C        0.8277963714    -2.0199096930    -1.3711920749
| 10>  O        0.3235345539    -2.8795459315    -0.4067132939
| 11>  C        0.6221907368    -2.3844195230    -2.8284935772
| 12>  O        0.7365634132    -1.1497515469    -3.5384160597
| 13>  C        0.2592235449    -0.0946919666    -2.7064660604
| 14>  H        1.2533605974     1.1290834749     0.6550914281
| 15>  H        0.0726902359     1.9642821254    -0.3904028422
| 16>  H       -0.4390933118     1.3255384147     1.1927781331
| 17>  H        2.7536328918    -0.9100367754    -1.7962292855
| 18>  H        2.3168543582    -1.1191667761    -0.0223856170
| 19>  H       -0.2217533048    -2.3422519072     0.1843790094
| 20>  H        1.3701527161    -3.0652724128    -3.2451064751
| 21>  H       -0.3752445914    -2.8365076819    -2.9424508053
| 22>  H       -0.8314721593     0.0401914415    -2.7903754513
| 23>  H        0.7556472787     0.8224433089    -3.0395999628
| 24> *
| 25>
| 26>                          ****END OF INPUT****

CARTESIAN COORDINATES (ANGSTROEM)
---------------------------------
  C      0.205330    1.145956    0.329593
  O     -0.185088   -0.102520   -0.223563
  C      0.589063   -0.538744   -1.289934
  C      1.982541   -1.091050   -1.053778
  C      0.827796   -2.019910   -1.371192
  O      0.323535   -2.879546   -0.406713
  C      0.622191   -2.384420   -2.828494
  O      0.736563   -1.149752   -3.538416
  C      0.259224   -0.094692   -2.706466
  H      1.253361    1.129083    0.655091
  H      0.072690    1.964282   -0.390403
  H     -0.439093    1.325538    1.192778
  H      2.753633   -0.910037   -1.796229
  H      2.316854   -1.119167   -0.022386
  H     -0.221753   -2.342252    0.184379
  H      1.370153   -3.065272   -3.245106
  H     -0.375245   -2.836508   -2.942451
  H     -0.831472    0.040191   -2.790375
  H      0.755647    0.822443   -3.039600

 Total Charge           Charge          ....    0
 Multiplicity           Mult            ....    1
 Number of Electrons    NEL             ....   70
 Basis Dimension        Dim             ....  339

ORBITAL ENERGIES
----------------

  NO   OCC          E(Eh)            E(eV)
   0   2.0000     -20.583110      -560.0949
   1   2.0000     -20.565378      -559.6124
   2   2.0000     -20.560316      -559.4747
   3   2.0000     -11.290400      -307.2274
   4   2.0000     -11.287628      -307.1520
   5   2.0000     -11.286896      -307.1320
   6   2.0000     -11.282899      -307.0233
   7   2.0000     -11.276975      -306.8621
   8   2.0000     -11.231637      -305.6284
   9   2.0000      -1.414064       -38.4786
  10   2.0000      -1.381727       -37.5987
  11   2.0000      -1.369819       -37.2747
  12   2.0000      -1.132939       -30.8288
  13   2.0000      -0.996895       -27.1269
  14   2.0000      -0.948772       -25.8174
  15   2.0000      -0.909743       -24.7554
  16   2.0000      -0.790401       -21.5079
  17   2.0000      -0.784439       -21.3457
  18   2.0000      -0.725097       -19.7309
  19   2.0000      -0.693153       -18.8616
  20   2.0000      -0.667630       -18.1671
  21   2.0000      -0.651693       -17.7335
  22   2.0000      -0.635283       -17.2869
  23   2.0000      -0.617773       -16.8105
  24   2.0000      -0.601743       -16.3742
  25   2.0000      -0.585927       -15.9439
  26   2.0000      -0.571174       -15.5424
  27   2.0000      -0.546497       -14.8710
  28   2.0000      -0.539485       -14.6801
  29   2.0000      -0.513739       -13.9796
  30   2.0000      -0.505403       -13.7527
  31   2.0000      -0.456678       -12.4268
  32   2.0000      -0.431149       -11.7322
  33   2.0000      -0.401950       -10.9376
  34   2.0000      -0.383551       -10.4369
  35   0.0000       0.133565         3.6345
  36   0.0000       0.159943         4.3523
  37   0.0000       0.173823         4.7300
  38   0.0000       0.176898         4.8136
  39   0.0000       0.193470         5.2646

MULLIKEN ATOMIC CHARGES
-----------------------
   0 C :   -0.206018
   1 O :   -0.330380
   2 C :    0.117830
   3 C :   -0.283431
   4 C :    0.094938
   5 O :   -0.456092
   6 C :   -0.011455
   7 O :   -0.323431
   8 C :   -0.044191
   9 H :    0.124268
  10 H :    0.122804
  11 H :    0.144562
  12 H :    0.143617
  13 H :    0.138449
  14 H :    0.337267
  15 H :    0.119650
  16 H :    0.095792
  17 H :    0.100147
  18 H :    0.115674
Sum of atomic charges:    0.0000000

LOEWDIN ATOMIC CHARGES
----------------------
   0 C :   -0.331412
   1 O :    0.186208
   2 C :   -0.337857
   3 C :   -0.170553
   4 C :   -0.338988
   5 O :    0.034434
   6 C :   -0.253101
   7 O :    0.152710
   8 C :   -0.263275
   9 H :    0.106481
  10 H :    0.106483
  11 H :    0.114514
  12 H :    0.142081
  13 H :    0.145173
  14 H :    0.189186
  15 H :    0.131100
  16 H :    0.129244
  17 H :    0.129102
  18 H :    0.128472

  Mayer bond orders larger than 0.1
B(  0-C ,  1-O ) :   0.8815 B(  0-C ,  9-H ) :   0.9345 B(  0-C , 10-H ) :   0.9371
B(  0-C , 11-H ) :   0.9384 B(  1-O ,  2-C ) :   0.9717 B(  2-C ,  3-C ) :   0.8857
B(  2-C ,  4-C ) :   0.8462 B(  2-C ,  8-C ) :   0.9429 B(  3-C ,  4-C ) :   0.8633
B(  3-C , 12-H ) :   0.8905 B(  3-C , 13-H ) :   0.9167 B(  4-C ,  5-O ) :   1.1274
B(  4-C ,  6-C ) :   0.9382 B(  5-O , 14-H ) :   0.8172 B(  6-C ,  7-O ) :   0.9148
B(  6-C , 15-H ) :   0.9231 B(  6-C , 16-H ) :   0.9171 B(  7-O ,  8-C ) :   0.9326
B(  8-C , 17-H ) :   0.9130 B(  8-C , 18-H ) :   0.9183

MP2 TOTAL ENERGY:     -459.397694505 Eh
FINAL SINGLE POINT ENERGY      -459.397694504534

DIPOLE MOMENT
-------------
                                X             Y             Z
Electronic contribution:     -0.86031      -3.82911      -1.44034
Nuclear contribution   :      0.85378       4.74297       1.97902
                        -----------------------------------------
Total Dipole Moment    :     -0.00653       0.91386       0.53869
                        -----------------------------------------
Magnitude (a.u.)       :      1.06083
Magnitude (Debye)      :      2.69642

                             ****ORCA TERMINATED NORMALLY****
TOTAL RUN TIME: 0 days 0 hours 16 minutes 7 seconds 224 msec
