                         Program Version 3.0.3 - RELEASE   -
|  1> ! RI-MP2 RIJK def2-TZVP def2-TZVP/C def2-TZVP/JK TIGHTSCF
|  2> % maxcore 2000
|  3> % mp2 density relaxed end
|  4> *xyz 0 1
|  5>  C       -0.4434893186     1.2036722444    -0.1180074036
|  6>  C       -0.1207777889    -0.2868759580     0.0142909689
|  7>  C        0.8361542859    -0.5729583035     1.1836649339
|  8>  O        0.3050448721    -0.0710814104     2.4000679112
|  9>  C        1.1990664337    -2.0579003022     1.3466169521
| 10>  C        1.6743297734    -2.8336975027     0.1210516774
| 11>  C        0.5584066272    -3.5671985344    -0.6365539580
| 12>  C        1.6042642583    -2.5084996799     2.6869594483
| 13>  O        0.2741835431    -2.7632786700     2.2016098013
| 14>  H        0.4605712898     1.7844397511    -0.3342648010
| 15>  H       -1.1561945710     1.3818576589    -0.9287089799
| 16>  H       -0.8701513011     1.5872435679     0.8115371748
| 17>  H       -1.0452498198    -0.8582131759     0.1700071650
| 18>  H        0.3227411549    -0.6521878437    -0.9187321808
| 19>  H        1.7708005179    -0.0198321584     1.0132212294
| 20>  H       -0.3272447367    -0.7411052135     2.6974127344
| 21>  H        2.2005382768    -2.1423707114    -0.5483757190
| 22>  H        2.4192476165    -3.5706864029     0.4391390651
| 23>  H        0.9821832996    -4.1657938256    -1.4483273147
| 24>  H        0.0210902536    -4.2356122834     0.0407891805
| 25>  H       -0.1690382785    -2.8787675536    -1.0734038030
| 26>  H        2.2317883123    -3.3932560518     2.7808239636
| 27>  H        1.6636086796    -1.7925424708     3.5019275342
| 28> *
| 29>
| 30>                          ****END OF INPUT****

CARTESIAN COORDINATES (ANGSTROEM)
---------------------------------
  C     -0.443489    1.203672   -0.118007
  C     -0.120778   -0.286876    0.014291
  C      0.836154   -0.572958    1.183665
  O      0.305045   -0.071081    2.400068
  C      1.199066   -2.057900    1.346617
  C      1.674330   -2.833698    0.121052
  C      0.558407   -3.567199   -0.636554
  C      1.604264   -2.508500    2.686959
  O      0.274184   -2.763279    2.201610
  H      0.460571    1.784440   -0.334265
  H     -1.156195    1.381858   -0.928709
  H     -0.870151    1.587244    0.811537
  H     -1.045250   -0.858213    0.170007
  H      0.322741   -0.652188   -0.918732
  H      1.770801   -0.019832    1.013221
  H     -0.327245   -0.741105    2.697413
  H      2.200538   -2.142371   -0.548376
  H      2.419248   -3.570686    0.439139
  H      0.982183   -4.165794   -1.448327
  H      0.021090   -4.235612    0.040789
  H     -0.169038   -2.878768   -1.073404
  H      2.231788   -3.393256    2.780824
  H      1.663609   -1.792542    3.501928

 Total Charge           Charge          ....    0
 Multiplicity           Mult            ....    1
 Number of Electrons    NEL             ....   72
 Basis Dimension        Dim             ....  363

ORBITAL ENERGIES
----------------

  NO   OCC          E(Eh)            E(eV)
   0   2.0000     -20.570964      -559.7644
   1   2.0000     -20.549656      -559.1846
   2   2.0000     -11.293783      -307.3195
   3   2.0000     -11.284580      -307.0690
   4   2.0000     -11.280111      -306.9474
   5   2.0000     -11.235980      -305.7465
   6   2.0000     -11.222663      -305.3842
   7   2.0000     -11.216938      -305.2284
   8   2.0000     -11.209461      -305.0249
   9   2.0000      -1.416199       -38.5367
  10   2.0000      -1.355219       -36.8774
  11   2.0000      -1.071366       -29.1534
  12   2.0000      -1.035585       -28.1797
  13   2.0000      -0.961513       -26.1641
  14   2.0000      -0.912100       -24.8195
  15   2.0000      -0.867121       -23.5955
  16   2.0000      -0.819320       -22.2948
  17   2.0000      -0.775411       -21.1000
  18   2.0000      -0.713752       -19.4222
  19   2.0000      -0.662951       -18.0398
  20   2.0000      -0.647531       -17.6202
  21   2.0000      -0.623233       -16.9590
  22   2.0000      -0.606981       -16.5168
  23   2.0000      -0.590576       -16.0704
  24   2.0000      -0.575899       -15.6710
  25   2.0000      -0.552892       -15.0450
  26   2.0000      -0.536544       -14.6001
  27   2.0000      -0.525191       -14.2912
  28   2.0000      -0.515441       -14.0259
  29   2.0000      -0.510388       -13.8884
  30   2.0000      -0.495906       -13.4943
  31   2.0000      -0.483202       -13.1486
  32   2.0000      -0.476824       -12.9750
  33   2.0000      -0.459327       -12.4989
  34   2.0000      -0.437332       -11.9004
  35   2.0000      -0.412747       -11.2314
  36   0.0000       0.134781         3.6676
  37   0.0000       0.151852         4.1321
  38   0.0000       0.158352         4.3090
  39   0.0000       0.175147         4.7660
  40   0.0000       0.184071         5.0088

MULLIKEN ATOMIC CHARGES
-----------------------
   0 C :   -0.385116
   1 C :   -0.213430
   2 C :    0.035102
   3 O :   -0.480340
   4 C :    0.201469
   5 C :   -0.238441
   6 C :   -0.410080
   7 C :   -0.095030
   8 O :   -0.377443
   9 H :    0.115207
  10 H :    0.131912
  11 H :    0.146053
  12 H :    0.119045
  13 H :    0.107611
  14 H :    0.100071
  15 H :    0.329457
  16 H :    0.124903
  17 H :    0.120551
  18 H :    0.133468
  19 H :    0.148560
  20 H :    0.131233
  21 H :    0.115530
  22 H :    0.139707
Sum of atomic charges:    0.0000000

LOEWDIN ATOMIC CHARGES
----------------------
   0 C :   -0.317245
   1 C :   -0.278766
   2 C :   -0.315104
   3 O :   -0.006700
   4 C :   -0.305832
   5 C :   -0.248117
   6 C :   -0.311816
   7 C :   -0.241464
   8 O :    0.145269
   9 H :    0.120553
  10 H :    0.119909
  11 H :    0.126029
  12 H :    0.139327
  13 H :    0.138460
  14 H :    0.151407
  15 H :    0.181291
  16 H :    0.144733
  17 H :    0.143351
  18 H :    0.121733
  19 H :    0.127673
  20 H :    0.119238
  21 H :    0.120548
  22 H :    0.125523

  Mayer bond orders larger than 0.1
B(  0-C ,  1-C ) :   0.9238 B(  0-C ,  9-H ) :   0.9357 B(  0-C , 10-H ) :   0.9422
B(  0-C , 11-H ) :   0.9390 B(  1-C ,  2-C ) :   0.9356 B(  1-C , 12-H ) :   0.9210
B(  1-C , 13-H ) :   0.9234 B(  2-C ,  3-O ) :   0.9166 B(  2-C ,  4-C ) :   0.9415
B(  2-C , 14-H ) :   0.9269 B(  3-O , 15-H ) :   0.8165 B(  4-C ,  5-C ) :   0.8618
B(  4-C ,  7-C ) :   0.9904 B(  4-C ,  8-O ) :   0.8029 B(  5-C ,  6-C ) :   0.9207
B(  5-C , 16-H ) :   0.9399 B(  5-C , 17-H ) :   0.9350 B(  6-C , 18-H ) :   0.9384
B(  6-C , 19-H ) :   0.9358 B(  6-C , 20-H ) :   0.9338 B(  7-C ,  8-O ) :   0.8763
B(  7-C , 21-H ) :   0.9070 B(  7-C , 22-H ) :   0.9099

MP2 TOTAL ENERGY:     -424.711245785 Eh
FINAL SINGLE POINT ENERGY      -424.711245785178

DIPOLE MOMENT
-------------
                                X             Y             Z
Electronic contribution:      0.75207      -1.28958       7.32020
Nuclear contribution   :     -0.26299       0.97420      -7.77341
                        -----------------------------------------
Total Dipole Moment    :      0.48908      -0.31538      -0.45321
                        -----------------------------------------
Magnitude (a.u.)       :      0.73761
Magnitude (Debye)      :      1.87484

                             ****ORCA TERMINATED NORMALLY****
TOTAL RUN TIME: 0 days 0 hours 20 minutes 14 seconds 983 msec
