                         Program Version 3.0.3 - RELEASE   -
|  1> ! RI-MP2 RIJK def2-TZVP def2-TZVP/C def2-TZVP/JK TIGHTSCF
|  2> % maxcore 2000
|  3> % mp2 density relaxed end
|  4> *xyz 0 1
|  5>  C       -0.0039644623     1.3926795904     0.0281653711
|  6>  O        0.0022267234    -0.0174607122     0.0006263883
|  7>  C        0.6651249739    -0.5821720894     1.1062285581
|  8>  C        0.6049215246    -2.0656106910     0.9618316505
|  9>  C        0.0510702788    -2.8380587660    -0.0067435077
| 10>  O        0.2510959954    -4.1193075723     0.3003807256
| 11>  N        0.9708228312    -4.1289035022     1.5298047942
| 12>  N        1.1554150594    -2.9332146711     1.8778856952
| 13>  H        1.0171933163     1.8032296038     0.0125289015
| 14>  H       -0.5365442816     1.7313943063    -0.8629057012
| 15>  H       -0.5187413245     1.7787089213     0.9212133078
| 16>  H        1.7155034314    -0.2478808411     1.1545238320
| 17>  H        0.1929659642    -0.2738342009     2.0545443852
| 18>  H       -0.4831927202    -2.6130023556    -0.9132192405
| 19> *
| 20>
| 21>                          ****END OF INPUT****

CARTESIAN COORDINATES (ANGSTROEM)
---------------------------------
  C     -0.003964    1.392680    0.028165
  O      0.002227   -0.017461    0.000626
  C      0.665125   -0.582172    1.106229
  C      0.604922   -2.065611    0.961832
  C      0.051070   -2.838059   -0.006744
  O      0.251096   -4.119308    0.300381
  N      0.970823   -4.128904    1.529805
  N      1.155415   -2.933215    1.877886
  H      1.017193    1.803230    0.012529
  H     -0.536544    1.731394   -0.862906
  H     -0.518741    1.778709    0.921213
  H      1.715503   -0.247881    1.154524
  H      0.192966   -0.273834    2.054544
  H     -0.483193   -2.613002   -0.913219

 Total Charge           Charge          ....    0
 Multiplicity           Mult            ....    1
 Number of Electrons    NEL             ....   60
 Basis Dimension        Dim             ....  284

ORBITAL ENERGIES
----------------

  NO   OCC          E(Eh)            E(eV)
   0   2.0000     -20.660922      -562.2123
   1   2.0000     -20.580002      -560.0103
   2   2.0000     -15.690939      -426.9722
   3   2.0000     -15.637448      -425.5166
   4   2.0000     -11.320788      -308.0543
   5   2.0000     -11.307493      -307.6925
   6   2.0000     -11.288342      -307.1714
   7   2.0000     -11.276754      -306.8561
   8   2.0000      -1.529444       -41.6183
   9   2.0000      -1.401893       -38.1475
  10   2.0000      -1.314065       -35.7575
  11   2.0000      -1.116299       -30.3760
  12   2.0000      -0.992288       -27.0015
  13   2.0000      -0.913491       -24.8574
  14   2.0000      -0.866569       -23.5805
  15   2.0000      -0.839677       -22.8488
  16   2.0000      -0.739145       -20.1132
  17   2.0000      -0.697042       -18.9675
  18   2.0000      -0.673920       -18.3383
  19   2.0000      -0.671785       -18.2802
  20   2.0000      -0.660295       -17.9675
  21   2.0000      -0.603624       -16.4254
  22   2.0000      -0.579952       -15.7813
  23   2.0000      -0.569429       -15.4949
  24   2.0000      -0.538637       -14.6571
  25   2.0000      -0.507757       -13.8168
  26   2.0000      -0.493012       -13.4156
  27   2.0000      -0.472804       -12.8657
  28   2.0000      -0.449203       -12.2234
  29   2.0000      -0.370234       -10.0746
  30   0.0000       0.102980         2.8022
  31   0.0000       0.132926         3.6171
  32   0.0000       0.170526         4.6402
  33   0.0000       0.174065         4.7365
  34   0.0000       0.177222         4.8225

MULLIKEN ATOMIC CHARGES
-----------------------
   0 C :   -0.220051
   1 O :   -0.304824
   2 C :   -0.053903
   3 C :    0.012530
   4 C :   -0.011047
   5 O :   -0.090964
   6 N :   -0.026998
   7 N :   -0.114116
   8 H :    0.119346
   9 H :    0.144934
  10 H :    0.119353
  11 H :    0.121155
  12 H :    0.121274
  13 H :    0.183310
Sum of atomic charges:    0.0000000

LOEWDIN ATOMIC CHARGES
----------------------
   0 C :   -0.350749
   1 O :    0.142108
   2 C :   -0.287807
   3 C :   -0.280341
   4 C :   -0.251602
   5 O :    0.260537
   6 N :   -0.019621
   7 N :    0.045668
   8 H :    0.104688
   9 H :    0.116094
  10 H :    0.104704
  11 H :    0.134386
  12 H :    0.134424
  13 H :    0.147511

  Mayer bond orders larger than 0.1
B(  0-C ,  1-O ) :   0.9053 B(  0-C ,  8-H ) :   0.9368 B(  0-C ,  9-H ) :   0.9382
B(  0-C , 10-H ) :   0.9367 B(  1-O ,  2-C ) :   0.9773 B(  2-C ,  3-C ) :   0.9416
B(  2-C , 11-H ) :   0.9168 B(  2-C , 12-H ) :   0.9169 B(  3-C ,  4-C ) :   1.5328
B(  3-C ,  7-N ) :   1.2433 B(  4-C ,  5-O ) :   1.1405 B(  4-C , 13-H ) :   0.9005
B(  5-O ,  6-N ) :   0.8726 B(  6-N ,  7-N ) :   1.4150

MP2 TOTAL ENERGY:     -415.148644165 Eh
FINAL SINGLE POINT ENERGY      -415.148644164534

DIPOLE MOMENT
-------------
                                X             Y             Z
Electronic contribution:      0.86513     -10.99533       1.16467
Nuclear contribution   :     -1.21990      12.48129      -1.73297
                        -----------------------------------------
Total Dipole Moment    :     -0.35477       1.48596      -0.56830
                        -----------------------------------------
Magnitude (a.u.)       :      1.63000
Magnitude (Debye)      :      4.14314

                             ****ORCA TERMINATED NORMALLY****
TOTAL RUN TIME: 0 days 0 hours 9 minutes 48 seconds 914 msec
