                         Program Version 3.0.3 - RELEASE   -
|  1> ! RI-MP2 RIJK def2-TZVP def2-TZVP/C def2-TZVP/JK TIGHTSCF
|  2> % maxcore 2000
|  3> % mp2 density relaxed end
|  4> *xyz 0 1
|  5>  C        0.4864520889     1.5318606991     0.0895354980
|  6>  C        0.3024276099     0.0255869852    -0.0008246976
|  7>  O        0.7771615049    -0.5534780901     1.1968093528
|  8>  C        0.5501848598    -1.9571214951     1.3088092659
|  9>  C        1.4974616761    -2.7639453757     0.4408418202
| 10>  C        2.4942377806    -3.2800940096     1.1583890760
| 11>  C        2.3657715717    -2.9603333830     2.6263693810
| 12>  C        0.9145749534    -2.4271361162     2.7428932415
| 13>  C        0.6900295616    -1.3904148188     3.8408211248
| 14>  H        1.5430980709     1.7805990435     0.2235667944
| 15>  H        0.1287834446     2.0169396075    -0.8238477918
| 16>  H       -0.0700740490     1.9358852844     0.9400585684
| 17>  H       -0.7628514772    -0.2251260963    -0.1458813005
| 18>  H        0.8470111464    -0.3714086346    -0.8724195856
| 19>  H       -0.5097999220    -2.1529060373     1.0786855980
| 20>  H        1.3889285744    -2.8478089696    -0.6344954684
| 21>  H        3.3237655581    -3.8515514009     0.7543787673
| 22>  H        2.5394020322    -3.8301952687     3.2703404031
| 23>  H        3.1036548752    -2.2020861741     2.9248639408
| 24>  H        0.2738824159    -3.2954004187     2.9402679380
| 25>  H        1.2923875748    -0.4966897368     3.6628960728
| 26>  H       -0.3586489364    -1.0795083572     3.8867686795
| 27>  H        0.9604282252    -1.8030424771     4.8187158414
| 28> *
| 29>
| 30>                          ****END OF INPUT****

CARTESIAN COORDINATES (ANGSTROEM)
---------------------------------
  C      0.486452    1.531861    0.089535
  C      0.302428    0.025587   -0.000825
  O      0.777162   -0.553478    1.196809
  C      0.550185   -1.957121    1.308809
  C      1.497462   -2.763945    0.440842
  C      2.494238   -3.280094    1.158389
  C      2.365772   -2.960333    2.626369
  C      0.914575   -2.427136    2.742893
  C      0.690030   -1.390415    3.840821
  H      1.543098    1.780599    0.223567
  H      0.128783    2.016940   -0.823848
  H     -0.070074    1.935885    0.940059
  H     -0.762851   -0.225126   -0.145881
  H      0.847011   -0.371409   -0.872420
  H     -0.509800   -2.152906    1.078686
  H      1.388929   -2.847809   -0.634495
  H      3.323766   -3.851551    0.754379
  H      2.539402   -3.830195    3.270340
  H      3.103655   -2.202086    2.924864
  H      0.273882   -3.295400    2.940268
  H      1.292388   -0.496690    3.662896
  H     -0.358649   -1.079508    3.886769
  H      0.960428   -1.803042    4.818716

 Total Charge           Charge          ....    0
 Multiplicity           Mult            ....    1
 Number of Electrons    NEL             ....   70
 Basis Dimension        Dim             ....  363

ORBITAL ENERGIES
----------------

  NO   OCC          E(Eh)            E(eV)
   0   2.0000     -20.544310      -559.0391
   1   2.0000     -11.275226      -306.8145
   2   2.0000     -11.269889      -306.6693
   3   2.0000     -11.227940      -305.5278
   4   2.0000     -11.223236      -305.3998
   5   2.0000     -11.219843      -305.3075
   6   2.0000     -11.216925      -305.2280
   7   2.0000     -11.210774      -305.0607
   8   2.0000     -11.203248      -304.8559
   9   2.0000      -1.366959       -37.1968
  10   2.0000      -1.129749       -30.7420
  11   2.0000      -1.016896       -27.6711
  12   2.0000      -1.005223       -27.3535
  13   2.0000      -0.936817       -25.4921
  14   2.0000      -0.889316       -24.1995
  15   2.0000      -0.831823       -22.6351
  16   2.0000      -0.760384       -20.6911
  17   2.0000      -0.735300       -20.0085
  18   2.0000      -0.683182       -18.5903
  19   2.0000      -0.656629       -17.8678
  20   2.0000      -0.641169       -17.4471
  21   2.0000      -0.605582       -16.4787
  22   2.0000      -0.581453       -15.8221
  23   2.0000      -0.557922       -15.1818
  24   2.0000      -0.550361       -14.9761
  25   2.0000      -0.537870       -14.6362
  26   2.0000      -0.530909       -14.4468
  27   2.0000      -0.514270       -13.9940
  28   2.0000      -0.494786       -13.4638
  29   2.0000      -0.482789       -13.1374
  30   2.0000      -0.467597       -12.7240
  31   2.0000      -0.461930       -12.5698
  32   2.0000      -0.441187       -12.0053
  33   2.0000      -0.410959       -11.1828
  34   2.0000      -0.353613        -9.6223
  35   0.0000       0.133794         3.6407
  36   0.0000       0.150603         4.0981
  37   0.0000       0.159780         4.3478
  38   0.0000       0.164129         4.4662
  39   0.0000       0.171346         4.6626

MULLIKEN ATOMIC CHARGES
-----------------------
   0 C :   -0.366061
   1 C :   -0.058519
   2 O :   -0.299695
   3 C :    0.127771
   4 C :   -0.237309
   5 C :   -0.146347
   6 C :   -0.204291
   7 C :   -0.021389
   8 C :   -0.407989
   9 H :    0.129791
  10 H :    0.120301
  11 H :    0.127906
  12 H :    0.086407
  13 H :    0.090359
  14 H :    0.082452
  15 H :    0.131811
  16 H :    0.125414
  17 H :    0.121420
  18 H :    0.113879
  19 H :    0.091235
  20 H :    0.141240
  21 H :    0.123712
  22 H :    0.127901
Sum of atomic charges:   -0.0000000

LOEWDIN ATOMIC CHARGES
----------------------
   0 C :   -0.318045
   1 C :   -0.354966
   2 O :    0.181884
   3 C :   -0.279122
   4 C :   -0.151265
   5 C :   -0.144534
   6 C :   -0.219694
   7 C :   -0.233976
   8 C :   -0.298221
   9 H :    0.123827
  10 H :    0.123278
  11 H :    0.123033
  12 H :    0.114972
  13 H :    0.116346
  14 H :    0.133199
  15 H :    0.134959
  16 H :    0.135855
  17 H :    0.137276
  18 H :    0.145512
  19 H :    0.156823
  20 H :    0.127013
  21 H :    0.123741
  22 H :    0.122106

  Mayer bond orders larger than 0.1
B(  0-C ,  1-C ) :   0.9555 B(  0-C ,  9-H ) :   0.9364 B(  0-C , 10-H ) :   0.9331
B(  0-C , 11-H ) :   0.9366 B(  1-C ,  2-O ) :   0.9322 B(  1-C , 12-H ) :   0.9230
B(  1-C , 13-H ) :   0.9177 B(  2-O ,  3-C ) :   0.9145 B(  3-C ,  4-C ) :   0.9155
B(  3-C ,  7-C ) :   0.9130 B(  3-C , 14-H ) :   0.9368 B(  4-C ,  5-C ) :   1.7892
B(  4-C , 15-H ) :   0.9224 B(  5-C ,  6-C ) :   0.9519 B(  5-C , 16-H ) :   0.9303
B(  6-C ,  7-C ) :   0.9629 B(  6-C , 17-H ) :   0.9248 B(  6-C , 18-H ) :   0.8971
B(  7-C ,  8-C ) :   0.9174 B(  7-C , 19-H ) :   0.9247 B(  8-C , 20-H ) :   0.9311
B(  8-C , 21-H ) :   0.9394 B(  8-C , 22-H ) :   0.9381

MP2 TOTAL ENERGY:     -387.617447763 Eh
FINAL SINGLE POINT ENERGY      -387.617447763430

DIPOLE MOMENT
-------------
                                X             Y             Z
Electronic contribution:      1.39403      -3.97475      -1.33439
Nuclear contribution   :     -1.51015       3.77885       1.09515
                        -----------------------------------------
Total Dipole Moment    :     -0.11612      -0.19591      -0.23924
                        -----------------------------------------
Magnitude (a.u.)       :      0.33030
Magnitude (Debye)      :      0.83955

                             ****ORCA TERMINATED NORMALLY****
TOTAL RUN TIME: 0 days 0 hours 21 minutes 5 seconds 727 msec
