                         Program Version 3.0.3 - RELEASE   -
|  1> ! RI-MP2 RIJK def2-TZVP def2-TZVP/C def2-TZVP/JK TIGHTSCF
|  2> % maxcore 2000
|  3> % mp2 density relaxed end
|  4> *xyz 0 1
|  5>  C       -0.5491252527     1.4525971138    -0.1414507945
|  6>  N       -0.1646539714     0.0569188174    -0.0603137414
|  7>  C       -0.0643081251    -0.8220235286    -1.0973906526
|  8>  N        0.2965392681    -2.0231140037    -0.7055922132
|  9>  C        0.4339769349    -1.9227466674     0.6561054051
| 10>  C        0.1591121802    -0.6466558208     1.0910401860
| 11>  C        0.1710136134    -0.0113276779     2.4190809002
| 12>  C        0.9973184266    -0.5773683694     3.5116964490
| 13>  N        1.3847366295     0.7069057099     2.9058407492
| 14>  H        0.1757537640     2.0825360971     0.3808400040
| 15>  H       -0.5827354570     1.7490490220    -1.1913734113
| 16>  H       -1.5373817929     1.6196257902     0.2997899607
| 17>  H       -0.2664648253    -0.5202494867    -2.1153379658
| 18>  H        0.7139368338    -2.7743097763     1.2580404225
| 19>  H       -0.7427308825     0.5073783704     2.7043070754
| 20>  H        0.6431304921    -0.5136209672     4.5361442489
| 21>  H        1.5978966303    -1.4551029579     3.2926305223
| 22>  H        2.1413932540     0.5351121051     2.2460502254
| 23> *
| 24>
| 25>                          ****END OF INPUT****

CARTESIAN COORDINATES (ANGSTROEM)
---------------------------------
  C     -0.549125    1.452597   -0.141451
  N     -0.164654    0.056919   -0.060314
  C     -0.064308   -0.822024   -1.097391
  N      0.296539   -2.023114   -0.705592
  C      0.433977   -1.922747    0.656105
  C      0.159112   -0.646656    1.091040
  C      0.171014   -0.011328    2.419081
  C      0.997318   -0.577368    3.511696
  N      1.384737    0.706906    2.905841
  H      0.175754    2.082536    0.380840
  H     -0.582735    1.749049   -1.191373
  H     -1.537382    1.619626    0.299790
  H     -0.266465   -0.520249   -2.115338
  H      0.713937   -2.774310    1.258040
  H     -0.742731    0.507378    2.704307
  H      0.643130   -0.513621    4.536144
  H      1.597897   -1.455103    3.292631
  H      2.141393    0.535112    2.246050

 Total Charge           Charge          ....    0
 Multiplicity           Mult            ....    1
 Number of Electrons    NEL             ....   66
 Basis Dimension        Dim             ....  333

ORBITAL ENERGIES
----------------

  NO   OCC          E(Eh)            E(eV)
   0   2.0000     -15.621300      -425.0772
   1   2.0000     -15.566213      -423.5782
   2   2.0000     -15.542018      -422.9198
   3   2.0000     -11.292670      -307.2892
   4   2.0000     -11.284928      -307.0785
   5   2.0000     -11.276387      -306.8461
   6   2.0000     -11.264462      -306.5216
   7   2.0000     -11.263046      -306.4831
   8   2.0000     -11.242886      -305.9345
   9   2.0000      -1.346268       -36.6338
  10   2.0000      -1.265844       -34.4454
  11   2.0000      -1.185053       -32.2469
  12   2.0000      -1.031023       -28.0556
  13   2.0000      -0.968612       -26.3573
  14   2.0000      -0.905844       -24.6493
  15   2.0000      -0.868295       -23.6275
  16   2.0000      -0.803145       -21.8547
  17   2.0000      -0.768397       -20.9091
  18   2.0000      -0.724962       -19.7272
  19   2.0000      -0.667039       -18.1511
  20   2.0000      -0.656961       -17.8768
  21   2.0000      -0.642944       -17.4954
  22   2.0000      -0.605468       -16.4756
  23   2.0000      -0.584262       -15.8986
  24   2.0000      -0.561797       -15.2873
  25   2.0000      -0.554874       -15.0989
  26   2.0000      -0.540523       -14.7084
  27   2.0000      -0.494398       -13.4532
  28   2.0000      -0.488513       -13.2931
  29   2.0000      -0.439206       -11.9514
  30   2.0000      -0.403973       -10.9927
  31   2.0000      -0.384753       -10.4697
  32   2.0000      -0.313757        -8.5378
  33   0.0000       0.129273         3.5177
  34   0.0000       0.143717         3.9107
  35   0.0000       0.155704         4.2369
  36   0.0000       0.166280         4.5247
  37   0.0000       0.167146         4.5483

MULLIKEN ATOMIC CHARGES
-----------------------
   0 C :   -0.344904
   1 N :   -0.030361
   2 C :   -0.001150
   3 N :   -0.280728
   4 C :   -0.140083
   5 C :    0.009808
   6 C :   -0.093063
   7 C :   -0.152290
   8 N :   -0.345448
   9 H :    0.171169
  10 H :    0.153754
  11 H :    0.156226
  12 H :    0.146294
  13 H :    0.134646
  14 H :    0.128361
  15 H :    0.126822
  16 H :    0.135831
  17 H :    0.225115
Sum of atomic charges:   -0.0000000

LOEWDIN ATOMIC CHARGES
----------------------
   0 C :   -0.264529
   1 N :    0.244316
   2 C :   -0.303313
   3 N :    0.085101
   4 C :   -0.234785
   5 C :   -0.221505
   6 C :   -0.252666
   7 C :   -0.251542
   8 N :   -0.020435
   9 H :    0.130193
  10 H :    0.130116
  11 H :    0.124878
  12 H :    0.131700
  13 H :    0.134036
  14 H :    0.149041
  15 H :    0.126573
  16 H :    0.126202
  17 H :    0.166619

  Mayer bond orders larger than 0.1
B(  0-C ,  1-N ) :   0.8620 B(  0-C ,  9-H ) :   0.9278 B(  0-C , 10-H ) :   0.9286
B(  0-C , 11-H ) :   0.9295 B(  1-N ,  2-C ) :   1.1741 B(  1-N ,  5-C ) :   1.1019
B(  2-C ,  3-N ) :   1.5506 B(  2-C , 12-H ) :   0.9206 B(  3-N ,  4-C ) :   1.3219
B(  4-C ,  5-C ) :   1.4514 B(  4-C , 13-H ) :   0.9458 B(  5-C ,  6-C ) :   0.9501
B(  6-C ,  7-C ) :   0.9544 B(  6-C ,  8-N ) :   0.8926 B(  6-C , 14-H ) :   0.9129
B(  7-C ,  8-N ) :   0.9323 B(  7-C , 15-H ) :   0.9152 B(  7-C , 16-H ) :   0.9225
B(  8-N , 17-H ) :   0.8716

MP2 TOTAL ENERGY:     -397.442927080 Eh
FINAL SINGLE POINT ENERGY      -397.442927080175

DIPOLE MOMENT
-------------
                                X             Y             Z
Electronic contribution:      0.19137      -3.39775      -2.43589
Nuclear contribution   :     -0.53612       4.35925       2.55561
                        -----------------------------------------
Total Dipole Moment    :     -0.34475       0.96150       0.11972
                        -----------------------------------------
Magnitude (a.u.)       :      1.02843
Magnitude (Debye)      :      2.61406

                             ****ORCA TERMINATED NORMALLY****
TOTAL RUN TIME: 0 days 0 hours 17 minutes 8 seconds 108 msec
