                         Program Version 3.0.3 - RELEASE   -
|  1> ! RI-MP2 RIJK def2-TZVP def2-TZVP/C def2-TZVP/JK TIGHTSCF
|  2> % maxcore 2000
|  3> % mp2 density relaxed end
|  4> *xyz 0 1
|  5>  C       -0.0539644297     1.5449806220    -0.0145624350
|  6>  C        0.0448569855     0.0074220206    -0.0094754847
|  7>  C        0.7600970723    -0.4732032225    -1.1973058556
|  8>  N        1.3183530882    -0.8469686618    -2.1374138893
|  9>  C        0.6933042294    -0.5278425821     1.2813204421
| 10>  C        0.8884703045    -2.0671499381     1.3699326039
| 11>  N        2.3334048758    -2.2582148993     1.5728623741
| 12>  C        2.8401099806    -1.1006394065     1.5568404241
| 13>  O        2.0399437104    -0.0107537945     1.3989551951
| 14>  H        0.9410611324     1.9885950350     0.0546269600
| 15>  H       -0.5347611173     1.9010322016    -0.9282717155
| 16>  H       -0.6454139632     1.8793816159     0.8426453926
| 17>  H       -0.9676896301    -0.4160040075    -0.0506044124
| 18>  H        0.1188251648    -0.1338559375     2.1264520014
| 19>  H        0.3307741391    -2.5070123572     2.2017001291
| 20>  H        0.5774385620    -2.5802550405     0.4530918149
| 21>  H        3.8929403454    -0.8661156075     1.6616928150
| 22> *
| 23>
| 24>                          ****END OF INPUT****

CARTESIAN COORDINATES (ANGSTROEM)
---------------------------------
  C     -0.053964    1.544981   -0.014562
  C      0.044857    0.007422   -0.009475
  C      0.760097   -0.473203   -1.197306
  N      1.318353   -0.846969   -2.137414
  C      0.693304   -0.527843    1.281320
  C      0.888470   -2.067150    1.369933
  N      2.333405   -2.258215    1.572862
  C      2.840110   -1.100639    1.556840
  O      2.039944   -0.010754    1.398955
  H      0.941061    1.988595    0.054627
  H     -0.534761    1.901032   -0.928272
  H     -0.645414    1.879382    0.842645
  H     -0.967690   -0.416004   -0.050604
  H      0.118825   -0.133856    2.126452
  H      0.330774   -2.507012    2.201700
  H      0.577439   -2.580255    0.453092
  H      3.892940   -0.866116    1.661693

 Total Charge           Charge          ....    0
 Multiplicity           Mult            ....    1
 Number of Electrons    NEL             ....   66
 Basis Dimension        Dim             ....  327

ORBITAL ENERGIES
----------------

  NO   OCC          E(Eh)            E(eV)
   0   2.0000     -20.609625      -560.8164
   1   2.0000     -15.574081      -423.7923
   2   2.0000     -15.559309      -423.3903
   3   2.0000     -11.340417      -308.5884
   4   2.0000     -11.324154      -308.1459
   5   2.0000     -11.299848      -307.4845
   6   2.0000     -11.275787      -306.8298
   7   2.0000     -11.275408      -306.8195
   8   2.0000     -11.250413      -306.1393
   9   2.0000      -1.452509       -39.5248
  10   2.0000      -1.225534       -33.3485
  11   2.0000      -1.224046       -33.3080
  12   2.0000      -1.122133       -30.5348
  13   2.0000      -1.018140       -27.7050
  14   2.0000      -0.917396       -24.9636
  15   2.0000      -0.867113       -23.5953
  16   2.0000      -0.816491       -22.2179
  17   2.0000      -0.730959       -19.8904
  18   2.0000      -0.711552       -19.3623
  19   2.0000      -0.691344       -18.8124
  20   2.0000      -0.630995       -17.1702
  21   2.0000      -0.602632       -16.3984
  22   2.0000      -0.586301       -15.9541
  23   2.0000      -0.577832       -15.7236
  24   2.0000      -0.577250       -15.7078
  25   2.0000      -0.566324       -15.4105
  26   2.0000      -0.542143       -14.7525
  27   2.0000      -0.531658       -14.4671
  28   2.0000      -0.524885       -14.2829
  29   2.0000      -0.466125       -12.6839
  30   2.0000      -0.462683       -12.5902
  31   2.0000      -0.443651       -12.0724
  32   2.0000      -0.394663       -10.7393
  33   0.0000       0.113534         3.0894
  34   0.0000       0.145124         3.9490
  35   0.0000       0.150773         4.1028
  36   0.0000       0.163025         4.4361
  37   0.0000       0.173135         4.7113

MULLIKEN ATOMIC CHARGES
-----------------------
   0 C :   -0.411209
   1 C :    0.061172
   2 C :   -0.235359
   3 N :   -0.044423
   4 C :    0.058225
   5 C :   -0.133019
   6 N :   -0.254027
   7 C :    0.109047
   8 O :   -0.289036
   9 H :    0.162014
  10 H :    0.153888
  11 H :    0.139235
  12 H :    0.139253
  13 H :    0.119826
  14 H :    0.130595
  15 H :    0.140017
  16 H :    0.153801
Sum of atomic charges:    0.0000000

LOEWDIN ATOMIC CHARGES
----------------------
   0 C :   -0.262695
   1 C :   -0.254373
   2 C :   -0.171181
   3 N :    0.070710
   4 C :   -0.238484
   5 C :   -0.249577
   6 N :    0.071479
   7 C :   -0.339606
   8 O :    0.234077
   9 H :    0.135875
  10 H :    0.132233
  11 H :    0.128739
  12 H :    0.181442
  13 H :    0.147905
  14 H :    0.134431
  15 H :    0.142147
  16 H :    0.136879

  Mayer bond orders larger than 0.1
B(  0-C ,  1-C ) :   0.8904 B(  0-C ,  9-H ) :   0.9282 B(  0-C , 10-H ) :   0.9334
B(  0-C , 11-H ) :   0.9320 B(  1-C ,  2-C ) :   0.9094 B(  1-C ,  4-C ) :   0.8887
B(  1-C , 12-H ) :   0.9067 B(  2-C ,  3-N ) :   2.8651 B(  4-C ,  5-C ) :   0.9273
B(  4-C ,  8-O ) :   0.8602 B(  4-C , 13-H ) :   0.9222 B(  5-C ,  6-N ) :   0.9428
B(  5-C , 14-H ) :   0.9192 B(  5-C , 15-H ) :   0.9202 B(  6-N ,  7-C ) :   1.8349
B(  7-C ,  8-O ) :   1.0414 B(  7-C , 16-H ) :   0.9192

MP2 TOTAL ENERGY:     -417.331137638 Eh
FINAL SINGLE POINT ENERGY      -417.331137638476

DIPOLE MOMENT
-------------
                                X             Y             Z
Electronic contribution:      4.36292      -3.03877      -1.43971
Nuclear contribution   :     -5.54542       3.89432       2.54223
                        -----------------------------------------
Total Dipole Moment    :     -1.18250       0.85555       1.10253
                        -----------------------------------------
Magnitude (a.u.)       :      1.82916
Magnitude (Debye)      :      4.64936

                             ****ORCA TERMINATED NORMALLY****
TOTAL RUN TIME: 0 days 0 hours 18 minutes 29 seconds 664 msec
