                         Program Version 3.0.3 - RELEASE   -
|  1> ! RI-MP2 RIJK def2-TZVP def2-TZVP/C def2-TZVP/JK TIGHTSCF
|  2> % maxcore 2000
|  3> % mp2 density relaxed end
|  4> *xyz 0 1
|  5>  C        0.2410653568     1.4083849958    -0.0517608582
|  6>  N       -0.0149557183    -0.0141082846    -0.0210857851
|  7>  C       -0.0949171015    -0.8588067082    -1.1393641380
|  8>  C       -0.5395075155    -2.0732220264    -0.7851844983
|  9>  C        0.0261013782    -3.4765998876    -0.8730200504
| 10>  N        0.4362374848    -3.2913800987     0.5662880746
| 11>  C       -0.5355957730    -2.1535687543     0.7185743219
| 12>  C       -0.1195440565    -0.7414684592     1.1727492286
| 13>  O       -0.0301392578    -0.2712614758     2.2825009512
| 14>  H        1.1668362496     1.6349508390    -0.5931729716
| 15>  H       -0.5848168340     1.9506627924    -0.5252191562
| 16>  H        0.3418496665     1.7401410261     0.9831811956
| 17>  H        0.3041405736    -0.5125316327    -2.0847506370
| 18>  H       -0.7261871460    -4.2643514035    -1.0136587041
| 19>  H        0.8596222942    -3.6463155037    -1.5605867037
| 20>  H        0.1906223523    -4.0813534140     1.1570036834
| 21>  H       -1.4620652234    -2.4297966446     1.2361427274
| 22> *
| 23>
| 24>                          ****END OF INPUT****

CARTESIAN COORDINATES (ANGSTROEM)
---------------------------------
  C      0.241065    1.408385   -0.051761
  N     -0.014956   -0.014108   -0.021086
  C     -0.094917   -0.858807   -1.139364
  C     -0.539508   -2.073222   -0.785184
  C      0.026101   -3.476600   -0.873020
  N      0.436237   -3.291380    0.566288
  C     -0.535596   -2.153569    0.718574
  C     -0.119544   -0.741468    1.172749
  O     -0.030139   -0.271261    2.282501
  H      1.166836    1.634951   -0.593173
  H     -0.584817    1.950663   -0.525219
  H      0.341850    1.740141    0.983181
  H      0.304141   -0.512532   -2.084751
  H     -0.726187   -4.264351   -1.013659
  H      0.859622   -3.646316   -1.560587
  H      0.190622   -4.081353    1.157004
  H     -1.462065   -2.429797    1.236143

 Total Charge           Charge          ....    0
 Multiplicity           Mult            ....    1
 Number of Electrons    NEL             ....   66
 Basis Dimension        Dim             ....  327

ORBITAL ENERGIES
----------------

  NO   OCC          E(Eh)            E(eV)
   0   2.0000     -20.529457      -558.6349
   1   2.0000     -15.600794      -424.5192
   2   2.0000     -15.568331      -423.6358
   3   2.0000     -11.352624      -308.9206
   4   2.0000     -11.289630      -307.2065
   5   2.0000     -11.277490      -306.8761
   6   2.0000     -11.274751      -306.8016
   7   2.0000     -11.266400      -306.5743
   8   2.0000     -11.232956      -305.6643
   9   2.0000      -1.392527       -37.8926
  10   2.0000      -1.288295       -35.0563
  11   2.0000      -1.236750       -33.6537
  12   2.0000      -1.052975       -28.6529
  13   2.0000      -0.979465       -26.6526
  14   2.0000      -0.926722       -25.2174
  15   2.0000      -0.903741       -24.5920
  16   2.0000      -0.775460       -21.1013
  17   2.0000      -0.753168       -20.4947
  18   2.0000      -0.693143       -18.8614
  19   2.0000      -0.691128       -18.8066
  20   2.0000      -0.640558       -17.4305
  21   2.0000      -0.628539       -17.1034
  22   2.0000      -0.622491       -16.9388
  23   2.0000      -0.579796       -15.7771
  24   2.0000      -0.564099       -15.3499
  25   2.0000      -0.558560       -15.1992
  26   2.0000      -0.526552       -14.3282
  27   2.0000      -0.521283       -14.1848
  28   2.0000      -0.493069       -13.4171
  29   2.0000      -0.457402       -12.4465
  30   2.0000      -0.432755       -11.7759
  31   2.0000      -0.396295       -10.7837
  32   2.0000      -0.315119        -8.5748
  33   0.0000       0.107418         2.9230
  34   0.0000       0.130497         3.5510
  35   0.0000       0.144803         3.9403
  36   0.0000       0.171099         4.6559
  37   0.0000       0.174695         4.7537

MULLIKEN ATOMIC CHARGES
-----------------------
   0 C :   -0.341013
   1 N :   -0.059373
   2 C :   -0.155566
   3 C :   -0.006317
   4 C :   -0.121344
   5 N :   -0.334611
   6 C :   -0.016573
   7 C :    0.182524
   8 O :   -0.334273
   9 H :    0.140666
  10 H :    0.145403
  11 H :    0.179006
  12 H :    0.147070
  13 H :    0.119914
  14 H :    0.116366
  15 H :    0.209490
  16 H :    0.128630
Sum of atomic charges:    0.0000000

LOEWDIN ATOMIC CHARGES
----------------------
   0 C :   -0.284546
   1 N :    0.204557
   2 C :   -0.156735
   3 C :   -0.174925
   4 C :   -0.228412
   5 N :    0.006627
   6 C :   -0.184467
   7 C :   -0.367668
   8 O :    0.105508
   9 H :    0.120576
  10 H :    0.120445
  11 H :    0.137397
  12 H :    0.140620
  13 H :    0.124051
  14 H :    0.124974
  15 H :    0.159455
  16 H :    0.152541

  Mayer bond orders larger than 0.1
B(  0-C ,  1-N ) :   0.8711 B(  0-C ,  9-H ) :   0.9301 B(  0-C , 10-H ) :   0.9308
B(  0-C , 11-H ) :   0.9231 B(  1-N ,  2-C ) :   1.0044 B(  1-N ,  7-C ) :   1.0913
B(  2-C ,  3-C ) :   1.7361 B(  2-C , 12-H ) :   0.9061 B(  3-C ,  4-C ) :   0.9099
B(  3-C ,  6-C ) :   0.9451 B(  4-C ,  5-N ) :   0.9504 B(  4-C , 13-H ) :   0.9182
B(  4-C , 14-H ) :   0.9127 B(  5-N ,  6-C ) :   1.0067 B(  5-N , 15-H ) :   0.8744
B(  6-C ,  7-C ) :   0.8776 B(  6-C , 16-H ) :   0.9091 B(  7-C ,  8-O ) :   1.9603

MP2 TOTAL ENERGY:     -417.275349004 Eh
FINAL SINGLE POINT ENERGY      -417.275349003897

DIPOLE MOMENT
-------------
                                X             Y             Z
Electronic contribution:     -0.73173      -0.57463       2.85579
Nuclear contribution   :      0.49705       0.37584      -4.04963
                        -----------------------------------------
Total Dipole Moment    :     -0.23468      -0.19879      -1.19384
                        -----------------------------------------
Magnitude (a.u.)       :      1.23282
Magnitude (Debye)      :      3.13359

                             ****ORCA TERMINATED NORMALLY****
TOTAL RUN TIME: 0 days 0 hours 17 minutes 6 seconds 879 msec
