                         Program Version 3.0.3 - RELEASE   -
|  1> ! RI-MP2 RIJK def2-TZVP def2-TZVP/C def2-TZVP/JK TIGHTSCF
|  2> % maxcore 2000
|  3> % mp2 density relaxed end
|  4> *xyz 0 1
|  5>  N       -0.0813209409     1.3035333324     0.0077189479
|  6>  C       -0.0195908737     0.0370940899     0.0010870575
|  7>  C       -1.2378710387    -0.8781594772     0.0029723114
|  8>  C       -0.6582750233    -2.2861793741    -0.0074909888
|  9>  C       -1.2468642319    -3.4663565298     0.7373433570
| 10>  C       -1.2545629007    -3.4584166099    -0.7587580363
| 11>  C        0.8343209792    -2.1530375499    -0.0142791281
| 12>  O        1.6650463999    -3.0308922452    -0.0242299541
| 13>  N        1.1039821018    -0.7897275827    -0.0093799565
| 14>  H        0.8456943401     1.7323448947     0.0047353486
| 15>  H       -1.8451320572    -0.6681263901     0.8879004864
| 16>  H       -1.8546376521    -0.6589920847    -0.8731236483
| 17>  H       -0.5423892266    -4.1230532261     1.2354539741
| 18>  H       -2.1803102959    -3.2956462076     1.2626635837
| 19>  H       -2.1933668337    -3.2822305386    -1.2725990075
| 20>  H       -0.5552899833    -4.1097669720    -1.2710164920
| 21>  H        2.0531428669    -0.4462442391    -0.0131951851
| 22> *
| 23>
| 24>                          ****END OF INPUT****

CARTESIAN COORDINATES (ANGSTROEM)
---------------------------------
  N     -0.081321    1.303533    0.007719
  C     -0.019591    0.037094    0.001087
  C     -1.237871   -0.878159    0.002972
  C     -0.658275   -2.286179   -0.007491
  C     -1.246864   -3.466357    0.737343
  C     -1.254563   -3.458417   -0.758758
  C      0.834321   -2.153038   -0.014279
  O      1.665046   -3.030892   -0.024230
  N      1.103982   -0.789728   -0.009380
  H      0.845694    1.732345    0.004735
  H     -1.845132   -0.668126    0.887900
  H     -1.854638   -0.658992   -0.873124
  H     -0.542389   -4.123053    1.235454
  H     -2.180310   -3.295646    1.262664
  H     -2.193367   -3.282231   -1.272599
  H     -0.555290   -4.109767   -1.271016
  H      2.053143   -0.446244   -0.013195

 Total Charge           Charge          ....    0
 Multiplicity           Mult            ....    1
 Number of Electrons    NEL             ....   66
 Basis Dimension        Dim             ....  327

ORBITAL ENERGIES
----------------

  NO   OCC          E(Eh)            E(eV)
   0   2.0000     -20.540236      -558.9282
   1   2.0000     -15.615983      -424.9325
   2   2.0000     -15.542106      -422.9222
   3   2.0000     -11.369085      -309.3685
   4   2.0000     -11.337719      -308.5150
   5   2.0000     -11.264661      -306.5270
   6   2.0000     -11.255604      -306.2806
   7   2.0000     -11.250542      -306.1428
   8   2.0000     -11.249846      -306.1239
   9   2.0000      -1.406557       -38.2744
  10   2.0000      -1.302563       -35.4445
  11   2.0000      -1.186647       -32.2903
  12   2.0000      -1.169859       -31.8335
  13   2.0000      -1.024759       -27.8851
  14   2.0000      -0.905286       -24.6341
  15   2.0000      -0.845748       -23.0140
  16   2.0000      -0.824566       -22.4376
  17   2.0000      -0.776252       -21.1229
  18   2.0000      -0.720208       -19.5979
  19   2.0000      -0.684394       -18.6233
  20   2.0000      -0.651502       -17.7283
  21   2.0000      -0.646475       -17.5915
  22   2.0000      -0.637743       -17.3539
  23   2.0000      -0.582188       -15.8421
  24   2.0000      -0.575163       -15.6510
  25   2.0000      -0.560014       -15.2388
  26   2.0000      -0.531767       -14.4701
  27   2.0000      -0.505490       -13.7551
  28   2.0000      -0.461639       -12.5618
  29   2.0000      -0.456481       -12.4215
  30   2.0000      -0.426230       -11.5983
  31   2.0000      -0.419923       -11.4267
  32   2.0000      -0.386794       -10.5252
  33   0.0000       0.126230         3.4349
  34   0.0000       0.143202         3.8967
  35   0.0000       0.144006         3.9186
  36   0.0000       0.165769         4.5108
  37   0.0000       0.168303         4.5798

MULLIKEN ATOMIC CHARGES
-----------------------
   0 N :   -0.348478
   1 C :    0.022762
   2 C :   -0.080738
   3 C :    0.049537
   4 C :   -0.288846
   5 C :   -0.288752
   6 C :    0.186011
   7 O :   -0.319868
   8 N :   -0.252409
   9 H :    0.206689
  10 H :    0.140240
  11 H :    0.140248
  12 H :    0.154794
  13 H :    0.142009
  14 H :    0.142033
  15 H :    0.154804
  16 H :    0.239963
Sum of atomic charges:   -0.0000000

LOEWDIN ATOMIC CHARGES
----------------------
   0 N :   -0.062289
   1 C :   -0.345645
   2 C :   -0.155584
   3 C :   -0.203599
   4 C :   -0.183622
   5 C :   -0.183584
   6 C :   -0.383745
   7 O :    0.112429
   8 N :    0.175041
   9 H :    0.160307
  10 H :    0.157068
  11 H :    0.157080
  12 H :    0.144533
  13 H :    0.137485
  14 H :    0.137492
  15 H :    0.144535
  16 H :    0.192100

  Mayer bond orders larger than 0.1
B(  0-N ,  1-C ) :   2.1019 B(  0-N ,  9-H ) :   0.8550 B(  1-C ,  2-C ) :   0.9098
B(  1-C ,  8-N ) :   1.0404 B(  2-C ,  3-C ) :   0.8907 B(  2-C , 10-H ) :   0.9084
B(  2-C , 11-H ) :   0.9084 B(  3-C ,  4-C ) :   0.8226 B(  3-C ,  5-C ) :   0.8227
B(  3-C ,  6-C ) :   0.9086 B(  4-C ,  5-C ) :   0.9471 B(  4-C , 12-H ) :   0.9215
B(  4-C , 13-H ) :   0.9288 B(  5-C , 14-H ) :   0.9288 B(  5-C , 15-H ) :   0.9215
B(  6-C ,  7-O ) :   2.0406 B(  6-C ,  8-N ) :   1.0790 B(  8-N , 16-H ) :   0.8562

MP2 TOTAL ENERGY:     -417.348627870 Eh
FINAL SINGLE POINT ENERGY      -417.348627870389

DIPOLE MOMENT
-------------
                                X             Y             Z
Electronic contribution:      5.09577       1.72539      -0.01698
Nuclear contribution   :     -5.34512      -1.66890       0.01871
                        -----------------------------------------
Total Dipole Moment    :     -0.24935       0.05649       0.00173
                        -----------------------------------------
Magnitude (a.u.)       :      0.25567
Magnitude (Debye)      :      0.64986

                             ****ORCA TERMINATED NORMALLY****
TOTAL RUN TIME: 0 days 0 hours 16 minutes 5 seconds 593 msec
