                         Program Version 3.0.3 - RELEASE   -
|  1> ! RI-MP2 RIJK def2-TZVP def2-TZVP/C def2-TZVP/JK TIGHTSCF
|  2> % maxcore 2000
|  3> % mp2 density relaxed end
|  4> *xyz 0 1
|  5>  C        0.2519933443     1.5555966075     0.0080235738
|  6>  C        1.3341243986     0.4970464926    -0.0081405968
|  7>  C       -0.1150332227     0.1039304921     0.0037174523
|  8>  C       -0.8047013144    -0.7193543748     1.1016834167
|  9>  C       -1.2226347495    -1.7431188535     0.0044198661
| 10>  C       -0.8258451754    -0.7075085524    -1.0895722366
| 11>  H        0.1029321729     2.1196716261     0.9237962695
| 12>  H        0.0853479717     2.1295231483    -0.8985508147
| 13>  H        1.8969090802     0.3565895843    -0.9260842500
| 14>  H        1.9145023314     0.3467329988     0.8972005549
| 15>  H       -0.1735437198    -1.0921225854     1.9134577055
| 16>  H       -1.6640501925    -0.2016064321     1.5407010983
| 17>  H       -0.5761925338    -2.6240860313    -0.0065802504
| 18>  H       -2.2624993476    -2.0765385628     0.0126512792
| 19>  H       -1.6934513410    -0.1851344751    -1.5063033434
| 20>  H       -0.2105080023    -1.0714133924    -1.9173566138
| 21> *
| 22>
| 23>                          ****END OF INPUT****

CARTESIAN COORDINATES (ANGSTROEM)
---------------------------------
  C      0.251993    1.555597    0.008024
  C      1.334124    0.497046   -0.008141
  C     -0.115033    0.103930    0.003717
  C     -0.804701   -0.719354    1.101683
  C     -1.222635   -1.743119    0.004420
  C     -0.825845   -0.707509   -1.089572
  H      0.102932    2.119672    0.923796
  H      0.085348    2.129523   -0.898551
  H      1.896909    0.356590   -0.926084
  H      1.914502    0.346733    0.897201
  H     -0.173544   -1.092123    1.913458
  H     -1.664050   -0.201606    1.540701
  H     -0.576193   -2.624086   -0.006580
  H     -2.262499   -2.076539    0.012651
  H     -1.693451   -0.185134   -1.506303
  H     -0.210508   -1.071413   -1.917357

 Total Charge           Charge          ....    0
 Multiplicity           Mult            ....    1
 Number of Electrons    NEL             ....   46
 Basis Dimension        Dim             ....  246

ORBITAL ENERGIES
----------------

  NO   OCC          E(Eh)            E(eV)
   0   2.0000     -11.228909      -305.5541
   1   2.0000     -11.218126      -305.2607
   2   2.0000     -11.217774      -305.2511
   3   2.0000     -11.217040      -305.2312
   4   2.0000     -11.216834      -305.2256
   5   2.0000     -11.216782      -305.2241
   6   2.0000      -1.158218       -31.5167
   7   2.0000      -1.061192       -28.8765
   8   2.0000      -0.897999       -24.4358
   9   2.0000      -0.833710       -22.6864
  10   2.0000      -0.818087       -22.2613
  11   2.0000      -0.714571       -19.4445
  12   2.0000      -0.648832       -17.6556
  13   2.0000      -0.637765       -17.3545
  14   2.0000      -0.630730       -17.1630
  15   2.0000      -0.540841       -14.7170
  16   2.0000      -0.515860       -14.0373
  17   2.0000      -0.503873       -13.7111
  18   2.0000      -0.493690       -13.4340
  19   2.0000      -0.471435       -12.8284
  20   2.0000      -0.435229       -11.8432
  21   2.0000      -0.392444       -10.6789
  22   2.0000      -0.387241       -10.5374
  23   0.0000       0.147784         4.0214
  24   0.0000       0.156674         4.2633
  25   0.0000       0.168758         4.5921
  26   0.0000       0.174828         4.7573
  27   0.0000       0.197870         5.3843

MULLIKEN ATOMIC CHARGES
-----------------------
   0 C :   -0.271184
   1 C :   -0.309258
   2 C :    0.066899
   3 C :   -0.206796
   4 C :   -0.233698
   5 C :   -0.206796
   6 H :    0.124867
   7 H :    0.124867
   8 H :    0.123823
   9 H :    0.123823
  10 H :    0.110017
  11 H :    0.108636
  12 H :    0.111039
  13 H :    0.115109
  14 H :    0.108636
  15 H :    0.110017
Sum of atomic charges:    0.0000000

LOEWDIN ATOMIC CHARGES
----------------------
   0 C :   -0.217259
   1 C :   -0.211927
   2 C :   -0.238058
   3 C :   -0.200603
   4 C :   -0.232709
   5 C :   -0.200603
   6 H :    0.132633
   7 H :    0.132633
   8 H :    0.131395
   9 H :    0.131395
  10 H :    0.126257
  11 H :    0.133599
  12 H :    0.131333
  13 H :    0.122057
  14 H :    0.133599
  15 H :    0.126257

  Mayer bond orders larger than 0.1
B(  0-C ,  1-C ) :   0.9344 B(  0-C ,  2-C ) :   0.8415 B(  0-C ,  6-H ) :   0.9246
B(  0-C ,  7-H ) :   0.9246 B(  1-C ,  2-C ) :   0.8531 B(  1-C ,  8-H ) :   0.9248
B(  1-C ,  9-H ) :   0.9248 B(  2-C ,  3-C ) :   0.8992 B(  2-C ,  5-C ) :   0.8992
B(  3-C ,  4-C ) :   0.9620 B(  3-C , 10-H ) :   0.9227 B(  3-C , 11-H ) :   0.9221
B(  4-C ,  5-C ) :   0.9620 B(  4-C , 12-H ) :   0.9228 B(  4-C , 13-H ) :   0.9335
B(  5-C , 14-H ) :   0.9221 B(  5-C , 15-H ) :   0.9227

MP2 TOTAL ENERGY:     -234.030166423 Eh
FINAL SINGLE POINT ENERGY      -234.030166423294

DIPOLE MOMENT
-------------
                                X             Y             Z
Electronic contribution:      0.19288       0.45176       0.00058
Nuclear contribution   :     -0.22803      -0.50155      -0.00051
                        -----------------------------------------
Total Dipole Moment    :     -0.03516      -0.04979       0.00007
                        -----------------------------------------
Magnitude (a.u.)       :      0.06095
Magnitude (Debye)      :      0.15492

                             ****ORCA TERMINATED NORMALLY****
TOTAL RUN TIME: 0 days 0 hours 5 minutes 54 seconds 154 msec
