                         Program Version 3.0.3 - RELEASE   -
|  1> ! RI-MP2 RIJK def2-TZVP def2-TZVP/C def2-TZVP/JK TIGHTSCF
|  2> % maxcore 2000
|  3> % mp2 density relaxed end
|  4> *xyz 0 1
|  5>  C        0.5535324283     1.6693742854    -0.1331547849
|  6>  C        0.3552269636     0.1733045185    -0.0202035213
|  7>  O        1.2035001941    -0.5998467118    -0.9241536892
|  8>  C        1.4249083435    -1.6090186141     0.1089966614
|  9>  C        2.9015392220    -1.8303798658     0.3990474031
| 10>  C        3.3379555142    -0.5088197443     1.0639167520
| 11>  O        3.6612851822     0.4778045750     0.0932354389
| 12>  C        2.1126601320    -0.1296367635     1.9372742085
| 13>  C        0.8636725806    -0.6447149570     1.1906178463
| 14>  H        1.5869679004     1.9576178621     0.0709311101
| 15>  H        0.2921067541     2.0036864066    -1.1426198622
| 16>  H       -0.1040968667     2.1881815317     0.5728874569
| 17>  H       -0.6964293517    -0.0737395838    -0.2282573796
| 18>  H        0.8548460055    -2.5186060961    -0.1081352234
| 19>  H        3.0061396692    -2.6718506852     1.0950126469
| 20>  H        3.4880057815    -2.0532367697    -0.4968001184
| 21>  H        4.2352314675    -0.6256638692     1.6785644884
| 22>  H        3.0199470539     0.3716666120    -0.6235737723
| 23>  H        2.1855764304    -0.6469004703     2.9010231421
| 24>  H        2.0950535302     0.9427011914     2.1467262857
| 25>  H        0.0868951851    -1.0126476317     1.8621920008
| 26> *
| 27>
| 28>                          ****END OF INPUT****

CARTESIAN COORDINATES (ANGSTROEM)
---------------------------------
  C      0.553532    1.669374   -0.133155
  C      0.355227    0.173305   -0.020204
  O      1.203500   -0.599847   -0.924154
  C      1.424908   -1.609019    0.108997
  C      2.901539   -1.830380    0.399047
  C      3.337956   -0.508820    1.063917
  O      3.661285    0.477805    0.093235
  C      2.112660   -0.129637    1.937274
  C      0.863673   -0.644715    1.190618
  H      1.586968    1.957618    0.070931
  H      0.292107    2.003686   -1.142620
  H     -0.104097    2.188182    0.572887
  H     -0.696429   -0.073740   -0.228257
  H      0.854846   -2.518606   -0.108135
  H      3.006140   -2.671851    1.095013
  H      3.488006   -2.053237   -0.496800
  H      4.235231   -0.625664    1.678564
  H      3.019947    0.371667   -0.623574
  H      2.185576   -0.646900    2.901023
  H      2.095054    0.942701    2.146726
  H      0.086895   -1.012648    1.862192

 Total Charge           Charge          ....    0
 Multiplicity           Mult            ....    1
 Number of Electrons    NEL             ....   70
 Basis Dimension        Dim             ....  351

ORBITAL ENERGIES
----------------

  NO   OCC          E(Eh)            E(eV)
   0   2.0000     -20.553809      -559.2976
   1   2.0000     -20.538061      -558.8690
   2   2.0000     -11.287367      -307.1449
   3   2.0000     -11.285670      -307.0987
   4   2.0000     -11.276594      -306.8517
   5   2.0000     -11.236067      -305.7489
   6   2.0000     -11.224648      -305.4382
   7   2.0000     -11.224310      -305.4290
   8   2.0000     -11.217577      -305.2458
   9   2.0000      -1.384233       -37.6669
  10   2.0000      -1.345843       -36.6223
  11   2.0000      -1.100484       -29.9457
  12   2.0000      -1.036071       -28.1929
  13   2.0000      -0.965274       -26.2664
  14   2.0000      -0.945628       -25.7319
  15   2.0000      -0.848680       -23.0938
  16   2.0000      -0.791595       -21.5404
  17   2.0000      -0.737112       -20.0578
  18   2.0000      -0.708927       -19.2909
  19   2.0000      -0.661744       -18.0070
  20   2.0000      -0.644163       -17.5286
  21   2.0000      -0.628879       -17.1127
  22   2.0000      -0.598992       -16.2994
  23   2.0000      -0.591141       -16.0858
  24   2.0000      -0.584698       -15.9104
  25   2.0000      -0.548742       -14.9320
  26   2.0000      -0.531068       -14.4511
  27   2.0000      -0.526327       -14.3221
  28   2.0000      -0.514750       -14.0071
  29   2.0000      -0.506954       -13.7949
  30   2.0000      -0.468507       -12.7487
  31   2.0000      -0.451325       -12.2812
  32   2.0000      -0.440768       -11.9939
  33   2.0000      -0.418248       -11.3811
  34   2.0000      -0.415616       -11.3095
  35   0.0000       0.130564         3.5528
  36   0.0000       0.151367         4.1189
  37   0.0000       0.165125         4.4933
  38   0.0000       0.178885         4.8677
  39   0.0000       0.189543         5.1577

MULLIKEN ATOMIC CHARGES
-----------------------
   0 C :   -0.419350
   1 C :    0.057640
   2 O :   -0.368340
   3 C :    0.039802
   4 C :   -0.261187
   5 C :    0.086824
   6 O :   -0.481526
   7 C :   -0.277493
   8 C :   -0.066612
   9 H :    0.150198
  10 H :    0.144068
  11 H :    0.131828
  12 H :    0.087788
  13 H :    0.104425
  14 H :    0.116143
  15 H :    0.139838
  16 H :    0.105560
  17 H :    0.331231
  18 H :    0.122789
  19 H :    0.134549
  20 H :    0.121824
Sum of atomic charges:   -0.0000000

LOEWDIN ATOMIC CHARGES
----------------------
   0 C :   -0.300417
   1 C :   -0.288586
   2 O :    0.134205
   3 C :   -0.246084
   4 C :   -0.230644
   5 C :   -0.329143
   6 O :   -0.024197
   7 C :   -0.218006
   8 C :   -0.186930
   9 H :    0.127232
  10 H :    0.131219
  11 H :    0.131144
  12 H :    0.138782
  13 H :    0.132970
  14 H :    0.148144
  15 H :    0.145784
  16 H :    0.138350
  17 H :    0.169630
  18 H :    0.143281
  19 H :    0.142292
  20 H :    0.140972

  Mayer bond orders larger than 0.1
B(  0-C ,  1-C ) :   0.9204 B(  0-C ,  9-H ) :   0.9228 B(  0-C , 10-H ) :   0.9319
B(  0-C , 11-H ) :   0.9298 B(  1-C ,  2-O ) :   0.8587 B(  1-C ,  8-C ) :   0.9336
B(  1-C , 12-H ) :   0.9264 B(  2-O ,  3-C ) :   0.8989 B(  3-C ,  4-C ) :   0.9489
B(  3-C ,  8-C ) :   0.9206 B(  3-C , 13-H ) :   0.9259 B(  4-C ,  5-C ) :   0.9327
B(  4-C , 14-H ) :   0.9114 B(  4-C , 15-H ) :   0.9178 B(  5-C ,  6-O ) :   0.9535
B(  5-C ,  7-C ) :   0.9027 B(  5-C , 16-H ) :   0.9411 B(  6-O , 17-H ) :   0.8100
B(  7-C ,  8-C ) :   0.9406 B(  7-C , 18-H ) :   0.9220 B(  7-C , 19-H ) :   0.9250
B(  8-C , 20-H ) :   0.9181

MP2 TOTAL ENERGY:     -423.533319622 Eh
FINAL SINGLE POINT ENERGY      -423.533319621951

DIPOLE MOMENT
-------------
                                X             Y             Z
Electronic contribution:      1.23870      -1.87602      -2.23980
Nuclear contribution   :     -1.96854       1.39974       2.91344
                        -----------------------------------------
Total Dipole Moment    :     -0.72983      -0.47629       0.67364
                        -----------------------------------------
Magnitude (a.u.)       :      1.10149
Magnitude (Debye)      :      2.79977

                             ****ORCA TERMINATED NORMALLY****
TOTAL RUN TIME: 0 days 0 hours 20 minutes 38 seconds 762 msec
