                         Program Version 3.0.3 - RELEASE   -
|  1> ! RI-MP2 RIJK def2-TZVP def2-TZVP/C def2-TZVP/JK TIGHTSCF
|  2> % maxcore 2000
|  3> % mp2 density relaxed end
|  4> *xyz 0 1
|  5>  O        0.2169578025     1.4245316311     0.0110908497
|  6>  C        0.1145500780    -0.0007244811    -0.0358485864
|  7>  C       -1.2989049189    -0.4137214158     0.0378798618
|  8>  C       -2.4561901210    -0.7284859029     0.1036204750
|  9>  C        0.7218163173    -0.5302282648    -1.2692549976
| 10>  C        1.2295055317    -0.9511511315    -2.2733252181
| 11>  C        0.8815701965    -0.5370007056     1.1852897329
| 12>  C        2.1055287704     0.1541696536     1.6446609131
| 13>  N        0.8609284281     0.2089069976     2.4401080090
| 14>  H       -0.3114827338     1.7791852163    -0.7120389417
| 15>  H       -3.4781811842    -1.0126435659     0.1630370199
| 16>  H        1.6760858855    -1.3256126139    -3.1615797928
| 17>  H        0.7939882750    -1.6148019585     1.2845044567
| 18>  H        2.9112004352    -0.4225211287     2.0890851924
| 19>  H        2.4090916401     1.0461020916     1.1071007177
| 20>  H        0.4121117977     1.1079765186     2.2759298682
| 21> *
| 22>
| 23>                          ****END OF INPUT****

CARTESIAN COORDINATES (ANGSTROEM)
---------------------------------
  O      0.216958    1.424532    0.011091
  C      0.114550   -0.000724   -0.035849
  C     -1.298905   -0.413721    0.037880
  C     -2.456190   -0.728486    0.103620
  C      0.721816   -0.530228   -1.269255
  C      1.229506   -0.951151   -2.273325
  C      0.881570   -0.537001    1.185290
  C      2.105529    0.154170    1.644661
  N      0.860928    0.208907    2.440108
  H     -0.311483    1.779185   -0.712039
  H     -3.478181   -1.012644    0.163037
  H      1.676086   -1.325613   -3.161580
  H      0.793988   -1.614802    1.284504
  H      2.911200   -0.422521    2.089085
  H      2.409092    1.046102    1.107101
  H      0.412112    1.107977    2.275930

 Total Charge           Charge          ....    0
 Multiplicity           Mult            ....    1
 Number of Electrons    NEL             ....   64
 Basis Dimension        Dim             ....  321

ORBITAL ENERGIES
----------------

  NO   OCC          E(Eh)            E(eV)
   0   2.0000     -20.589658      -560.2731
   1   2.0000     -15.556466      -423.3130
   2   2.0000     -11.361730      -309.1684
   3   2.0000     -11.272199      -306.7321
   4   2.0000     -11.253512      -306.2236
   5   2.0000     -11.250369      -306.1381
   6   2.0000     -11.249570      -306.1164
   7   2.0000     -11.244549      -305.9797
   8   2.0000     -11.244175      -305.9696
   9   2.0000      -1.402531       -38.1648
  10   2.0000      -1.262831       -34.3634
  11   2.0000      -1.098728       -29.8979
  12   2.0000      -1.037135       -28.2219
  13   2.0000      -0.981316       -26.7030
  14   2.0000      -0.888827       -24.1862
  15   2.0000      -0.826684       -22.4952
  16   2.0000      -0.775129       -21.0923
  17   2.0000      -0.768747       -20.9187
  18   2.0000      -0.715964       -19.4824
  19   2.0000      -0.692349       -18.8398
  20   2.0000      -0.686048       -18.6683
  21   2.0000      -0.634151       -17.2561
  22   2.0000      -0.588919       -16.0253
  23   2.0000      -0.541733       -14.7413
  24   2.0000      -0.524026       -14.2595
  25   2.0000      -0.486959       -13.2508
  26   2.0000      -0.478243       -13.0137
  27   2.0000      -0.429369       -11.6837
  28   2.0000      -0.417593       -11.3633
  29   2.0000      -0.407365       -11.0850
  30   2.0000      -0.398809       -10.8521
  31   2.0000      -0.387819       -10.5531
  32   0.0000       0.117272         3.1911
  33   0.0000       0.142567         3.8794
  34   0.0000       0.151263         4.1161
  35   0.0000       0.156139         4.2488
  36   0.0000       0.165081         4.4921

MULLIKEN ATOMIC CHARGES
-----------------------
   0 O :   -0.471871
   1 C :    0.072996
   2 C :   -0.073039
   3 C :   -0.116084
   4 C :   -0.089332
   5 C :   -0.129117
   6 C :   -0.038112
   7 C :   -0.175138
   8 N :   -0.362229
   9 H :    0.332562
  10 H :    0.200038
  11 H :    0.199061
  12 H :    0.142575
  13 H :    0.123522
  14 H :    0.145671
  15 H :    0.238496
Sum of atomic charges:   -0.0000000

LOEWDIN ATOMIC CHARGES
----------------------
   0 O :    0.038231
   1 C :   -0.353921
   2 C :   -0.053361
   3 C :   -0.064523
   4 C :   -0.049839
   5 C :   -0.066357
   6 C :   -0.227607
   7 C :   -0.251450
   8 N :   -0.000935
   9 H :    0.188545
  10 H :    0.130885
  11 H :    0.130552
  12 H :    0.154037
  13 H :    0.124914
  14 H :    0.129000
  15 H :    0.171828

  Mayer bond orders larger than 0.1
B(  0-O ,  1-C ) :   0.7719 B(  0-O ,  9-H ) :   0.8345 B(  1-C ,  2-C ) :   1.2473
B(  1-C ,  4-C ) :   1.2294 B(  1-C ,  6-C ) :   0.8490 B(  2-C ,  3-C ) :   2.5521
B(  3-C , 10-H ) :   0.8836 B(  4-C ,  5-C ) :   2.5548 B(  5-C , 11-H ) :   0.8854
B(  6-C ,  7-C ) :   0.9589 B(  6-C ,  8-N ) :   0.9764 B(  6-C , 12-H ) :   0.9043
B(  7-C ,  8-N ) :   0.9090 B(  7-C , 13-H ) :   0.9247 B(  7-C , 14-H ) :   0.9048
B(  8-N , 15-H ) :   0.8687

MP2 TOTAL ENERGY:     -399.932950602 Eh
FINAL SINGLE POINT ENERGY      -399.932950602359

DIPOLE MOMENT
-------------
                                X             Y             Z
Electronic contribution:     -2.43099      -0.14448      -2.20247
Nuclear contribution   :      2.21381       0.19713       1.23253
                        -----------------------------------------
Total Dipole Moment    :     -0.21717       0.05265      -0.96994
                        -----------------------------------------
Magnitude (a.u.)       :      0.99535
Magnitude (Debye)      :      2.52998

                             ****ORCA TERMINATED NORMALLY****
TOTAL RUN TIME: 0 days 0 hours 17 minutes 9 seconds 950 msec
