                         Program Version 3.0.3 - RELEASE   -
|  1> ! RI-MP2 RIJK def2-TZVP def2-TZVP/C def2-TZVP/JK TIGHTSCF
|  2> % maxcore 2000
|  3> % mp2 density relaxed end
|  4> *xyz 0 1
|  5>  C       -0.5876388115     1.4945474597    -0.4891943886
|  6>  C        0.0362412513     0.1794705430    -0.0626439843
|  7>  C        1.3335633864    -0.3141655541    -0.8192911042
|  8>  C        2.0051892565    -0.3214269742     0.5448731031
|  9>  C        2.9652064078    -0.6538382738     1.4093326815
| 10>  C        2.4206264887    -0.2863102243     2.7825183136
| 11>  C        0.9567895114     0.1996780734     2.5368227503
| 12>  O        0.1092102469     0.4825120198     3.3488486936
| 13>  N        0.8805510788     0.2355764853     1.1575765116
| 14>  H        0.1721889620     2.2772594518    -0.5745658856
| 15>  H       -1.0831002418     1.3810125188    -1.4590553910
| 16>  H       -1.3347320256     1.8193205532     0.2408008653
| 17>  H       -0.7243454013    -0.6049432476     0.0157693663
| 18>  H        1.2565344470    -1.2823814973    -1.3168655147
| 19>  H        1.7311925866     0.4213994677    -1.5232667687
| 20>  H        3.9213334654    -1.1137184021     1.2153020318
| 21>  H        2.4030694137    -1.1265990135     3.4855188055
| 22>  H        2.9763452377     0.5213294942     3.2748929045
| 23> *
| 24>
| 25>                          ****END OF INPUT****

CARTESIAN COORDINATES (ANGSTROEM)
---------------------------------
  C     -0.587639    1.494547   -0.489194
  C      0.036241    0.179471   -0.062644
  C      1.333563   -0.314166   -0.819291
  C      2.005189   -0.321427    0.544873
  C      2.965206   -0.653838    1.409333
  C      2.420626   -0.286310    2.782518
  C      0.956790    0.199678    2.536823
  O      0.109210    0.482512    3.348849
  N      0.880551    0.235576    1.157577
  H      0.172189    2.277259   -0.574566
  H     -1.083100    1.381013   -1.459055
  H     -1.334732    1.819321    0.240801
  H     -0.724345   -0.604943    0.015769
  H      1.256534   -1.282381   -1.316866
  H      1.731193    0.421399   -1.523267
  H      3.921333   -1.113718    1.215302
  H      2.403069   -1.126599    3.485519
  H      2.976345    0.521329    3.274893

 Total Charge           Charge          ....    0
 Multiplicity           Mult            ....    1
 Number of Electrons    NEL             ....   66
 Basis Dimension        Dim             ....  333

ORBITAL ENERGIES
----------------

  NO   OCC          E(Eh)            E(eV)
   0   2.0000     -20.520914      -558.4025
   1   2.0000     -15.582172      -424.0125
   2   2.0000     -11.351750      -308.8968
   3   2.0000     -11.298075      -307.4362
   4   2.0000     -11.280430      -306.9561
   5   2.0000     -11.262056      -306.4561
   6   2.0000     -11.244035      -305.9657
   7   2.0000     -11.231071      -305.6130
   8   2.0000     -11.223239      -305.3999
   9   2.0000      -1.383995       -37.6604
  10   2.0000      -1.303345       -35.4658
  11   2.0000      -1.100299       -29.9407
  12   2.0000      -1.029125       -28.0039
  13   2.0000      -0.998207       -27.1626
  14   2.0000      -0.913444       -24.8561
  15   2.0000      -0.848324       -23.0841
  16   2.0000      -0.793448       -21.5908
  17   2.0000      -0.719911       -19.5898
  18   2.0000      -0.667678       -18.1685
  19   2.0000      -0.662650       -18.0316
  20   2.0000      -0.621902       -16.9228
  21   2.0000      -0.606472       -16.5029
  22   2.0000      -0.589535       -16.0421
  23   2.0000      -0.582364       -15.8469
  24   2.0000      -0.569357       -15.4930
  25   2.0000      -0.543093       -14.7783
  26   2.0000      -0.542378       -14.7588
  27   2.0000      -0.511961       -13.9312
  28   2.0000      -0.508869       -13.8470
  29   2.0000      -0.481920       -13.1137
  30   2.0000      -0.454191       -12.3592
  31   2.0000      -0.409196       -11.1348
  32   2.0000      -0.314222        -8.5504
  33   0.0000       0.126492         3.4420
  34   0.0000       0.141042         3.8380
  35   0.0000       0.155865         4.2413
  36   0.0000       0.160454         4.3662
  37   0.0000       0.170293         4.6339

MULLIKEN ATOMIC CHARGES
-----------------------
   0 C :   -0.395203
   1 C :   -0.008365
   2 C :   -0.182787
   3 C :    0.056623
   4 C :   -0.314995
   5 C :   -0.129544
   6 C :    0.134261
   7 O :   -0.329090
   8 N :   -0.062777
   9 H :    0.129963
  10 H :    0.133130
  11 H :    0.153921
  12 H :    0.113752
  13 H :    0.140913
  14 H :    0.134611
  15 H :    0.141246
  16 H :    0.141831
  17 H :    0.142513
Sum of atomic charges:    0.0000000

LOEWDIN ATOMIC CHARGES
----------------------
   0 C :   -0.290548
   1 C :   -0.218127
   2 C :   -0.167594
   3 C :   -0.186732
   4 C :   -0.178182
   5 C :   -0.196761
   6 C :   -0.394790
   7 O :    0.095129
   8 N :    0.271198
   9 H :    0.127754
  10 H :    0.129053
  11 H :    0.133793
  12 H :    0.146161
  13 H :    0.139740
  14 H :    0.143513
  15 H :    0.136353
  16 H :    0.154302
  17 H :    0.155739

  Mayer bond orders larger than 0.1
B(  0-C ,  1-C ) :   0.9154 B(  0-C ,  9-H ) :   0.9330 B(  0-C , 10-H ) :   0.9312
B(  0-C , 11-H ) :   0.9338 B(  1-C ,  2-C ) :   0.9414 B(  1-C ,  8-N ) :   0.8716
B(  1-C , 12-H ) :   0.9179 B(  2-C ,  3-C ) :   0.9303 B(  2-C , 13-H ) :   0.9105
B(  2-C , 14-H ) :   0.9032 B(  3-C ,  4-C ) :   1.6778 B(  3-C ,  8-N ) :   0.9778
B(  4-C ,  5-C ) :   0.9192 B(  4-C , 15-H ) :   0.9215 B(  5-C ,  6-C ) :   0.9336
B(  5-C , 16-H ) :   0.9008 B(  5-C , 17-H ) :   0.8919 B(  6-C ,  7-O ) :   2.0108
B(  6-C ,  8-N ) :   1.0544

MP2 TOTAL ENERGY:     -401.266193775 Eh
FINAL SINGLE POINT ENERGY      -401.266193774593

DIPOLE MOMENT
-------------
                                X             Y             Z
Electronic contribution:      0.83182      -1.30272       5.29600
Nuclear contribution   :     -0.40087       0.99728      -6.69460
                        -----------------------------------------
Total Dipole Moment    :      0.43095      -0.30544      -1.39860
                        -----------------------------------------
Magnitude (a.u.)       :      1.49502
Magnitude (Debye)      :      3.80005

                             ****ORCA TERMINATED NORMALLY****
TOTAL RUN TIME: 0 days 0 hours 18 minutes 1 seconds 379 msec
