                         Program Version 3.0.3 - RELEASE   -
|  1> ! RI-MP2 RIJK def2-TZVP def2-TZVP/C def2-TZVP/JK TIGHTSCF
|  2> % maxcore 2000
|  3> % mp2 density relaxed end
|  4> *xyz 0 1
|  5>  C       -0.1921637976     1.6941917103     0.1208701347
|  6>  C        1.1730900177     1.0420675714     0.0509828780
|  7>  C        2.1642527470     1.0276089078    -1.1192945108
|  8>  C        3.2897366467     0.6918938234    -0.0945629872
|  9>  C        2.3166712069     1.0375314491     1.0730905597
| 10>  C       -0.0587308134     0.2033332318     0.0965894202
| 11>  C       -0.5113091030    -0.8549502905     1.0970324245
| 12>  C       -0.9364972166    -1.6330303050    -0.1669173673
| 13>  O       -0.4730972479    -0.5713548096    -1.0336855263
| 14>  H       -0.4959925822     2.1710428702     1.0495106816
| 15>  H       -0.5653609226     2.1717846907    -0.7808371622
| 16>  H        1.9627598512     0.2881294286    -1.8979962395
| 17>  H        2.2924367118     2.0086164734    -1.5872098900
| 18>  H        3.5657319658    -0.3653972462    -0.1092687135
| 19>  H        4.2026008394     1.2877244534    -0.1583324344
| 20>  H        2.5038650726     2.0274242462     1.5019073335
| 21>  H        2.2485387191     0.3158128338     1.8933378269
| 22>  H        0.2854927534    -1.3152000147     1.6858658645
| 23>  H       -1.3251731261    -0.5576647738     1.7611375860
| 24>  H       -0.4021730747    -2.5714941380    -0.3533994490
| 25>  H       -2.0131801072    -1.8032980723    -0.2787773295
| 26> *
| 27>
| 28>                          ****END OF INPUT****

CARTESIAN COORDINATES (ANGSTROEM)
---------------------------------
  C     -0.192164    1.694192    0.120870
  C      1.173090    1.042068    0.050983
  C      2.164253    1.027609   -1.119295
  C      3.289737    0.691894   -0.094563
  C      2.316671    1.037531    1.073091
  C     -0.058731    0.203333    0.096589
  C     -0.511309   -0.854950    1.097032
  C     -0.936497   -1.633030   -0.166917
  O     -0.473097   -0.571355   -1.033686
  H     -0.495993    2.171043    1.049511
  H     -0.565361    2.171785   -0.780837
  H      1.962760    0.288129   -1.897996
  H      2.292437    2.008616   -1.587210
  H      3.565732   -0.365397   -0.109269
  H      4.202601    1.287724   -0.158332
  H      2.503865    2.027424    1.501907
  H      2.248539    0.315813    1.893338
  H      0.285493   -1.315200    1.685866
  H     -1.325173   -0.557665    1.761138
  H     -0.402173   -2.571494   -0.353399
  H     -2.013180   -1.803298   -0.278777

 Total Charge           Charge          ....    0
 Multiplicity           Mult            ....    1
 Number of Electrons    NEL             ....   68
 Basis Dimension        Dim             ....  351

ORBITAL ENERGIES
----------------

  NO   OCC          E(Eh)            E(eV)
   0   2.0000     -20.546403      -559.0960
   1   2.0000     -11.282157      -307.0031
   2   2.0000     -11.278769      -306.9109
   3   2.0000     -11.231605      -305.6275
   4   2.0000     -11.227232      -305.5085
   5   2.0000     -11.221209      -305.3446
   6   2.0000     -11.218731      -305.2772
   7   2.0000     -11.216354      -305.2125
   8   2.0000     -11.215038      -305.1767
   9   2.0000      -1.379496       -37.5380
  10   2.0000      -1.155925       -31.4543
  11   2.0000      -1.061816       -28.8935
  12   2.0000      -1.006153       -27.3788
  13   2.0000      -0.898306       -24.4441
  14   2.0000      -0.869392       -23.6574
  15   2.0000      -0.836116       -22.7519
  16   2.0000      -0.761794       -20.7295
  17   2.0000      -0.702494       -19.1158
  18   2.0000      -0.671581       -18.2747
  19   2.0000      -0.662693       -18.0328
  20   2.0000      -0.637602       -17.3500
  21   2.0000      -0.631588       -17.1864
  22   2.0000      -0.580990       -15.8096
  23   2.0000      -0.551172       -14.9981
  24   2.0000      -0.540854       -14.7174
  25   2.0000      -0.529105       -14.3977
  26   2.0000      -0.510285       -13.8855
  27   2.0000      -0.486316       -13.2333
  28   2.0000      -0.476650       -12.9703
  29   2.0000      -0.465999       -12.6805
  30   2.0000      -0.462945       -12.5974
  31   2.0000      -0.435363       -11.8468
  32   2.0000      -0.383677       -10.4404
  33   2.0000      -0.358004        -9.7418
  34   0.0000       0.136711         3.7201
  35   0.0000       0.156645         4.2625
  36   0.0000       0.160742         4.3740
  37   0.0000       0.172938         4.7059
  38   0.0000       0.180025         4.8987

MULLIKEN ATOMIC CHARGES
-----------------------
   0 C :   -0.293003
   1 C :    0.077292
   2 C :   -0.233038
   3 C :   -0.234178
   4 C :   -0.229169
   5 C :    0.153135
   6 C :   -0.292412
   7 C :   -0.012267
   8 O :   -0.331523
   9 H :    0.127035
  10 H :    0.131833
  11 H :    0.130581
  12 H :    0.111135
  13 H :    0.111345
  14 H :    0.114647
  15 H :    0.111788
  16 H :    0.110745
  17 H :    0.122853
  18 H :    0.125754
  19 H :    0.098439
  20 H :    0.099006
Sum of atomic charges:   -0.0000000

LOEWDIN ATOMIC CHARGES
----------------------
   0 C :   -0.176620
   1 C :   -0.198556
   2 C :   -0.191407
   3 C :   -0.229847
   4 C :   -0.197714
   5 C :   -0.270542
   6 C :   -0.203170
   7 C :   -0.258175
   8 O :    0.165513
   9 H :    0.137059
  10 H :    0.142961
  11 H :    0.133060
  12 H :    0.133694
  13 H :    0.130931
  14 H :    0.122902
  15 H :    0.134367
  16 H :    0.125216
  17 H :    0.133205
  18 H :    0.134241
  19 H :    0.115974
  20 H :    0.116909

  Mayer bond orders larger than 0.1
B(  0-C ,  1-C ) :   0.8594 B(  0-C ,  5-C ) :   0.8958 B(  0-C ,  9-H ) :   0.9117
B(  0-C , 10-H ) :   0.9085 B(  1-C ,  2-C ) :   0.8867 B(  1-C ,  4-C ) :   0.8680
B(  1-C ,  5-C ) :   0.8302 B(  2-C ,  3-C ) :   0.9704 B(  2-C , 11-H ) :   0.9194
B(  2-C , 12-H ) :   0.9217 B(  3-C ,  4-C ) :   0.9676 B(  3-C , 13-H ) :   0.9231
B(  3-C , 14-H ) :   0.9307 B(  4-C , 15-H ) :   0.9158 B(  4-C , 16-H ) :   0.9240
B(  5-C ,  6-C ) :   0.9047 B(  5-C ,  8-O ) :   0.9762 B(  6-C ,  7-C ) :   0.9983
B(  6-C , 17-H ) :   0.9195 B(  6-C , 18-H ) :   0.9179 B(  7-C ,  8-O ) :   0.9357
B(  7-C , 19-H ) :   0.9144 B(  7-C , 20-H ) :   0.9142

MP2 TOTAL ENERGY:     -386.354701802 Eh
FINAL SINGLE POINT ENERGY      -386.354701802331

DIPOLE MOMENT
-------------
                                X             Y             Z
Electronic contribution:     -3.13383      -0.57472      -1.99363
Nuclear contribution   :      3.16053       0.41960       2.64062
                        -----------------------------------------
Total Dipole Moment    :      0.02670      -0.15512       0.64699
                        -----------------------------------------
Magnitude (a.u.)       :      0.66586
Magnitude (Debye)      :      1.69249

                             ****ORCA TERMINATED NORMALLY****
TOTAL RUN TIME: 0 days 0 hours 17 minutes 59 seconds 700 msec
