                         Program Version 3.0.3 - RELEASE   -
|  1> ! RI-MP2 RIJK def2-TZVP def2-TZVP/C def2-TZVP/JK TIGHTSCF
|  2> % maxcore 2000
|  3> % mp2 density relaxed end
|  4> *xyz 0 1
|  5>  C       -0.0630091621     1.5690799787    -0.1191852702
|  6>  C        0.0287397553     0.0421591730    -0.0162001533
|  7>  C        0.7526740807    -0.6151918145    -1.2210728605
|  8>  C        1.5164730166    -1.8333911583    -0.6478029105
|  9>  C        1.6075465074    -1.5082861495     0.8218760070
| 10>  C        0.8098739484    -0.4980312768     1.1768111415
| 11>  C        0.6278292523     0.0410378885     2.5703809154
| 12>  C        1.4340665814     1.3111352533     2.8090285054
| 13>  O        0.9784473279     2.3572447335     3.1894045376
| 14>  H        0.9336262369     2.0190176021    -0.1926383680
| 15>  H       -0.6244956823     1.8582595434    -1.0137021738
| 16>  H       -0.5650573894     2.0110403028     0.7465929465
| 17>  H       -0.9999943708    -0.3462491242     0.0564624794
| 18>  H        0.0671540485    -0.8808878481    -2.0300758727
| 19>  H        1.4721685292     0.1026279998    -1.6314645482
| 20>  H        0.9650547738    -2.7726606906    -0.7988062302
| 21>  H        2.4957767652    -1.9774741496    -1.1181473952
| 22>  H        2.2164438850    -2.0842176006     1.5122061804
| 23>  H       -0.4210870547     0.2591477062     2.7956085916
| 24>  H        0.9912910069    -0.6983172861     3.2970026287
| 25>  H        2.5221701437     1.1937226871     2.5993126592
| 26> *
| 27>
| 28>                          ****END OF INPUT****

CARTESIAN COORDINATES (ANGSTROEM)
---------------------------------
  C     -0.063009    1.569080   -0.119185
  C      0.028740    0.042159   -0.016200
  C      0.752674   -0.615192   -1.221073
  C      1.516473   -1.833391   -0.647803
  C      1.607547   -1.508286    0.821876
  C      0.809874   -0.498031    1.176811
  C      0.627829    0.041038    2.570381
  C      1.434067    1.311135    2.809029
  O      0.978447    2.357245    3.189405
  H      0.933626    2.019018   -0.192638
  H     -0.624496    1.858260   -1.013702
  H     -0.565057    2.011040    0.746593
  H     -0.999994   -0.346249    0.056462
  H      0.067154   -0.880888   -2.030076
  H      1.472169    0.102628   -1.631465
  H      0.965055   -2.772661   -0.798806
  H      2.495777   -1.977474   -1.118147
  H      2.216444   -2.084218    1.512206
  H     -0.421087    0.259148    2.795609
  H      0.991291   -0.698317    3.297003
  H      2.522170    1.193723    2.599313

 Total Charge           Charge          ....    0
 Multiplicity           Mult            ....    1
 Number of Electrons    NEL             ....   68
 Basis Dimension        Dim             ....  351

ORBITAL ENERGIES
----------------

  NO   OCC          E(Eh)            E(eV)
   0   2.0000     -20.556417      -559.3686
   1   2.0000     -11.332347      -308.3688
   2   2.0000     -11.246331      -306.0282
   3   2.0000     -11.239355      -305.8384
   4   2.0000     -11.235538      -305.7345
   5   2.0000     -11.229712      -305.5760
   6   2.0000     -11.228757      -305.5500
   7   2.0000     -11.223632      -305.4105
   8   2.0000     -11.215001      -305.1757
   9   2.0000      -1.396146       -37.9911
  10   2.0000      -1.151188       -31.3254
  11   2.0000      -1.044729       -28.4285
  12   2.0000      -1.014252       -27.5992
  13   2.0000      -0.940724       -25.5984
  14   2.0000      -0.887739       -24.1566
  15   2.0000      -0.800975       -21.7956
  16   2.0000      -0.785385       -21.3714
  17   2.0000      -0.715195       -19.4614
  18   2.0000      -0.679641       -18.4940
  19   2.0000      -0.648315       -17.6416
  20   2.0000      -0.641284       -17.4502
  21   2.0000      -0.621745       -16.9186
  22   2.0000      -0.592957       -16.1352
  23   2.0000      -0.580160       -15.7870
  24   2.0000      -0.557034       -15.1577
  25   2.0000      -0.530081       -14.4242
  26   2.0000      -0.518642       -14.1130
  27   2.0000      -0.513864       -13.9830
  28   2.0000      -0.491629       -13.3779
  29   2.0000      -0.487397       -13.2627
  30   2.0000      -0.471023       -12.8172
  31   2.0000      -0.454316       -12.3626
  32   2.0000      -0.424502       -11.5513
  33   2.0000      -0.345882        -9.4119
  34   0.0000       0.118129         3.2145
  35   0.0000       0.139528         3.7968
  36   0.0000       0.150446         4.0939
  37   0.0000       0.156017         4.2454
  38   0.0000       0.160614         4.3705

MULLIKEN ATOMIC CHARGES
-----------------------
   0 C :   -0.420631
   1 C :   -0.004322
   2 C :   -0.273986
   3 C :   -0.150794
   4 C :   -0.219732
   5 C :   -0.020327
   6 C :   -0.205523
   7 C :    0.098655
   8 O :   -0.260170
   9 H :    0.123618
  10 H :    0.136551
  11 H :    0.148779
  12 H :    0.095394
  13 H :    0.125312
  14 H :    0.111530
  15 H :    0.114606
  16 H :    0.121299
  17 H :    0.125340
  18 H :    0.130581
  19 H :    0.143142
  20 H :    0.080678
Sum of atomic charges:    0.0000000

LOEWDIN ATOMIC CHARGES
----------------------
   0 C :   -0.290535
   1 C :   -0.229644
   2 C :   -0.214755
   3 C :   -0.242101
   4 C :   -0.134191
   5 C :   -0.151690
   6 C :   -0.222743
   7 C :   -0.290849
   8 O :    0.133319
   9 H :    0.124438
  10 H :    0.125561
  11 H :    0.126991
  12 H :    0.156707
  13 H :    0.132196
  14 H :    0.140481
  15 H :    0.139996
  16 H :    0.135868
  17 H :    0.137185
  18 H :    0.152309
  19 H :    0.160388
  20 H :    0.111068

  Mayer bond orders larger than 0.1
B(  0-C ,  1-C ) :   0.9107 B(  0-C ,  9-H ) :   0.9297 B(  0-C , 10-H ) :   0.9322
B(  0-C , 11-H ) :   0.9357 B(  1-C ,  2-C ) :   0.9286 B(  1-C ,  5-C ) :   0.9198
B(  1-C , 12-H ) :   0.9110 B(  2-C ,  3-C ) :   0.9472 B(  2-C , 13-H ) :   0.9354
B(  2-C , 14-H ) :   0.9287 B(  3-C ,  4-C ) :   0.9398 B(  3-C , 15-H ) :   0.9092
B(  3-C , 16-H ) :   0.9326 B(  4-C ,  5-C ) :   1.7313 B(  4-C , 17-H ) :   0.9256
B(  5-C ,  6-C ) :   0.8482 B(  6-C ,  7-C ) :   0.8759 B(  6-C , 18-H ) :   0.9050
B(  6-C , 19-H ) :   0.9254 B(  7-C ,  8-O ) :   2.0007 B(  7-C , 20-H ) :   0.9337

MP2 TOTAL ENERGY:     -386.435522169 Eh
FINAL SINGLE POINT ENERGY      -386.435522168950

DIPOLE MOMENT
-------------
                                X             Y             Z
Electronic contribution:      1.19061       1.92867       6.43225
Nuclear contribution   :     -1.06218      -2.87666      -6.86915
                        -----------------------------------------
Total Dipole Moment    :      0.12842      -0.94799      -0.43689
                        -----------------------------------------
Magnitude (a.u.)       :      1.05169
Magnitude (Debye)      :      2.67319

                             ****ORCA TERMINATED NORMALLY****
TOTAL RUN TIME: 0 days 0 hours 19 minutes 4 seconds 598 msec
