                         Program Version 3.0.3 - RELEASE   -
|  1> ! RI-MP2 RIJK def2-TZVP def2-TZVP/C def2-TZVP/JK TIGHTSCF
|  2> % maxcore 2000
|  3> % mp2 density relaxed end
|  4> *xyz 0 1
|  5>  N        0.0976193509    -3.6906015168    -0.0137316952
|  6>  C        0.0555726531    -2.5299040570    -0.0092341313
|  7>  C        0.0133636012    -1.1656968477     0.0022073149
|  8>  C       -0.0188328224     0.0418611324     0.0222648414
|  9>  C       -0.0322211338     1.4768232074     0.0355055858
| 10>  C        0.5330839470     2.1789070799     1.2512897937
| 11>  N        1.2614232553     2.2134261126    -0.0033811213
| 12>  C       -1.1142755289     2.0989719776    -0.7020638947
| 13>  N       -1.9926195801     2.5911686480    -1.2677920273
| 14>  H        0.0759348945     3.1182873170     1.5451263645
| 15>  H        0.8742707524     1.5400402102     2.0602509569
| 16>  H        2.0246989907     1.5399175761    -0.0080496174
| 17> *
| 18>
| 19>                          ****END OF INPUT****

CARTESIAN COORDINATES (ANGSTROEM)
---------------------------------
  N      0.097619   -3.690602   -0.013732
  C      0.055573   -2.529904   -0.009234
  C      0.013364   -1.165697    0.002207
  C     -0.018833    0.041861    0.022265
  C     -0.032221    1.476823    0.035506
  C      0.533084    2.178907    1.251290
  N      1.261423    2.213426   -0.003381
  C     -1.114276    2.098972   -0.702064
  N     -1.992620    2.591169   -1.267792
  H      0.075935    3.118287    1.545126
  H      0.874271    1.540040    2.060251
  H      2.024699    1.539918   -0.008050

 Total Charge           Charge          ....    0
 Multiplicity           Mult            ....    1
 Number of Electrons    NEL             ....   60
 Basis Dimension        Dim             ....  297

ORBITAL ENERGIES
----------------

  NO   OCC          E(Eh)            E(eV)
   0   2.0000     -15.635632      -425.4672
   1   2.0000     -15.616452      -424.9453
   2   2.0000     -15.599758      -424.4910
   3   2.0000     -11.379097      -309.6410
   4   2.0000     -11.331952      -308.3581
   5   2.0000     -11.324101      -308.1444
   6   2.0000     -11.320688      -308.0516
   7   2.0000     -11.312801      -307.8370
   8   2.0000     -11.301913      -307.5407
   9   2.0000      -1.346982       -36.6532
  10   2.0000      -1.254624       -34.1401
  11   2.0000      -1.241372       -33.7795
  12   2.0000      -1.125180       -30.6177
  13   2.0000      -1.023350       -27.8468
  14   2.0000      -0.944674       -25.7059
  15   2.0000      -0.908195       -24.7132
  16   2.0000      -0.815996       -22.2044
  17   2.0000      -0.753254       -20.4971
  18   2.0000      -0.656037       -17.8517
  19   2.0000      -0.603588       -16.4245
  20   2.0000      -0.598440       -16.2844
  21   2.0000      -0.591709       -16.1012
  22   2.0000      -0.582124       -15.8404
  23   2.0000      -0.555736       -15.1224
  24   2.0000      -0.552361       -15.0305
  25   2.0000      -0.502907       -13.6848
  26   2.0000      -0.489993       -13.3334
  27   2.0000      -0.476203       -12.9581
  28   2.0000      -0.436364       -11.8741
  29   2.0000      -0.408645       -11.1198
  30   0.0000       0.058975         1.6048
  31   0.0000       0.066040         1.7971
  32   0.0000       0.108514         2.9528
  33   0.0000       0.138699         3.7742
  34   0.0000       0.143731         3.9111

MULLIKEN ATOMIC CHARGES
-----------------------
   0 N :   -0.026948
   1 C :   -0.204848
   2 C :    0.336981
   3 C :   -0.098229
   4 C :    0.087144
   5 C :   -0.135950
   6 N :   -0.316564
   7 C :   -0.169481
   8 N :   -0.036500
   9 H :    0.160364
  10 H :    0.159042
  11 H :    0.244990
Sum of atomic charges:   -0.0000000

LOEWDIN ATOMIC CHARGES
----------------------
   0 N :    0.116590
   1 C :   -0.167955
   2 C :   -0.026196
   3 C :    0.042473
   4 C :   -0.276762
   5 C :   -0.184861
   6 N :    0.064204
   7 C :   -0.125506
   8 N :    0.097316
   9 H :    0.142355
  10 H :    0.136017
  11 H :    0.182325

  Mayer bond orders larger than 0.1
B(  0-N ,  1-C ) :   2.7385 B(  0-N ,  3-C ) :   0.1080 B(  1-C ,  2-C ) :   0.9838
B(  2-C ,  3-C ) :   2.4515 B(  2-C ,  4-C ) :  -0.1462 B(  3-C ,  4-C ) :   1.1751
B(  4-C ,  5-C ) :   0.8763 B(  4-C ,  6-N ) :   0.9337 B(  4-C ,  7-C ) :   0.9265
B(  5-C ,  6-N ) :   0.9364 B(  5-C ,  9-H ) :   0.9109 B(  5-C , 10-H ) :   0.9140
B(  6-N , 11-H ) :   0.8620 B(  7-C ,  8-N ) :   2.8272

MP2 TOTAL ENERGY:     -393.782431823 Eh
FINAL SINGLE POINT ENERGY      -393.782431823283

DIPOLE MOMENT
-------------
                                X             Y             Z
Electronic contribution:     -2.00816      -4.05805      -2.33749
Nuclear contribution   :      3.09310       4.68292       3.54107
                        -----------------------------------------
Total Dipole Moment    :      1.08494       0.62486       1.20358
                        -----------------------------------------
Magnitude (a.u.)       :      1.73671
Magnitude (Debye)      :      4.41435

                             ****ORCA TERMINATED NORMALLY****
TOTAL RUN TIME: 0 days 0 hours 11 minutes 46 seconds 643 msec
