                         Program Version 3.0.3 - RELEASE   -
|  1> ! RI-MP2 RIJK def2-TZVP def2-TZVP/C def2-TZVP/JK TIGHTSCF
|  2> % maxcore 2000
|  3> % mp2 density relaxed end
|  4> *xyz 0 1
|  5>  C       -0.1335522700     1.5673161531     0.1587027208
|  6>  C       -0.1328388632     0.0624573367     0.2389200962
|  7>  O        1.0395260340    -0.6168693642    -0.2200810014
|  8>  C        0.7104909222    -0.7031353451     1.1791981756
|  9>  C        1.6853241277    -0.1113922426     2.2002425658
| 10>  C        1.6565743186    -1.0790252045     3.4175368529
| 11>  O        1.0868541061    -0.5093068206     4.5958257882
| 12>  C        0.8545467243    -2.2598695919     2.9148830924
| 13>  C        0.3205664291    -2.0357853334     1.7141953761
| 14>  H        0.8165203228     1.9845007347     0.4999763797
| 15>  H       -0.2957537724     1.8915154026    -0.8746460423
| 16>  H       -0.9411694762     1.9843738325     0.7704622925
| 17>  H       -1.0640048828    -0.4094700890    -0.0858859920
| 18>  H        2.6810369841    -0.0671856052     1.7505878638
| 19>  H        1.4235189690     0.8986691321     2.5246182909
| 20>  H        2.6667074250    -1.3659231275     3.7265856678
| 21>  H        0.1468417891    -0.3796744023     4.4258621097
| 22>  H        0.7109530623    -3.1469861463     3.5212801293
| 23>  H       -0.3160494297    -2.7108477191     1.1535235841
| 24> *
| 25>
| 26>                          ****END OF INPUT****

CARTESIAN COORDINATES (ANGSTROEM)
---------------------------------
  C     -0.133552    1.567316    0.158703
  C     -0.132839    0.062457    0.238920
  O      1.039526   -0.616869   -0.220081
  C      0.710491   -0.703135    1.179198
  C      1.685324   -0.111392    2.200243
  C      1.656574   -1.079025    3.417537
  O      1.086854   -0.509307    4.595826
  C      0.854547   -2.259870    2.914883
  C      0.320566   -2.035785    1.714195
  H      0.816520    1.984501    0.499976
  H     -0.295754    1.891515   -0.874646
  H     -0.941169    1.984374    0.770462
  H     -1.064005   -0.409470   -0.085886
  H      2.681037   -0.067186    1.750588
  H      1.423519    0.898669    2.524618
  H      2.666707   -1.365923    3.726586
  H      0.146842   -0.379674    4.425862
  H      0.710953   -3.146986    3.521280
  H     -0.316049   -2.710848    1.153524

 Total Charge           Charge          ....    0
 Multiplicity           Mult            ....    1
 Number of Electrons    NEL             ....   68
 Basis Dimension        Dim             ....  339

ORBITAL ENERGIES
----------------

  NO   OCC          E(Eh)            E(eV)
   0   2.0000     -20.564208      -559.5805
   1   2.0000     -20.559273      -559.4462
   2   2.0000     -11.295652      -307.3703
   3   2.0000     -11.291278      -307.2513
   4   2.0000     -11.289568      -307.2048
   5   2.0000     -11.243328      -305.9465
   6   2.0000     -11.239533      -305.8432
   7   2.0000     -11.230465      -305.5965
   8   2.0000     -11.229006      -305.5568
   9   2.0000      -1.409844       -38.3638
  10   2.0000      -1.364608       -37.1329
  11   2.0000      -1.129995       -30.7487
  12   2.0000      -1.015200       -27.6250
  13   2.0000      -0.982615       -26.7383
  14   2.0000      -0.935388       -25.4532
  15   2.0000      -0.847761       -23.0688
  16   2.0000      -0.785071       -21.3629
  17   2.0000      -0.755858       -20.5679
  18   2.0000      -0.714305       -19.4372
  19   2.0000      -0.659978       -17.9589
  20   2.0000      -0.645349       -17.5608
  21   2.0000      -0.633705       -17.2440
  22   2.0000      -0.605117       -16.4661
  23   2.0000      -0.584683       -15.9100
  24   2.0000      -0.572341       -15.5742
  25   2.0000      -0.561233       -15.2719
  26   2.0000      -0.536183       -14.5903
  27   2.0000      -0.517717       -14.0878
  28   2.0000      -0.500752       -13.6262
  29   2.0000      -0.495576       -13.4853
  30   2.0000      -0.459261       -12.4971
  31   2.0000      -0.448704       -12.2099
  32   2.0000      -0.429551       -11.6887
  33   2.0000      -0.361885        -9.8474
  34   0.0000       0.126988         3.4555
  35   0.0000       0.136626         3.7178
  36   0.0000       0.159259         4.3337
  37   0.0000       0.164920         4.4877
  38   0.0000       0.167000         4.5443

MULLIKEN ATOMIC CHARGES
-----------------------
   0 C :   -0.403268
   1 C :    0.042585
   2 O :   -0.337701
   3 C :    0.204955
   4 C :   -0.295389
   5 C :    0.157864
   6 O :   -0.462862
   7 C :   -0.217670
   8 C :   -0.191108
   9 H :    0.146027
  10 H :    0.143359
  11 H :    0.129505
  12 H :    0.110783
  13 H :    0.134580
  14 H :    0.140094
  15 H :    0.109918
  16 H :    0.308797
  17 H :    0.138279
  18 H :    0.141253
Sum of atomic charges:    0.0000000

LOEWDIN ATOMIC CHARGES
----------------------
   0 C :   -0.293619
   1 C :   -0.273010
   2 O :    0.179017
   3 C :   -0.280303
   4 C :   -0.182926
   5 C :   -0.309325
   6 O :   -0.026983
   7 C :   -0.134547
   8 C :   -0.108023
   9 H :    0.130319
  10 H :    0.130969
  11 H :    0.130351
  12 H :    0.137040
  13 H :    0.150816
  14 H :    0.144424
  15 H :    0.144855
  16 H :    0.173791
  17 H :    0.141085
  18 H :    0.146067

  Mayer bond orders larger than 0.1
B(  0-C ,  1-C ) :   0.8839 B(  0-C ,  9-H ) :   0.9431 B(  0-C , 10-H ) :   0.9335
B(  0-C , 11-H ) :   0.9249 B(  1-C ,  2-O ) :   0.8748 B(  1-C ,  3-C ) :   0.9448
B(  1-C , 12-H ) :   0.9133 B(  2-O ,  3-C ) :   0.8880 B(  3-C ,  4-C ) :   0.8802
B(  3-C ,  8-C ) :   0.9282 B(  4-C ,  5-C ) :   0.9230 B(  4-C , 13-H ) :   0.9087
B(  4-C , 14-H ) :   0.9369 B(  5-C ,  6-O ) :   0.9252 B(  5-C ,  7-C ) :   0.9525
B(  5-C , 15-H ) :   0.9368 B(  6-O , 16-H ) :   0.8424 B(  7-C ,  8-C ) :   1.7421
B(  7-C , 17-H ) :   0.9318 B(  8-C , 18-H ) :   0.9176

MP2 TOTAL ENERGY:     -422.311502328 Eh
FINAL SINGLE POINT ENERGY      -422.311502328098

DIPOLE MOMENT
-------------
                                X             Y             Z
Electronic contribution:      1.18850      -4.15824       0.70978
Nuclear contribution   :     -1.92188       4.27290      -0.72592
                        -----------------------------------------
Total Dipole Moment    :     -0.73338       0.11465      -0.01614
                        -----------------------------------------
Magnitude (a.u.)       :      0.74247
Magnitude (Debye)      :      1.88720

                             ****ORCA TERMINATED NORMALLY****
TOTAL RUN TIME: 0 days 0 hours 17 minutes 27 seconds 192 msec
