                         Program Version 3.0.3 - RELEASE   -
|  1> ! RI-MP2 RIJK def2-TZVP def2-TZVP/C def2-TZVP/JK TIGHTSCF
|  2> % maxcore 2000
|  3> % mp2 density relaxed end
|  4> *xyz 0 1
|  5>  C        0.0399016241     1.1075843300    -0.3633798112
|  6>  O       -0.1885003709     0.0463833560     0.5536059490
|  7>  C       -1.3716802120    -0.6326030597     0.2938314780
|  8>  C       -1.4452782152    -1.6758804000    -0.7678407236
|  9>  N       -0.1812265184    -2.0631446967    -1.3819754480
| 10>  C        0.6921287089    -2.6019037141    -0.3250318274
| 11>  C       -0.1687632202    -2.7921917322     0.9367236515
| 12>  O        0.1441366851    -3.4382344747     1.9043194910
| 13>  C       -1.4717373047    -2.0891673214     0.7146916974
| 14>  H        0.9761862289     1.5845726886    -0.0659606015
| 15>  H        0.1276296792     0.7308850043    -1.3891166152
| 16>  H       -0.7680404239     1.8528470614    -0.3186288926
| 17>  H       -2.2774405621    -0.0474382392     0.4652767235
| 18>  H       -2.3171802010    -1.7408522385    -1.4083420028
| 19>  H       -0.3711150627    -2.7903215462    -2.0606298060
| 20>  H        1.1472537381    -3.5521856021    -0.6159795122
| 21>  H        1.4983289959    -1.9025182469    -0.0784343592
| 22>  H       -2.3364307489    -2.4260862386     1.2714616094
| 23> *
| 24>
| 25>                          ****END OF INPUT****

CARTESIAN COORDINATES (ANGSTROEM)
---------------------------------
  C      0.039902    1.107584   -0.363380
  O     -0.188500    0.046383    0.553606
  C     -1.371680   -0.632603    0.293831
  C     -1.445278   -1.675880   -0.767841
  N     -0.181227   -2.063145   -1.381975
  C      0.692129   -2.601904   -0.325032
  C     -0.168763   -2.792192    0.936724
  O      0.144137   -3.438234    1.904319
  C     -1.471737   -2.089167    0.714692
  H      0.976186    1.584573   -0.065961
  H      0.127630    0.730885   -1.389117
  H     -0.768040    1.852847   -0.318629
  H     -2.277441   -0.047438    0.465277
  H     -2.317180   -1.740852   -1.408342
  H     -0.371115   -2.790322   -2.060630
  H      1.147254   -3.552186   -0.615980
  H      1.498329   -1.902518   -0.078434
  H     -2.336431   -2.426086    1.271462

 Total Charge           Charge          ....    0
 Multiplicity           Mult            ....    1
 Number of Electrons    NEL             ....   68
 Basis Dimension        Dim             ....  333

ORBITAL ENERGIES
----------------

  NO   OCC          E(Eh)            E(eV)
   0   2.0000     -20.572953      -559.8185
   1   2.0000     -20.540569      -558.9373
   2   2.0000     -15.567828      -423.6221
   3   2.0000     -11.329784      -308.2991
   4   2.0000     -11.302836      -307.5658
   5   2.0000     -11.283191      -307.0312
   6   2.0000     -11.276678      -306.8540
   7   2.0000     -11.262506      -306.4684
   8   2.0000     -11.243882      -305.9616
   9   2.0000      -1.399063       -38.0704
  10   2.0000      -1.384454       -37.6729
  11   2.0000      -1.251848       -34.0645
  12   2.0000      -1.116561       -30.3832
  13   2.0000      -0.981879       -26.7183
  14   2.0000      -0.942677       -25.6516
  15   2.0000      -0.862713       -23.4756
  16   2.0000      -0.805259       -21.9122
  17   2.0000      -0.747310       -20.3354
  18   2.0000      -0.729780       -19.8583
  19   2.0000      -0.659967       -17.9586
  20   2.0000      -0.656584       -17.8666
  21   2.0000      -0.647018       -17.6062
  22   2.0000      -0.636558       -17.3216
  23   2.0000      -0.603465       -16.4211
  24   2.0000      -0.596964       -16.2442
  25   2.0000      -0.584997       -15.9186
  26   2.0000      -0.556731       -15.1494
  27   2.0000      -0.517388       -14.0789
  28   2.0000      -0.506634       -13.7862
  29   2.0000      -0.494083       -13.4447
  30   2.0000      -0.461963       -12.5707
  31   2.0000      -0.424033       -11.5385
  32   2.0000      -0.414515       -11.2795
  33   2.0000      -0.356939        -9.7128
  34   0.0000       0.125837         3.4242
  35   0.0000       0.136961         3.7269
  36   0.0000       0.152837         4.1589
  37   0.0000       0.164657         4.4805
  38   0.0000       0.177085         4.8187

MULLIKEN ATOMIC CHARGES
-----------------------
   0 C :   -0.223104
   1 O :   -0.309499
   2 C :    0.035485
   3 C :   -0.039860
   4 N :   -0.342254
   5 C :   -0.113299
   6 C :    0.122757
   7 O :   -0.273941
   8 C :   -0.142259
   9 H :    0.141144
  10 H :    0.144288
  11 H :    0.113977
  12 H :    0.116765
  13 H :    0.133018
  14 H :    0.217205
  15 H :    0.144107
  16 H :    0.127003
  17 H :    0.148467
Sum of atomic charges:   -0.0000000

LOEWDIN ATOMIC CHARGES
----------------------
   0 C :   -0.336855
   1 O :    0.177897
   2 C :   -0.283100
   3 C :   -0.228765
   4 N :    0.003890
   5 C :   -0.251960
   6 C :   -0.308447
   7 O :    0.152593
   8 C :   -0.149919
   9 H :    0.114603
  10 H :    0.110727
  11 H :    0.104058
  12 H :    0.142790
  13 H :    0.141059
  14 H :    0.174474
  15 H :    0.138737
  16 H :    0.145697
  17 H :    0.152520

  Mayer bond orders larger than 0.1
B(  0-C ,  1-O ) :   0.8749 B(  0-C ,  9-H ) :   0.9399 B(  0-C , 10-H ) :   0.9324
B(  0-C , 11-H ) :   0.9327 B(  1-O ,  2-C ) :   0.9944 B(  2-C ,  3-C ) :   0.9077
B(  2-C ,  8-C ) :   0.8300 B(  2-C , 12-H ) :   0.9367 B(  3-C ,  4-N ) :   0.9936
B(  3-C ,  8-C ) :   0.8147 B(  3-C , 13-H ) :   0.9156 B(  4-N ,  5-C ) :   0.9625
B(  4-N , 14-H ) :   0.8789 B(  5-C ,  6-C ) :   0.9089 B(  5-C ,  8-C ) :  -0.1073
B(  5-C , 15-H ) :   0.9132 B(  5-C , 16-H ) :   0.8938 B(  6-C ,  7-O ) :   2.0251
B(  6-C ,  8-C ) :   0.9556 B(  8-C , 17-H ) :   0.9076

MP2 TOTAL ENERGY:     -438.342238190 Eh
FINAL SINGLE POINT ENERGY      -438.342238190386

DIPOLE MOMENT
-------------
                                X             Y             Z
Electronic contribution:     -0.15647      -4.77065       4.09869
Nuclear contribution   :     -0.56434       5.21895      -5.35278
                        -----------------------------------------
Total Dipole Moment    :     -0.72080       0.44829      -1.25409
                        -----------------------------------------
Magnitude (a.u.)       :      1.51435
Magnitude (Debye)      :      3.84917

                             ****ORCA TERMINATED NORMALLY****
TOTAL RUN TIME: 0 days 0 hours 30 minutes 9 seconds 370 msec
