                         Program Version 3.0.3 - RELEASE   -
|  1> ! RI-MP2 RIJK def2-TZVP def2-TZVP/C def2-TZVP/JK TIGHTSCF
|  2> % maxcore 2000
|  3> % mp2 density relaxed end
|  4> *xyz 0 1
|  5>  C        0.0379039790     1.5362781178    -0.0173379223
|  6>  C       -0.0461420738     0.0483167920    -0.0118411228
|  7>  C       -1.0980606155    -0.7620270652     0.1128857907
|  8>  C       -0.6716906087    -2.2203721948     0.0518313590
|  9>  N        0.7594832673    -2.0975033544    -0.1674612314
| 10>  C        1.1941710461    -0.7888309349    -0.1435776060
| 11>  O        2.3415257901    -0.4053455946    -0.2195078811
| 12>  C       -1.0179737215    -2.9747256023     1.2592139245
| 13>  C       -1.3085116668    -3.6089474042     2.2372210489
| 14>  H        0.7115647361     1.8809689473     0.7743137657
| 15>  H        0.4659821032     1.8927710984    -0.9605548023
| 16>  H       -0.9415611837     1.9991169655     0.1230313816
| 17>  H       -2.1371633122    -0.4891055095     0.2405986843
| 18>  H       -1.1530444375    -2.7089793589    -0.8102927487
| 19>  H        1.3964876796    -2.8689145673    -0.0568860306
| 20>  H       -1.5615531116    -4.1634208750     3.1072390805
| 21> *
| 22>
| 23>                          ****END OF INPUT****

CARTESIAN COORDINATES (ANGSTROEM)
---------------------------------
  C      0.037904    1.536278   -0.017338
  C     -0.046142    0.048317   -0.011841
  C     -1.098061   -0.762027    0.112886
  C     -0.671691   -2.220372    0.051831
  N      0.759483   -2.097503   -0.167461
  C      1.194171   -0.788831   -0.143578
  O      2.341526   -0.405346   -0.219508
  C     -1.017974   -2.974726    1.259214
  C     -1.308512   -3.608947    2.237221
  H      0.711565    1.880969    0.774314
  H      0.465982    1.892771   -0.960555
  H     -0.941561    1.999117    0.123031
  H     -2.137163   -0.489106    0.240599
  H     -1.153044   -2.708979   -0.810293
  H      1.396488   -2.868915   -0.056886
  H     -1.561553   -4.163421    3.107239

 Total Charge           Charge          ....    0
 Multiplicity           Mult            ....    1
 Number of Electrons    NEL             ....   64
 Basis Dimension        Dim             ....  321

ORBITAL ENERGIES
----------------

  NO   OCC          E(Eh)            E(eV)
   0   2.0000     -20.522725      -558.4517
   1   2.0000     -15.587919      -424.1688
   2   2.0000     -11.352113      -308.9067
   3   2.0000     -11.319965      -308.0319
   4   2.0000     -11.263818      -306.5041
   5   2.0000     -11.257687      -306.3372
   6   2.0000     -11.251514      -306.1693
   7   2.0000     -11.243214      -305.9434
   8   2.0000     -11.233120      -305.6687
   9   2.0000      -1.385714       -37.7072
  10   2.0000      -1.268977       -34.5306
  11   2.0000      -1.098560       -29.8933
  12   2.0000      -1.066974       -29.0338
  13   2.0000      -0.992366       -27.0037
  14   2.0000      -0.941095       -25.6085
  15   2.0000      -0.833459       -22.6796
  16   2.0000      -0.756729       -20.5916
  17   2.0000      -0.750773       -20.4296
  18   2.0000      -0.704121       -19.1601
  19   2.0000      -0.680441       -18.5157
  20   2.0000      -0.644866       -17.5477
  21   2.0000      -0.612411       -16.6646
  22   2.0000      -0.601158       -16.3583
  23   2.0000      -0.585778       -15.9398
  24   2.0000      -0.552399       -15.0315
  25   2.0000      -0.549036       -14.9400
  26   2.0000      -0.540756       -14.7147
  27   2.0000      -0.435821       -11.8593
  28   2.0000      -0.418857       -11.3977
  29   2.0000      -0.409013       -11.1298
  30   2.0000      -0.398371       -10.8402
  31   2.0000      -0.379408       -10.3242
  32   0.0000       0.106344         2.8938
  33   0.0000       0.132480         3.6050
  34   0.0000       0.148766         4.0481
  35   0.0000       0.156938         4.2705
  36   0.0000       0.159624         4.3436

MULLIKEN ATOMIC CHARGES
-----------------------
   0 C :   -0.399699
   1 C :    0.028743
   2 C :   -0.183806
   3 C :    0.016254
   4 N :   -0.310670
   5 C :    0.197554
   6 O :   -0.334718
   7 C :   -0.064917
   8 C :   -0.136579
   9 H :    0.155398
  10 H :    0.152707
  11 H :    0.138609
  12 H :    0.148072
  13 H :    0.146063
  14 H :    0.248226
  15 H :    0.198762
Sum of atomic charges:    0.0000000

LOEWDIN ATOMIC CHARGES
----------------------
   0 C :   -0.259076
   1 C :   -0.148535
   2 C :   -0.074299
   3 C :   -0.247031
   4 N :    0.152413
   5 C :   -0.405404
   6 O :    0.093483
   7 C :   -0.084048
   8 C :   -0.080129
   9 H :    0.142427
  10 H :    0.141352
  11 H :    0.130941
  12 H :    0.146701
  13 H :    0.172981
  14 H :    0.188208
  15 H :    0.130014

  Mayer bond orders larger than 0.1
B(  0-C ,  1-C ) :   0.8927 B(  0-C ,  9-H ) :   0.9224 B(  0-C , 10-H ) :   0.9238
B(  0-C , 11-H ) :   0.9527 B(  1-C ,  2-C ) :   1.7137 B(  1-C ,  5-C ) :   0.9220
B(  2-C ,  3-C ) :   0.9676 B(  2-C , 12-H ) :   0.9178 B(  3-C ,  4-N ) :   0.8876
B(  3-C ,  7-C ) :   1.0703 B(  3-C , 13-H ) :   0.9390 B(  4-N ,  5-C ) :   1.1671
B(  4-N , 14-H ) :   0.8622 B(  5-C ,  6-O ) :   2.0164 B(  7-C ,  8-C ) :   2.6166
B(  8-C , 15-H ) :   0.8950

MP2 TOTAL ENERGY:     -400.058207968 Eh
FINAL SINGLE POINT ENERGY      -400.058207967689

DIPOLE MOMENT
-------------
                                X             Y             Z
Electronic contribution:      2.23549      -4.20972       0.00602
Nuclear contribution   :     -3.51978       3.72354       0.17137
                        -----------------------------------------
Total Dipole Moment    :     -1.28429      -0.48618       0.17739
                        -----------------------------------------
Magnitude (a.u.)       :      1.38464
Magnitude (Debye)      :      3.51949

                             ****ORCA TERMINATED NORMALLY****
TOTAL RUN TIME: 0 days 0 hours 16 minutes 55 seconds 724 msec
