                         Program Version 3.0.3 - RELEASE   -
|  1> ! RI-MP2 RIJK def2-TZVP def2-TZVP/C def2-TZVP/JK TIGHTSCF
|  2> % maxcore 2000
|  3> % mp2 density relaxed end
|  4> *xyz 0 1
|  5>  O        0.1303841756    -0.0950967175    -0.4710748500
|  6>  C        0.0572614367     1.0578838785    -0.1212186289
|  7>  C        1.2570510281     1.9563290058    -0.0427463252
|  8>  C        1.2185783137     3.4126313709    -0.6262780251
|  9>  C        0.3378448033     3.8502287764     0.5770291591
| 10>  C        1.4547221689     2.9370784015     1.1869671442
| 11>  C        2.4553849313     3.7130862903     0.2651436381
| 12>  C        1.6344952168     2.5640631686     2.5593469101
| 13>  C        1.7835400127     2.2488722983     3.7106058960
| 14>  H       -0.9239474150     1.4974695153     0.1561645756
| 15>  H        2.1435189471     1.3729511512    -0.3044683547
| 16>  H        1.0833030877     3.6744301326    -1.6744458268
| 17>  H        0.3973967589     4.9047425331     0.8566372393
| 18>  H       -0.6903753381     3.4942194940     0.6288323413
| 19>  H        3.3846994878     3.1950863707     0.0187271663
| 20>  H        2.6268855277     4.7596438771     0.5279991126
| 21>  H        1.9156769667     1.9692757034     4.7265951282
| 22> *
| 23>
| 24>                          ****END OF INPUT****

CARTESIAN COORDINATES (ANGSTROEM)
---------------------------------
  O      0.130384   -0.095097   -0.471075
  C      0.057261    1.057884   -0.121219
  C      1.257051    1.956329   -0.042746
  C      1.218578    3.412631   -0.626278
  C      0.337845    3.850229    0.577029
  C      1.454722    2.937078    1.186967
  C      2.455385    3.713086    0.265144
  C      1.634495    2.564063    2.559347
  C      1.783540    2.248872    3.710606
  H     -0.923947    1.497470    0.156165
  H      2.143519    1.372951   -0.304468
  H      1.083303    3.674430   -1.674446
  H      0.397397    4.904743    0.856637
  H     -0.690375    3.494219    0.628832
  H      3.384699    3.195086    0.018727
  H      2.626886    4.759644    0.527999
  H      1.915677    1.969276    4.726595

 Total Charge           Charge          ....    0
 Multiplicity           Mult            ....    1
 Number of Electrons    NEL             ....   64
 Basis Dimension        Dim             ....  327

ORBITAL ENERGIES
----------------

  NO   OCC          E(Eh)            E(eV)
   0   2.0000     -20.557200      -559.3899
   1   2.0000     -11.330899      -308.3294
   2   2.0000     -11.294431      -307.3371
   3   2.0000     -11.272321      -306.7354
   4   2.0000     -11.261007      -306.4276
   5   2.0000     -11.255678      -306.2826
   6   2.0000     -11.255217      -306.2700
   7   2.0000     -11.242848      -305.9334
   8   2.0000     -11.235838      -305.7427
   9   2.0000      -1.394490       -37.9460
  10   2.0000      -1.239370       -33.7250
  11   2.0000      -1.045752       -28.4563
  12   2.0000      -0.976402       -26.5693
  13   2.0000      -0.933536       -25.4028
  14   2.0000      -0.906012       -24.6539
  15   2.0000      -0.822386       -22.3783
  16   2.0000      -0.766182       -20.8489
  17   2.0000      -0.745001       -20.2725
  18   2.0000      -0.699623       -19.0377
  19   2.0000      -0.676453       -18.4072
  20   2.0000      -0.647953       -17.6317
  21   2.0000      -0.614305       -16.7161
  22   2.0000      -0.556235       -15.1359
  23   2.0000      -0.547797       -14.9063
  24   2.0000      -0.515299       -14.0220
  25   2.0000      -0.507390       -13.8068
  26   2.0000      -0.494870       -13.4661
  27   2.0000      -0.480557       -13.0766
  28   2.0000      -0.472949       -12.8696
  29   2.0000      -0.417700       -11.3662
  30   2.0000      -0.389196       -10.5906
  31   2.0000      -0.386090       -10.5060
  32   0.0000       0.113356         3.0846
  33   0.0000       0.142207         3.8696
  34   0.0000       0.146017         3.9733
  35   0.0000       0.148086         4.0296
  36   0.0000       0.161170         4.3857

MULLIKEN ATOMIC CHARGES
-----------------------
   0 O :   -0.256862
   1 C :    0.049561
   2 C :   -0.009541
   3 C :   -0.118480
   4 C :   -0.187009
   5 C :   -0.299754
   6 C :   -0.163787
   7 C :    0.045039
   8 C :   -0.096837
   9 H :    0.077878
  10 H :    0.118208
  11 H :    0.149531
  12 H :    0.120705
  13 H :    0.127007
  14 H :    0.126871
  15 H :    0.123296
  16 H :    0.194174
Sum of atomic charges:    0.0000000

LOEWDIN ATOMIC CHARGES
----------------------
   0 O :    0.136550
   1 C :   -0.273432
   2 C :   -0.142333
   3 C :   -0.153129
   4 C :   -0.152359
   5 C :   -0.180708
   6 C :   -0.148812
   7 C :   -0.072756
   8 C :   -0.073690
   9 H :    0.114231
  10 H :    0.158285
  11 H :    0.129587
  12 H :    0.134399
  13 H :    0.127465
  14 H :    0.134424
  15 H :    0.133379
  16 H :    0.128899

  Mayer bond orders larger than 0.1
B(  0-O ,  1-C ) :   1.9898 B(  1-C ,  2-C ) :   0.8747 B(  1-C ,  9-H ) :   0.9568
B(  2-C ,  3-C ) :   0.8352 B(  2-C ,  5-C ) :   0.7832 B(  2-C , 10-H ) :   0.9208
B(  3-C ,  4-C ) :   0.8900 B(  3-C ,  6-C ) :   0.8959 B(  3-C , 11-H ) :   0.8987
B(  4-C ,  5-C ) :   0.8694 B(  4-C , 12-H ) :   0.9210 B(  4-C , 13-H ) :   0.9321
B(  5-C ,  6-C ) :   0.8611 B(  5-C ,  7-C ) :   1.1758 B(  5-C ,  8-C ) :  -0.1824
B(  6-C , 14-H ) :   0.9324 B(  6-C , 15-H ) :   0.9211 B(  7-C ,  8-C ) :   2.6783
B(  8-C , 16-H ) :   0.8624

MP2 TOTAL ENERGY:     -383.925454897 Eh
FINAL SINGLE POINT ENERGY      -383.925454897168

DIPOLE MOMENT
-------------
                                X             Y             Z
Electronic contribution:     -0.75837      -4.35552       1.02684
Nuclear contribution   :      0.90009       5.51184      -0.86066
                        -----------------------------------------
Total Dipole Moment    :      0.14172       1.15632       0.16618
                        -----------------------------------------
Magnitude (a.u.)       :      1.17676
Magnitude (Debye)      :      2.99109

                             ****ORCA TERMINATED NORMALLY****
TOTAL RUN TIME: 0 days 0 hours 17 minutes 2 seconds 400 msec
