                         Program Version 3.0.3 - RELEASE   -
|  1> ! RI-MP2 RIJK def2-TZVP def2-TZVP/C def2-TZVP/JK TIGHTSCF
|  2> % maxcore 2000
|  3> % mp2 density relaxed end
|  4> *xyz 0 1
|  5>  O       -0.4020831968     1.1850495512    -0.5285829634
|  6>  C       -0.0733518580    -0.0864774867    -0.0306410625
|  7>  C       -0.3036765767    -0.3363044789     1.4526158019
|  8>  C       -1.2656492851    -0.8849398043     0.4302900564
|  9>  C        1.0253270537    -0.7461337053    -0.6879847378
| 10>  C        1.9755877608    -1.2486872758    -1.2344358013
| 11>  C        3.0673998541    -1.9133106794    -1.9291565421
| 12>  C        2.5776337261    -3.0589290881    -2.8198237719
| 13>  O        3.1566023886    -4.1037383505    -2.9380291161
| 14>  H        0.3654039385     1.7544094171    -0.4017016616
| 15>  H        0.3601670143    -1.0220423726     1.9656305963
| 16>  H       -0.6220033186     0.5267629433     2.0261222575
| 17>  H       -2.2218142046    -0.3866865063     0.3208572171
| 18>  H       -1.2690746346    -1.9501619827     0.2349954811
| 19>  H        3.5793601898    -1.1973859994    -2.5908408726
| 20>  H        3.8243552087    -2.3104047178    -1.2446883589
| 21>  H        1.6343887799    -2.8389280737    -3.3650295518
| 22> *
| 23>
| 24>                          ****END OF INPUT****

CARTESIAN COORDINATES (ANGSTROEM)
---------------------------------
  O     -0.402083    1.185050   -0.528583
  C     -0.073352   -0.086477   -0.030641
  C     -0.303677   -0.336304    1.452616
  C     -1.265649   -0.884940    0.430290
  C      1.025327   -0.746134   -0.687985
  C      1.975588   -1.248687   -1.234436
  C      3.067400   -1.913311   -1.929157
  C      2.577634   -3.058929   -2.819824
  O      3.156602   -4.103738   -2.938029
  H      0.365404    1.754409   -0.401702
  H      0.360167   -1.022042    1.965631
  H     -0.622003    0.526763    2.026122
  H     -2.221814   -0.386687    0.320857
  H     -1.269075   -1.950162    0.234995
  H      3.579360   -1.197386   -2.590841
  H      3.824355   -2.310405   -1.244688
  H      1.634389   -2.838928   -3.365030

 Total Charge           Charge          ....    0
 Multiplicity           Mult            ....    1
 Number of Electrons    NEL             ....   66
 Basis Dimension        Dim             ....  327

ORBITAL ENERGIES
----------------

  NO   OCC          E(Eh)            E(eV)
   0   2.0000     -20.576181      -559.9063
   1   2.0000     -20.568026      -559.6845
   2   2.0000     -11.345055      -308.7146
   3   2.0000     -11.320264      -308.0400
   4   2.0000     -11.275947      -306.8341
   5   2.0000     -11.245805      -306.0139
   6   2.0000     -11.243385      -305.9480
   7   2.0000     -11.242358      -305.9201
   8   2.0000     -11.241320      -305.8919
   9   2.0000      -1.408606       -38.3301
  10   2.0000      -1.387797       -37.7639
  11   2.0000      -1.150921       -31.3182
  12   2.0000      -1.090808       -29.6824
  13   2.0000      -1.002541       -27.2805
  14   2.0000      -0.863384       -23.4939
  15   2.0000      -0.844955       -22.9924
  16   2.0000      -0.817208       -22.2374
  17   2.0000      -0.750328       -20.4175
  18   2.0000      -0.700363       -19.0578
  19   2.0000      -0.673913       -18.3381
  20   2.0000      -0.649952       -17.6861
  21   2.0000      -0.643827       -17.5194
  22   2.0000      -0.635331       -17.2882
  23   2.0000      -0.603465       -16.4211
  24   2.0000      -0.585133       -15.9223
  25   2.0000      -0.539618       -14.6838
  26   2.0000      -0.533891       -14.5279
  27   2.0000      -0.525199       -14.2914
  28   2.0000      -0.470815       -12.8115
  29   2.0000      -0.445978       -12.1357
  30   2.0000      -0.436582       -11.8800
  31   2.0000      -0.393220       -10.7001
  32   2.0000      -0.363101        -9.8805
  33   0.0000       0.117751         3.2042
  34   0.0000       0.136571         3.7163
  35   0.0000       0.153794         4.1850
  36   0.0000       0.157863         4.2957
  37   0.0000       0.165807         4.5118

MULLIKEN ATOMIC CHARGES
-----------------------
   0 O :   -0.462148
   1 C :    0.145968
   2 C :   -0.274618
   3 C :   -0.250209
   4 C :   -0.073739
   5 C :   -0.006362
   6 C :   -0.245795
   7 C :    0.121028
   8 O :   -0.253507
   9 H :    0.325412
  10 H :    0.137591
  11 H :    0.137041
  12 H :    0.142330
  13 H :    0.143387
  14 H :    0.165256
  15 H :    0.154800
  16 H :    0.093565
Sum of atomic charges:   -0.0000000

LOEWDIN ATOMIC CHARGES
----------------------
   0 O :    0.033030
   1 C :   -0.360057
   2 C :   -0.195220
   3 C :   -0.184658
   4 C :   -0.036867
   5 C :   -0.070527
   6 C :   -0.246115
   7 C :   -0.274803
   8 O :    0.142623
   9 H :    0.185009
  10 H :    0.136792
  11 H :    0.137987
  12 H :    0.142890
  13 H :    0.138715
  14 H :    0.172022
  15 H :    0.162797
  16 H :    0.116382

  Mayer bond orders larger than 0.1
B(  0-O ,  1-C ) :   0.9341 B(  0-O ,  9-H ) :   0.8373 B(  1-C ,  2-C ) :   0.8739
B(  1-C ,  3-C ) :   0.8534 B(  1-C ,  4-C ) :   1.0696 B(  2-C ,  3-C ) :   0.9189
B(  2-C , 10-H ) :   0.9188 B(  2-C , 11-H ) :   0.9223 B(  3-C , 12-H ) :   0.9218
B(  3-C , 13-H ) :   0.9299 B(  4-C ,  5-C ) :   2.6648 B(  5-C ,  6-C ) :   0.8600
B(  6-C ,  7-C ) :   0.8964 B(  6-C , 14-H ) :   0.9304 B(  6-C , 15-H ) :   0.9090
B(  7-C ,  8-O ) :   2.0018 B(  7-C , 16-H ) :   0.9284

MP2 TOTAL ENERGY:     -421.065849591 Eh
FINAL SINGLE POINT ENERGY      -421.065849591456

DIPOLE MOMENT
-------------
                                X             Y             Z
Electronic contribution:      2.89080      -1.55493      -3.67281
Nuclear contribution   :     -2.78419       2.31270       4.14963
                        -----------------------------------------
Total Dipole Moment    :      0.10661       0.75776       0.47682
                        -----------------------------------------
Magnitude (a.u.)       :      0.90163
Magnitude (Debye)      :      2.29175

                             ****ORCA TERMINATED NORMALLY****
TOTAL RUN TIME: 0 days 0 hours 13 minutes 2 seconds 770 msec
