                         Program Version 3.0.3 - RELEASE   -
|  1> ! RI-MP2 RIJK def2-TZVP def2-TZVP/C def2-TZVP/JK TIGHTSCF
|  2> % maxcore 2000
|  3> % mp2 density relaxed end
|  4> *xyz 0 1
|  5>  C       -0.2044675420     1.5242357957     0.0067694713
|  6>  C        0.0479529063     0.0228914752    -0.0482160831
|  7>  C        1.2322128383    -0.5424889732    -0.9084826164
|  8>  C        1.7735059958    -1.2581242083     0.3356652859
|  9>  C        2.0730401828    -0.2512130435     1.4099787127
| 10>  C        0.6403659948    -0.6805740928     1.1890262575
| 11>  C       -0.1787097897    -1.3052259329     2.2768451664
| 12>  O       -0.8285864081    -0.3326957316     3.0917941098
| 13>  H        0.7040207248     2.0798065185     0.2630391327
| 14>  H       -0.5588320183     1.9012647947    -0.9590216413
| 15>  H       -0.9634595849     1.7546689496     0.7615484748
| 16>  H       -0.8793010281    -0.4863093784    -0.3329472662
| 17>  H        0.8964618088    -1.2181479718    -1.6980662409
| 18>  H        1.9064795008     0.1999115010    -1.3501733295
| 19>  H        2.1946331383    -2.2564740461     0.3584540048
| 20>  H        2.5376844726    -0.6535883578     2.3060131202
| 21>  H        2.4150544329     0.7469749029     1.1468266460
| 22>  H       -0.9887341560    -1.9095228994     1.8520488508
| 23>  H        0.4499644602    -1.9801062407     2.8812715880
| 24>  H       -0.1454218694     0.2640470988     3.4158202165
| 25> *
| 26>
| 27>                          ****END OF INPUT****

CARTESIAN COORDINATES (ANGSTROEM)
---------------------------------
  C     -0.204468    1.524236    0.006769
  C      0.047953    0.022891   -0.048216
  C      1.232213   -0.542489   -0.908483
  C      1.773506   -1.258124    0.335665
  C      2.073040   -0.251213    1.409979
  C      0.640366   -0.680574    1.189026
  C     -0.178710   -1.305226    2.276845
  O     -0.828586   -0.332696    3.091794
  H      0.704021    2.079807    0.263039
  H     -0.558832    1.901265   -0.959022
  H     -0.963460    1.754669    0.761548
  H     -0.879301   -0.486309   -0.332947
  H      0.896462   -1.218148   -1.698066
  H      1.906480    0.199912   -1.350173
  H      2.194633   -2.256474    0.358454
  H      2.537684   -0.653588    2.306013
  H      2.415054    0.746975    1.146827
  H     -0.988734   -1.909523    1.852049
  H      0.449964   -1.980106    2.881272
  H     -0.145422    0.264047    3.415820

 Total Charge           Charge          ....    0
 Multiplicity           Mult            ....    1
 Number of Electrons    NEL             ....   62
 Basis Dimension        Dim             ....  320

ORBITAL ENERGIES
----------------

  NO   OCC          E(Eh)            E(eV)
   0   2.0000     -20.551237      -559.2276
   1   2.0000     -11.274486      -306.7944
   2   2.0000     -11.234427      -305.7043
   3   2.0000     -11.233655      -305.6833
   4   2.0000     -11.229879      -305.5805
   5   2.0000     -11.229251      -305.5634
   6   2.0000     -11.223754      -305.4139
   7   2.0000     -11.208951      -305.0111
   8   2.0000      -1.354290       -36.8521
   9   2.0000      -1.193142       -32.4671
  10   2.0000      -1.018333       -27.7103
  11   2.0000      -0.963390       -26.2152
  12   2.0000      -0.928043       -25.2533
  13   2.0000      -0.834754       -22.7148
  14   2.0000      -0.790476       -21.5100
  15   2.0000      -0.721392       -19.6301
  16   2.0000      -0.698441       -19.0055
  17   2.0000      -0.650085       -17.6897
  18   2.0000      -0.622105       -16.9283
  19   2.0000      -0.603880       -16.4324
  20   2.0000      -0.586956       -15.9719
  21   2.0000      -0.568253       -15.4629
  22   2.0000      -0.560629       -15.2555
  23   2.0000      -0.529832       -14.4175
  24   2.0000      -0.514230       -13.9929
  25   2.0000      -0.493208       -13.4209
  26   2.0000      -0.480151       -13.0656
  27   2.0000      -0.452342       -12.3088
  28   2.0000      -0.424433       -11.5494
  29   2.0000      -0.402409       -10.9501
  30   2.0000      -0.374812       -10.1992
  31   0.0000       0.133816         3.6413
  32   0.0000       0.151918         4.1339
  33   0.0000       0.158739         4.3195
  34   0.0000       0.171438         4.6651
  35   0.0000       0.185805         5.0560

MULLIKEN ATOMIC CHARGES
-----------------------
   0 C :   -0.425451
   1 C :   -0.017645
   2 C :   -0.238123
   3 C :   -0.122318
   4 C :   -0.309289
   5 C :   -0.031091
   6 C :   -0.008604
   7 O :   -0.468825
   8 H :    0.112976
   9 H :    0.130064
  10 H :    0.142702
  11 H :    0.091969
  12 H :    0.120192
  13 H :    0.110962
  14 H :    0.130697
  15 H :    0.131112
  16 H :    0.132195
  17 H :    0.106519
  18 H :    0.097399
  19 H :    0.314561
Sum of atomic charges:    0.0000000

LOEWDIN ATOMIC CHARGES
----------------------
   0 C :   -0.298837
   1 C :   -0.204783
   2 C :   -0.192741
   3 C :   -0.162320
   4 C :   -0.194533
   5 C :   -0.206496
   6 C :   -0.310725
   7 O :   -0.050483
   8 H :    0.119858
   9 H :    0.123125
  10 H :    0.127789
  11 H :    0.153511
  12 H :    0.132995
  13 H :    0.129100
  14 H :    0.134784
  15 H :    0.140307
  16 H :    0.130614
  17 H :    0.132938
  18 H :    0.122604
  19 H :    0.173290

  Mayer bond orders larger than 0.1
B(  0-C ,  1-C ) :   0.8990 B(  0-C ,  8-H ) :   0.9357 B(  0-C ,  9-H ) :   0.9376
B(  0-C , 10-H ) :   0.9384 B(  1-C ,  2-C ) :   0.9717 B(  1-C ,  5-C ) :   0.8965
B(  1-C , 11-H ) :   0.9259 B(  2-C ,  3-C ) :   0.9474 B(  2-C , 12-H ) :   0.9282
B(  2-C , 13-H ) :   0.9126 B(  3-C ,  4-C ) :   0.8786 B(  3-C ,  5-C ) :   0.7779
B(  3-C , 14-H ) :   0.9177 B(  4-C ,  5-C ) :   0.8833 B(  4-C , 15-H ) :   0.9312
B(  4-C , 16-H ) :   0.9123 B(  5-C ,  6-C ) :   0.9691 B(  6-C ,  7-O ) :   0.9081
B(  6-C , 17-H ) :   0.9219 B(  6-C , 18-H ) :   0.9278 B(  7-O , 19-H ) :   0.8446

MP2 TOTAL ENERGY:     -348.372330202 Eh
FINAL SINGLE POINT ENERGY      -348.372330202049

DIPOLE MOMENT
-------------
                                X             Y             Z
Electronic contribution:     -0.58352      -2.29637       2.62269
Nuclear contribution   :      1.15520       2.23278      -2.83478
                        -----------------------------------------
Total Dipole Moment    :      0.57169      -0.06359      -0.21209
                        -----------------------------------------
Magnitude (a.u.)       :      0.61307
Magnitude (Debye)      :      1.55829

                             ****ORCA TERMINATED NORMALLY****
TOTAL RUN TIME: 0 days 0 hours 13 minutes 31 seconds 145 msec
