                         Program Version 3.0.3 - RELEASE   -
|  1> ! RI-MP2 RIJK def2-TZVP def2-TZVP/C def2-TZVP/JK TIGHTSCF
|  2> % maxcore 2000
|  3> % mp2 density relaxed end
|  4> *xyz 0 1
|  5>  C        0.0495666249     1.4411527560     0.0094796381
|  6>  O        1.2142158272     0.5900258200    -0.0066865122
|  7>  C       -0.0661840115    -0.0120857932     0.0027585064
|  8>  C       -0.5993214238    -0.9711557988     1.0669602446
|  9>  C       -1.6807418274    -1.3627402775     0.0114734317
| 10>  C       -0.6204405802    -0.9596402981    -1.0609689314
| 11>  C        0.3853664543    -2.1158739878    -1.2122398903
| 12>  O        0.4700967113    -2.8836023657    -0.0181026331
| 13>  C        0.4091631758    -2.1288510937     1.1857205237
| 14>  H       -0.1036195329     1.9971858057     0.9338064043
| 15>  H       -0.1218705006     2.0071495383    -0.9055478800
| 16>  H       -0.8945703557    -0.5824756029     2.0439661734
| 17>  H       -2.0177306964    -2.4001131194     0.0092040896
| 18>  H       -2.5342399502    -0.6824487646     0.0236255665
| 19>  H       -0.9349789119    -0.5604443360    -2.0276604946
| 20>  H        0.0645623135    -2.8151959766    -1.9911946542
| 21>  H        1.3690519339    -1.7096093165    -1.4942772077
| 22>  H        1.3982963775    -1.7255592090     1.4525613470
| 23>  H        0.1038039022    -2.8365968200     1.9632735582
| 24> *
| 25>
| 26>                          ****END OF INPUT****

CARTESIAN COORDINATES (ANGSTROEM)
---------------------------------
  C      0.049567    1.441153    0.009480
  O      1.214216    0.590026   -0.006687
  C     -0.066184   -0.012086    0.002759
  C     -0.599321   -0.971156    1.066960
  C     -1.680742   -1.362740    0.011473
  C     -0.620441   -0.959640   -1.060969
  C      0.385366   -2.115874   -1.212240
  O      0.470097   -2.883602   -0.018103
  C      0.409163   -2.128851    1.185721
  H     -0.103620    1.997186    0.933806
  H     -0.121871    2.007150   -0.905548
  H     -0.894570   -0.582476    2.043966
  H     -2.017731   -2.400113    0.009204
  H     -2.534240   -0.682449    0.023626
  H     -0.934979   -0.560444   -2.027660
  H      0.064562   -2.815196   -1.991195
  H      1.369052   -1.709609   -1.494277
  H      1.398296   -1.725559    1.452561
  H      0.103804   -2.836597    1.963274

 Total Charge           Charge          ....    0
 Multiplicity           Mult            ....    1
 Number of Electrons    NEL             ....   68
 Basis Dimension        Dim             ....  339

ORBITAL ENERGIES
----------------

  NO   OCC          E(Eh)            E(eV)
   0   2.0000     -20.568279      -559.6913
   1   2.0000     -20.549877      -559.1906
   2   2.0000     -11.290829      -307.2391
   3   2.0000     -11.285498      -307.0940
   4   2.0000     -11.274348      -306.7906
   5   2.0000     -11.274328      -306.7901
   6   2.0000     -11.240136      -305.8596
   7   2.0000     -11.240121      -305.8593
   8   2.0000     -11.233141      -305.6693
   9   2.0000      -1.414095       -38.4795
  10   2.0000      -1.371433       -37.3186
  11   2.0000      -1.145517       -31.1711
  12   2.0000      -1.018932       -27.7265
  13   2.0000      -0.923321       -25.1248
  14   2.0000      -0.892451       -24.2848
  15   2.0000      -0.852284       -23.1918
  16   2.0000      -0.842483       -22.9251
  17   2.0000      -0.724918       -19.7260
  18   2.0000      -0.692558       -18.8455
  19   2.0000      -0.676091       -18.3974
  20   2.0000      -0.673732       -18.3332
  21   2.0000      -0.626388       -17.0449
  22   2.0000      -0.624355       -16.9896
  23   2.0000      -0.588822       -16.0227
  24   2.0000      -0.563064       -15.3218
  25   2.0000      -0.542448       -14.7608
  26   2.0000      -0.535724       -14.5778
  27   2.0000      -0.488550       -13.2941
  28   2.0000      -0.487645       -13.2695
  29   2.0000      -0.480162       -13.0659
  30   2.0000      -0.455105       -12.3840
  31   2.0000      -0.424962       -11.5638
  32   2.0000      -0.421462       -11.4686
  33   2.0000      -0.401609       -10.9283
  34   0.0000       0.139972         3.8088
  35   0.0000       0.162438         4.4202
  36   0.0000       0.163959         4.4616
  37   0.0000       0.168805         4.5934
  38   0.0000       0.192484         5.2378

MULLIKEN ATOMIC CHARGES
-----------------------
   0 C :   -0.115168
   1 O :   -0.348437
   2 C :   -0.000407
   3 C :    0.041754
   4 C :   -0.329650
   5 C :    0.041755
   6 C :   -0.084331
   7 O :   -0.323438
   8 C :   -0.084331
   9 H :    0.116428
  10 H :    0.116429
  11 H :    0.123277
  12 H :    0.137092
  13 H :    0.126354
  14 H :    0.123277
  15 H :    0.120287
  16 H :    0.109412
  17 H :    0.109412
  18 H :    0.120287
Sum of atomic charges:   -0.0000000

LOEWDIN ATOMIC CHARGES
----------------------
   0 C :   -0.226303
   1 O :    0.165071
   2 C :   -0.300746
   3 C :   -0.186571
   4 C :   -0.180687
   5 C :   -0.186570
   6 C :   -0.279423
   7 O :    0.151784
   8 C :   -0.279422
   9 H :    0.121989
  10 H :    0.121988
  11 H :    0.143330
  12 H :    0.135994
  13 H :    0.137671
  14 H :    0.143330
  15 H :    0.130321
  16 H :    0.128962
  17 H :    0.128962
  18 H :    0.130321

  Mayer bond orders larger than 0.1
B(  0-C ,  1-O ) :   0.9139 B(  0-C ,  2-C ) :   0.9833 B(  0-C ,  9-H ) :   0.9132
B(  0-C , 10-H ) :   0.9132 B(  1-O ,  2-C ) :   0.8519 B(  2-C ,  3-C ) :   0.8624
B(  2-C ,  5-C ) :   0.8624 B(  3-C ,  4-C ) :   0.9076 B(  3-C ,  8-C ) :   0.8869
B(  3-C , 11-H ) :   0.9142 B(  4-C ,  5-C ) :   0.9076 B(  4-C , 12-H ) :   0.9132
B(  4-C , 13-H ) :   0.9224 B(  5-C ,  6-C ) :   0.8869 B(  5-C , 14-H ) :   0.9142
B(  6-C ,  7-O ) :   0.9393 B(  6-C , 15-H ) :   0.9269 B(  6-C , 16-H ) :   0.9292
B(  7-O ,  8-C ) :   0.9393 B(  8-C , 17-H ) :   0.9292 B(  8-C , 18-H ) :   0.9269

MP2 TOTAL ENERGY:     -422.284595534 Eh
FINAL SINGLE POINT ENERGY      -422.284595534351

DIPOLE MOMENT
-------------
                                X             Y             Z
Electronic contribution:      2.41317       0.38340      -0.02188
Nuclear contribution   :     -3.25172       0.14495       0.03306
                        -----------------------------------------
Total Dipole Moment    :     -0.83855       0.52835       0.01118
                        -----------------------------------------
Magnitude (a.u.)       :      0.99118
Magnitude (Debye)      :      2.51939

                             ****ORCA TERMINATED NORMALLY****
TOTAL RUN TIME: 0 days 0 hours 23 minutes 33 seconds 800 msec
