                         Program Version 3.0.3 - RELEASE   -
|  1> ! RI-MP2 RIJK def2-TZVP def2-TZVP/C def2-TZVP/JK TIGHTSCF
|  2> % maxcore 2000
|  3> % mp2 density relaxed end
|  4> *xyz 0 1
|  5>  C       -0.1826185106     1.4020617680     0.6619650185
|  6>  O       -0.2164083146     0.0126412776     0.8826867143
|  7>  C        0.9643611619    -0.6403745943     0.4704048550
|  8>  C        0.8194450029    -2.1282789845     0.7692742049
|  9>  C       -0.3769468262    -2.7399788618     0.0578340182
| 10>  O        2.0475772684    -2.8392687250     0.3960258777
| 11>  C        2.1297239881    -3.4066836508     1.7070999537
| 12>  C        2.3607334204    -2.3535946229     2.7409722254
| 13>  C        0.9594698678    -2.6055060712     2.2221573723
| 14>  H       -0.0649648436     1.6433100732    -0.4063799772
| 15>  H       -1.1316738878     1.8131490902     1.0146733379
| 16>  H        0.6405024997     1.8832362559     1.2135141228
| 17>  H        1.1352056276    -0.5058884276    -0.6117603738
| 18>  H        1.8412359906    -0.2281609913     0.9915092881
| 19>  H       -0.2623461774    -2.6344670914    -1.0255493987
| 20>  H       -0.4601075420    -3.8036983995     0.2955472538
| 21>  H       -1.2944429450    -2.2292642296     0.3615481541
| 22>  H        2.4057763096    -4.4513935209     1.7902914845
| 23>  H        2.5288424172    -2.7200836506     3.7494523217
| 24>  H        2.9142020895    -1.4550152130     2.4856916383
| 25>  H        0.1335292935    -2.8896864606     2.8598010987
| 26> *
| 27>
| 28>                          ****END OF INPUT****

CARTESIAN COORDINATES (ANGSTROEM)
---------------------------------
  C     -0.182619    1.402062    0.661965
  O     -0.216408    0.012641    0.882687
  C      0.964361   -0.640375    0.470405
  C      0.819445   -2.128279    0.769274
  C     -0.376947   -2.739979    0.057834
  O      2.047577   -2.839269    0.396026
  C      2.129724   -3.406684    1.707100
  C      2.360733   -2.353595    2.740972
  C      0.959470   -2.605506    2.222157
  H     -0.064965    1.643310   -0.406380
  H     -1.131674    1.813149    1.014673
  H      0.640502    1.883236    1.213514
  H      1.135206   -0.505888   -0.611760
  H      1.841236   -0.228161    0.991509
  H     -0.262346   -2.634467   -1.025549
  H     -0.460108   -3.803698    0.295547
  H     -1.294443   -2.229264    0.361548
  H      2.405776   -4.451394    1.790291
  H      2.528842   -2.720084    3.749452
  H      2.914202   -1.455015    2.485692
  H      0.133529   -2.889686    2.859801

 Total Charge           Charge          ....    0
 Multiplicity           Mult            ....    1
 Number of Electrons    NEL             ....   70
 Basis Dimension        Dim             ....  351

ORBITAL ENERGIES
----------------

  NO   OCC          E(Eh)            E(eV)
   0   2.0000     -20.558628      -559.4287
   1   2.0000     -20.549677      -559.1852
   2   2.0000     -11.291520      -307.2579
   3   2.0000     -11.285503      -307.0942
   4   2.0000     -11.273237      -306.7604
   5   2.0000     -11.272783      -306.7480
   6   2.0000     -11.234675      -305.7110
   7   2.0000     -11.232334      -305.6473
   8   2.0000     -11.209712      -305.0318
   9   2.0000      -1.391971       -37.8775
  10   2.0000      -1.377103       -37.4729
  11   2.0000      -1.114572       -30.3290
  12   2.0000      -1.045984       -28.4627
  13   2.0000      -0.956187       -26.0192
  14   2.0000      -0.893848       -24.3228
  15   2.0000      -0.856726       -23.3127
  16   2.0000      -0.810048       -22.0425
  17   2.0000      -0.725529       -19.7426
  18   2.0000      -0.697690       -18.9851
  19   2.0000      -0.675551       -18.3827
  20   2.0000      -0.658723       -17.9248
  21   2.0000      -0.651248       -17.7214
  22   2.0000      -0.634286       -17.2598
  23   2.0000      -0.580765       -15.8034
  24   2.0000      -0.566278       -15.4092
  25   2.0000      -0.555208       -15.1080
  26   2.0000      -0.540866       -14.7177
  27   2.0000      -0.526114       -14.3163
  28   2.0000      -0.516075       -14.0431
  29   2.0000      -0.492766       -13.4088
  30   2.0000      -0.486521       -13.2389
  31   2.0000      -0.453219       -12.3327
  32   2.0000      -0.425739       -11.5850
  33   2.0000      -0.402421       -10.9504
  34   2.0000      -0.378188       -10.2910
  35   0.0000       0.142237         3.8705
  36   0.0000       0.157319         4.2809
  37   0.0000       0.169704         4.6179
  38   0.0000       0.180491         4.9114
  39   0.0000       0.189574         5.1586

MULLIKEN ATOMIC CHARGES
-----------------------
   0 C :   -0.218547
   1 O :   -0.313288
   2 C :   -0.059576
   3 C :    0.315190
   4 C :   -0.447533
   5 O :   -0.344811
   6 C :    0.039225
   7 C :   -0.254161
   8 C :   -0.221745
   9 H :    0.112929
  10 H :    0.138994
  11 H :    0.112898
  12 H :    0.106127
  13 H :    0.089150
  14 H :    0.131942
  15 H :    0.137388
  16 H :    0.147676
  17 H :    0.129628
  18 H :    0.128248
  19 H :    0.133534
  20 H :    0.136732
Sum of atomic charges:    0.0000000

LOEWDIN ATOMIC CHARGES
----------------------
   0 C :   -0.359594
   1 O :    0.142686
   2 C :   -0.285255
   3 C :   -0.314939
   4 C :   -0.261567
   5 O :    0.185022
   6 C :   -0.246468
   7 C :   -0.208291
   8 C :   -0.159243
   9 H :    0.101998
  10 H :    0.113465
  11 H :    0.102257
  12 H :    0.127270
  13 H :    0.124068
  14 H :    0.130592
  15 H :    0.130377
  16 H :    0.134070
  17 H :    0.129250
  18 H :    0.142653
  19 H :    0.131239
  20 H :    0.140411

  Mayer bond orders larger than 0.1
B(  0-C ,  1-O ) :   0.9201 B(  0-C ,  9-H ) :   0.9378 B(  0-C , 10-H ) :   0.9392
B(  0-C , 11-H ) :   0.9374 B(  1-O ,  2-C ) :   0.9507 B(  2-C ,  3-C ) :   0.9459
B(  2-C , 12-H ) :   0.9228 B(  2-C , 13-H ) :   0.9147 B(  3-C ,  4-C ) :   0.8973
B(  3-C ,  5-O ) :   0.8588 B(  3-C ,  8-C ) :   0.8825 B(  4-C , 14-H ) :   0.9334
B(  4-C , 15-H ) :   0.9362 B(  4-C , 16-H ) :   0.9317 B(  5-O ,  6-C ) :   0.9721
B(  6-C ,  7-C ) :   0.8786 B(  6-C ,  8-C ) :   0.9207 B(  6-C , 17-H ) :   0.9252
B(  7-C ,  8-C ) :   0.8818 B(  7-C , 18-H ) :   0.9224 B(  7-C , 19-H ) :   0.9095
B(  8-C , 20-H ) :   0.9187

MP2 TOTAL ENERGY:     -423.463964523 Eh
FINAL SINGLE POINT ENERGY      -423.463964523089

DIPOLE MOMENT
-------------
                                X             Y             Z
Electronic contribution:      2.36098      -3.60868       0.48005
Nuclear contribution   :     -2.48991       3.90189      -0.10809
                        -----------------------------------------
Total Dipole Moment    :     -0.12893       0.29321       0.37196
                        -----------------------------------------
Magnitude (a.u.)       :      0.49086
Magnitude (Debye)      :      1.24767

                             ****ORCA TERMINATED NORMALLY****
TOTAL RUN TIME: 0 days 0 hours 17 minutes 23 seconds 534 msec
