                         Program Version 3.0.3 - RELEASE   -
|  1> ! RI-MP2 RIJK def2-TZVP def2-TZVP/C def2-TZVP/JK TIGHTSCF
|  2> % maxcore 2000
|  3> % mp2 density relaxed end
|  4> *xyz 0 1
|  5>  C       -0.0955613809     1.6119077998     0.0659540580
|  6>  C       -0.0949278805     0.0907594584     0.0184867794
|  7>  C        0.6520711035    -0.4613431903    -1.1985440683
|  8>  C        0.6754471564    -1.9992582017    -1.2860703281
|  9>  C        1.6459279774    -2.6732515698    -0.3263902956
| 10>  O        2.5658201306    -3.3510825590    -0.6926399980
| 11>  O        1.4642304700    -2.4861049605     1.0093613504
| 12>  C        0.3801897448    -1.7064302973     1.5165106538
| 13>  O        0.4841870047    -0.3519505657     1.2509007384
| 14>  H        0.9291784701     1.9920675422     0.1167679858
| 15>  H       -0.5759851932     2.0242212296    -0.8258109679
| 16>  H       -0.6353607046     1.9636166529     0.9486009636
| 17>  H       -1.1357669929    -0.2743858004    -0.0185918553
| 18>  H        0.1617678057    -0.0737656948    -2.0984830301
| 19>  H        1.6771909251    -0.0727878441    -1.2015266743
| 20>  H       -0.3355910676    -2.3965963457    -1.1245951058
| 21>  H        0.9907242728    -2.3154194577    -2.2812055916
| 22>  H       -0.5755730124    -2.1150828952     1.1553077264
| 23>  H        0.4549239110    -1.8348279408     2.5974786591
| 24> *
| 25>
| 26>                          ****END OF INPUT****

CARTESIAN COORDINATES (ANGSTROEM)
---------------------------------
  C     -0.095561    1.611908    0.065954
  C     -0.094928    0.090759    0.018487
  C      0.652071   -0.461343   -1.198544
  C      0.675447   -1.999258   -1.286070
  C      1.645928   -2.673252   -0.326390
  O      2.565820   -3.351083   -0.692640
  O      1.464230   -2.486105    1.009361
  C      0.380190   -1.706430    1.516511
  O      0.484187   -0.351951    1.250901
  H      0.929178    1.992068    0.116768
  H     -0.575985    2.024221   -0.825811
  H     -0.635361    1.963617    0.948601
  H     -1.135767   -0.274386   -0.018592
  H      0.161768   -0.073766   -2.098483
  H      1.677191   -0.072788   -1.201527
  H     -0.335591   -2.396596   -1.124595
  H      0.990724   -2.315419   -2.281206
  H     -0.575573   -2.115083    1.155308
  H      0.454924   -1.834828    2.597479

 Total Charge           Charge          ....    0
 Multiplicity           Mult            ....    1
 Number of Electrons    NEL             ....   70
 Basis Dimension        Dim             ....  339

ORBITAL ENERGIES
----------------

  NO   OCC          E(Eh)            E(eV)
   0   2.0000     -20.598549      -560.5150
   1   2.0000     -20.581449      -560.0497
   2   2.0000     -20.537457      -558.8526
   3   2.0000     -11.379166      -309.6428
   4   2.0000     -11.354010      -308.9583
   5   2.0000     -11.304370      -307.6076
   6   2.0000     -11.258005      -306.3459
   7   2.0000     -11.251173      -306.1600
   8   2.0000     -11.230275      -305.5913
   9   2.0000      -1.464450       -39.8497
  10   2.0000      -1.406862       -38.2827
  11   2.0000      -1.351362       -36.7724
  12   2.0000      -1.104919       -30.0664
  13   2.0000      -1.031153       -28.0591
  14   2.0000      -0.954396       -25.9704
  15   2.0000      -0.916539       -24.9403
  16   2.0000      -0.825126       -22.4528
  17   2.0000      -0.784263       -21.3409
  18   2.0000      -0.726059       -19.7571
  19   2.0000      -0.700420       -19.0594
  20   2.0000      -0.696241       -18.9457
  21   2.0000      -0.646510       -17.5924
  22   2.0000      -0.632912       -17.2224
  23   2.0000      -0.624996       -17.0070
  24   2.0000      -0.595748       -16.2111
  25   2.0000      -0.582567       -15.8524
  26   2.0000      -0.554550       -15.0901
  27   2.0000      -0.552729       -15.0405
  28   2.0000      -0.535623       -14.5750
  29   2.0000      -0.521983       -14.2039
  30   2.0000      -0.508210       -13.8291
  31   2.0000      -0.486418       -13.2361
  32   2.0000      -0.461305       -12.5527
  33   2.0000      -0.453620       -12.3436
  34   2.0000      -0.435852       -11.8601
  35   0.0000       0.123492         3.3604
  36   0.0000       0.139155         3.7866
  37   0.0000       0.152659         4.1541
  38   0.0000       0.169887         4.6229
  39   0.0000       0.182414         4.9637

MULLIKEN ATOMIC CHARGES
-----------------------
   0 C :   -0.369519
   1 C :    0.026874
   2 C :   -0.232100
   3 C :   -0.230891
   4 C :    0.238386
   5 O :   -0.280401
   6 O :   -0.208605
   7 C :    0.020101
   8 O :   -0.278442
   9 H :    0.137451
  10 H :    0.127158
  11 H :    0.142704
  12 H :    0.088910
  13 H :    0.131604
  14 H :    0.135744
  15 H :    0.136003
  16 H :    0.154943
  17 H :    0.115179
  18 H :    0.144900
Sum of atomic charges:   -0.0000000

LOEWDIN ATOMIC CHARGES
----------------------
   0 C :   -0.286361
   1 C :   -0.345701
   2 C :   -0.240065
   3 C :   -0.234854
   4 C :   -0.473236
   5 O :    0.140319
   6 O :    0.247193
   7 C :   -0.376677
   8 O :    0.197426
   9 H :    0.130033
  10 H :    0.127965
  11 H :    0.128886
  12 H :    0.137477
  13 H :    0.148887
  14 H :    0.150084
  15 H :    0.149727
  16 H :    0.157084
  17 H :    0.112180
  18 H :    0.129632

  Mayer bond orders larger than 0.1
B(  0-C ,  1-C ) :   0.9319 B(  0-C ,  9-H ) :   0.9340 B(  0-C , 10-H ) :   0.9323
B(  0-C , 11-H ) :   0.9363 B(  1-C ,  2-C ) :   0.9267 B(  1-C ,  8-O ) :   0.9007
B(  1-C , 12-H ) :   0.9344 B(  2-C ,  3-C ) :   0.8803 B(  2-C , 13-H ) :   0.9223
B(  2-C , 14-H ) :   0.9145 B(  3-C ,  4-C ) :   0.9351 B(  3-C , 15-H ) :   0.9182
B(  3-C , 16-H ) :   0.9186 B(  4-C ,  5-O ) :   2.0351 B(  4-C ,  6-O ) :   1.1011
B(  6-O ,  7-C ) :   0.8958 B(  7-C ,  8-O ) :   1.0136 B(  7-C , 17-H ) :   0.9384
B(  7-C , 18-H ) :   0.9339

MP2 TOTAL ENERGY:     -459.471895894 Eh
FINAL SINGLE POINT ENERGY      -459.471895893811

DIPOLE MOMENT
-------------
                                X             Y             Z
Electronic contribution:      5.49705      -7.92897       2.78596
Nuclear contribution   :     -7.08939       8.86525      -3.10437
                        -----------------------------------------
Total Dipole Moment    :     -1.59234       0.93629      -0.31842
                        -----------------------------------------
Magnitude (a.u.)       :      1.87445
Magnitude (Debye)      :      4.76448

                             ****ORCA TERMINATED NORMALLY****
TOTAL RUN TIME: 0 days 0 hours 17 minutes 33 seconds 531 msec
