                         Program Version 3.0.3 - RELEASE   -
|  1> ! RI-MP2 RIJK def2-TZVP def2-TZVP/C def2-TZVP/JK TIGHTSCF
|  2> % maxcore 2000
|  3> % mp2 density relaxed end
|  4> *xyz 0 1
|  5>  C       -0.0923118676     1.4506318967    -0.0801722106
|  6>  N        0.0398011108     0.0028057617    -0.0655247472
|  7>  C       -1.1613844282    -0.7920242882     0.1228602586
|  8>  C       -1.0703005517    -2.2022539317    -0.4480098626
|  9>  O       -2.0335778690    -2.8067611983    -0.8247061608
| 10>  O        0.1590724994    -2.7493001461    -0.5156331598
| 11>  C        1.2567898641    -2.0904292546     0.1277884020
| 12>  C        1.2721785841    -0.5701316870     0.0208234210
| 13>  O        2.3246848660     0.0400191933     0.0349282795
| 14>  H        0.8997102146     1.8745339152    -0.2312264971
| 15>  H       -0.7585324908     1.7615276105    -0.8917252349
| 16>  H       -0.4998887030     1.8214783553     0.8688130069
| 17>  H       -1.4381202637    -0.8713347658     1.1871162088
| 18>  H       -1.9997024543    -0.3084084706    -0.3830082686
| 19>  H        1.2813553578    -2.3734801017     1.1886671547
| 20>  H        2.1625686917    -2.4684612988    -0.3446843300
| 21> *
| 22>
| 23>                          ****END OF INPUT****

CARTESIAN COORDINATES (ANGSTROEM)
---------------------------------
  C     -0.092312    1.450632   -0.080172
  N      0.039801    0.002806   -0.065525
  C     -1.161384   -0.792024    0.122860
  C     -1.070301   -2.202254   -0.448010
  O     -2.033578   -2.806761   -0.824706
  O      0.159072   -2.749300   -0.515633
  C      1.256790   -2.090429    0.127788
  C      1.272179   -0.570132    0.020823
  O      2.324685    0.040019    0.034928
  H      0.899710    1.874534   -0.231226
  H     -0.758532    1.761528   -0.891725
  H     -0.499889    1.821478    0.868813
  H     -1.438120   -0.871335    1.187116
  H     -1.999702   -0.308408   -0.383008
  H      1.281355   -2.373480    1.188667
  H      2.162569   -2.468461   -0.344684

 Total Charge           Charge          ....    0
 Multiplicity           Mult            ....    1
 Number of Electrons    NEL             ....   68
 Basis Dimension        Dim             ....  321

ORBITAL ENERGIES
----------------

  NO   OCC          E(Eh)            E(eV)
   0   2.0000     -20.626499      -561.2756
   1   2.0000     -20.557666      -559.4025
   2   2.0000     -20.540144      -558.9257
   3   2.0000     -15.618482      -425.0005
   4   2.0000     -11.402827      -310.2867
   5   2.0000     -11.374515      -309.5163
   6   2.0000     -11.326224      -308.2022
   7   2.0000     -11.313578      -307.8581
   8   2.0000     -11.279358      -306.9269
   9   2.0000      -1.483015       -40.3549
  10   2.0000      -1.408088       -38.3160
  11   2.0000      -1.383802       -37.6552
  12   2.0000      -1.281542       -34.8725
  13   2.0000      -1.043219       -28.3874
  14   2.0000      -1.032267       -28.0894
  15   2.0000      -0.953708       -25.9517
  16   2.0000      -0.848640       -23.0927
  17   2.0000      -0.768507       -20.9121
  18   2.0000      -0.731398       -19.9024
  19   2.0000      -0.719083       -19.5672
  20   2.0000      -0.710893       -19.3444
  21   2.0000      -0.663517       -18.0552
  22   2.0000      -0.641848       -17.4656
  23   2.0000      -0.640926       -17.4405
  24   2.0000      -0.624655       -16.9977
  25   2.0000      -0.609111       -16.5748
  26   2.0000      -0.576758       -15.6944
  27   2.0000      -0.571455       -15.5501
  28   2.0000      -0.566113       -15.4047
  29   2.0000      -0.531150       -14.4533
  30   2.0000      -0.484037       -13.1713
  31   2.0000      -0.469055       -12.7636
  32   2.0000      -0.439332       -11.9548
  33   2.0000      -0.402436       -10.9508
  34   0.0000       0.111166         3.0250
  35   0.0000       0.136942         3.7264
  36   0.0000       0.148453         4.0396
  37   0.0000       0.152672         4.1544
  38   0.0000       0.168235         4.5779

MULLIKEN ATOMIC CHARGES
-----------------------
   0 C :   -0.326085
   1 N :   -0.101595
   2 C :   -0.195483
   3 C :    0.256947
   4 O :   -0.277825
   5 O :   -0.204698
   6 C :   -0.063447
   7 C :    0.185127
   8 O :   -0.361927
   9 H :    0.187010
  10 H :    0.145792
  11 H :    0.139570
  12 H :    0.148288
  13 H :    0.164469
  14 H :    0.138327
  15 H :    0.165530
Sum of atomic charges:   -0.0000000

LOEWDIN ATOMIC CHARGES
----------------------
   0 C :   -0.278887
   1 N :    0.168382
   2 C :   -0.221611
   3 C :   -0.479795
   4 O :    0.148821
   5 O :    0.270865
   6 C :   -0.234570
   7 C :   -0.450069
   8 O :    0.091436
   9 H :    0.138775
  10 H :    0.122005
  11 H :    0.120013
  12 H :    0.150498
  13 H :    0.159123
  14 H :    0.143153
  15 H :    0.151860

  Mayer bond orders larger than 0.1
B(  0-C ,  1-N ) :   0.8604 B(  0-C ,  9-H ) :   0.9200 B(  0-C , 10-H ) :   0.9308
B(  0-C , 11-H ) :   0.9306 B(  1-N ,  2-C ) :   0.8578 B(  1-N ,  7-C ) :   1.1853
B(  2-C ,  3-C ) :   0.9348 B(  2-C , 12-H ) :   0.8918 B(  2-C , 13-H ) :   0.9179
B(  3-C ,  4-O ) :   2.0315 B(  3-C ,  5-O ) :   1.1399 B(  5-O ,  6-C ) :   0.8467
B(  6-C ,  7-C ) :   0.9020 B(  6-C , 14-H ) :   0.9158 B(  6-C , 15-H ) :   0.9299
B(  7-C ,  8-O ) :   1.9101

MP2 TOTAL ENERGY:     -474.330136767 Eh
FINAL SINGLE POINT ENERGY      -474.330136766983

DIPOLE MOMENT
-------------
                                X             Y             Z
Electronic contribution:      0.47611      -5.67891      -1.77933
Nuclear contribution   :     -0.82958       6.52709       2.49152
                        -----------------------------------------
Total Dipole Moment    :     -0.35348       0.84818       0.71219
                        -----------------------------------------
Magnitude (a.u.)       :      1.16257
Magnitude (Debye)      :      2.95503

                             ****ORCA TERMINATED NORMALLY****
TOTAL RUN TIME: 0 days 0 hours 15 minutes 28 seconds 925 msec
