                         Program Version 3.0.3 - RELEASE   -
|  1> ! RI-MP2 RIJK def2-TZVP def2-TZVP/C def2-TZVP/JK TIGHTSCF
|  2> % maxcore 2000
|  3> % mp2 density relaxed end
|  4> *xyz 0 1
|  5>  C       -0.1315046680     1.5530157455    -0.0085908172
|  6>  C        0.0339357516     0.0430850912     0.0217867073
|  7>  C        1.2735855342    -0.6359450555    -0.6760304965
|  8>  C        2.0712116736    -0.1170748021     0.5398805669
|  9>  O        3.1076994729     0.4043357705     0.8081751715
| 10>  C        0.7907996286    -0.6507378276     1.2178345089
| 11>  C        0.9867292394    -1.8453397217     0.2499236252
| 12>  C        0.1610186503    -3.0666449855     0.0298940592
| 13>  C        1.6398740174    -3.1704129182     0.4060602224
| 14>  H        0.8005978929     2.0736943109     0.2330664214
| 15>  H       -0.4552552633     1.8866467159    -1.0002349877
| 16>  H       -0.8916671411     1.8732747279     0.7118740063
| 17>  H       -0.8950545738    -0.4801555128    -0.2191191515
| 18>  H        1.5321938763    -0.6442839499    -1.7331464026
| 19>  H        0.5118331787    -0.6755478959     2.2695017804
| 20>  H       -0.5710904947    -3.3447987810     0.7813048311
| 21>  H       -0.1210472171    -3.3310134728    -0.9842648552
| 22>  H        2.3329828307    -3.5030570941    -0.3600894021
| 23>  H        1.8829196512    -3.5168795047     1.4055229420
| 24> *
| 25>
| 26>                          ****END OF INPUT****

CARTESIAN COORDINATES (ANGSTROEM)
---------------------------------
  C     -0.131505    1.553016   -0.008591
  C      0.033936    0.043085    0.021787
  C      1.273586   -0.635945   -0.676030
  C      2.071212   -0.117075    0.539881
  O      3.107699    0.404336    0.808175
  C      0.790800   -0.650738    1.217835
  C      0.986729   -1.845340    0.249924
  C      0.161019   -3.066645    0.029894
  C      1.639874   -3.170413    0.406060
  H      0.800598    2.073694    0.233066
  H     -0.455255    1.886647   -1.000235
  H     -0.891667    1.873275    0.711874
  H     -0.895055   -0.480156   -0.219119
  H      1.532194   -0.644284   -1.733146
  H      0.511833   -0.675548    2.269502
  H     -0.571090   -3.344799    0.781305
  H     -0.121047   -3.331013   -0.984265
  H      2.332983   -3.503057   -0.360089
  H      1.882920   -3.516880    1.405523

 Total Charge           Charge          ....    0
 Multiplicity           Mult            ....    1
 Number of Electrons    NEL             ....   66
 Basis Dimension        Dim             ....  339

ORBITAL ENERGIES
----------------

  NO   OCC          E(Eh)            E(eV)
   0   2.0000     -20.546926      -559.1103
   1   2.0000     -11.338551      -308.5377
   2   2.0000     -11.266044      -306.5646
   3   2.0000     -11.260325      -306.4090
   4   2.0000     -11.258749      -306.3661
   5   2.0000     -11.258643      -306.3633
   6   2.0000     -11.237195      -305.7796
   7   2.0000     -11.234579      -305.7084
   8   2.0000     -11.224503      -305.4342
   9   2.0000      -1.395594       -37.9761
  10   2.0000      -1.235758       -33.6267
  11   2.0000      -1.121008       -30.5042
  12   2.0000      -0.997677       -27.1482
  13   2.0000      -0.892194       -24.2778
  14   2.0000      -0.853092       -23.2138
  15   2.0000      -0.814899       -22.1745
  16   2.0000      -0.786111       -21.3912
  17   2.0000      -0.704090       -19.1593
  18   2.0000      -0.683500       -18.5990
  19   2.0000      -0.655477       -17.8364
  20   2.0000      -0.652819       -17.7641
  21   2.0000      -0.606475       -16.5030
  22   2.0000      -0.599725       -16.3193
  23   2.0000      -0.576570       -15.6893
  24   2.0000      -0.543646       -14.7934
  25   2.0000      -0.526566       -14.3286
  26   2.0000      -0.505741       -13.7619
  27   2.0000      -0.497067       -13.5259
  28   2.0000      -0.468015       -12.7353
  29   2.0000      -0.448599       -12.2070
  30   2.0000      -0.425248       -11.5716
  31   2.0000      -0.412813       -11.2332
  32   2.0000      -0.387130       -10.5343
  33   0.0000       0.132417         3.6032
  34   0.0000       0.149322         4.0633
  35   0.0000       0.156075         4.2470
  36   0.0000       0.166714         4.5365
  37   0.0000       0.184541         5.0216

MULLIKEN ATOMIC CHARGES
-----------------------
   0 C :   -0.425397
   1 C :   -0.082039
   2 C :   -0.040343
   3 C :    0.065883
   4 O :   -0.246741
   5 C :   -0.040340
   6 C :   -0.053918
   7 C :   -0.277406
   8 C :   -0.274354
   9 H :    0.149778
  10 H :    0.136105
  11 H :    0.136105
  12 H :    0.120447
  13 H :    0.150831
  14 H :    0.150831
  15 H :    0.131451
  16 H :    0.131453
  17 H :    0.133825
  18 H :    0.133827
Sum of atomic charges:    0.0000000

LOEWDIN ATOMIC CHARGES
----------------------
   0 C :   -0.289288
   1 C :   -0.189955
   2 C :   -0.087642
   3 C :   -0.274574
   4 O :    0.162456
   5 C :   -0.087642
   6 C :   -0.195071
   7 C :   -0.198806
   8 C :   -0.195632
   9 H :    0.133263
  10 H :    0.127916
  11 H :    0.127916
  12 H :    0.154249
  13 H :    0.133785
  14 H :    0.133785
  15 H :    0.135459
  16 H :    0.135458
  17 H :    0.137162
  18 H :    0.137161

  Mayer bond orders larger than 0.1
B(  0-C ,  1-C ) :   0.9156 B(  0-C ,  9-H ) :   0.9308 B(  0-C , 10-H ) :   0.9384
B(  0-C , 11-H ) :   0.9384 B(  1-C ,  2-C ) :   0.9094 B(  1-C ,  5-C ) :   0.9094
B(  1-C , 12-H ) :   0.9142 B(  2-C ,  3-C ) :   0.7887 B(  2-C ,  6-C ) :   0.8379
B(  2-C , 13-H ) :   0.8636 B(  3-C ,  4-O ) :   2.0739 B(  3-C ,  5-C ) :   0.7887
B(  5-C ,  6-C ) :   0.8379 B(  5-C , 14-H ) :   0.8636 B(  6-C ,  7-C ) :   0.8834
B(  6-C ,  8-C ) :   0.8716 B(  7-C ,  8-C ) :   0.9581 B(  7-C , 15-H ) :   0.9181
B(  7-C , 16-H ) :   0.9181 B(  8-C , 17-H ) :   0.9176 B(  8-C , 18-H ) :   0.9176

MP2 TOTAL ENERGY:     -385.156620426 Eh
FINAL SINGLE POINT ENERGY      -385.156620425584

DIPOLE MOMENT
-------------
                                X             Y             Z
Electronic contribution:      5.47385       1.02470       1.40341
Nuclear contribution   :     -6.53268      -1.51815      -1.67718
                        -----------------------------------------
Total Dipole Moment    :     -1.05883      -0.49344      -0.27377
                        -----------------------------------------
Magnitude (a.u.)       :      1.19982
Magnitude (Debye)      :      3.04969

                             ****ORCA TERMINATED NORMALLY****
TOTAL RUN TIME: 0 days 0 hours 17 minutes 31 seconds 597 msec
