                         Program Version 3.0.3 - RELEASE   -
|  1> ! RI-MP2 RIJK def2-TZVP def2-TZVP/C def2-TZVP/JK TIGHTSCF
|  2> % maxcore 2000
|  3> % mp2 density relaxed end
|  4> *xyz 0 1
|  5>  O        0.8187710657     1.1917167615     1.3131813301
|  6>  C        0.5293649798     1.7297879769     0.2782288808
|  7>  C        1.2076444340     1.4316771943    -1.0562663323
|  8>  N        1.2923131070     2.6260814243    -1.8744855414
|  9>  C        2.2763207292     3.5540617020    -1.5323915525
| 10>  C        3.0441283026     3.6434026677    -0.4069792075
| 11>  O        3.8269351536     4.7433328421    -0.4709496267
| 12>  N        3.5955968537     5.3983581434    -1.6624745963
| 13>  C        2.6773379937     4.6999497406    -2.2818171163
| 14>  H       -0.2803730778     2.4896152780     0.2048707054
| 15>  H        2.1774929442     0.9497444402    -0.8583861289
| 16>  H        0.5698539612     0.7039840756    -1.5733504495
| 17>  H        1.2474148019     2.4435028050    -2.8661331359
| 18>  H        3.1335368436     3.0475771363     0.4861000297
| 19>  H        2.3225583677     5.0265576519    -3.2494870588
| 20> *
| 21>
| 22>                          ****END OF INPUT****

CARTESIAN COORDINATES (ANGSTROEM)
---------------------------------
  O      0.818771    1.191717    1.313181
  C      0.529365    1.729788    0.278229
  C      1.207644    1.431677   -1.056266
  N      1.292313    2.626081   -1.874486
  C      2.276321    3.554062   -1.532392
  C      3.044128    3.643403   -0.406979
  O      3.826935    4.743333   -0.470950
  N      3.595597    5.398358   -1.662475
  C      2.677338    4.699950   -2.281817
  H     -0.280373    2.489615    0.204871
  H      2.177493    0.949744   -0.858386
  H      0.569854    0.703984   -1.573350
  H      1.247415    2.443503   -2.866133
  H      3.133537    3.047577    0.486100
  H      2.322558    5.026558   -3.249487

 Total Charge           Charge          ....    0
 Multiplicity           Mult            ....    1
 Number of Electrons    NEL             ....   66
 Basis Dimension        Dim             ....  315

ORBITAL ENERGIES
----------------

  NO   OCC          E(Eh)            E(eV)
   0   2.0000     -20.647264      -561.8406
   1   2.0000     -20.574075      -559.8490
   2   2.0000     -15.634818      -425.4450
   3   2.0000     -15.600140      -424.5014
   4   2.0000     -11.346612      -308.7570
   5   2.0000     -11.306173      -307.6566
   6   2.0000     -11.295778      -307.3737
   7   2.0000     -11.290580      -307.2323
   8   2.0000     -11.286984      -307.1345
   9   2.0000      -1.499353       -40.7995
  10   2.0000      -1.413874       -38.4735
  11   2.0000      -1.270891       -34.5827
  12   2.0000      -1.166798       -31.7502
  13   2.0000      -1.069963       -29.1152
  14   2.0000      -0.992025       -26.9944
  15   2.0000      -0.839925       -22.8555
  16   2.0000      -0.835913       -22.7463
  17   2.0000      -0.805185       -21.9102
  18   2.0000      -0.758236       -20.6326
  19   2.0000      -0.699672       -19.0391
  20   2.0000      -0.683122       -18.5887
  21   2.0000      -0.666688       -18.1415
  22   2.0000      -0.651206       -17.7202
  23   2.0000      -0.633580       -17.2406
  24   2.0000      -0.607654       -16.5351
  25   2.0000      -0.587397       -15.9839
  26   2.0000      -0.572250       -15.5717
  27   2.0000      -0.531656       -14.4671
  28   2.0000      -0.496965       -13.5231
  29   2.0000      -0.486737       -13.2448
  30   2.0000      -0.439282       -11.9535
  31   2.0000      -0.415223       -11.2988
  32   2.0000      -0.337366        -9.1802
  33   0.0000       0.099039         2.6950
  34   0.0000       0.116740         3.1767
  35   0.0000       0.132128         3.5954
  36   0.0000       0.155386         4.2283
  37   0.0000       0.168695         4.5904

MULLIKEN ATOMIC CHARGES
-----------------------
   0 O :   -0.255111
   1 C :    0.094472
   2 C :   -0.107332
   3 N :   -0.364165
   4 C :    0.138060
   5 C :   -0.083664
   6 O :   -0.103222
   7 N :   -0.104317
   8 C :   -0.156814
   9 H :    0.093479
  10 H :    0.132539
  11 H :    0.147229
  12 H :    0.238794
  13 H :    0.180069
  14 H :    0.149983
Sum of atomic charges:   -0.0000000

LOEWDIN ATOMIC CHARGES
----------------------
   0 O :    0.140388
   1 C :   -0.296442
   2 C :   -0.292901
   3 N :    0.057844
   4 C :   -0.277923
   5 C :   -0.260330
   6 O :    0.272045
   7 N :    0.029960
   8 C :   -0.248612
   9 H :    0.115668
  10 H :    0.135887
  11 H :    0.151321
  12 H :    0.186824
  13 H :    0.143046
  14 H :    0.143226

  Mayer bond orders larger than 0.1
B(  0-O ,  1-C ) :   1.9956 B(  1-C ,  2-C ) :   0.8620 B(  1-C ,  9-H ) :   0.9249
B(  2-C ,  3-N ) :   0.9183 B(  2-C , 10-H ) :   0.9134 B(  2-C , 11-H ) :   0.9058
B(  3-N ,  4-C ) :   1.0199 B(  3-N , 12-H ) :   0.8716 B(  4-C ,  5-C ) :   1.4773
B(  4-C ,  8-C ) :   1.1867 B(  5-C ,  6-O ) :   1.0866 B(  5-C ,  7-N ) :   0.1117
B(  5-C , 13-H ) :   0.9112 B(  6-O ,  7-N ) :   0.9094 B(  7-N ,  8-C ) :   1.5804
B(  8-C , 14-H ) :   0.9292

MP2 TOTAL ENERGY:     -453.178824810 Eh
FINAL SINGLE POINT ENERGY      -453.178824809942

DIPOLE MOMENT
-------------
                                X             Y             Z
Electronic contribution:      2.57344       3.32225       1.47953
Nuclear contribution   :     -3.39227      -4.23096      -2.70080
                        -----------------------------------------
Total Dipole Moment    :     -0.81883      -0.90871      -1.22128
                        -----------------------------------------
Magnitude (a.u.)       :      1.72851
Magnitude (Debye)      :      4.39352

                             ****ORCA TERMINATED NORMALLY****
TOTAL RUN TIME: 0 days 0 hours 14 minutes 3 seconds 676 msec
