                         Program Version 3.0.3 - RELEASE   -
|  1> ! RI-MP2 RIJK def2-TZVP def2-TZVP/C def2-TZVP/JK TIGHTSCF
|  2> % maxcore 2000
|  3> % mp2 density relaxed end
|  4> *xyz 0 1
|  5>  C        0.1364375045     1.3880010581    -0.0374092401
|  6>  C        0.0287447144    -0.1128181845     0.1683276302
|  7>  O        0.9845563666    -0.8116421177     0.4065097153
|  8>  C       -1.3836140848    -0.6763961410     0.0894878891
|  9>  O       -1.4518439204    -2.1006923541    -0.0603458328
| 10>  C       -2.2455742853    -2.2464335116     1.1349548806
| 11>  C       -1.3954386966    -2.5404487227     2.3937089254
| 12>  C       -1.3587139650    -1.0116547979     2.7115407246
| 13>  C       -2.1830890725    -0.7204483300     1.4268073333
| 14>  H        1.1245763780     1.7345553340     0.2671202730
| 15>  H       -0.0165569741     1.6248045458    -1.0971166614
| 16>  H       -0.6393547475     1.9213900131     0.5233787468
| 17>  H       -1.9364913574    -0.1671353475    -0.7138689998
| 18>  H       -3.1572266333    -2.8222739587     0.9574265442
| 19>  H       -1.9008119433    -3.1442965104     3.1515956638
| 20>  H       -0.4325354107    -2.9915207568     2.1497495095
| 21>  H       -1.9119840309    -0.7491957361     3.6161247847
| 22>  H       -0.3679280806    -0.5569504727     2.7708209260
| 23>  H       -3.0461758512    -0.0604629494     1.5006260578
| 24> *
| 25>
| 26>                          ****END OF INPUT****

CARTESIAN COORDINATES (ANGSTROEM)
---------------------------------
  C      0.136438    1.388001   -0.037409
  C      0.028745   -0.112818    0.168328
  O      0.984556   -0.811642    0.406510
  C     -1.383614   -0.676396    0.089488
  O     -1.451844   -2.100692   -0.060346
  C     -2.245574   -2.246434    1.134955
  C     -1.395439   -2.540449    2.393709
  C     -1.358714   -1.011655    2.711541
  C     -2.183089   -0.720448    1.426807
  H      1.124576    1.734555    0.267120
  H     -0.016557    1.624805   -1.097117
  H     -0.639355    1.921390    0.523379
  H     -1.936491   -0.167135   -0.713869
  H     -3.157227   -2.822274    0.957427
  H     -1.900812   -3.144297    3.151596
  H     -0.432535   -2.991521    2.149750
  H     -1.911984   -0.749196    3.616125
  H     -0.367928   -0.556950    2.770821
  H     -3.046176   -0.060463    1.500626

 Total Charge           Charge          ....    0
 Multiplicity           Mult            ....    1
 Number of Electrons    NEL             ....   68
 Basis Dimension        Dim             ....  339

ORBITAL ENERGIES
----------------

  NO   OCC          E(Eh)            E(eV)
   0   2.0000     -20.553829      -559.2981
   1   2.0000     -20.546167      -559.0896
   2   2.0000     -11.330247      -308.3117
   3   2.0000     -11.297499      -307.4206
   4   2.0000     -11.286992      -307.1347
   5   2.0000     -11.247265      -306.0537
   6   2.0000     -11.240299      -305.8641
   7   2.0000     -11.232142      -305.6421
   8   2.0000     -11.222978      -305.3928
   9   2.0000      -1.402123       -38.1537
  10   2.0000      -1.377505       -37.4838
  11   2.0000      -1.113890       -30.3105
  12   2.0000      -1.039207       -28.2782
  13   2.0000      -0.971808       -26.4442
  14   2.0000      -0.897001       -24.4086
  15   2.0000      -0.872083       -23.7306
  16   2.0000      -0.762684       -20.7537
  17   2.0000      -0.719718       -19.5845
  18   2.0000      -0.700219       -19.0539
  19   2.0000      -0.667363       -18.1599
  20   2.0000      -0.660602       -17.9759
  21   2.0000      -0.630104       -17.1460
  22   2.0000      -0.601612       -16.3707
  23   2.0000      -0.589299       -16.0356
  24   2.0000      -0.574520       -15.6335
  25   2.0000      -0.560319       -15.2471
  26   2.0000      -0.535094       -14.5606
  27   2.0000      -0.518913       -14.1203
  28   2.0000      -0.494229       -13.4487
  29   2.0000      -0.482364       -13.1258
  30   2.0000      -0.460552       -12.5323
  31   2.0000      -0.437309       -11.8998
  32   2.0000      -0.410171       -11.1613
  33   2.0000      -0.396656       -10.7936
  34   0.0000       0.122107         3.3227
  35   0.0000       0.138895         3.7795
  36   0.0000       0.152035         4.1371
  37   0.0000       0.165620         4.5067
  38   0.0000       0.170451         4.6382

MULLIKEN ATOMIC CHARGES
-----------------------
   0 C :   -0.441062
   1 C :    0.159794
   2 O :   -0.271744
   3 C :    0.114400
   4 O :   -0.316036
   5 C :    0.022906
   6 C :   -0.203220
   7 C :   -0.262814
   8 C :   -0.094510
   9 H :    0.155885
  10 H :    0.153674
  11 H :    0.144687
  12 H :    0.106389
  13 H :    0.106478
  14 H :    0.117410
  15 H :    0.127549
  16 H :    0.122500
  17 H :    0.129966
  18 H :    0.127748
Sum of atomic charges:    0.0000000

LOEWDIN ATOMIC CHARGES
----------------------
   0 C :   -0.278699
   1 C :   -0.343479
   2 O :    0.165662
   3 C :   -0.246275
   4 O :    0.178811
   5 C :   -0.229647
   6 C :   -0.216271
   7 C :   -0.217909
   8 C :   -0.165171
   9 H :    0.134620
  10 H :    0.140609
  11 H :    0.135631
  12 H :    0.146247
  13 H :    0.124811
  14 H :    0.130053
  15 H :    0.141223
  16 H :    0.132938
  17 H :    0.131690
  18 H :    0.135154

  Mayer bond orders larger than 0.1
B(  0-C ,  1-C ) :   0.9139 B(  0-C ,  9-H ) :   0.9354 B(  0-C , 10-H ) :   0.9138
B(  0-C , 11-H ) :   0.9169 B(  1-C ,  2-O ) :   2.0212 B(  1-C ,  3-C ) :   0.8390
B(  3-C ,  4-O ) :   0.9442 B(  3-C ,  8-C ) :   0.9372 B(  3-C , 12-H ) :   0.9031
B(  4-O ,  5-C ) :   0.9509 B(  5-C ,  6-C ) :   0.9164 B(  5-C ,  8-C ) :   0.9184
B(  5-C , 13-H ) :   0.9338 B(  6-C ,  7-C ) :   0.9750 B(  6-C , 14-H ) :   0.9148
B(  6-C , 15-H ) :   0.8984 B(  7-C ,  8-C ) :   0.9417 B(  7-C , 16-H ) :   0.9200
B(  7-C , 17-H ) :   0.9092 B(  8-C , 18-H ) :   0.9103

MP2 TOTAL ENERGY:     -422.292807168 Eh
FINAL SINGLE POINT ENERGY      -422.292807168026

DIPOLE MOMENT
-------------
                                X             Y             Z
Electronic contribution:      1.49039      -3.29159      -3.44534
Nuclear contribution   :     -2.52259       4.24061       3.85186
                        -----------------------------------------
Total Dipole Moment    :     -1.03220       0.94902       0.40652
                        -----------------------------------------
Magnitude (a.u.)       :      1.45991
Magnitude (Debye)      :      3.71079

                             ****ORCA TERMINATED NORMALLY****
TOTAL RUN TIME: 0 days 0 hours 20 minutes 36 seconds 880 msec
