                         Program Version 3.0.3 - RELEASE   -
|  1> ! RI-MP2 RIJK def2-TZVP def2-TZVP/C def2-TZVP/JK TIGHTSCF
|  2> % maxcore 2000
|  3> % mp2 density relaxed end
|  4> *xyz 0 1
|  5>  C       -0.9805449114     0.7029940508    -1.4550524965
|  6>  C        0.1594716443    -0.2173312920    -1.0424419279
|  7>  C        1.6206770377     0.1823248201    -1.3793013415
|  8>  C        2.0731651265    -0.4705740108    -0.0465488785
|  9>  C        3.2127757695     0.1541232059     0.7441324825
| 10>  C        0.5917850890    -0.3724906377     0.4583504602
| 11>  C        0.2995207070     0.8262965425     1.3724159402
| 12>  C       -1.1351439307     0.8543823030     1.8474863647
| 13>  O       -1.8818778808     1.7947037697     1.7571388353
| 14>  H       -0.8551545704     1.7175052987    -1.0649285856
| 15>  H       -1.0334511400     0.7727115713    -2.5473875334
| 16>  H       -1.9492574744     0.3336361191    -1.1015021916
| 17>  H       -0.0317732286    -1.2211208420    -1.4392366310
| 18>  H        2.0543272061    -0.1951549639    -2.3091660764
| 19>  H        1.7525963666     1.2703020028    -1.3552212594
| 20>  H        2.2996160381    -1.5280051527    -0.2251120739
| 21>  H        3.0435485084     1.2193487148     0.9327822806
| 22>  H        3.3527678695    -0.3402215179     1.7124846807
| 23>  H        4.1550519490     0.0656146410     0.1921412851
| 24>  H        0.2188552127    -1.2784187782     0.9504919898
| 25>  H        0.9222515908     0.7327286851     2.2750980805
| 26>  H        0.5336092553     1.7885205649     0.9090839630
| 27>  H       -1.4736359442    -0.0995813444     2.3193072030
| 28> *
| 29>
| 30>                          ****END OF INPUT****

CARTESIAN COORDINATES (ANGSTROEM)
---------------------------------
  C     -0.980545    0.702994   -1.455052
  C      0.159472   -0.217331   -1.042442
  C      1.620677    0.182325   -1.379301
  C      2.073165   -0.470574   -0.046549
  C      3.212776    0.154123    0.744132
  C      0.591785   -0.372491    0.458350
  C      0.299521    0.826297    1.372416
  C     -1.135144    0.854382    1.847486
  O     -1.881878    1.794704    1.757139
  H     -0.855155    1.717505   -1.064929
  H     -1.033451    0.772712   -2.547388
  H     -1.949257    0.333636   -1.101502
  H     -0.031773   -1.221121   -1.439237
  H      2.054327   -0.195155   -2.309166
  H      1.752596    1.270302   -1.355221
  H      2.299616   -1.528005   -0.225112
  H      3.043549    1.219349    0.932782
  H      3.352768   -0.340222    1.712485
  H      4.155052    0.065615    0.192141
  H      0.218855   -1.278419    0.950492
  H      0.922252    0.732729    2.275098
  H      0.533609    1.788521    0.909084
  H     -1.473636   -0.099581    2.319307

 Total Charge           Charge          ....    0
 Multiplicity           Mult            ....    1
 Number of Electrons    NEL             ....   70
 Basis Dimension        Dim             ....  363

ORBITAL ENERGIES
----------------

  NO   OCC          E(Eh)            E(eV)
   0   2.0000     -20.553181      -559.2805
   1   2.0000     -11.328962      -308.2767
   2   2.0000     -11.239664      -305.8468
   3   2.0000     -11.238487      -305.8148
   4   2.0000     -11.233795      -305.6871
   5   2.0000     -11.231245      -305.6177
   6   2.0000     -11.220231      -305.3180
   7   2.0000     -11.219732      -305.3044
   8   2.0000     -11.211724      -305.0865
   9   2.0000      -1.392346       -37.8876
  10   2.0000      -1.151987       -31.3472
  11   2.0000      -1.028814       -27.9954
  12   2.0000      -1.011932       -27.5361
  13   2.0000      -0.942558       -25.6483
  14   2.0000      -0.880125       -23.9494
  15   2.0000      -0.804375       -21.8882
  16   2.0000      -0.796975       -21.6868
  17   2.0000      -0.731282       -19.8992
  18   2.0000      -0.678372       -18.4594
  19   2.0000      -0.658826       -17.9276
  20   2.0000      -0.628430       -17.1005
  21   2.0000      -0.600468       -16.3396
  22   2.0000      -0.590224       -16.0608
  23   2.0000      -0.586757       -15.9665
  24   2.0000      -0.563338       -15.3292
  25   2.0000      -0.554952       -15.1010
  26   2.0000      -0.539013       -14.6673
  27   2.0000      -0.532940       -14.5020
  28   2.0000      -0.509927       -13.8758
  29   2.0000      -0.496619       -13.5137
  30   2.0000      -0.457738       -12.4557
  31   2.0000      -0.447770       -12.1844
  32   2.0000      -0.433118       -11.7858
  33   2.0000      -0.424831       -11.5602
  34   2.0000      -0.407287       -11.0828
  35   0.0000       0.125932         3.4268
  36   0.0000       0.136359         3.7105
  37   0.0000       0.143334         3.9003
  38   0.0000       0.153284         4.1711
  39   0.0000       0.160882         4.3778

MULLIKEN ATOMIC CHARGES
-----------------------
   0 C :   -0.409112
   1 C :   -0.046340
   2 C :   -0.294005
   3 C :   -0.005024
   4 C :   -0.434202
   5 C :   -0.083793
   6 C :   -0.235140
   7 C :    0.090035
   8 O :   -0.263133
   9 H :    0.132405
  10 H :    0.134845
  11 H :    0.134732
  12 H :    0.095683
  13 H :    0.120558
  14 H :    0.110849
  15 H :    0.097860
  16 H :    0.130187
  17 H :    0.133429
  18 H :    0.139262
  19 H :    0.107968
  20 H :    0.139151
  21 H :    0.133996
  22 H :    0.069791
Sum of atomic charges:   -0.0000000

LOEWDIN ATOMIC CHARGES
----------------------
   0 C :   -0.299625
   1 C :   -0.235474
   2 C :   -0.200691
   3 C :   -0.235743
   4 C :   -0.303883
   5 C :   -0.187130
   6 C :   -0.244682
   7 C :   -0.296644
   8 O :    0.130516
   9 H :    0.125472
  10 H :    0.126341
  11 H :    0.125942
  12 H :    0.151757
  13 H :    0.123830
  14 H :    0.136906
  15 H :    0.151750
  16 H :    0.123175
  17 H :    0.123937
  18 H :    0.127259
  19 H :    0.141640
  20 H :    0.158359
  21 H :    0.147578
  22 H :    0.109410

  Mayer bond orders larger than 0.1
B(  0-C ,  1-C ) :   0.9019 B(  0-C ,  9-H ) :   0.9325 B(  0-C , 10-H ) :   0.9340
B(  0-C , 11-H ) :   0.9390 B(  1-C ,  2-C ) :   0.9278 B(  1-C ,  5-C ) :   0.9255
B(  1-C , 12-H ) :   0.9261 B(  2-C ,  3-C ) :   0.9327 B(  2-C , 13-H ) :   0.9248
B(  2-C , 14-H ) :   0.9174 B(  3-C ,  4-C ) :   0.8800 B(  3-C ,  5-C ) :   0.9080
B(  3-C , 15-H ) :   0.9270 B(  4-C , 16-H ) :   0.9377 B(  4-C , 17-H ) :   0.9428
B(  4-C , 18-H ) :   0.9372 B(  5-C ,  6-C ) :   0.8626 B(  5-C , 19-H ) :   0.9126
B(  6-C ,  7-C ) :   0.8752 B(  6-C , 20-H ) :   0.9130 B(  6-C , 21-H ) :   0.9066
B(  7-C ,  8-O ) :   2.0122 B(  7-C , 22-H ) :   0.9449

MP2 TOTAL ENERGY:     -387.616351845 Eh
FINAL SINGLE POINT ENERGY      -387.616351845160

DIPOLE MOMENT
-------------
                                X             Y             Z
Electronic contribution:     -5.80707       1.58511       4.02942
Nuclear contribution   :      6.62054      -2.34474      -4.15355
                        -----------------------------------------
Total Dipole Moment    :      0.81347      -0.75963      -0.12413
                        -----------------------------------------
Magnitude (a.u.)       :      1.11990
Magnitude (Debye)      :      2.84657

                             ****ORCA TERMINATED NORMALLY****
TOTAL RUN TIME: 0 days 0 hours 21 minutes 43 seconds 322 msec
