                         Program Version 3.0.3 - RELEASE   -
|  1> ! RI-MP2 RIJK def2-TZVP def2-TZVP/C def2-TZVP/JK TIGHTSCF
|  2> % maxcore 2000
|  3> % mp2 density relaxed end
|  4> *xyz 0 1
|  5>  C        0.0131915789     1.5232186089    -0.3470746607
|  6>  C        0.0030489199     0.0472843174     0.0054818349
|  7>  C        1.2522355645    -0.7668721644    -0.0573447657
|  8>  C        0.6369403688    -0.4656354884     1.3053067221
|  9>  C        1.3557907847     0.4270545505     2.2445723734
| 10>  O        1.3503535349     0.2880889744     3.4422080124
| 11>  N       -1.1996770542    -0.6480003131    -0.3780904079
| 12>  C       -2.4176208201    -0.3992702818     0.1858333502
| 13>  O       -2.6152820629     0.3690669589     1.0999213311
| 14>  H        0.9633041020     1.9955644768    -0.0879856487
| 15>  H       -0.1422736995     1.6482477085    -1.4238706868
| 16>  H       -0.7905108409     2.0382859272     0.1836735200
| 17>  H        1.2004466176    -1.7946612920    -0.3995987520
| 18>  H        2.1712325114    -0.2501041967    -0.3151339344
| 19>  H        0.1038307054    -1.2717006888     1.7949424752
| 20>  H        1.9425609216     1.2453872946     1.7677555563
| 21>  H       -1.1671985058    -1.2478330717    -1.1883424066
| 22>  H       -3.2184523162    -0.9995140803    -0.2913044629
| 23> *
| 24>
| 25>                          ****END OF INPUT****

CARTESIAN COORDINATES (ANGSTROEM)
---------------------------------
  C      0.013192    1.523219   -0.347075
  C      0.003049    0.047284    0.005482
  C      1.252236   -0.766872   -0.057345
  C      0.636940   -0.465635    1.305307
  C      1.355791    0.427055    2.244572
  O      1.350354    0.288089    3.442208
  N     -1.199677   -0.648000   -0.378090
  C     -2.417621   -0.399270    0.185833
  O     -2.615282    0.369067    1.099921
  H      0.963304    1.995564   -0.087986
  H     -0.142274    1.648248   -1.423871
  H     -0.790511    2.038286    0.183674
  H      1.200447   -1.794661   -0.399599
  H      2.171233   -0.250104   -0.315134
  H      0.103831   -1.271701    1.794942
  H      1.942561    1.245387    1.767756
  H     -1.167199   -1.247833   -1.188342
  H     -3.218452   -0.999514   -0.291304

 Total Charge           Charge          ....    0
 Multiplicity           Mult            ....    1
 Number of Electrons    NEL             ....   68
 Basis Dimension        Dim             ....  333

ORBITAL ENERGIES
----------------

  NO   OCC          E(Eh)            E(eV)
   0   2.0000     -20.550884      -559.2180
   1   2.0000     -20.534817      -558.7808
   2   2.0000     -15.604515      -424.6204
   3   2.0000     -11.359916      -309.1190
   4   2.0000     -11.332080      -308.3616
   5   2.0000     -11.308330      -307.7153
   6   2.0000     -11.261938      -306.4529
   7   2.0000     -11.254321      -306.2456
   8   2.0000     -11.235667      -305.7381
   9   2.0000      -1.396157       -37.9914
  10   2.0000      -1.390344       -37.8332
  11   2.0000      -1.267733       -34.4968
  12   2.0000      -1.155418       -31.4405
  13   2.0000      -0.994769       -27.0690
  14   2.0000      -0.924221       -25.1493
  15   2.0000      -0.870631       -23.6911
  16   2.0000      -0.812636       -22.1129
  17   2.0000      -0.768374       -20.9085
  18   2.0000      -0.742647       -20.2084
  19   2.0000      -0.694588       -18.9007
  20   2.0000      -0.676235       -18.4013
  21   2.0000      -0.638292       -17.3688
  22   2.0000      -0.624573       -16.9955
  23   2.0000      -0.595632       -16.2080
  24   2.0000      -0.587345       -15.9825
  25   2.0000      -0.570786       -15.5319
  26   2.0000      -0.566548       -15.4166
  27   2.0000      -0.549864       -14.9626
  28   2.0000      -0.536093       -14.5878
  29   2.0000      -0.473011       -12.8713
  30   2.0000      -0.447368       -12.1735
  31   2.0000      -0.437131       -11.8949
  32   2.0000      -0.416940       -11.3455
  33   2.0000      -0.397429       -10.8146
  34   0.0000       0.111233         3.0268
  35   0.0000       0.132363         3.6018
  36   0.0000       0.144388         3.9290
  37   0.0000       0.163075         4.4375
  38   0.0000       0.165987         4.5167

MULLIKEN ATOMIC CHARGES
-----------------------
   0 C :   -0.393925
   1 C :    0.183171
   2 C :   -0.337631
   3 C :   -0.011742
   4 C :    0.059352
   5 O :   -0.262235
   6 N :   -0.359488
   7 C :    0.200352
   8 O :   -0.345962
   9 H :    0.119127
  10 H :    0.128419
  11 H :    0.177649
  12 H :    0.154178
  13 H :    0.146112
  14 H :    0.143062
  15 H :    0.068528
  16 H :    0.244486
  17 H :    0.086548
Sum of atomic charges:    0.0000000

LOEWDIN ATOMIC CHARGES
----------------------
   0 C :   -0.257615
   1 C :   -0.281851
   2 C :   -0.173139
   3 C :   -0.169508
   4 C :   -0.287736
   5 O :    0.135364
   6 N :    0.125898
   7 C :   -0.425275
   8 O :    0.076793
   9 H :    0.126775
  10 H :    0.129273
  11 H :    0.140033
  12 H :    0.140263
  13 H :    0.143597
  14 H :    0.163539
  15 H :    0.112466
  16 H :    0.189656
  17 H :    0.111466

  Mayer bond orders larger than 0.1
B(  0-C ,  1-C ) :   0.9278 B(  0-C ,  9-H ) :   0.9240 B(  0-C , 10-H ) :   0.9269
B(  0-C , 11-H ) :   0.9326 B(  1-C ,  2-C ) :   0.8944 B(  1-C ,  3-C ) :   0.7975
B(  1-C ,  6-N ) :   0.7509 B(  2-C ,  3-C ) :   0.8179 B(  2-C , 12-H ) :   0.9200
B(  2-C , 13-H ) :   0.9229 B(  3-C ,  4-C ) :   0.8927 B(  3-C , 14-H ) :   0.9136
B(  4-C ,  5-O ) :   1.9894 B(  4-C , 15-H ) :   0.9470 B(  6-N ,  7-C ) :   1.1310
B(  6-N , 16-H ) :   0.8652 B(  7-C ,  8-O ) :   1.8998 B(  7-C , 17-H ) :   0.9270

MP2 TOTAL ENERGY:     -438.381524204 Eh
FINAL SINGLE POINT ENERGY      -438.381524203918

DIPOLE MOMENT
-------------
                                X             Y             Z
Electronic contribution:     -2.20735      -1.49573       4.86323
Nuclear contribution   :      2.69493       0.80502      -7.06548
                        -----------------------------------------
Total Dipole Moment    :      0.48758      -0.69070      -2.20225
                        -----------------------------------------
Magnitude (a.u.)       :      2.35896
Magnitude (Debye)      :      5.99601

                             ****ORCA TERMINATED NORMALLY****
TOTAL RUN TIME: 0 days 0 hours 15 minutes 55 seconds 125 msec
