                         Program Version 3.0.3 - RELEASE   -
|  1> ! RI-MP2 RIJK def2-TZVP def2-TZVP/C def2-TZVP/JK TIGHTSCF
|  2> % maxcore 2000
|  3> % mp2 density relaxed end
|  4> *xyz 0 1
|  5>  C        1.1325941310    -0.1679946036    -1.2759242495
|  6>  C        0.2103333372    -0.0342597051    -0.0588589709
|  7>  C        0.7530015151    -0.6147100989     1.2625088135
|  8>  C       -0.2024750263    -0.3105348577     2.4376709138
|  9>  C       -0.3387179658     1.1725446212     2.8008598800
| 10>  C        1.0001165379    -2.1232181112     1.1809500241
| 11>  C        2.2323593245    -2.6874808606     0.4312626054
| 12>  O        2.6098906201    -3.4922237962     1.5645611092
| 13>  C        1.6336622194    -2.8385743682     2.3986937526
| 14>  H        1.2888421973    -1.2111307028    -1.5660935199
| 15>  H        0.7037827456     0.3470407350    -2.1414608827
| 16>  H        2.1154048126     0.2759513621    -1.0826515908
| 17>  H       -0.0084795994     1.0286789127     0.0896585980
| 18>  H       -0.7548418040    -0.5117590461    -0.2794831814
| 19>  H        1.7177467485    -0.1289212209     1.4801653634
| 20>  H       -1.1933871605    -0.7255118440     2.2061716027
| 21>  H        0.1483744768    -0.8504439887     3.3256258595
| 22>  H        0.6391395444     1.6159438089     3.0204496838
| 23>  H       -0.7954650110     1.7573596194     1.9971800977
| 24>  H       -0.9653103813     1.2971440218     3.6895993683
| 25>  H        0.0804882857    -2.6280426565     0.8646854857
| 26>  H        2.0446713671    -3.2968679051    -0.4604114220
| 27>  H        2.9996876546    -1.9375111437     0.1940746808
| 28>  H        2.1089194535    -2.1578438575     3.1208741062
| 29>  H        1.0112532870    -3.5555308342     2.9461329025
| 30> *
| 31>
| 32>                          ****END OF INPUT****

CARTESIAN COORDINATES (ANGSTROEM)
---------------------------------
  C      1.132594   -0.167995   -1.275924
  C      0.210333   -0.034260   -0.058859
  C      0.753002   -0.614710    1.262509
  C     -0.202475   -0.310535    2.437671
  C     -0.338718    1.172545    2.800860
  C      1.000117   -2.123218    1.180950
  C      2.232359   -2.687481    0.431263
  O      2.609891   -3.492224    1.564561
  C      1.633662   -2.838574    2.398694
  H      1.288842   -1.211131   -1.566094
  H      0.703783    0.347041   -2.141461
  H      2.115405    0.275951   -1.082652
  H     -0.008480    1.028679    0.089659
  H     -0.754842   -0.511759   -0.279483
  H      1.717747   -0.128921    1.480165
  H     -1.193387   -0.725512    2.206172
  H      0.148374   -0.850444    3.325626
  H      0.639140    1.615944    3.020450
  H     -0.795465    1.757360    1.997180
  H     -0.965310    1.297144    3.689599
  H      0.080488   -2.628043    0.864685
  H      2.044671   -3.296868   -0.460411
  H      2.999688   -1.937511    0.194075
  H      2.108919   -2.157844    3.120874
  H      1.011253   -3.555531    2.946133

 Total Charge           Charge          ....    0
 Multiplicity           Mult            ....    1
 Number of Electrons    NEL             ....   72
 Basis Dimension        Dim             ....  375

ORBITAL ENERGIES
----------------

  NO   OCC          E(Eh)            E(eV)
   0   2.0000     -20.541535      -558.9636
   1   2.0000     -11.273017      -306.7544
   2   2.0000     -11.272972      -306.7532
   3   2.0000     -11.230857      -305.6072
   4   2.0000     -11.230230      -305.5901
   5   2.0000     -11.223919      -305.4184
   6   2.0000     -11.222904      -305.3908
   7   2.0000     -11.216982      -305.2296
   8   2.0000     -11.216410      -305.2140
   9   2.0000      -1.372533       -37.3485
  10   2.0000      -1.106326       -30.1047
  11   2.0000      -1.017661       -27.6920
  12   2.0000      -1.004742       -27.3404
  13   2.0000      -0.929229       -25.2856
  14   2.0000      -0.912922       -24.8419
  15   2.0000      -0.839402       -22.8413
  16   2.0000      -0.787640       -21.4328
  17   2.0000      -0.756813       -20.5939
  18   2.0000      -0.680348       -18.5132
  19   2.0000      -0.658290       -17.9130
  20   2.0000      -0.622208       -16.9311
  21   2.0000      -0.610730       -16.6188
  22   2.0000      -0.597805       -16.2671
  23   2.0000      -0.580021       -15.7832
  24   2.0000      -0.562790       -15.3143
  25   2.0000      -0.555977       -15.1289
  26   2.0000      -0.537250       -14.6193
  27   2.0000      -0.526111       -14.3162
  28   2.0000      -0.509925       -13.8758
  29   2.0000      -0.494485       -13.4556
  30   2.0000      -0.484851       -13.1935
  31   2.0000      -0.475402       -12.9363
  32   2.0000      -0.462173       -12.5764
  33   2.0000      -0.432198       -11.7607
  34   2.0000      -0.430166       -11.7054
  35   2.0000      -0.407575       -11.0907
  36   0.0000       0.135052         3.6749
  37   0.0000       0.145199         3.9511
  38   0.0000       0.146838         3.9957
  39   0.0000       0.156906         4.2696
  40   0.0000       0.182997         4.9796

MULLIKEN ATOMIC CHARGES
-----------------------
   0 C :   -0.410853
   1 C :   -0.211280
   2 C :   -0.111429
   3 C :   -0.179087
   4 C :   -0.408572
   5 C :   -0.090167
   6 C :   -0.035513
   7 O :   -0.327368
   8 C :   -0.026387
   9 H :    0.127699
  10 H :    0.139083
  11 H :    0.126622
  12 H :    0.115147
  13 H :    0.105192
  14 H :    0.085634
  15 H :    0.107973
  16 H :    0.111552
  17 H :    0.124713
  18 H :    0.129160
  19 H :    0.137180
  20 H :    0.100489
  21 H :    0.104250
  22 H :    0.093621
  23 H :    0.086944
  24 H :    0.105396
Sum of atomic charges:    0.0000000

LOEWDIN ATOMIC CHARGES
----------------------
   0 C :   -0.315429
   1 C :   -0.267606
   2 C :   -0.250665
   3 C :   -0.266043
   4 C :   -0.319246
   5 C :   -0.219808
   6 C :   -0.267017
   7 O :    0.110615
   8 C :   -0.260035
   9 H :    0.121923
  10 H :    0.122096
  11 H :    0.121363
  12 H :    0.138418
  13 H :    0.138374
  14 H :    0.154644
  15 H :    0.138295
  16 H :    0.139634
  17 H :    0.121615
  18 H :    0.118053
  19 H :    0.122154
  20 H :    0.151588
  21 H :    0.115034
  22 H :    0.118418
  23 H :    0.117881
  24 H :    0.115745

  Mayer bond orders larger than 0.1
B(  0-C ,  1-C ) :   0.9178 B(  0-C ,  9-H ) :   0.9392 B(  0-C , 10-H ) :   0.9403
B(  0-C , 11-H ) :   0.9387 B(  1-C ,  2-C ) :   0.9217 B(  1-C , 12-H ) :   0.9361
B(  1-C , 13-H ) :   0.9233 B(  2-C ,  3-C ) :   0.9105 B(  2-C ,  5-C ) :   0.9181
B(  2-C , 14-H ) :   0.9195 B(  3-C ,  4-C ) :   0.9164 B(  3-C , 15-H ) :   0.9253
B(  3-C , 16-H ) :   0.9368 B(  4-C , 17-H ) :   0.9375 B(  4-C , 18-H ) :   0.9424
B(  4-C , 19-H ) :   0.9419 B(  5-C ,  6-C ) :   0.9638 B(  5-C ,  8-C ) :   0.9468
B(  5-C , 20-H ) :   0.9076 B(  6-C ,  7-O ) :   0.9497 B(  6-C , 21-H ) :   0.9211
B(  6-C , 22-H ) :   0.9011 B(  7-O ,  8-C ) :   0.9532 B(  8-C , 23-H ) :   0.9022
B(  8-C , 24-H ) :   0.9171

MP2 TOTAL ENERGY:     -388.797475734 Eh
FINAL SINGLE POINT ENERGY      -388.797475734375

DIPOLE MOMENT
-------------
                                X             Y             Z
Electronic contribution:      4.16576      -7.81922       1.44083
Nuclear contribution   :     -4.75664       8.44029      -1.55534
                        -----------------------------------------
Total Dipole Moment    :     -0.59088       0.62107      -0.11451
                        -----------------------------------------
Magnitude (a.u.)       :      0.86486
Magnitude (Debye)      :      2.19829

                             ****ORCA TERMINATED NORMALLY****
TOTAL RUN TIME: 0 days 0 hours 21 minutes 51 seconds 595 msec
