                         Program Version 3.0.3 - RELEASE   -
|  1> ! RI-MP2 RIJK def2-TZVP def2-TZVP/C def2-TZVP/JK TIGHTSCF
|  2> % maxcore 2000
|  3> % mp2 density relaxed end
|  4> *xyz 0 1
|  5>  C       -0.2681551102     1.2383451998    -0.0191669632
|  6>  O       -0.0246434417    -0.1521892038    -0.1563222580
|  7>  C        0.8436008955    -0.5316799491    -1.2201211541
|  8>  C        0.8557220473    -2.0839511791    -1.2643729060
|  9>  C       -0.1250296053    -2.4729046371    -2.3945409610
| 10>  C       -0.2352962320    -1.2070961864    -3.2038920656
| 11>  C        0.3109777714    -0.1565552583    -2.5962160741
| 12>  C        2.1936461012     0.0301158471    -0.9780199171
| 13>  N        3.2408386873     0.4819513778    -0.7893291404
| 14>  H        0.6645930269     1.8026942292     0.1140222020
| 15>  H       -0.8146693020     1.6470561415    -0.8792213019
| 16>  H       -0.8830257806     1.3537575101     0.8755682111
| 17>  H        1.8624032141    -2.4332689467    -1.5034656745
| 18>  H        0.5823916911    -2.4737397344    -0.2829470055
| 19>  H        0.2441219446    -3.3166723244    -2.9868646238
| 20>  H       -1.1074758189    -2.7710123779    -2.0071322177
| 21>  H       -0.7304452492    -1.1721308180    -4.1683945223
| 22>  H        0.3524287105     0.8557793096    -2.9767068677
| 23> *
| 24>
| 25>                          ****END OF INPUT****

CARTESIAN COORDINATES (ANGSTROEM)
---------------------------------
  C     -0.268155    1.238345   -0.019167
  O     -0.024643   -0.152189   -0.156322
  C      0.843601   -0.531680   -1.220121
  C      0.855722   -2.083951   -1.264373
  C     -0.125030   -2.472905   -2.394541
  C     -0.235296   -1.207096   -3.203892
  C      0.310978   -0.156555   -2.596216
  C      2.193646    0.030116   -0.978020
  N      3.240839    0.481951   -0.789329
  H      0.664593    1.802694    0.114022
  H     -0.814669    1.647056   -0.879221
  H     -0.883026    1.353758    0.875568
  H      1.862403   -2.433269   -1.503466
  H      0.582392   -2.473740   -0.282947
  H      0.244122   -3.316672   -2.986865
  H     -1.107476   -2.771012   -2.007132
  H     -0.730445   -1.172131   -4.168395
  H      0.352429    0.855779   -2.976707

 Total Charge           Charge          ....    0
 Multiplicity           Mult            ....    1
 Number of Electrons    NEL             ....   66
 Basis Dimension        Dim             ....  333

ORBITAL ENERGIES
----------------

  NO   OCC          E(Eh)            E(eV)
   0   2.0000     -20.578812      -559.9779
   1   2.0000     -15.572174      -423.7404
   2   2.0000     -11.342710      -308.6508
   3   2.0000     -11.281069      -306.9735
   4   2.0000     -11.270322      -306.6811
   5   2.0000     -11.256642      -306.3088
   6   2.0000     -11.246968      -306.0456
   7   2.0000     -11.246794      -306.0408
   8   2.0000     -11.246225      -306.0253
   9   2.0000      -1.399463       -38.0813
  10   2.0000      -1.218507       -33.1573
  11   2.0000      -1.155783       -31.4505
  12   2.0000      -1.014749       -27.6127
  13   2.0000      -0.993249       -27.0277
  14   2.0000      -0.924058       -25.1449
  15   2.0000      -0.840451       -22.8698
  16   2.0000      -0.777297       -21.1513
  17   2.0000      -0.726977       -19.7821
  18   2.0000      -0.700954       -19.0739
  19   2.0000      -0.648694       -17.6519
  20   2.0000      -0.641984       -17.4693
  21   2.0000      -0.614743       -16.7280
  22   2.0000      -0.589130       -16.0310
  23   2.0000      -0.559782       -15.2324
  24   2.0000      -0.546871       -14.8811
  25   2.0000      -0.532958       -14.5025
  26   2.0000      -0.518980       -14.1222
  27   2.0000      -0.516273       -14.0485
  28   2.0000      -0.505790       -13.7632
  29   2.0000      -0.466748       -12.7009
  30   2.0000      -0.457011       -12.4359
  31   2.0000      -0.446066       -12.1381
  32   2.0000      -0.382361       -10.4046
  33   0.0000       0.122552         3.3348
  34   0.0000       0.133933         3.6445
  35   0.0000       0.151643         4.1264
  36   0.0000       0.163925         4.4606
  37   0.0000       0.174711         4.7541

MULLIKEN ATOMIC CHARGES
-----------------------
   0 C :   -0.245547
   1 O :   -0.302945
   2 C :    0.513466
   3 C :   -0.295820
   4 C :   -0.181942
   5 C :   -0.123007
   6 C :   -0.299046
   7 C :   -0.267212
   8 N :   -0.052688
   9 H :    0.138031
  10 H :    0.121129
  11 H :    0.147390
  12 H :    0.148399
  13 H :    0.142637
  14 H :    0.133288
  15 H :    0.128875
  16 H :    0.140168
  17 H :    0.154824
Sum of atomic charges:    0.0000000

LOEWDIN ATOMIC CHARGES
----------------------
   0 C :   -0.339652
   1 O :    0.189889
   2 C :   -0.331822
   3 C :   -0.171557
   4 C :   -0.232539
   5 C :   -0.128829
   6 C :   -0.114177
   7 C :   -0.149217
   8 N :    0.067463
   9 H :    0.112358
  10 H :    0.105131
  11 H :    0.117457
  12 H :    0.150824
  13 H :    0.147442
  14 H :    0.142104
  15 H :    0.147286
  16 H :    0.141964
  17 H :    0.145876

  Mayer bond orders larger than 0.1
B(  0-C ,  1-O ) :   0.8976 B(  0-C ,  9-H ) :   0.9260 B(  0-C , 10-H ) :   0.9312
B(  0-C , 11-H ) :   0.9387 B(  1-O ,  2-C ) :   0.9555 B(  2-C ,  3-C ) :   0.8365
B(  2-C ,  6-C ) :   0.8895 B(  2-C ,  7-C ) :   0.8651 B(  3-C ,  4-C ) :   0.9752
B(  3-C , 12-H ) :   0.9257 B(  3-C , 13-H ) :   0.9274 B(  4-C ,  5-C ) :   0.9459
B(  4-C , 14-H ) :   0.9258 B(  4-C , 15-H ) :   0.9032 B(  5-C ,  6-C ) :   1.7727
B(  5-C , 16-H ) :   0.9235 B(  6-C , 17-H ) :   0.9111 B(  7-C ,  8-N ) :   2.8660

MP2 TOTAL ENERGY:     -401.264240043 Eh
FINAL SINGLE POINT ENERGY      -401.264240043411

DIPOLE MOMENT
-------------
                                X             Y             Z
Electronic contribution:      4.58423       1.28020       0.82726
Nuclear contribution   :     -5.87859      -1.67164      -1.44057
                        -----------------------------------------
Total Dipole Moment    :     -1.29436      -0.39145      -0.61331
                        -----------------------------------------
Magnitude (a.u.)       :      1.48484
Magnitude (Debye)      :      3.77416

                             ****ORCA TERMINATED NORMALLY****
TOTAL RUN TIME: 0 days 0 hours 18 minutes 32 seconds 750 msec
