                         Program Version 3.0.3 - RELEASE   -
|  1> ! RI-MP2 RIJK def2-TZVP def2-TZVP/C def2-TZVP/JK TIGHTSCF
|  2> % maxcore 2000
|  3> % mp2 density relaxed end
|  4> *xyz 0 1
|  5>  C        0.4875746775     1.4110348792    -0.3538627350
|  6>  C        0.0424263593     0.0321050165     0.0837164391
|  7>  O        0.6022526537    -1.0184300167    -0.7415630210
|  8>  C        1.3240698496    -1.6112261308     0.3599059928
|  9>  C        2.7651082210    -1.5959164321     0.1869676959
| 10>  C        3.9583090531    -1.5993036291     0.0449357906
| 11>  C        0.6882873656    -0.5839341753     1.3674741389
| 12>  C        1.5510792680     0.2332626765     2.1876971357
| 13>  C        2.2591354541     0.9169079867     2.8778943701
| 14>  H        1.5766399111     1.4971110476    -0.3322677887
| 15>  H        0.1403818543     1.6004380237    -1.3741395989
| 16>  H        0.0643982350     2.1765098183     0.3046612007
| 17>  H       -1.0524804255    -0.0350211690     0.0917055802
| 18>  H        0.9849323635    -2.6390767990     0.5390826078
| 19>  H        5.0128168625    -1.5979530691    -0.0818517136
| 20>  H       -0.0580846459    -1.0807124094     1.9925361370
| 21>  H        2.8914417631     1.5167880721     3.4844879184
| 22> *
| 23>
| 24>                          ****END OF INPUT****

CARTESIAN COORDINATES (ANGSTROEM)
---------------------------------
  C      0.487575    1.411035   -0.353863
  C      0.042426    0.032105    0.083716
  O      0.602253   -1.018430   -0.741563
  C      1.324070   -1.611226    0.359906
  C      2.765108   -1.595916    0.186968
  C      3.958309   -1.599304    0.044936
  C      0.688287   -0.583934    1.367474
  C      1.551079    0.233263    2.187697
  C      2.259135    0.916908    2.877894
  H      1.576640    1.497111   -0.332268
  H      0.140382    1.600438   -1.374140
  H      0.064398    2.176510    0.304661
  H     -1.052480   -0.035021    0.091706
  H      0.984932   -2.639077    0.539083
  H      5.012817   -1.597953   -0.081852
  H     -0.058085   -1.080712    1.992536
  H      2.891442    1.516788    3.484488

 Total Charge           Charge          ....    0
 Multiplicity           Mult            ....    1
 Number of Electrons    NEL             ....   64
 Basis Dimension        Dim             ....  327

ORBITAL ENERGIES
----------------

  NO   OCC          E(Eh)            E(eV)
   0   2.0000     -20.561551      -559.5083
   1   2.0000     -11.322594      -308.1035
   2   2.0000     -11.299312      -307.4699
   3   2.0000     -11.274135      -306.7848
   4   2.0000     -11.239788      -305.8502
   5   2.0000     -11.235944      -305.7456
   6   2.0000     -11.231196      -305.6164
   7   2.0000     -11.230082      -305.5861
   8   2.0000     -11.218842      -305.2802
   9   2.0000      -1.394676       -37.9511
  10   2.0000      -1.089997       -29.6603
  11   2.0000      -1.054773       -28.7018
  12   2.0000      -1.013864       -27.5886
  13   2.0000      -0.985922       -26.8283
  14   2.0000      -0.908068       -24.7098
  15   2.0000      -0.805812       -21.9273
  16   2.0000      -0.747300       -20.3351
  17   2.0000      -0.715274       -19.4636
  18   2.0000      -0.708227       -19.2718
  19   2.0000      -0.683497       -18.5989
  20   2.0000      -0.640093       -17.4178
  21   2.0000      -0.605468       -16.4756
  22   2.0000      -0.586259       -15.9529
  23   2.0000      -0.560091       -15.2409
  24   2.0000      -0.538394       -14.6504
  25   2.0000      -0.508085       -13.8257
  26   2.0000      -0.486630       -13.2419
  27   2.0000      -0.438394       -11.9293
  28   2.0000      -0.402727       -10.9588
  29   2.0000      -0.397112       -10.8060
  30   2.0000      -0.389499       -10.5988
  31   2.0000      -0.380682       -10.3589
  32   0.0000       0.129062         3.5120
  33   0.0000       0.148792         4.0488
  34   0.0000       0.151655         4.1267
  35   0.0000       0.155869         4.2414
  36   0.0000       0.164308         4.4710

MULLIKEN ATOMIC CHARGES
-----------------------
   0 C :   -0.399518
   1 C :    0.114326
   2 O :   -0.313823
   3 C :   -0.012074
   4 C :   -0.037385
   5 C :   -0.121045
   6 C :   -0.220571
   7 C :   -0.019771
   8 C :   -0.143063
   9 H :    0.146516
  10 H :    0.141244
  11 H :    0.129869
  12 H :    0.093324
  13 H :    0.117322
  14 H :    0.193746
  15 H :    0.138720
  16 H :    0.192184
Sum of atomic charges:    0.0000000

LOEWDIN ATOMIC CHARGES
----------------------
   0 C :   -0.287841
   1 C :   -0.266082
   2 O :    0.170870
   3 C :   -0.236591
   4 C :   -0.079849
   5 C :   -0.070692
   6 C :   -0.169231
   7 C :   -0.088832
   8 C :   -0.083070
   9 H :    0.133429
  10 H :    0.130792
  11 H :    0.131324
  12 H :    0.135684
  13 H :    0.154427
  14 H :    0.128748
  15 H :    0.168958
  16 H :    0.127956

  Mayer bond orders larger than 0.1
B(  0-C ,  1-C ) :   0.9216 B(  0-C ,  9-H ) :   0.9331 B(  0-C , 10-H ) :   0.9330
B(  0-C , 11-H ) :   0.9225 B(  1-C ,  2-O ) :   0.9299 B(  1-C ,  6-C ) :   0.9076
B(  1-C , 12-H ) :   0.9190 B(  2-O ,  3-C ) :   0.9676 B(  3-C ,  4-C ) :   1.1442
B(  3-C ,  6-C ) :   0.9248 B(  3-C , 13-H ) :   0.9205 B(  4-C ,  5-C ) :   2.5773
B(  5-C , 14-H ) :   0.8901 B(  6-C ,  7-C ) :   1.1758 B(  6-C , 15-H ) :   0.9370
B(  7-C ,  8-C ) :   2.5916 B(  8-C , 16-H ) :   0.8906

MP2 TOTAL ENERGY:     -383.907261221 Eh
FINAL SINGLE POINT ENERGY      -383.907261221040

DIPOLE MOMENT
-------------
                                X             Y             Z
Electronic contribution:      2.00118      -4.13481       0.84924
Nuclear contribution   :     -2.05836       4.36595      -0.29976
                        -----------------------------------------
Total Dipole Moment    :     -0.05718       0.23114       0.54948
                        -----------------------------------------
Magnitude (a.u.)       :      0.59886
Magnitude (Debye)      :      1.52217

                             ****ORCA TERMINATED NORMALLY****
TOTAL RUN TIME: 0 days 0 hours 16 minutes 29 seconds 215 msec
