                         Program Version 3.0.3 - RELEASE   -
|  1> ! RI-MP2 RIJK def2-TZVP def2-TZVP/C def2-TZVP/JK TIGHTSCF
|  2> % maxcore 2000
|  3> % mp2 density relaxed end
|  4> *xyz 0 1
|  5>  C        0.0045992786     1.5292337261     0.0587667144
|  6>  C       -0.0546154981     0.0362939972     0.0035278626
|  7>  C        0.0010277359    -0.7624413383    -1.0752568104
|  8>  C       -0.0437228886    -2.1874055243    -0.6606313501
|  9>  C        0.8843357907    -2.6734054817     0.5171777812
| 10>  C        1.4161318578    -1.4953833424     1.3160411056
| 11>  C       -0.0215734853    -0.8359228818     1.2383820548
| 12>  C       -0.5294714248    -2.2569210678     0.7627922808
| 13>  O       -1.5683385565    -3.0029211501     1.2674069020
| 14>  H        0.9029478072     1.8798612240     0.5839294496
| 15>  H        0.0106391325     1.9674816982    -0.9433306653
| 16>  H       -0.8529863275     1.9425907035     0.6056121849
| 17>  H        0.0916737953    -0.4343538623    -2.1042860943
| 18>  H       -0.3206393289    -2.9811312369    -1.3452683176
| 19>  H        1.3074703641    -3.6689331081     0.4618174132
| 20>  H        1.6464759952    -1.8020883245     2.3393137110
| 21>  H        2.2437547557    -0.9071420056     0.9066093711
| 22>  H       -0.4084451367    -0.4108178949     2.1646932777
| 23>  H       -2.3932755166    -2.6550346804     0.9085678987
| 24> *
| 25>
| 26>                          ****END OF INPUT****

CARTESIAN COORDINATES (ANGSTROEM)
---------------------------------
  C      0.004599    1.529234    0.058767
  C     -0.054615    0.036294    0.003528
  C      0.001028   -0.762441   -1.075257
  C     -0.043723   -2.187406   -0.660631
  C      0.884336   -2.673405    0.517178
  C      1.416132   -1.495383    1.316041
  C     -0.021573   -0.835923    1.238382
  C     -0.529471   -2.256921    0.762792
  O     -1.568339   -3.002921    1.267407
  H      0.902948    1.879861    0.583929
  H      0.010639    1.967482   -0.943331
  H     -0.852986    1.942591    0.605612
  H      0.091674   -0.434354   -2.104286
  H     -0.320639   -2.981131   -1.345268
  H      1.307470   -3.668933    0.461817
  H      1.646476   -1.802088    2.339314
  H      2.243755   -0.907142    0.906609
  H     -0.408445   -0.410818    2.164693
  H     -2.393276   -2.655035    0.908568

 Total Charge           Charge          ....    0
 Multiplicity           Mult            ....    1
 Number of Electrons    NEL             ....   66
 Basis Dimension        Dim             ....  339

ORBITAL ENERGIES
----------------

  NO   OCC          E(Eh)            E(eV)
   0   2.0000     -20.570332      -559.7472
   1   2.0000     -11.284721      -307.0729
   2   2.0000     -11.233498      -305.6790
   3   2.0000     -11.231134      -305.6147
   4   2.0000     -11.229038      -305.5577
   5   2.0000     -11.226685      -305.4936
   6   2.0000     -11.225938      -305.4733
   7   2.0000     -11.222895      -305.3905
   8   2.0000     -11.214110      -305.1514
   9   2.0000      -1.381235       -37.5853
  10   2.0000      -1.206665       -32.8350
  11   2.0000      -1.058998       -28.8168
  12   2.0000      -0.994234       -27.0545
  13   2.0000      -0.938299       -25.5324
  14   2.0000      -0.878543       -23.9064
  15   2.0000      -0.786649       -21.4058
  16   2.0000      -0.761258       -20.7149
  17   2.0000      -0.714224       -19.4350
  18   2.0000      -0.701019       -19.0757
  19   2.0000      -0.635478       -17.2922
  20   2.0000      -0.623905       -16.9773
  21   2.0000      -0.588577       -16.0160
  22   2.0000      -0.574544       -15.6341
  23   2.0000      -0.572969       -15.5913
  24   2.0000      -0.559011       -15.2115
  25   2.0000      -0.535785       -14.5794
  26   2.0000      -0.516233       -14.0474
  27   2.0000      -0.499189       -13.5836
  28   2.0000      -0.476429       -12.9643
  29   2.0000      -0.444120       -12.0851
  30   2.0000      -0.397882       -10.8269
  31   2.0000      -0.379735       -10.3331
  32   2.0000      -0.314081        -8.5466
  33   0.0000       0.137270         3.7353
  34   0.0000       0.148683         4.0459
  35   0.0000       0.152725         4.1559
  36   0.0000       0.168331         4.5805
  37   0.0000       0.177935         4.8419

MULLIKEN ATOMIC CHARGES
-----------------------
   0 C :   -0.445253
   1 C :   -0.045868
   2 C :   -0.213572
   3 C :   -0.122486
   4 C :   -0.152066
   5 C :   -0.218279
   6 C :    0.011932
   7 C :    0.134271
   8 O :   -0.445403
   9 H :    0.138138
  10 H :    0.137236
  11 H :    0.138824
  12 H :    0.120706
  13 H :    0.132912
  14 H :    0.135475
  15 H :    0.122698
  16 H :    0.109098
  17 H :    0.131060
  18 H :    0.330575
Sum of atomic charges:   -0.0000000

LOEWDIN ATOMIC CHARGES
----------------------
   0 C :   -0.277134
   1 C :   -0.174929
   2 C :   -0.130106
   3 C :   -0.152478
   4 C :   -0.135105
   5 C :   -0.184286
   6 C :   -0.118011
   7 C :   -0.284972
   8 O :    0.038749
   9 H :    0.130576
  10 H :    0.130351
  11 H :    0.129731
  12 H :    0.137489
  13 H :    0.150871
  14 H :    0.139164
  15 H :    0.141699
  16 H :    0.126853
  17 H :    0.142086
  18 H :    0.189452

  Mayer bond orders larger than 0.1
B(  0-C ,  1-C ) :   0.8751 B(  0-C ,  9-H ) :   0.9222 B(  0-C , 10-H ) :   0.9488
B(  0-C , 11-H ) :   0.9442 B(  1-C ,  2-C ) :   1.7288 B(  1-C ,  6-C ) :   0.9240
B(  2-C ,  3-C ) :   0.9397 B(  2-C , 12-H ) :   0.9231 B(  3-C ,  4-C ) :   0.7990
B(  3-C ,  7-C ) :   0.9090 B(  3-C , 13-H ) :   0.9335 B(  4-C ,  5-C ) :   0.9801
B(  4-C ,  7-C ) :   0.8778 B(  4-C , 14-H ) :   0.9168 B(  5-C ,  6-C ) :   0.8657
B(  5-C , 15-H ) :   0.9196 B(  5-C , 16-H ) :   0.9119 B(  6-C ,  7-C ) :   0.8786
B(  6-C , 17-H ) :   0.9137 B(  7-C ,  8-O ) :   1.0321 B(  8-O , 18-H ) :   0.8323

MP2 TOTAL ENERGY:     -385.185755887 Eh
FINAL SINGLE POINT ENERGY      -385.185755886941

DIPOLE MOMENT
-------------
                                X             Y             Z
Electronic contribution:     -2.43720      -5.17968       0.26901
Nuclear contribution   :      2.29342       5.55394      -0.45802
                        -----------------------------------------
Total Dipole Moment    :     -0.14378       0.37426      -0.18900
                        -----------------------------------------
Magnitude (a.u.)       :      0.44324
Magnitude (Debye)      :      1.12663

                             ****ORCA TERMINATED NORMALLY****
TOTAL RUN TIME: 0 days 0 hours 19 minutes 35 seconds 608 msec
