                         Program Version 3.0.3 - RELEASE   -
|  1> ! RI-MP2 RIJK def2-TZVP def2-TZVP/C def2-TZVP/JK TIGHTSCF
|  2> % maxcore 2000
|  3> % mp2 density relaxed end
|  4> *xyz 0 1
|  5>  O       -0.0081882664     1.4225959782     0.0098075222
|  6>  C       -0.0090056808     0.0223725488     0.0034456081
|  7>  C       -1.4503814334    -0.4826770176     0.0128126671
|  8>  O       -2.4013097310     0.2638042405     0.0232798400
|  9>  C       -1.6311208661    -1.9485119958     0.0076349877
| 10>  C       -0.7309206607    -2.9754258181    -0.0038645874
| 11>  O       -1.3549958716    -4.1519047627    -0.0042037919
| 12>  N       -2.7420216261    -3.9331151466     0.0075461298
| 13>  C       -2.8837488492    -2.6369648687     0.0139796814
| 14>  H        0.9056014432     1.7218756855     0.0028240339
| 15>  H        0.4861606243    -0.4012544100    -0.8882140950
| 16>  H        0.5005328945    -0.4092927700     0.8830759627
| 17>  H        0.3477572528    -3.0183864486    -0.0122961825
| 18>  H       -3.8707624794    -2.1986081450     0.0234499640
| 19> *
| 20>
| 21>                          ****END OF INPUT****

CARTESIAN COORDINATES (ANGSTROEM)
---------------------------------
  O     -0.008188    1.422596    0.009808
  C     -0.009006    0.022373    0.003446
  C     -1.450381   -0.482677    0.012813
  O     -2.401310    0.263804    0.023280
  C     -1.631121   -1.948512    0.007635
  C     -0.730921   -2.975426   -0.003865
  O     -1.354996   -4.151905   -0.004204
  N     -2.742022   -3.933115    0.007546
  C     -2.883749   -2.636965    0.013980
  H      0.905601    1.721876    0.002824
  H      0.486161   -0.401254   -0.888214
  H      0.500533   -0.409293    0.883076
  H      0.347757   -3.018386   -0.012296
  H     -3.870762   -2.198608    0.023450

 Total Charge           Charge          ....    0
 Multiplicity           Mult            ....    1
 Number of Electrons    NEL             ....   66
 Basis Dimension        Dim             ....  309

ORBITAL ENERGIES
----------------

  NO   OCC          E(Eh)            E(eV)
   0   2.0000     -20.668967      -562.4312
   1   2.0000     -20.580638      -560.0276
   2   2.0000     -20.559278      -559.4464
   3   2.0000     -15.642314      -425.6490
   4   2.0000     -11.354125      -308.9615
   5   2.0000     -11.350457      -308.8616
   6   2.0000     -11.314519      -307.8837
   7   2.0000     -11.298195      -307.4395
   8   2.0000     -11.264751      -306.5295
   9   2.0000      -1.516861       -41.2759
  10   2.0000      -1.412489       -38.4358
  11   2.0000      -1.381234       -37.5853
  12   2.0000      -1.189317       -32.3630
  13   2.0000      -1.112384       -30.2695
  14   2.0000      -1.003887       -27.3171
  15   2.0000      -0.883790       -24.0492
  16   2.0000      -0.838920       -22.8282
  17   2.0000      -0.798652       -21.7324
  18   2.0000      -0.747219       -20.3329
  19   2.0000      -0.716998       -19.5105
  20   2.0000      -0.682741       -18.5783
  21   2.0000      -0.667425       -18.1616
  22   2.0000      -0.658250       -17.9119
  23   2.0000      -0.644079       -17.5263
  24   2.0000      -0.601699       -16.3731
  25   2.0000      -0.591734       -16.1019
  26   2.0000      -0.547874       -14.9084
  27   2.0000      -0.545844       -14.8532
  28   2.0000      -0.502519       -13.6742
  29   2.0000      -0.475746       -12.9457
  30   2.0000      -0.444918       -12.1068
  31   2.0000      -0.439390       -11.9564
  32   2.0000      -0.389369       -10.5953
  33   0.0000       0.077841         2.1182
  34   0.0000       0.110007         2.9934
  35   0.0000       0.125414         3.4127
  36   0.0000       0.140724         3.8293
  37   0.0000       0.174456         4.7472

MULLIKEN ATOMIC CHARGES
-----------------------
   0 O :   -0.425619
   1 C :   -0.103014
   2 C :    0.237353
   3 O :   -0.260937
   4 C :   -0.077065
   5 C :    0.003389
   6 O :   -0.089781
   7 N :   -0.093513
   8 C :   -0.095848
   9 H :    0.319741
  10 H :    0.119911
  11 H :    0.119860
  12 H :    0.170676
  13 H :    0.174849
Sum of atomic charges:    0.0000000

LOEWDIN ATOMIC CHARGES
----------------------
   0 O :   -0.013028
   1 C :   -0.332135
   2 C :   -0.305859
   3 O :    0.182538
   4 C :   -0.179705
   5 C :   -0.225634
   6 O :    0.289176
   7 N :    0.054213
   8 C :   -0.209832
   9 H :    0.179460
  10 H :    0.131198
  11 H :    0.131179
  12 H :    0.143597
  13 H :    0.154833

  Mayer bond orders larger than 0.1
B(  0-O ,  1-C ) :   1.0595 B(  0-O ,  9-H ) :   0.8421 B(  1-C ,  2-C ) :   0.9257
B(  1-C , 10-H ) :   0.9157 B(  1-C , 11-H ) :   0.9157 B(  2-C ,  3-O ) :   2.0012
B(  2-C ,  4-C ) :   0.8486 B(  4-C ,  5-C ) :   1.4578 B(  4-C ,  8-C ) :   1.1820
B(  5-C ,  6-O ) :   1.1617 B(  5-C ,  7-N ) :   0.1016 B(  5-C , 12-H ) :   0.9133
B(  6-O ,  7-N ) :   0.8747 B(  7-N ,  8-C ) :   1.6114 B(  8-C , 13-H ) :   0.9092

MP2 TOTAL ENERGY:     -473.056905238 Eh
FINAL SINGLE POINT ENERGY      -473.056905238194

DIPOLE MOMENT
-------------
                                X             Y             Z
Electronic contribution:     -3.42566      -3.19364       0.01364
Nuclear contribution   :      5.14369       3.18404      -0.02799
                        -----------------------------------------
Total Dipole Moment    :      1.71803      -0.00960      -0.01434
                        -----------------------------------------
Magnitude (a.u.)       :      1.71811
Magnitude (Debye)      :      4.36710

                             ****ORCA TERMINATED NORMALLY****
TOTAL RUN TIME: 0 days 0 hours 14 minutes 26 seconds 426 msec
