                         Program Version 3.0.3 - RELEASE   -
|  1> ! RI-MP2 RIJK def2-TZVP def2-TZVP/C def2-TZVP/JK TIGHTSCF
|  2> % maxcore 2000
|  3> % mp2 density relaxed end
|  4> *xyz 0 1
|  5>  C        0.0078557236     1.4690235720    -0.0987086555
|  6>  N        0.0134819843     0.0127686057    -0.0178801297
|  7>  C       -1.1687790385    -0.6680863137     0.6224429043
|  8>  C       -0.8384515812    -2.1336231767     0.2751447010
|  9>  C        0.6855864785    -2.1067073593     0.6638409488
| 10>  C        0.7593985664    -0.6364399527     1.1217964613
| 11>  C       -0.4964089433    -0.5343019956     2.0258561341
| 12>  O       -0.5962896028     0.7044321193     2.6887696452
| 13>  H        0.9978590667     1.7988594026    -0.4341865920
| 14>  H       -0.7095209668     1.7673817516    -0.8723011494
| 15>  H       -0.2364868516     1.9966281334     0.8305456607
| 16>  H       -2.1680169818    -0.2861889096     0.4032465829
| 17>  H       -1.4173587949    -2.8518555424     0.8625912817
| 18>  H       -0.9963058714    -2.3372707736    -0.7848131059
| 19>  H        0.9385975217    -2.8141455297     1.4580888711
| 20>  H        1.3370887605    -2.2878912629    -0.1918906133
| 21>  H        1.7217133011    -0.2182996648     1.4183601303
| 22>  H       -0.6675673087    -1.3650293880     2.7299135549
| 23>  H       -1.5037170416     0.8067817243     2.9937369893
| 24> *
| 25>
| 26>                          ****END OF INPUT****

CARTESIAN COORDINATES (ANGSTROEM)
---------------------------------
  C      0.007856    1.469024   -0.098709
  N      0.013482    0.012769   -0.017880
  C     -1.168779   -0.668086    0.622443
  C     -0.838452   -2.133623    0.275145
  C      0.685586   -2.106707    0.663841
  C      0.759399   -0.636440    1.121796
  C     -0.496409   -0.534302    2.025856
  O     -0.596290    0.704432    2.688770
  H      0.997859    1.798859   -0.434187
  H     -0.709521    1.767382   -0.872301
  H     -0.236487    1.996628    0.830546
  H     -2.168017   -0.286189    0.403247
  H     -1.417359   -2.851856    0.862591
  H     -0.996306   -2.337271   -0.784813
  H      0.938598   -2.814146    1.458089
  H      1.337089   -2.287891   -0.191891
  H      1.721713   -0.218300    1.418360
  H     -0.667567   -1.365029    2.729914
  H     -1.503717    0.806782    2.993737

 Total Charge           Charge          ....    0
 Multiplicity           Mult            ....    1
 Number of Electrons    NEL             ....   62
 Basis Dimension        Dim             ....  314

ORBITAL ENERGIES
----------------

  NO   OCC          E(Eh)            E(eV)
   0   2.0000     -20.561216      -559.4991
   1   2.0000     -15.536008      -422.7563
   2   2.0000     -11.280118      -306.9476
   3   2.0000     -11.256405      -306.3024
   4   2.0000     -11.254304      -306.2452
   5   2.0000     -11.226548      -305.4899
   6   2.0000     -11.221343      -305.3483
   7   2.0000     -11.219912      -305.3093
   8   2.0000      -1.372452       -37.3463
   9   2.0000      -1.252137       -34.0724
  10   2.0000      -1.059242       -28.8234
  11   2.0000      -0.947805       -25.7911
  12   2.0000      -0.944443       -25.6996
  13   2.0000      -0.874920       -23.8078
  14   2.0000      -0.774180       -21.0665
  15   2.0000      -0.737360       -20.0646
  16   2.0000      -0.701545       -19.0900
  17   2.0000      -0.680877       -18.5276
  18   2.0000      -0.638675       -17.3792
  19   2.0000      -0.614261       -16.7149
  20   2.0000      -0.580058       -15.7842
  21   2.0000      -0.558469       -15.1967
  22   2.0000      -0.536456       -14.5977
  23   2.0000      -0.525001       -14.2860
  24   2.0000      -0.512625       -13.9492
  25   2.0000      -0.493101       -13.4180
  26   2.0000      -0.485206       -13.2031
  27   2.0000      -0.458934       -12.4882
  28   2.0000      -0.440896       -11.9974
  29   2.0000      -0.411437       -11.1958
  30   2.0000      -0.341486        -9.2923
  31   0.0000       0.134660         3.6643
  32   0.0000       0.152887         4.1603
  33   0.0000       0.160779         4.3750
  34   0.0000       0.167985         4.5711
  35   0.0000       0.195012         5.3065

MULLIKEN ATOMIC CHARGES
-----------------------
   0 C :   -0.341745
   1 N :   -0.224421
   2 C :   -0.038262
   3 C :   -0.218416
   4 C :   -0.227816
   5 C :    0.015572
   6 C :   -0.015490
   7 O :   -0.466587
   8 H :    0.128798
   9 H :    0.126349
  10 H :    0.134331
  11 H :    0.131714
  12 H :    0.111733
  13 H :    0.112343
  14 H :    0.114413
  15 H :    0.114122
  16 H :    0.130353
  17 H :    0.091727
  18 H :    0.321282
Sum of atomic charges:   -0.0000000

LOEWDIN ATOMIC CHARGES
----------------------
   0 C :   -0.344385
   1 N :    0.100100
   2 C :   -0.224340
   3 C :   -0.225341
   4 C :   -0.223547
   5 C :   -0.209951
   6 C :   -0.296549
   7 O :   -0.009352
   8 H :    0.116639
   9 H :    0.115166
  10 H :    0.105746
  11 H :    0.129832
  12 H :    0.129516
  13 H :    0.134096
  14 H :    0.130260
  15 H :    0.134420
  16 H :    0.135151
  17 H :    0.125731
  18 H :    0.176806

  Mayer bond orders larger than 0.1
B(  0-C ,  1-N ) :   0.9067 B(  0-C ,  8-H ) :   0.9403 B(  0-C ,  9-H ) :   0.9385
B(  0-C , 10-H ) :   0.9223 B(  1-N ,  2-C ) :   0.8825 B(  1-N ,  5-C ) :   0.8819
B(  2-C ,  3-C ) :   0.9146 B(  2-C ,  6-C ) :   0.8880 B(  2-C , 11-H ) :   0.9065
B(  3-C ,  4-C ) :   0.9845 B(  3-C , 12-H ) :   0.9271 B(  3-C , 13-H ) :   0.9101
B(  4-C ,  5-C ) :   0.9268 B(  4-C , 14-H ) :   0.9285 B(  4-C , 15-H ) :   0.9201
B(  5-C ,  6-C ) :   0.8800 B(  5-C , 16-H ) :   0.9089 B(  6-C ,  7-O ) :   1.0110
B(  6-C , 17-H ) :   0.9686 B(  7-O , 18-H ) :   0.8418

MP2 TOTAL ENERGY:     -364.406862634 Eh
FINAL SINGLE POINT ENERGY      -364.406862634251

DIPOLE MOMENT
-------------
                                X             Y             Z
Electronic contribution:     -0.29004       0.65570       2.16283
Nuclear contribution   :     -0.28850      -0.87554      -1.81008
                        -----------------------------------------
Total Dipole Moment    :     -0.57854      -0.21983       0.35275
                        -----------------------------------------
Magnitude (a.u.)       :      0.71236
Magnitude (Debye)      :      1.81068

                             ****ORCA TERMINATED NORMALLY****
TOTAL RUN TIME: 0 days 0 hours 13 minutes 26 seconds 913 msec
