                         Program Version 3.0.3 - RELEASE   -
|  1> ! RI-MP2 RIJK def2-TZVP def2-TZVP/C def2-TZVP/JK TIGHTSCF
|  2> % maxcore 2000
|  3> % mp2 density relaxed end
|  4> *xyz 0 1
|  5>  N       -0.4025046351     1.2759189342    -0.0358395918
|  6>  C       -0.0399325490    -0.0437728523    -0.0699175314
|  7>  O        1.0888908260    -0.4474651920    -0.2381110466
|  8>  O       -1.1218987931    -0.8252680207     0.1512802855
|  9>  C       -0.8563941063    -2.2572887499     0.2125100600
| 10>  C       -2.1053453594    -2.9513243094     0.7904465225
| 11>  C       -2.8380514825    -3.5910682170    -0.4164024896
| 12>  C       -1.7991894619    -3.5497805439    -1.5096738879
| 13>  C       -0.7222622229    -2.8437603767    -1.1698397987
| 14>  H        0.2695916521     1.9255673406    -0.4063985844
| 15>  H       -1.3773058132     1.5086997907    -0.1220220188
| 16>  H        0.0393172499    -2.3858050007     0.8233227959
| 17>  H       -1.7877622148    -3.7301501298     1.4890750762
| 18>  H       -2.7205039076    -2.2415810401     1.3469602142
| 19>  H       -3.1758588778    -4.6106255852    -0.1990214347
| 20>  H       -3.7347970012    -3.0292667501    -0.7100494350
| 21>  H       -1.9473433973    -4.0366650605    -2.4680133948
| 22>  H        0.1456634741    -2.6475987073    -1.7857196708
| 23> *
| 24>
| 25>                          ****END OF INPUT****

CARTESIAN COORDINATES (ANGSTROEM)
---------------------------------
  N     -0.402505    1.275919   -0.035840
  C     -0.039933   -0.043773   -0.069918
  O      1.088891   -0.447465   -0.238111
  O     -1.121899   -0.825268    0.151280
  C     -0.856394   -2.257289    0.212510
  C     -2.105345   -2.951324    0.790447
  C     -2.838051   -3.591068   -0.416402
  C     -1.799189   -3.549781   -1.509674
  C     -0.722262   -2.843760   -1.169840
  H      0.269592    1.925567   -0.406399
  H     -1.377306    1.508700   -0.122022
  H      0.039317   -2.385805    0.823323
  H     -1.787762   -3.730150    1.489075
  H     -2.720504   -2.241581    1.346960
  H     -3.175859   -4.610626   -0.199021
  H     -3.734797   -3.029267   -0.710049
  H     -1.947343   -4.036665   -2.468013
  H      0.145663   -2.647599   -1.785720

 Total Charge           Charge          ....    0
 Multiplicity           Mult            ....    1
 Number of Electrons    NEL             ....   68
 Basis Dimension        Dim             ....  333

ORBITAL ENERGIES
----------------

  NO   OCC          E(Eh)            E(eV)
   0   2.0000     -20.592404      -560.3478
   1   2.0000     -20.521440      -558.4168
   2   2.0000     -15.581713      -424.0000
   3   2.0000     -11.397742      -310.1483
   4   2.0000     -11.291176      -307.2485
   5   2.0000     -11.234709      -305.7120
   6   2.0000     -11.231157      -305.6153
   7   2.0000     -11.227817      -305.5244
   8   2.0000     -11.222156      -305.3704
   9   2.0000      -1.455405       -39.6036
  10   2.0000      -1.350110       -36.7384
  11   2.0000      -1.213591       -33.0235
  12   2.0000      -1.133753       -30.8510
  13   2.0000      -0.977523       -26.5997
  14   2.0000      -0.965974       -26.2855
  15   2.0000      -0.836573       -22.7643
  16   2.0000      -0.783010       -21.3068
  17   2.0000      -0.752015       -20.4634
  18   2.0000      -0.730243       -19.8709
  19   2.0000      -0.704028       -19.1576
  20   2.0000      -0.680596       -18.5200
  21   2.0000      -0.649036       -17.6612
  22   2.0000      -0.637728       -17.3535
  23   2.0000      -0.607881       -16.5413
  24   2.0000      -0.565632       -15.3916
  25   2.0000      -0.549881       -14.9630
  26   2.0000      -0.520679       -14.1684
  27   2.0000      -0.509124       -13.8540
  28   2.0000      -0.498383       -13.5617
  29   2.0000      -0.484559       -13.1855
  30   2.0000      -0.460467       -12.5299
  31   2.0000      -0.446611       -12.1529
  32   2.0000      -0.427294       -11.6273
  33   2.0000      -0.361276        -9.8308
  34   0.0000       0.130772         3.5585
  35   0.0000       0.146206         3.9785
  36   0.0000       0.155122         4.2211
  37   0.0000       0.171748         4.6735
  38   0.0000       0.182393         4.9632

MULLIKEN ATOMIC CHARGES
-----------------------
   0 N :   -0.510526
   1 C :    0.414934
   2 O :   -0.388858
   3 O :   -0.299097
   4 C :    0.162924
   5 C :   -0.236977
   6 C :   -0.182623
   7 C :   -0.137382
   8 C :   -0.253546
   9 H :    0.267517
  10 H :    0.265781
  11 H :    0.116216
  12 H :    0.123727
  13 H :    0.131668
  14 H :    0.122380
  15 H :    0.117896
  16 H :    0.131013
  17 H :    0.154953
Sum of atomic charges:   -0.0000000

LOEWDIN ATOMIC CHARGES
----------------------
   0 N :   -0.039085
   1 C :   -0.615563
   2 O :    0.069805
   3 O :    0.241130
   4 C :   -0.250959
   5 C :   -0.215015
   6 C :   -0.240674
   7 C :   -0.145349
   8 C :   -0.145339
   9 H :    0.176518
  10 H :    0.173431
  11 H :    0.146558
  12 H :    0.142524
  13 H :    0.140295
  14 H :    0.138101
  15 H :    0.141324
  16 H :    0.137925
  17 H :    0.144374

  Mayer bond orders larger than 0.1
B(  0-N ,  1-C ) :   1.1583 B(  0-N ,  9-H ) :   0.8672 B(  0-N , 10-H ) :   0.8650
B(  1-C ,  2-O ) :   1.9074 B(  1-C ,  3-O ) :   1.0956 B(  3-O ,  4-C ) :   0.8095
B(  4-C ,  5-C ) :   0.8795 B(  4-C ,  8-C ) :   0.9479 B(  4-C , 11-H ) :   0.9497
B(  5-C ,  6-C ) :   0.9677 B(  5-C , 12-H ) :   0.9303 B(  5-C , 13-H ) :   0.9334
B(  6-C ,  7-C ) :   0.9366 B(  6-C , 14-H ) :   0.9290 B(  6-C , 15-H ) :   0.9061
B(  7-C ,  8-C ) :   1.7556 B(  7-C , 16-H ) :   0.9266 B(  8-C , 17-H ) :   0.9238

MP2 TOTAL ENERGY:     -438.422593106 Eh
FINAL SINGLE POINT ENERGY      -438.422593105914

DIPOLE MOMENT
-------------
                                X             Y             Z
Electronic contribution:      4.33551       4.60044      -0.25050
Nuclear contribution   :     -5.33960      -4.40505       0.08736
                        -----------------------------------------
Total Dipole Moment    :     -1.00409       0.19539      -0.16313
                        -----------------------------------------
Magnitude (a.u.)       :      1.03585
Magnitude (Debye)      :      2.63292

                             ****ORCA TERMINATED NORMALLY****
TOTAL RUN TIME: 0 days 0 hours 16 minutes 25 seconds 287 msec
