                         Program Version 3.0.3 - RELEASE   -
|  1> ! RI-MP2 RIJK def2-TZVP def2-TZVP/C def2-TZVP/JK TIGHTSCF
|  2> % maxcore 2000
|  3> % mp2 density relaxed end
|  4> *xyz 0 1
|  5>  C        0.0768197224     1.4042995181     0.0985304561
|  6>  C        0.0287187462    -0.0489641765     0.0215105804
|  7>  C        0.0022653227    -1.2508448322    -0.0430945580
|  8>  C       -0.0659658926    -2.7048809900    -0.1177334470
|  9>  C       -1.5020873579    -3.2247935412     0.0023948083
| 10>  O       -1.4613229987    -4.6331219687    -0.0862167263
| 11>  C       -2.7298286518    -5.2535386423     0.0253907008
| 12>  C       -2.4809150098    -6.7532672510     0.0606154324
| 13>  O       -1.6599820273    -7.1130008454     1.1534611768
| 14>  H        0.8330182149     1.7403081034     0.8166576436
| 15>  H        0.3224610929     1.8479931704    -0.8726727412
| 16>  H       -0.8866601440     1.8179972249     0.4163896647
| 17>  H        0.3543766600    -3.0625498863    -1.0656685429
| 18>  H        0.5362940047    -3.1594475468     0.6787256748
| 19>  H       -1.9419868097    -2.9066313815     0.9603420992
| 20>  H       -2.1240501982    -2.8030494493    -0.8022768860
| 21>  H       -3.2291739648    -4.9332561787     0.9537068765
| 22>  H       -3.3765127095    -4.9822210509    -0.8251284367
| 23>  H       -3.4316989044    -7.2834427713     0.1780167584
| 24>  H       -2.0360224372    -7.0645109483    -0.8982071923
| 25>  H       -0.9077934079    -6.5101606964     1.1210515583
| 26> *
| 27>
| 28>                          ****END OF INPUT****

CARTESIAN COORDINATES (ANGSTROEM)
---------------------------------
  C      0.076820    1.404300    0.098530
  C      0.028719   -0.048964    0.021511
  C      0.002265   -1.250845   -0.043095
  C     -0.065966   -2.704881   -0.117733
  C     -1.502087   -3.224794    0.002395
  O     -1.461323   -4.633122   -0.086217
  C     -2.729829   -5.253539    0.025391
  C     -2.480915   -6.753267    0.060615
  O     -1.659982   -7.113001    1.153461
  H      0.833018    1.740308    0.816658
  H      0.322461    1.847993   -0.872673
  H     -0.886660    1.817997    0.416390
  H      0.354377   -3.062550   -1.065669
  H      0.536294   -3.159448    0.678726
  H     -1.941987   -2.906631    0.960342
  H     -2.124050   -2.803049   -0.802277
  H     -3.229174   -4.933256    0.953707
  H     -3.376513   -4.982221   -0.825128
  H     -3.431699   -7.283443    0.178017
  H     -2.036022   -7.064511   -0.898207
  H     -0.907793   -6.510161    1.121052

 Total Charge           Charge          ....    0
 Multiplicity           Mult            ....    1
 Number of Electrons    NEL             ....   70
 Basis Dimension        Dim             ....  351

ORBITAL ENERGIES
----------------

  NO   OCC          E(Eh)            E(eV)
   0   2.0000     -20.568050      -559.6851
   1   2.0000     -20.548535      -559.1541
   2   2.0000     -11.287351      -307.1444
   3   2.0000     -11.281548      -306.9865
   4   2.0000     -11.274153      -306.7853
   5   2.0000     -11.250925      -306.1532
   6   2.0000     -11.247581      -306.0622
   7   2.0000     -11.224772      -305.4416
   8   2.0000     -11.219554      -305.2996
   9   2.0000      -1.393814       -37.9276
  10   2.0000      -1.351796       -36.7842
  11   2.0000      -1.085150       -29.5284
  12   2.0000      -1.039399       -28.2835
  13   2.0000      -0.996098       -27.1052
  14   2.0000      -0.938464       -25.5369
  15   2.0000      -0.862573       -23.4718
  16   2.0000      -0.834996       -22.7214
  17   2.0000      -0.699582       -19.0366
  18   2.0000      -0.690909       -18.8006
  19   2.0000      -0.685547       -18.6547
  20   2.0000      -0.644380       -17.5345
  21   2.0000      -0.634826       -17.2745
  22   2.0000      -0.603495       -16.4219
  23   2.0000      -0.599747       -16.3199
  24   2.0000      -0.587578       -15.9888
  25   2.0000      -0.585587       -15.9346
  26   2.0000      -0.572166       -15.5694
  27   2.0000      -0.561067       -15.2674
  28   2.0000      -0.523279       -14.2391
  29   2.0000      -0.499142       -13.5824
  30   2.0000      -0.489471       -13.3192
  31   2.0000      -0.440201       -11.9785
  32   2.0000      -0.436809       -11.8862
  33   2.0000      -0.370658       -10.0861
  34   2.0000      -0.369170       -10.0456
  35   0.0000       0.131059         3.5663
  36   0.0000       0.143702         3.9103
  37   0.0000       0.155056         4.2193
  38   0.0000       0.170043         4.6271
  39   0.0000       0.177793         4.8380

MULLIKEN ATOMIC CHARGES
-----------------------
   0 C :   -0.476835
   1 C :    0.023274
   2 C :   -0.063120
   3 C :   -0.257592
   4 C :   -0.051670
   5 O :   -0.318175
   6 C :   -0.091088
   7 C :    0.010983
   8 O :   -0.487210
   9 H :    0.162063
  10 H :    0.161443
  11 H :    0.160545
  12 H :    0.143332
  13 H :    0.140371
  14 H :    0.104856
  15 H :    0.103666
  16 H :    0.104942
  17 H :    0.098637
  18 H :    0.108349
  19 H :    0.097599
  20 H :    0.325630
Sum of atomic charges:    0.0000000

LOEWDIN ATOMIC CHARGES
----------------------
   0 C :   -0.295562
   1 C :   -0.107496
   2 C :   -0.091365
   3 C :   -0.250891
   4 C :   -0.311385
   5 O :    0.147690
   6 C :   -0.338120
   7 C :   -0.354194
   8 O :   -0.049512
   9 H :    0.140847
  10 H :    0.140470
  11 H :    0.140378
  12 H :    0.156960
  13 H :    0.155861
  14 H :    0.123650
  15 H :    0.123938
  16 H :    0.122207
  17 H :    0.121956
  18 H :    0.129664
  19 H :    0.118990
  20 H :    0.175914

  Mayer bond orders larger than 0.1
B(  0-C ,  1-C ) :   0.8613 B(  0-C ,  9-H ) :   0.9482 B(  0-C , 10-H ) :   0.9476
B(  0-C , 11-H ) :   0.9453 B(  1-C ,  2-C ) :   2.6964 B(  2-C ,  3-C ) :   0.9886
B(  3-C ,  4-C ) :   0.9593 B(  3-C , 12-H ) :   0.9261 B(  3-C , 13-H ) :   0.9253
B(  4-C ,  5-O ) :   0.9472 B(  4-C , 14-H ) :   0.9273 B(  4-C , 15-H ) :   0.9252
B(  5-O ,  6-C ) :   0.8937 B(  6-C ,  7-C ) :   0.9583 B(  6-C , 16-H ) :   0.9246
B(  6-C , 17-H ) :   0.9174 B(  7-C ,  8-O ) :   0.9341 B(  7-C , 18-H ) :   0.9245
B(  7-C , 19-H ) :   0.9318 B(  8-O , 20-H ) :   0.8321

MP2 TOTAL ENERGY:     -423.477049775 Eh
FINAL SINGLE POINT ENERGY      -423.477049775197

DIPOLE MOMENT
-------------
                                X             Y             Z
Electronic contribution:      1.80945      -2.65101       0.60681
Nuclear contribution   :     -2.08696       3.55685      -0.97692
                        -----------------------------------------
Total Dipole Moment    :     -0.27752       0.90585      -0.37011
                        -----------------------------------------
Magnitude (a.u.)       :      1.01713
Magnitude (Debye)      :      2.58534

                             ****ORCA TERMINATED NORMALLY****
TOTAL RUN TIME: 0 days 0 hours 14 minutes 2 seconds 878 msec
