                         Program Version 3.0.3 - RELEASE   -
|  1> ! RI-MP2 RIJK def2-TZVP def2-TZVP/C def2-TZVP/JK TIGHTSCF
|  2> % maxcore 2000
|  3> % mp2 density relaxed end
|  4> *xyz 0 1
|  5>  C       -0.3437400608     1.5210958360    -0.0409322451
|  6>  C       -0.1392295491     0.0381123719    -0.0474629552
|  7>  C        0.0071866595    -0.7426302285    -1.1238951081
|  8>  C        0.2349846985    -2.1897314392    -0.7749595137
|  9>  O        1.5791233237    -2.6060412418    -1.0442852624
| 10>  C       -0.1510577204    -2.2407925787     0.7263252844
| 11>  C       -0.0867038718    -0.7786837282     1.2383052216
| 12>  C        1.1694670109    -0.5278236047     2.0818971832
| 13>  O        1.1561714598     0.8076678181     2.5637312996
| 14>  H       -0.3452112928     1.9299308859    -1.0550909472
| 15>  H       -1.2997726821     1.7772818245     0.4333803908
| 16>  H        0.4313510059     2.0166866638     0.5503523722
| 17>  H        0.0283440020    -0.3876392991    -2.1493492507
| 18>  H       -0.3786744921    -2.8787866265    -1.3646975525
| 19>  H        2.1535593490    -1.8678929779    -0.8139446693
| 20>  H       -1.1714872169    -2.6213380164     0.8293702400
| 21>  H        0.5098906433    -2.9237645524     1.2677873987
| 22>  H       -0.9451241462    -0.5402069485     1.8789169173
| 23>  H        1.1803670618    -1.2455827895     2.9170814695
| 24>  H        2.0657187321    -0.7241010317     1.4696983901
| 25>  H        1.9378796557     0.9413400928     3.1075775969
| 26> *
| 27>
| 28>                          ****END OF INPUT****

CARTESIAN COORDINATES (ANGSTROEM)
---------------------------------
  C     -0.343740    1.521096   -0.040932
  C     -0.139230    0.038112   -0.047463
  C      0.007187   -0.742630   -1.123895
  C      0.234985   -2.189731   -0.774960
  O      1.579123   -2.606041   -1.044285
  C     -0.151058   -2.240793    0.726325
  C     -0.086704   -0.778684    1.238305
  C      1.169467   -0.527824    2.081897
  O      1.156171    0.807668    2.563731
  H     -0.345211    1.929931   -1.055091
  H     -1.299773    1.777282    0.433380
  H      0.431351    2.016687    0.550352
  H      0.028344   -0.387639   -2.149349
  H     -0.378674   -2.878787   -1.364698
  H      2.153559   -1.867893   -0.813945
  H     -1.171487   -2.621338    0.829370
  H      0.509891   -2.923765    1.267787
  H     -0.945124   -0.540207    1.878917
  H      1.180367   -1.245583    2.917081
  H      2.065719   -0.724101    1.469698
  H      1.937880    0.941340    3.107578

 Total Charge           Charge          ....    0
 Multiplicity           Mult            ....    1
 Number of Electrons    NEL             ....   70
 Basis Dimension        Dim             ....  351

ORBITAL ENERGIES
----------------

  NO   OCC          E(Eh)            E(eV)
   0   2.0000     -20.563333      -559.5567
   1   2.0000     -20.546095      -559.0877
   2   2.0000     -11.283601      -307.0424
   3   2.0000     -11.275593      -306.8245
   4   2.0000     -11.238079      -305.8037
   5   2.0000     -11.233809      -305.6875
   6   2.0000     -11.219675      -305.3029
   7   2.0000     -11.215521      -305.1898
   8   2.0000     -11.213290      -305.1291
   9   2.0000      -1.368353       -37.2348
  10   2.0000      -1.350628       -36.7524
  11   2.0000      -1.137229       -30.9456
  12   2.0000      -1.012971       -27.5643
  13   2.0000      -0.990730       -26.9591
  14   2.0000      -0.914570       -24.8867
  15   2.0000      -0.867030       -23.5931
  16   2.0000      -0.788279       -21.4502
  17   2.0000      -0.717783       -19.5319
  18   2.0000      -0.700993       -19.0750
  19   2.0000      -0.688352       -18.7310
  20   2.0000      -0.644599       -17.5404
  21   2.0000      -0.631550       -17.1853
  22   2.0000      -0.598603       -16.2888
  23   2.0000      -0.582568       -15.8525
  24   2.0000      -0.563275       -15.3275
  25   2.0000      -0.559916       -15.2361
  26   2.0000      -0.545255       -14.8371
  27   2.0000      -0.530806       -14.4440
  28   2.0000      -0.509401       -13.8615
  29   2.0000      -0.488832       -13.3018
  30   2.0000      -0.472801       -12.8656
  31   2.0000      -0.469266       -12.7694
  32   2.0000      -0.444328       -12.0908
  33   2.0000      -0.426126       -11.5955
  34   2.0000      -0.347281        -9.4500
  35   0.0000       0.126488         3.4419
  36   0.0000       0.143702         3.9103
  37   0.0000       0.148149         4.0313
  38   0.0000       0.163563         4.4508
  39   0.0000       0.172314         4.6889

MULLIKEN ATOMIC CHARGES
-----------------------
   0 C :   -0.428279
   1 C :    0.019214
   2 C :   -0.245528
   3 C :    0.103367
   4 O :   -0.466707
   5 C :   -0.244914
   6 C :    0.025823
   7 C :   -0.102950
   8 O :   -0.474133
   9 H :    0.130132
  10 H :    0.135720
  11 H :    0.159246
  12 H :    0.125553
  13 H :    0.101447
  14 H :    0.305759
  15 H :    0.123878
  16 H :    0.126725
  17 H :    0.099788
  18 H :    0.107655
  19 H :    0.080328
  20 H :    0.317875
Sum of atomic charges:   -0.0000000

LOEWDIN ATOMIC CHARGES
----------------------
   0 C :   -0.271211
   1 C :   -0.154903
   2 C :   -0.137568
   3 C :   -0.317473
   4 O :   -0.034369
   5 C :   -0.198469
   6 C :   -0.208216
   7 C :   -0.325062
   8 O :   -0.043822
   9 H :    0.127341
  10 H :    0.133705
  11 H :    0.135625
  12 H :    0.139398
  13 H :    0.141186
  14 H :    0.166553
  15 H :    0.141957
  16 H :    0.140038
  17 H :    0.157492
  18 H :    0.120003
  19 H :    0.114608
  20 H :    0.173185

  Mayer bond orders larger than 0.1
B(  0-C ,  1-C ) :   0.9105 B(  0-C ,  9-H ) :   0.9468 B(  0-C , 10-H ) :   0.9303
B(  0-C , 11-H ) :   0.9188 B(  1-C ,  2-C ) :   1.6909 B(  1-C ,  6-C ) :   0.9191
B(  2-C ,  3-C ) :   0.9696 B(  2-C , 12-H ) :   0.9377 B(  3-C ,  4-O ) :   0.9374
B(  3-C ,  5-C ) :   0.9095 B(  3-C , 13-H ) :   0.9434 B(  4-O , 14-H ) :   0.8450
B(  5-C ,  6-C ) :   0.8911 B(  5-C , 15-H ) :   0.9166 B(  5-C , 16-H ) :   0.9399
B(  6-C ,  7-C ) :   0.8920 B(  6-C , 17-H ) :   0.9171 B(  7-C ,  8-O ) :   0.9997
B(  7-C , 18-H ) :   0.9279 B(  7-C , 19-H ) :   0.9223 B(  8-O , 20-H ) :   0.8458

MP2 TOTAL ENERGY:     -423.535922373 Eh
FINAL SINGLE POINT ENERGY      -423.535922372819

DIPOLE MOMENT
-------------
                                X             Y             Z
Electronic contribution:      1.20513      -1.76735      -1.11025
Nuclear contribution   :     -1.00505       2.17047       1.70953
                        -----------------------------------------
Total Dipole Moment    :      0.20008       0.40312       0.59928
                        -----------------------------------------
Magnitude (a.u.)       :      0.74945
Magnitude (Debye)      :      1.90495

                             ****ORCA TERMINATED NORMALLY****
TOTAL RUN TIME: 0 days 0 hours 31 minutes 41 seconds 75 msec
