                         Program Version 3.0.3 - RELEASE   -
|  1> ! RI-MP2 RIJK def2-TZVP def2-TZVP/C def2-TZVP/JK TIGHTSCF
|  2> % maxcore 2000
|  3> % mp2 density relaxed end
|  4> *xyz 0 1
|  5>  C        0.0809460675     1.5014808565     0.0103414871
|  6>  O        1.2135025682     0.6208377412    -0.0069168111
|  7>  C       -0.0948458687     0.0490578211     0.0139313740
|  8>  C       -0.4921330432    -0.8068147389     1.2311284237
|  9>  C       -1.0867857278    -2.0487846021     0.5325218191
| 10>  C       -0.1965027752    -2.1993302730    -0.7114547604
| 11>  C       -0.5342112792    -0.7716816641    -1.1981424209
| 12>  C       -2.0724460173    -0.8427522459    -1.1591428417
| 13>  O       -2.3597436017    -1.6791080393    -0.0219641604
| 14>  H       -0.0560124404     2.0671976646     0.9313615729
| 15>  H       -0.0811112990     2.0691327312    -0.9060764661
| 16>  H        0.3952643648    -1.0467353698     1.8251547179
| 17>  H       -1.2302762708    -0.3255993481     1.8768702515
| 18>  H       -1.2324529617    -2.9223732244     1.1675917391
| 19>  H        0.8633877593    -2.3346563369    -0.4840197493
| 20>  H       -0.5409742730    -2.9889046064    -1.3830811381
| 21>  H       -0.1103778929    -0.4353347688    -2.1438735500
| 22>  H       -2.5420090994     0.1395093391    -1.0257309673
| 23>  H       -2.4845853295    -1.3042141560    -2.0656265899
| 24> *
| 25>
| 26>                          ****END OF INPUT****

CARTESIAN COORDINATES (ANGSTROEM)
---------------------------------
  C      0.080946    1.501481    0.010341
  O      1.213503    0.620838   -0.006917
  C     -0.094846    0.049058    0.013931
  C     -0.492133   -0.806815    1.231128
  C     -1.086786   -2.048785    0.532522
  C     -0.196503   -2.199330   -0.711455
  C     -0.534211   -0.771682   -1.198142
  C     -2.072446   -0.842752   -1.159143
  O     -2.359744   -1.679108   -0.021964
  H     -0.056012    2.067198    0.931362
  H     -0.081111    2.069133   -0.906076
  H      0.395264   -1.046735    1.825155
  H     -1.230276   -0.325599    1.876870
  H     -1.232453   -2.922373    1.167592
  H      0.863388   -2.334656   -0.484020
  H     -0.540974   -2.988905   -1.383081
  H     -0.110378   -0.435335   -2.143874
  H     -2.542009    0.139509   -1.025731
  H     -2.484585   -1.304214   -2.065627

 Total Charge           Charge          ....    0
 Multiplicity           Mult            ....    1
 Number of Electrons    NEL             ....   68
 Basis Dimension        Dim             ....  339

ORBITAL ENERGIES
----------------

  NO   OCC          E(Eh)            E(eV)
   0   2.0000     -20.565306      -559.6104
   1   2.0000     -20.551421      -559.2326
   2   2.0000     -11.292726      -307.2907
   3   2.0000     -11.283502      -307.0397
   4   2.0000     -11.282372      -307.0090
   5   2.0000     -11.278312      -306.8985
   6   2.0000     -11.240554      -305.8710
   7   2.0000     -11.228748      -305.5498
   8   2.0000     -11.227833      -305.5249
   9   2.0000      -1.411123       -38.3986
  10   2.0000      -1.377243       -37.4767
  11   2.0000      -1.115740       -30.3608
  12   2.0000      -1.017876       -27.6978
  13   2.0000      -0.963588       -26.2206
  14   2.0000      -0.905815       -24.6485
  15   2.0000      -0.848882       -23.0993
  16   2.0000      -0.799821       -21.7642
  17   2.0000      -0.743287       -20.2259
  18   2.0000      -0.712424       -19.3860
  19   2.0000      -0.689606       -18.7651
  20   2.0000      -0.646860       -17.6020
  21   2.0000      -0.641703       -17.4616
  22   2.0000      -0.604161       -16.4400
  23   2.0000      -0.574765       -15.6401
  24   2.0000      -0.557531       -15.1712
  25   2.0000      -0.543813       -14.7979
  26   2.0000      -0.523560       -14.2468
  27   2.0000      -0.511779       -13.9262
  28   2.0000      -0.504802       -13.7364
  29   2.0000      -0.486113       -13.2278
  30   2.0000      -0.464814       -12.6482
  31   2.0000      -0.431177       -11.7329
  32   2.0000      -0.424672       -11.5559
  33   2.0000      -0.408160       -11.1066
  34   0.0000       0.137374         3.7381
  35   0.0000       0.158725         4.3191
  36   0.0000       0.166252         4.5240
  37   0.0000       0.173879         4.7315
  38   0.0000       0.189317         5.1516

MULLIKEN ATOMIC CHARGES
-----------------------
   0 C :   -0.092686
   1 O :   -0.337139
   2 C :    0.068382
   3 C :   -0.248163
   4 C :    0.092317
   5 C :   -0.297683
   6 C :   -0.004601
   7 C :   -0.084400
   8 O :   -0.328359
   9 H :    0.118497
  10 H :    0.114925
  11 H :    0.129982
  12 H :    0.127730
  13 H :    0.126155
  14 H :    0.135936
  15 H :    0.128426
  16 H :    0.137801
  17 H :    0.105700
  18 H :    0.107179
Sum of atomic charges:    0.0000000

LOEWDIN ATOMIC CHARGES
----------------------
   0 C :   -0.241466
   1 O :    0.161096
   2 C :   -0.298119
   3 C :   -0.186033
   4 C :   -0.287514
   5 C :   -0.202176
   6 C :   -0.204238
   7 C :   -0.257768
   8 O :    0.152654
   9 H :    0.122132
  10 H :    0.121570
  11 H :    0.148243
  12 H :    0.144171
  13 H :    0.138640
  14 H :    0.146220
  15 H :    0.140778
  16 H :    0.153184
  17 H :    0.125168
  18 H :    0.123459

  Mayer bond orders larger than 0.1
B(  0-C ,  1-O ) :   0.9012 B(  0-C ,  2-C ) :   0.9697 B(  0-C ,  9-H ) :   0.9145
B(  0-C , 10-H ) :   0.9113 B(  1-O ,  2-C ) :   0.8844 B(  2-C ,  3-C ) :   0.9342
B(  2-C ,  6-C ) :   0.8755 B(  3-C ,  4-C ) :   0.9202 B(  3-C , 11-H ) :   0.9169
B(  3-C , 12-H ) :   0.9166 B(  4-C ,  5-C ) :   0.9440 B(  4-C ,  8-O ) :   0.9117
B(  4-C , 13-H ) :   0.9275 B(  5-C ,  6-C ) :   0.9152 B(  5-C , 14-H ) :   0.9177
B(  5-C , 15-H ) :   0.9228 B(  6-C ,  7-C ) :   0.9294 B(  6-C , 16-H ) :   0.9066
B(  7-C ,  8-O ) :   0.9415 B(  7-C , 17-H ) :   0.9194 B(  7-C , 18-H ) :   0.9220

MP2 TOTAL ENERGY:     -422.315577268 Eh
FINAL SINGLE POINT ENERGY      -422.315577267662

DIPOLE MOMENT
-------------
                                X             Y             Z
Electronic contribution:      0.63902       0.40777       0.52752
Nuclear contribution   :     -0.76727      -0.27749      -0.72326
                        -----------------------------------------
Total Dipole Moment    :     -0.12825       0.13028      -0.19574
                        -----------------------------------------
Magnitude (a.u.)       :      0.26783
Magnitude (Debye)      :      0.68078

                             ****ORCA TERMINATED NORMALLY****
TOTAL RUN TIME: 0 days 0 hours 18 minutes 6 seconds 934 msec
