                         Program Version 3.0.3 - RELEASE   -
|  1> ! RI-MP2 RIJK def2-TZVP def2-TZVP/C def2-TZVP/JK TIGHTSCF
|  2> % maxcore 2000
|  3> % mp2 density relaxed end
|  4> *xyz 0 1
|  5>  C        0.0758290330     1.3596998561    -0.0474052267
|  6>  O        0.0022184052    -0.0456953749     0.1092112249
|  7>  C       -1.2887412284    -0.5825016796     0.0305780408
|  8>  C       -2.0012643024    -0.6198949885    -1.3962717348
|  9>  C       -1.9988850001    -2.1470750914    -1.2839558992
| 10>  O       -0.6282370832    -2.5468052609    -1.1882091694
| 11>  C       -1.2846015087    -2.1288499277     0.0017450982
| 12>  C       -2.1850701785    -0.0791740411     1.0724413450
| 13>  C       -2.9131342398     0.3225182120     1.9411707907
| 14>  H        1.1341715339     1.6224681637     0.0058057244
| 15>  H       -0.3219198333     1.6806761225    -1.0208120665
| 16>  H       -0.4692528216     1.8872693995     0.7460856859
| 17>  H       -2.9881079481    -0.1561143702    -1.3886714719
| 18>  H       -1.3960891229    -0.2332154617    -2.2186424240
| 19>  H       -2.7076017088    -2.8657047237    -1.6759917696
| 20>  H       -1.2906339904    -2.7991438445     0.8525672064
| 21>  H       -3.5564046957     0.6780034403     2.7082744359
| 22> *
| 23>
| 24>                          ****END OF INPUT****

CARTESIAN COORDINATES (ANGSTROEM)
---------------------------------
  C      0.075829    1.359700   -0.047405
  O      0.002218   -0.045695    0.109211
  C     -1.288741   -0.582502    0.030578
  C     -2.001264   -0.619895   -1.396272
  C     -1.998885   -2.147075   -1.283956
  O     -0.628237   -2.546805   -1.188209
  C     -1.284602   -2.128850    0.001745
  C     -2.185070   -0.079174    1.072441
  C     -2.913134    0.322518    1.941171
  H      1.134172    1.622468    0.005806
  H     -0.321920    1.680676   -1.020812
  H     -0.469253    1.887269    0.746086
  H     -2.988108   -0.156114   -1.388671
  H     -1.396089   -0.233215   -2.218642
  H     -2.707602   -2.865705   -1.675992
  H     -1.290634   -2.799144    0.852567
  H     -3.556405    0.678003    2.708274

 Total Charge           Charge          ....    0
 Multiplicity           Mult            ....    1
 Number of Electrons    NEL             ....   66
 Basis Dimension        Dim             ....  327

ORBITAL ENERGIES
----------------

  NO   OCC          E(Eh)            E(eV)
   0   2.0000     -20.575089      -559.8766
   1   2.0000     -20.566775      -559.6504
   2   2.0000     -11.327187      -308.2284
   3   2.0000     -11.295374      -307.3628
   4   2.0000     -11.294015      -307.3258
   5   2.0000     -11.273344      -306.7633
   6   2.0000     -11.245909      -306.0167
   7   2.0000     -11.244138      -305.9686
   8   2.0000     -11.238418      -305.8129
   9   2.0000      -1.432697       -38.9857
  10   2.0000      -1.386713       -37.7344
  11   2.0000      -1.107555       -30.1381
  12   2.0000      -1.029803       -28.0224
  13   2.0000      -0.959620       -26.1126
  14   2.0000      -0.901632       -24.5346
  15   2.0000      -0.870360       -23.6837
  16   2.0000      -0.801430       -21.8080
  17   2.0000      -0.741845       -20.1866
  18   2.0000      -0.716669       -19.5016
  19   2.0000      -0.684900       -18.6371
  20   2.0000      -0.662481       -18.0270
  21   2.0000      -0.640592       -17.4314
  22   2.0000      -0.601403       -16.3650
  23   2.0000      -0.594788       -16.1850
  24   2.0000      -0.549546       -14.9539
  25   2.0000      -0.538859       -14.6631
  26   2.0000      -0.509989       -13.8775
  27   2.0000      -0.489368       -13.3164
  28   2.0000      -0.479552       -13.0493
  29   2.0000      -0.433999       -11.8097
  30   2.0000      -0.413710       -11.2576
  31   2.0000      -0.408011       -11.1026
  32   2.0000      -0.388484       -10.5712
  33   0.0000       0.143181         3.8961
  34   0.0000       0.153012         4.1637
  35   0.0000       0.155481         4.2309
  36   0.0000       0.164112         4.4657
  37   0.0000       0.168637         4.5888

MULLIKEN ATOMIC CHARGES
-----------------------
   0 C :   -0.224832
   1 O :   -0.286662
   2 C :    0.315054
   3 C :   -0.225880
   4 C :   -0.059275
   5 O :   -0.302258
   6 C :   -0.004916
   7 C :   -0.166397
   8 C :   -0.178774
   9 H :    0.145917
  10 H :    0.111477
  11 H :    0.130498
  12 H :    0.143083
  13 H :    0.120465
  14 H :    0.139844
  15 H :    0.148511
  16 H :    0.194145
Sum of atomic charges:    0.0000000

LOEWDIN ATOMIC CHARGES
----------------------
   0 C :   -0.337521
   1 O :    0.203066
   2 C :   -0.319956
   3 C :   -0.166832
   4 C :   -0.237729
   5 O :    0.195984
   6 C :   -0.198734
   7 C :   -0.065987
   8 C :   -0.079549
   9 H :    0.116047
  10 H :    0.103678
  11 H :    0.108962
  12 H :    0.141733
  13 H :    0.139295
  14 H :    0.131384
  15 H :    0.137045
  16 H :    0.129113

  Mayer bond orders larger than 0.1
B(  0-C ,  1-O ) :   0.8984 B(  0-C ,  9-H ) :   0.9401 B(  0-C , 10-H ) :   0.9279
B(  0-C , 11-H ) :   0.9318 B(  1-O ,  2-C ) :   0.9951 B(  2-C ,  3-C ) :   0.9414
B(  2-C ,  6-C ) :   0.7774 B(  2-C ,  7-C ) :   1.0378 B(  3-C ,  4-C ) :   0.9507
B(  3-C , 12-H ) :   0.9081 B(  3-C , 13-H ) :   0.8945 B(  4-C ,  5-O ) :   0.9549
B(  4-C ,  6-C ) :   0.9296 B(  4-C , 14-H ) :   0.9285 B(  5-O ,  6-C ) :   0.9233
B(  6-C , 15-H ) :   0.9219 B(  7-C ,  8-C ) :   2.6149 B(  8-C , 16-H ) :   0.8922

MP2 TOTAL ENERGY:     -421.014354634 Eh
FINAL SINGLE POINT ENERGY      -421.014354634186

DIPOLE MOMENT
-------------
                                X             Y             Z
Electronic contribution:      0.21001      -4.57766       1.07489
Nuclear contribution   :     -1.11690       5.14159      -0.94662
                        -----------------------------------------
Total Dipole Moment    :     -0.90689       0.56393       0.12827
                        -----------------------------------------
Magnitude (a.u.)       :      1.07560
Magnitude (Debye)      :      2.73396

                             ****ORCA TERMINATED NORMALLY****
TOTAL RUN TIME: 0 days 0 hours 17 minutes 16 seconds 89 msec
