                         Program Version 3.0.3 - RELEASE   -
|  1> ! RI-MP2 RIJK def2-TZVP def2-TZVP/C def2-TZVP/JK TIGHTSCF
|  2> % maxcore 2000
|  3> % mp2 density relaxed end
|  4> *xyz 0 1
|  5>  C       -0.2886797513     1.5235644021     0.1189621417
|  6>  C       -0.0103166808     0.0433717180     0.0096550031
|  7>  C       -1.2222122074    -0.9297186530     0.0402385696
|  8>  C       -0.5688948090    -1.7536413831     1.1865528668
|  9>  C        0.6715720755    -0.8104971476     1.1793938974
| 10>  C        1.7952980540    -1.2351841208     0.1868073147
| 11>  C        1.1222427072    -0.4156073195    -0.9511733457
| 12>  C        1.0768307592    -0.2336572381     2.4369835710
| 13>  N        1.3940473376     0.2530196215     3.4386433334
| 14>  H        0.6326854909     2.0941953894     0.2760154055
| 15>  H       -0.7586204183     1.8915752143    -0.8014311228
| 16>  H       -0.9649166730     1.7438575892     0.9516525469
| 17>  H       -2.1533655629    -0.4433566466     0.3412200398
| 18>  H       -1.4052034455    -1.4686295459    -0.8931530751
| 19>  H       -1.1273357611    -1.7160871270     2.1230588965
| 20>  H       -0.3345032765    -2.7978736099     0.9657906007
| 21>  H        2.7793038712    -0.8593510995     0.4710466847
| 22>  H        1.8687497961    -2.3147145256     0.0341148601
| 23>  H        0.7867705436    -0.9879722763    -1.8200740516
| 24>  H        1.7425810705     0.4109801285    -1.3063060467
| 25> *
| 26>
| 27>                          ****END OF INPUT****

CARTESIAN COORDINATES (ANGSTROEM)
---------------------------------
  C     -0.288680    1.523564    0.118962
  C     -0.010317    0.043372    0.009655
  C     -1.222212   -0.929719    0.040239
  C     -0.568895   -1.753641    1.186553
  C      0.671572   -0.810497    1.179394
  C      1.795298   -1.235184    0.186807
  C      1.122243   -0.415607   -0.951173
  C      1.076831   -0.233657    2.436984
  N      1.394047    0.253020    3.438643
  H      0.632685    2.094195    0.276015
  H     -0.758620    1.891575   -0.801431
  H     -0.964917    1.743858    0.951653
  H     -2.153366   -0.443357    0.341220
  H     -1.405203   -1.468630   -0.893153
  H     -1.127336   -1.716087    2.123059
  H     -0.334503   -2.797874    0.965791
  H      2.779304   -0.859351    0.471047
  H      1.868750   -2.314715    0.034115
  H      0.786771   -0.987972   -1.820074
  H      1.742581    0.410980   -1.306306

 Total Charge           Charge          ....    0
 Multiplicity           Mult            ....    1
 Number of Electrons    NEL             ....   66
 Basis Dimension        Dim             ....  345

ORBITAL ENERGIES
----------------

  NO   OCC          E(Eh)            E(eV)
   0   2.0000     -15.561036      -423.4373
   1   2.0000     -11.273350      -306.7634
   2   2.0000     -11.263454      -306.4942
   3   2.0000     -11.259147      -306.3770
   4   2.0000     -11.245897      -306.0164
   5   2.0000     -11.245880      -306.0160
   6   2.0000     -11.237257      -305.7813
   7   2.0000     -11.237237      -305.7808
   8   2.0000     -11.226507      -305.4888
   9   2.0000      -1.217046       -33.1175
  10   2.0000      -1.183958       -32.2171
  11   2.0000      -1.034379       -28.1469
  12   2.0000      -1.011348       -27.5202
  13   2.0000      -0.945800       -25.7365
  14   2.0000      -0.859702       -23.3937
  15   2.0000      -0.842633       -22.9292
  16   2.0000      -0.772305       -21.0155
  17   2.0000      -0.671335       -18.2680
  18   2.0000      -0.653546       -17.7839
  19   2.0000      -0.640974       -17.4418
  20   2.0000      -0.589999       -16.0547
  21   2.0000      -0.581859       -15.8332
  22   2.0000      -0.571842       -15.5606
  23   2.0000      -0.567426       -15.4404
  24   2.0000      -0.551345       -15.0029
  25   2.0000      -0.524078       -14.2609
  26   2.0000      -0.515414       -14.0251
  27   2.0000      -0.487828       -13.2745
  28   2.0000      -0.474060       -12.8998
  29   2.0000      -0.466558       -12.6957
  30   2.0000      -0.452273       -12.3070
  31   2.0000      -0.416388       -11.3305
  32   2.0000      -0.398167       -10.8347
  33   0.0000       0.123562         3.3623
  34   0.0000       0.137804         3.7498
  35   0.0000       0.153929         4.1886
  36   0.0000       0.158089         4.3018
  37   0.0000       0.169152         4.6029

MULLIKEN ATOMIC CHARGES
-----------------------
   0 C :   -0.421334
   1 C :    0.106224
   2 C :   -0.249519
   3 C :   -0.242956
   4 C :    0.229291
   5 C :   -0.242941
   6 C :   -0.249519
   7 C :   -0.286915
   8 N :   -0.048505
   9 H :    0.140137
  10 H :    0.139442
  11 H :    0.140133
  12 H :    0.119419
  13 H :    0.117496
  14 H :    0.135997
  15 H :    0.120316
  16 H :    0.135999
  17 H :    0.120317
  18 H :    0.117496
  19 H :    0.119421
Sum of atomic charges:    0.0000000

LOEWDIN ATOMIC CHARGES
----------------------
   0 C :   -0.271221
   1 C :   -0.200959
   2 C :   -0.189210
   3 C :   -0.171413
   4 C :   -0.185001
   5 C :   -0.171405
   6 C :   -0.189207
   7 C :   -0.161702
   8 N :    0.059309
   9 H :    0.131880
  10 H :    0.132651
  11 H :    0.131879
  12 H :    0.136771
  13 H :    0.130975
  14 H :    0.141205
  15 H :    0.133247
  16 H :    0.141208
  17 H :    0.133247
  18 H :    0.130975
  19 H :    0.136771

  Mayer bond orders larger than 0.1
B(  0-C ,  1-C ) :   0.8705 B(  0-C ,  9-H ) :   0.9379 B(  0-C , 10-H ) :   0.9362
B(  0-C , 11-H ) :   0.9379 B(  1-C ,  2-C ) :   0.9392 B(  1-C ,  4-C ) :   0.8283
B(  1-C ,  6-C ) :   0.9392 B(  2-C ,  3-C ) :   0.9996 B(  2-C , 12-H ) :   0.9118
B(  2-C , 13-H ) :   0.9138 B(  3-C ,  4-C ) :   0.8952 B(  3-C , 14-H ) :   0.9089
B(  3-C , 15-H ) :   0.9131 B(  4-C ,  5-C ) :   0.8952 B(  4-C ,  7-C ) :   0.9288
B(  5-C ,  6-C ) :   0.9996 B(  5-C , 16-H ) :   0.9089 B(  5-C , 17-H ) :   0.9131
B(  6-C , 18-H ) :   0.9138 B(  6-C , 19-H ) :   0.9118 B(  7-C ,  8-N ) :   2.8801

MP2 TOTAL ENERGY:     -365.349891775 Eh
FINAL SINGLE POINT ENERGY      -365.349891775082

DIPOLE MOMENT
-------------
                                X             Y             Z
Electronic contribution:      2.86277      -0.31068       6.60845
Nuclear contribution   :     -3.38354      -0.19047      -8.09945
                        -----------------------------------------
Total Dipole Moment    :     -0.52076      -0.50115      -1.49099
                        -----------------------------------------
Magnitude (a.u.)       :      1.65693
Magnitude (Debye)      :      4.21157

                             ****ORCA TERMINATED NORMALLY****
TOTAL RUN TIME: 0 days 0 hours 18 minutes 7 seconds 725 msec
