                         Program Version 3.0.3 - RELEASE   -
|  1> ! RI-MP2 RIJK def2-TZVP def2-TZVP/C def2-TZVP/JK TIGHTSCF
|  2> % maxcore 2000
|  3> % mp2 density relaxed end
|  4> *xyz 0 1
|  5>  O        0.1047228737     1.2517948898     0.4188226686
|  6>  C       -0.0250374183     0.0299995176    -0.2916611119
|  7>  C       -1.3856164054    -0.5871884999    -0.1763349056
|  8>  O       -2.4132541413    -0.3228038292    -1.1446914842
|  9>  C       -2.9133197322    -1.6888878131    -1.0480861616
| 10>  C       -1.9541101696    -1.9814087464     0.0833338354
| 11>  O       -1.3976055393    -3.2152989185     0.3200229407
| 12>  C       -2.0644190660    -0.8980468999     1.1375783049
| 13>  O       -1.1370950433    -1.0689106402     2.1887534767
| 14>  H       -0.0372826124     1.0441852825     1.3491462295
| 15>  H        0.1693312259     0.2559155427    -1.3441443380
| 16>  H        0.7249597708    -0.7050861264     0.0362020917
| 17>  H       -3.9874620679    -1.7263190586    -0.8335778753
| 18>  H       -2.6918559008    -2.2517613170    -1.9618916711
| 19>  H       -0.8879527969    -3.1337179960     1.1373880706
| 20>  H       -3.0020712569    -0.4064603104     1.4027412273
| 21>  H       -1.5895867999    -1.5015133169     2.9208951426
| 22> *
| 23>
| 24>                          ****END OF INPUT****

CARTESIAN COORDINATES (ANGSTROEM)
---------------------------------
  O      0.104723    1.251795    0.418823
  C     -0.025037    0.030000   -0.291661
  C     -1.385616   -0.587188   -0.176335
  O     -2.413254   -0.322804   -1.144691
  C     -2.913320   -1.688888   -1.048086
  C     -1.954110   -1.981409    0.083334
  O     -1.397606   -3.215299    0.320023
  C     -2.064419   -0.898047    1.137578
  O     -1.137095   -1.068911    2.188753
  H     -0.037283    1.044185    1.349146
  H      0.169331    0.255916   -1.344144
  H      0.724960   -0.705086    0.036202
  H     -3.987462   -1.726319   -0.833578
  H     -2.691856   -2.251761   -1.961892
  H     -0.887953   -3.133718    1.137388
  H     -3.002071   -0.406460    1.402741
  H     -1.589587   -1.501513    2.920895

 Total Charge           Charge          ....    0
 Multiplicity           Mult            ....    1
 Number of Electrons    NEL             ....   70
 Basis Dimension        Dim             ....  327

ORBITAL ENERGIES
----------------

  NO   OCC          E(Eh)            E(eV)
   0   2.0000     -20.602486      -560.6221
   1   2.0000     -20.588346      -560.2374
   2   2.0000     -20.565192      -559.6073
   3   2.0000     -20.552696      -559.2673
   4   2.0000     -11.307819      -307.7014
   5   2.0000     -11.303778      -307.5914
   6   2.0000     -11.294130      -307.3289
   7   2.0000     -11.293834      -307.3208
   8   2.0000     -11.283605      -307.0425
   9   2.0000      -1.429269       -38.8924
  10   2.0000      -1.393767       -37.9263
  11   2.0000      -1.385987       -37.7146
  12   2.0000      -1.356550       -36.9136
  13   2.0000      -1.108481       -30.1633
  14   2.0000      -0.991848       -26.9896
  15   2.0000      -0.929114       -25.2825
  16   2.0000      -0.827356       -22.5135
  17   2.0000      -0.769506       -20.9393
  18   2.0000      -0.752958       -20.4890
  19   2.0000      -0.728516       -19.8239
  20   2.0000      -0.684190       -18.6178
  21   2.0000      -0.668529       -18.1916
  22   2.0000      -0.663188       -18.0463
  23   2.0000      -0.622978       -16.9521
  24   2.0000      -0.593663       -16.1544
  25   2.0000      -0.590699       -16.0737
  26   2.0000      -0.584003       -15.8915
  27   2.0000      -0.571943       -15.5634
  28   2.0000      -0.538613       -14.6564
  29   2.0000      -0.524243       -14.2654
  30   2.0000      -0.512001       -13.9323
  31   2.0000      -0.494348       -13.4519
  32   2.0000      -0.451976       -12.2989
  33   2.0000      -0.392462       -10.6794
  34   2.0000      -0.371781       -10.1167
  35   0.0000       0.106354         2.8940
  36   0.0000       0.159592         4.3427
  37   0.0000       0.161276         4.3885
  38   0.0000       0.169833         4.6214
  39   0.0000       0.195688         5.3249

MULLIKEN ATOMIC CHARGES
-----------------------
   0 O :   -0.476210
   1 C :   -0.012768
   2 C :    0.094007
   3 O :   -0.314415
   4 C :   -0.011006
   5 C :    0.094381
   6 O :   -0.445675
   7 C :   -0.020213
   8 O :   -0.496099
   9 H :    0.327261
  10 H :    0.130200
  11 H :    0.116915
  12 H :    0.111628
  13 H :    0.112758
  14 H :    0.331086
  15 H :    0.119131
  16 H :    0.339017
Sum of atomic charges:   -0.0000000

LOEWDIN ATOMIC CHARGES
----------------------
   0 O :   -0.042283
   1 C :   -0.307718
   2 C :   -0.263530
   3 O :    0.172607
   4 C :   -0.209233
   5 C :   -0.327405
   6 O :    0.042268
   7 C :   -0.268820
   8 O :   -0.009146
   9 H :    0.176472
  10 H :    0.143876
  11 H :    0.131280
  12 H :    0.122278
  13 H :    0.131329
  14 H :    0.188101
  15 H :    0.133853
  16 H :    0.186071

  Mayer bond orders larger than 0.1
B(  0-O ,  1-C ) :   0.9147 B(  0-O ,  9-H ) :   0.8409 B(  1-C ,  2-C ) :   0.9055
B(  1-C , 10-H ) :   0.9172 B(  1-C , 11-H ) :   0.9306 B(  2-C ,  3-O ) :   0.9905
B(  2-C ,  5-C ) :   0.8234 B(  2-C ,  7-C ) :   0.8302 B(  3-O ,  4-C ) :   0.9262
B(  4-C ,  5-C ) :   0.9850 B(  4-C , 12-H ) :   0.9175 B(  4-C , 13-H ) :   0.9023
B(  5-C ,  6-O ) :   1.0428 B(  5-C ,  7-C ) :   0.8670 B(  6-O , 14-H ) :   0.8190
B(  7-C ,  8-O ) :   0.9926 B(  7-C , 15-H ) :   0.9046 B(  8-O , 16-H ) :   0.8340

MP2 TOTAL ENERGY:     -495.272374071 Eh
FINAL SINGLE POINT ENERGY      -495.272374070949

DIPOLE MOMENT
-------------
                                X             Y             Z
Electronic contribution:     -0.53779      -0.09140       0.15119
Nuclear contribution   :      0.15147      -0.86878       0.97930
                        -----------------------------------------
Total Dipole Moment    :     -0.38632      -0.96018       1.13049
                        -----------------------------------------
Magnitude (a.u.)       :      1.53271
Magnitude (Debye)      :      3.89583

                             ****ORCA TERMINATED NORMALLY****
TOTAL RUN TIME: 0 days 0 hours 14 minutes 48 seconds 68 msec
