                         Program Version 3.0.3 - RELEASE   -
|  1> ! RI-MP2 RIJK def2-TZVP def2-TZVP/C def2-TZVP/JK TIGHTSCF
|  2> % maxcore 2000
|  3> % mp2 density relaxed end
|  4> *xyz 0 1
|  5>  N        0.0601730040     1.3733797193     0.1164112589
|  6>  C       -0.0084563115     0.0154447520     0.0431452760
|  7>  C       -1.1735233122    -0.7051259010     0.0187366571
|  8>  C       -1.2043261143    -2.1385497504    -0.0146083076
|  9>  O       -2.1661673667    -2.8622977148    -0.0348093068
| 10>  O        0.0664182871    -2.7678117373    -0.0270548355
| 11>  C        1.2063791098    -2.0550810893    -0.0119105660
| 12>  C        1.2414130693    -0.7106503725     0.0225238967
| 13>  O        2.3773305986     0.0575301329     0.0324658501
| 14>  H        0.9464392551     1.8105183595    -0.0720078224
| 15>  H       -0.7673352824     1.9150350526    -0.0652960766
| 16>  H       -2.1379470335    -0.2126185041     0.0292976894
| 17>  H        2.0928549300    -2.6810122030    -0.0329054034
| 18>  H        3.1546420768    -0.5084340339    -0.0101982100
| 19> *
| 20>
| 21>                          ****END OF INPUT****

CARTESIAN COORDINATES (ANGSTROEM)
---------------------------------
  N      0.060173    1.373380    0.116411
  C     -0.008456    0.015445    0.043145
  C     -1.173523   -0.705126    0.018737
  C     -1.204326   -2.138550   -0.014608
  O     -2.166167   -2.862298   -0.034809
  O      0.066418   -2.767812   -0.027055
  C      1.206379   -2.055081   -0.011911
  C      1.241413   -0.710650    0.022524
  O      2.377331    0.057530    0.032466
  H      0.946439    1.810518   -0.072008
  H     -0.767335    1.915035   -0.065296
  H     -2.137947   -0.212619    0.029298
  H      2.092855   -2.681012   -0.032905
  H      3.154642   -0.508434   -0.010198

 Total Charge           Charge          ....    0
 Multiplicity           Mult            ....    1
 Number of Electrons    NEL             ....   66
 Basis Dimension        Dim             ....  309

ORBITAL ENERGIES
----------------

  NO   OCC          E(Eh)            E(eV)
   0   2.0000     -20.618667      -561.0624
   1   2.0000     -20.617618      -561.0339
   2   2.0000     -20.515851      -558.2647
   3   2.0000     -15.600707      -424.5168
   4   2.0000     -11.373732      -309.4950
   5   2.0000     -11.332028      -308.3602
   6   2.0000     -11.324339      -308.1509
   7   2.0000     -11.317726      -307.9710
   8   2.0000     -11.228533      -305.5439
   9   2.0000      -1.461336       -39.7650
  10   2.0000      -1.432369       -38.9767
  11   2.0000      -1.356474       -36.9115
  12   2.0000      -1.263383       -34.3784
  13   2.0000      -1.092493       -29.7282
  14   2.0000      -1.033217       -28.1153
  15   2.0000      -0.909632       -24.7523
  16   2.0000      -0.865367       -23.5478
  17   2.0000      -0.791937       -21.5497
  18   2.0000      -0.753078       -20.4923
  19   2.0000      -0.725756       -19.7488
  20   2.0000      -0.681266       -18.5382
  21   2.0000      -0.658880       -17.9290
  22   2.0000      -0.652417       -17.7532
  23   2.0000      -0.633794       -17.2464
  24   2.0000      -0.616891       -16.7865
  25   2.0000      -0.609297       -16.5798
  26   2.0000      -0.584948       -15.9173
  27   2.0000      -0.537654       -14.6303
  28   2.0000      -0.528199       -14.3730
  29   2.0000      -0.503870       -13.7110
  30   2.0000      -0.438863       -11.9421
  31   2.0000      -0.378601       -10.3023
  32   2.0000      -0.318441        -8.6652
  33   0.0000       0.088626         2.4116
  34   0.0000       0.112370         3.0577
  35   0.0000       0.129365         3.5202
  36   0.0000       0.169873         4.6225
  37   0.0000       0.180707         4.9173

MULLIKEN ATOMIC CHARGES
-----------------------
   0 N :   -0.482522
   1 C :    0.233582
   2 C :   -0.341386
   3 C :    0.275366
   4 O :   -0.316852
   5 O :   -0.180320
   6 C :   -0.012080
   7 C :    0.147705
   8 O :   -0.459570
   9 H :    0.278607
  10 H :    0.259809
  11 H :    0.132521
  12 H :    0.126651
  13 H :    0.338489
Sum of atomic charges:   -0.0000000

LOEWDIN ATOMIC CHARGES
----------------------
   0 N :    0.002426
   1 C :   -0.221313
   2 C :   -0.142266
   3 C :   -0.450520
   4 O :    0.111599
   5 O :    0.314075
   6 C :   -0.241133
   7 C :   -0.280275
   8 O :    0.057837
   9 H :    0.180020
  10 H :    0.176013
  11 H :    0.156831
  12 H :    0.140415
  13 H :    0.196290

  Mayer bond orders larger than 0.1
B(  0-N ,  1-C ) :   1.1465 B(  0-N ,  9-H ) :   0.8569 B(  0-N , 10-H ) :   0.8694
B(  1-C ,  2-C ) :   1.3788 B(  1-C ,  7-C ) :   1.0515 B(  2-C ,  3-C ) :   1.1542
B(  2-C , 11-H ) :   0.9320 B(  3-C ,  4-O ) :   1.9907 B(  3-C ,  5-O ) :   0.9720
B(  5-O ,  6-C ) :   1.0823 B(  6-C ,  7-C ) :   1.5400 B(  6-C , 12-H ) :   0.9617
B(  7-C ,  8-O ) :   1.0581 B(  8-O , 13-H ) :   0.8293

MP2 TOTAL ENERGY:     -473.119323760 Eh
FINAL SINGLE POINT ENERGY      -473.119323759922

DIPOLE MOMENT
-------------
                                X             Y             Z
Electronic contribution:     -1.01609      -3.60055       0.00793
Nuclear contribution   :      2.74149       5.33056      -0.20509
                        -----------------------------------------
Total Dipole Moment    :      1.72541       1.73001      -0.19716
                        -----------------------------------------
Magnitude (a.u.)       :      2.45129
Magnitude (Debye)      :      6.23068

                             ****ORCA TERMINATED NORMALLY****
TOTAL RUN TIME: 0 days 0 hours 13 minutes 56 seconds 221 msec
