                         Program Version 3.0.3 - RELEASE   -
|  1> ! RI-MP2 RIJK def2-TZVP def2-TZVP/C def2-TZVP/JK TIGHTSCF
|  2> % maxcore 2000
|  3> % mp2 density relaxed end
|  4> *xyz 0 1
|  5>  N       -0.0155274270    -1.0996855314    -0.1306280979
|  6>  C       -0.0169027086     0.0564299635    -0.0676224943
|  7>  C        0.0078607350     1.4881326382     0.0006801828
|  8>  C        0.5413764348     2.1723814369     1.2585378193
|  9>  C        1.3509240774     2.2104865511     0.0122359468
| 10>  C        2.7551445162     1.6038751696    -0.1868997007
| 11>  C        3.1220110647     2.8495457607    -1.0114596897
| 12>  C        2.1838579959     3.0094189087    -2.1715672837
| 13>  C        1.7168399225     3.4317148069    -0.8026706778
| 14>  H       -0.8093510806     1.9785105710    -0.5183823931
| 15>  H        0.0205313718     3.0712206730     1.5721044034
| 16>  H        0.8701082922     1.5307657363     2.0689977196
| 17>  H        3.3057503501     1.5312248078     0.7541414993
| 18>  H        2.8088924791     0.6426112424    -0.7071746767
| 19>  H        4.0726253785     3.3648430710    -0.9654594999
| 20>  H        2.4159066529     3.8251169765    -2.8487713056
| 21>  H        1.7482919109     2.1371271803    -2.6533464867
| 22>  H        1.4186732644     4.4480086476    -0.5741118150
| 23> *
| 24>
| 25>                          ****END OF INPUT****

CARTESIAN COORDINATES (ANGSTROEM)
---------------------------------
  N     -0.015527   -1.099686   -0.130628
  C     -0.016903    0.056430   -0.067622
  C      0.007861    1.488133    0.000680
  C      0.541376    2.172381    1.258538
  C      1.350924    2.210487    0.012236
  C      2.755145    1.603875   -0.186900
  C      3.122011    2.849546   -1.011460
  C      2.183858    3.009419   -2.171567
  C      1.716840    3.431715   -0.802671
  H     -0.809351    1.978511   -0.518382
  H      0.020531    3.071221    1.572104
  H      0.870108    1.530766    2.068998
  H      3.305750    1.531225    0.754141
  H      2.808892    0.642611   -0.707175
  H      4.072625    3.364843   -0.965459
  H      2.415907    3.825117   -2.848771
  H      1.748292    2.137127   -2.653346
  H      1.418673    4.448009   -0.574112

 Total Charge           Charge          ....    0
 Multiplicity           Mult            ....    1
 Number of Electrons    NEL             ....   64
 Basis Dimension        Dim             ....  333

ORBITAL ENERGIES
----------------

  NO   OCC          E(Eh)            E(eV)
   0   2.0000     -15.561046      -423.4376
   1   2.0000     -11.277338      -306.8720
   2   2.0000     -11.271773      -306.7205
   3   2.0000     -11.268567      -306.6333
   4   2.0000     -11.258240      -306.3523
   5   2.0000     -11.249819      -306.1231
   6   2.0000     -11.248401      -306.0846
   7   2.0000     -11.242600      -305.9267
   8   2.0000     -11.240877      -305.8798
   9   2.0000      -1.229104       -33.4456
  10   2.0000      -1.206193       -32.8222
  11   2.0000      -1.144012       -31.1301
  12   2.0000      -0.977460       -26.5980
  13   2.0000      -0.911922       -24.8147
  14   2.0000      -0.867493       -23.6057
  15   2.0000      -0.808673       -22.0051
  16   2.0000      -0.749494       -20.3948
  17   2.0000      -0.713090       -19.4042
  18   2.0000      -0.704004       -19.1569
  19   2.0000      -0.642105       -17.4726
  20   2.0000      -0.607770       -16.5383
  21   2.0000      -0.581862       -15.8333
  22   2.0000      -0.570918       -15.5355
  23   2.0000      -0.546860       -14.8808
  24   2.0000      -0.535822       -14.5805
  25   2.0000      -0.500720       -13.6253
  26   2.0000      -0.494141       -13.4462
  27   2.0000      -0.479592       -13.0504
  28   2.0000      -0.455111       -12.3842
  29   2.0000      -0.426782       -11.6133
  30   2.0000      -0.408434       -11.1141
  31   2.0000      -0.374960       -10.2032
  32   0.0000       0.132508         3.6057
  33   0.0000       0.143851         3.9144
  34   0.0000       0.151285         4.1167
  35   0.0000       0.159696         4.3456
  36   0.0000       0.175528         4.7764

MULLIKEN ATOMIC CHARGES
-----------------------
   0 N :   -0.063545
   1 C :   -0.227036
   2 C :   -0.004493
   3 C :   -0.287280
   4 C :    0.005979
   5 C :   -0.208997
   6 C :   -0.111801
   7 C :   -0.262522
   8 C :   -0.115610
   9 H :    0.158584
  10 H :    0.143182
  11 H :    0.154945
  12 H :    0.124977
  13 H :    0.140513
  14 H :    0.137785
  15 H :    0.134849
  16 H :    0.141910
  17 H :    0.138561
Sum of atomic charges:    0.0000000

LOEWDIN ATOMIC CHARGES
----------------------
   0 N :    0.054923
   1 C :   -0.181248
   2 C :   -0.174469
   3 C :   -0.149442
   4 C :   -0.176564
   5 C :   -0.159606
   6 C :   -0.167758
   7 C :   -0.198251
   8 C :   -0.141560
   9 H :    0.171230
  10 H :    0.141787
  11 H :    0.145903
  12 H :    0.142193
  13 H :    0.139456
  14 H :    0.136280
  15 H :    0.141582
  16 H :    0.136348
  17 H :    0.139196

  Mayer bond orders larger than 0.1
B(  0-N ,  1-C ) :   2.8516 B(  1-C ,  2-C ) :   0.9720 B(  2-C ,  3-C ) :   0.8635
B(  2-C ,  4-C ) :   0.7919 B(  2-C ,  9-H ) :   0.9020 B(  3-C ,  4-C ) :   0.8866
B(  3-C , 10-H ) :   0.9215 B(  3-C , 11-H ) :   0.9198 B(  4-C ,  5-C ) :   0.9539
B(  4-C ,  8-C ) :   0.8886 B(  5-C ,  6-C ) :   0.9415 B(  5-C , 12-H ) :   0.9246
B(  5-C , 13-H ) :   0.9135 B(  6-C ,  7-C ) :   0.8882 B(  6-C ,  8-C ) :   0.8545
B(  6-C , 14-H ) :   0.9269 B(  7-C ,  8-C ) :   0.8851 B(  7-C , 15-H ) :   0.9318
B(  7-C , 16-H ) :   0.9208 B(  8-C , 17-H ) :   0.9133

MP2 TOTAL ENERGY:     -364.115032810 Eh
FINAL SINGLE POINT ENERGY      -364.115032809567

DIPOLE MOMENT
-------------
                                X             Y             Z
Electronic contribution:     -3.42557      -4.54113       0.81311
Nuclear contribution   :      3.82334       6.28697      -0.69870
                        -----------------------------------------
Total Dipole Moment    :      0.39778       1.74584       0.11441
                        -----------------------------------------
Magnitude (a.u.)       :      1.79423
Magnitude (Debye)      :      4.56057

                             ****ORCA TERMINATED NORMALLY****
TOTAL RUN TIME: 0 days 0 hours 18 minutes 17 seconds 413 msec
