                         Program Version 3.0.3 - RELEASE   -
|  1> ! RI-MP2 RIJK def2-TZVP def2-TZVP/C def2-TZVP/JK TIGHTSCF
|  2> % maxcore 2000
|  3> % mp2 density relaxed end
|  4> *xyz 0 1
|  5>  C       -0.0060845186     1.5530077254     0.1331666849
|  6>  C       -0.0154801984     0.0750450231    -0.0745467873
|  7>  C        0.0161447953    -0.7509458653    -1.1793493384
|  8>  N        0.0555741090    -0.8839359582    -2.5543303697
|  9>  C        0.0574831300    -2.2491776839    -2.7922647748
| 10>  N        0.0233909643    -2.9985954931    -1.7216483871
| 11>  C       -0.0030997029    -2.0781841818    -0.6895953548
| 12>  N       -0.0440103910    -2.1320764980     0.6421160964
| 13>  N       -0.0489212158    -0.8193792441     0.9702165878
| 14>  H        0.9483819486     2.0040513372    -0.1627137218
| 15>  H       -0.7953140837     2.0452012533    -0.4452621185
| 16>  H       -0.1722058105     1.7995802059     1.1863065214
| 17>  H        0.0816491133    -0.1647980036    -3.2547923228
| 18>  H        0.0856887901    -2.6246814904    -3.8061548699
| 19>  H       -0.0794954898    -0.5744085365     1.9460852646
| 20> *
| 21>
| 22>                          ****END OF INPUT****

CARTESIAN COORDINATES (ANGSTROEM)
---------------------------------
  C     -0.006085    1.553008    0.133167
  C     -0.015480    0.075045   -0.074547
  C      0.016145   -0.750946   -1.179349
  N      0.055574   -0.883936   -2.554330
  C      0.057483   -2.249178   -2.792265
  N      0.023391   -2.998595   -1.721648
  C     -0.003100   -2.078184   -0.689595
  N     -0.044010   -2.132076    0.642116
  N     -0.048921   -0.819379    0.970217
  H      0.948382    2.004051   -0.162714
  H     -0.795314    2.045201   -0.445262
  H     -0.172206    1.799580    1.186307
  H      0.081649   -0.164798   -3.254792
  H      0.085689   -2.624681   -3.806155
  H     -0.079495   -0.574409    1.946085

 Total Charge           Charge          ....    0
 Multiplicity           Mult            ....    1
 Number of Electrons    NEL             ....   64
 Basis Dimension        Dim             ....  315

ORBITAL ENERGIES
----------------

  NO   OCC          E(Eh)            E(eV)
   0   2.0000     -15.629855      -425.3100
   1   2.0000     -15.616031      -424.9338
   2   2.0000     -15.570217      -423.6871
   3   2.0000     -15.547551      -423.0704
   4   2.0000     -11.319107      -308.0086
   5   2.0000     -11.286044      -307.1089
   6   2.0000     -11.263010      -306.4821
   7   2.0000     -11.251941      -306.1809
   8   2.0000     -11.250821      -306.1504
   9   2.0000      -1.372560       -37.3493
  10   2.0000      -1.321369       -35.9563
  11   2.0000      -1.179388       -32.0928
  12   2.0000      -1.092632       -29.7320
  13   2.0000      -1.045999       -28.4631
  14   2.0000      -0.970304       -26.4033
  15   2.0000      -0.871670       -23.7193
  16   2.0000      -0.818916       -22.2838
  17   2.0000      -0.779826       -21.2201
  18   2.0000      -0.693463       -18.8701
  19   2.0000      -0.683531       -18.5998
  20   2.0000      -0.656909       -17.8754
  21   2.0000      -0.640710       -17.4346
  22   2.0000      -0.589214       -16.0333
  23   2.0000      -0.587727       -15.9929
  24   2.0000      -0.574304       -15.6276
  25   2.0000      -0.556984       -15.1563
  26   2.0000      -0.549193       -14.9443
  27   2.0000      -0.470308       -12.7977
  28   2.0000      -0.431692       -11.7469
  29   2.0000      -0.420462       -11.4414
  30   2.0000      -0.322195        -8.7674
  31   2.0000      -0.305323        -8.3083
  32   0.0000       0.112004         3.0478
  33   0.0000       0.127244         3.4625
  34   0.0000       0.134683         3.6649
  35   0.0000       0.162396         4.4190
  36   0.0000       0.183089         4.9821

MULLIKEN ATOMIC CHARGES
-----------------------
   0 C :   -0.420745
   1 C :   -0.016539
   2 C :    0.104586
   3 N :   -0.329914
   4 C :    0.063601
   5 N :   -0.275055
   6 C :    0.111139
   7 N :   -0.257790
   8 N :   -0.064181
   9 H :    0.153472
  10 H :    0.151413
  11 H :    0.134379
  12 H :    0.249643
  13 H :    0.144737
  14 H :    0.251255
Sum of atomic charges:   -0.0000000

LOEWDIN ATOMIC CHARGES
----------------------
   0 C :   -0.280783
   1 C :   -0.251069
   2 C :   -0.213684
   3 N :    0.165979
   4 C :   -0.290817
   5 N :    0.114839
   6 C :   -0.345162
   7 N :    0.037185
   8 N :    0.154565
   9 H :    0.133273
  10 H :    0.134184
  11 H :    0.132932
  12 H :    0.189078
  13 H :    0.130471
  14 H :    0.189008

  Mayer bond orders larger than 0.1
B(  0-C ,  1-C ) :   0.8734 B(  0-C ,  9-H ) :   0.9347 B(  0-C , 10-H ) :   0.9421
B(  0-C , 11-H ) :   0.9356 B(  1-C ,  2-C ) :   1.3233 B(  1-C ,  7-N ) :   0.1871
B(  1-C ,  8-N ) :   1.2361 B(  2-C ,  3-N ) :   1.0518 B(  2-C ,  6-C ) :   1.1992
B(  3-N ,  4-C ) :   1.1171 B(  3-N , 12-H ) :   0.8663 B(  4-C ,  5-N ) :   1.6108
B(  4-C , 13-H ) :   0.9270 B(  5-N ,  6-C ) :   1.2345 B(  6-C ,  7-N ) :   1.5083
B(  7-N ,  8-N ) :   1.0699 B(  8-N , 14-H ) :   0.8684

MP2 TOTAL ENERGY:     -412.310197880 Eh
FINAL SINGLE POINT ENERGY      -412.310197880403

DIPOLE MOMENT
-------------
                                X             Y             Z
Electronic contribution:     -0.01589      -6.19917      -0.73621
Nuclear contribution   :      0.04302       8.52449       0.22512
                        -----------------------------------------
Total Dipole Moment    :      0.02712       2.32531      -0.51109
                        -----------------------------------------
Magnitude (a.u.)       :      2.38097
Magnitude (Debye)      :      6.05195

                             ****ORCA TERMINATED NORMALLY****
TOTAL RUN TIME: 0 days 0 hours 16 minutes 30 seconds 362 msec
