                         Program Version 3.0.3 - RELEASE   -
|  1> ! RI-MP2 RIJK def2-TZVP def2-TZVP/C def2-TZVP/JK TIGHTSCF
|  2> % maxcore 2000
|  3> % mp2 density relaxed end
|  4> *xyz 0 1
|  5>  C        0.0806537055     1.5181436932    -0.2081007535
|  6>  C        1.2872114780     0.6664493176    -0.0474644594
|  7>  C        1.9471157316     0.4660465659     1.2950147504
|  8>  C        1.2743246048     0.7995909155     2.6248053258
|  9>  O        0.0393875394     1.4738489460     2.6870567218
| 10>  C       -0.9787750334     0.5411650239     2.2881743353
| 11>  C       -0.2682363272    -0.4585719513     1.3709043975
| 12>  C        1.1214704569    -0.5674173711     2.0488791570
| 13>  N       -0.0473171949     0.0521671021    -0.0157465628
| 14>  H       -0.1677135942     2.1974088857     0.5970674840
| 15>  H       -0.2141174027     1.8497591592    -1.2008191867
| 16>  H        1.9090344981     0.4311513709    -0.9093016630
| 17>  H        3.0308053579     0.4217234420     1.3192992640
| 18>  H        1.9156885475     1.0165251612     3.4728473544
| 19>  H       -1.3926022260     0.0367277436     3.1730600760
| 20>  H       -1.7786930199     1.0963694826     1.7906901867
| 21>  H       -0.7953557767    -1.4126141924     1.3088857268
| 22>  H        1.4878800954    -1.4877372846     2.4863929958
| 23> *
| 24>
| 25>                          ****END OF INPUT****

CARTESIAN COORDINATES (ANGSTROEM)
---------------------------------
  C      0.080654    1.518144   -0.208101
  C      1.287211    0.666449   -0.047464
  C      1.947116    0.466047    1.295015
  C      1.274325    0.799591    2.624805
  O      0.039388    1.473849    2.687057
  C     -0.978775    0.541165    2.288174
  C     -0.268236   -0.458572    1.370904
  C      1.121470   -0.567417    2.048879
  N     -0.047317    0.052167   -0.015747
  H     -0.167714    2.197409    0.597067
  H     -0.214117    1.849759   -1.200819
  H      1.909034    0.431151   -0.909302
  H      3.030805    0.421723    1.319299
  H      1.915689    1.016525    3.472847
  H     -1.392602    0.036728    3.173060
  H     -1.778693    1.096369    1.790690
  H     -0.795356   -1.412614    1.308886
  H      1.487880   -1.487737    2.486393

 Total Charge           Charge          ....    0
 Multiplicity           Mult            ....    1
 Number of Electrons    NEL             ....   66
 Basis Dimension        Dim             ....  333

ORBITAL ENERGIES
----------------

  NO   OCC          E(Eh)            E(eV)
   0   2.0000     -20.560998      -559.4932
   1   2.0000     -15.552659      -423.2094
   2   2.0000     -11.289732      -307.2092
   3   2.0000     -11.278525      -306.9043
   4   2.0000     -11.265503      -306.5499
   5   2.0000     -11.258562      -306.3611
   6   2.0000     -11.247683      -306.0650
   7   2.0000     -11.242327      -305.9193
   8   2.0000     -11.234855      -305.7159
   9   2.0000      -1.391488       -37.8643
  10   2.0000      -1.273437       -34.6520
  11   2.0000      -1.133150       -30.8346
  12   2.0000      -1.037083       -28.2205
  13   2.0000      -0.915677       -24.9168
  14   2.0000      -0.873683       -23.7741
  15   2.0000      -0.808636       -22.0041
  16   2.0000      -0.779077       -21.1998
  17   2.0000      -0.772367       -21.0172
  18   2.0000      -0.727930       -19.8080
  19   2.0000      -0.652470       -17.7546
  20   2.0000      -0.632960       -17.2237
  21   2.0000      -0.616404       -16.7732
  22   2.0000      -0.606803       -16.5120
  23   2.0000      -0.592490       -16.1225
  24   2.0000      -0.545996       -14.8573
  25   2.0000      -0.514697       -14.0056
  26   2.0000      -0.505051       -13.7431
  27   2.0000      -0.488867       -13.3028
  28   2.0000      -0.471691       -12.8354
  29   2.0000      -0.454071       -12.3559
  30   2.0000      -0.413924       -11.2634
  31   2.0000      -0.381867       -10.3911
  32   2.0000      -0.356734        -9.7072
  33   0.0000       0.144778         3.9396
  34   0.0000       0.162440         4.4202
  35   0.0000       0.176096         4.7918
  36   0.0000       0.179286         4.8786
  37   0.0000       0.197602         5.3770

MULLIKEN ATOMIC CHARGES
-----------------------
   0 C :   -0.218496
   1 C :   -0.028191
   2 C :   -0.182262
   3 C :    0.079655
   4 O :   -0.331811
   5 C :   -0.064851
   6 C :   -0.004446
   7 C :   -0.195981
   8 N :   -0.226337
   9 H :    0.160966
  10 H :    0.122477
  11 H :    0.125496
  12 H :    0.128145
  13 H :    0.125838
  14 H :    0.103869
  15 H :    0.134550
  16 H :    0.130737
  17 H :    0.140643
Sum of atomic charges:    0.0000000

LOEWDIN ATOMIC CHARGES
----------------------
   0 C :   -0.232682
   1 C :   -0.231216
   2 C :   -0.161516
   3 C :   -0.251093
   4 O :    0.167165
   5 C :   -0.270742
   6 C :   -0.235227
   7 C :   -0.152610
   8 N :    0.127991
   9 H :    0.134449
  10 H :    0.124269
  11 H :    0.141562
  12 H :    0.151650
  13 H :    0.140276
  14 H :    0.126217
  15 H :    0.131979
  16 H :    0.150420
  17 H :    0.139109

  Mayer bond orders larger than 0.1
B(  0-C ,  1-C ) :   0.9382 B(  0-C ,  8-N ) :   0.8918 B(  0-C ,  9-H ) :   0.8973
B(  0-C , 10-H ) :   0.9266 B(  1-C ,  2-C ) :   0.9340 B(  1-C ,  8-N ) :   0.9262
B(  1-C , 11-H ) :   0.9069 B(  2-C ,  3-C ) :   0.8727 B(  2-C ,  7-C ) :   0.8465
B(  2-C , 12-H ) :   0.9203 B(  3-C ,  4-O ) :   0.9647 B(  3-C ,  7-C ) :   0.9015
B(  3-C , 13-H ) :   0.9428 B(  4-O ,  5-C ) :   0.8865 B(  5-C ,  6-C ) :   0.9516
B(  5-C , 14-H ) :   0.9190 B(  5-C , 15-H ) :   0.9295 B(  6-C ,  7-C ) :   0.9027
B(  6-C ,  8-N ) :   0.9362 B(  6-C , 16-H ) :   0.9152 B(  7-C , 17-H ) :   0.9045

MP2 TOTAL ENERGY:     -401.209249080 Eh
FINAL SINGLE POINT ENERGY      -401.209249080308

DIPOLE MOMENT
-------------
                                X             Y             Z
Electronic contribution:      0.50994       0.19475       0.49118
Nuclear contribution   :     -0.21091      -0.49117      -0.17617
                        -----------------------------------------
Total Dipole Moment    :      0.29904      -0.29643       0.31501
                        -----------------------------------------
Magnitude (a.u.)       :      0.52585
Magnitude (Debye)      :      1.33661

                             ****ORCA TERMINATED NORMALLY****
TOTAL RUN TIME: 0 days 0 hours 17 minutes 49 seconds 694 msec
