                         Program Version 3.0.3 - RELEASE   -
|  1> ! RI-MP2 RIJK def2-TZVP def2-TZVP/C def2-TZVP/JK TIGHTSCF
|  2> % maxcore 2000
|  3> % mp2 density relaxed end
|  4> *xyz 0 1
|  5>  O        0.0517495231    -0.0626254320     0.0025533847
|  6>  C       -0.0454455286     1.1445360540     0.0064464157
|  7>  C        1.1737457744     1.9887322129     0.0004404035
|  8>  N        2.1203363352     2.6525357089    -0.0042041803
|  9>  C       -1.2993853788     1.8826479491     0.0170027424
| 10>  C       -1.4631973111     3.2445315870     0.0218215157
| 11>  O       -2.7666321723     3.5570517910     0.0315045596
| 12>  C       -3.4693550984     2.3784954005     0.0331107778
| 13>  C       -2.6258059025     1.3226612130     0.0245697220
| 14>  H       -0.7654607106     4.0664611970     0.0192888781
| 15>  H       -4.5411889328     2.4817490141     0.0406696923
| 16>  H       -2.8764892776     0.2748977345     0.0234742185
| 17> *
| 18>
| 19>                          ****END OF INPUT****

CARTESIAN COORDINATES (ANGSTROEM)
---------------------------------
  O      0.051750   -0.062625    0.002553
  C     -0.045446    1.144536    0.006446
  C      1.173746    1.988732    0.000440
  N      2.120336    2.652536   -0.004204
  C     -1.299385    1.882648    0.017003
  C     -1.463197    3.244532    0.021822
  O     -2.766632    3.557052    0.031505
  C     -3.469355    2.378495    0.033111
  C     -2.625806    1.322661    0.024570
  H     -0.765461    4.066461    0.019289
  H     -4.541189    2.481749    0.040670
  H     -2.876489    0.274898    0.023474

 Total Charge           Charge          ....    0
 Multiplicity           Mult            ....    1
 Number of Electrons    NEL             ....   62
 Basis Dimension        Dim             ....  297

ORBITAL ENERGIES
----------------

  NO   OCC          E(Eh)            E(eV)
   0   2.0000     -20.667708      -562.3969
   1   2.0000     -20.594234      -560.3976
   2   2.0000     -15.611170      -424.8015
   3   2.0000     -11.404151      -310.3227
   4   2.0000     -11.349378      -308.8323
   5   2.0000     -11.322253      -308.0942
   6   2.0000     -11.300878      -307.5125
   7   2.0000     -11.277778      -306.8840
   8   2.0000     -11.266477      -306.5764
   9   2.0000      -1.506411       -40.9915
  10   2.0000      -1.437165       -39.1073
  11   2.0000      -1.248667       -33.9780
  12   2.0000      -1.141902       -31.0727
  13   2.0000      -1.060372       -28.8542
  14   2.0000      -0.967915       -26.3383
  15   2.0000      -0.847421       -23.0595
  16   2.0000      -0.833110       -22.6701
  17   2.0000      -0.790268       -21.5043
  18   2.0000      -0.707174       -19.2432
  19   2.0000      -0.679747       -18.4969
  20   2.0000      -0.669596       -18.2206
  21   2.0000      -0.641098       -17.4452
  22   2.0000      -0.609900       -16.5962
  23   2.0000      -0.602905       -16.4059
  24   2.0000      -0.600390       -16.3374
  25   2.0000      -0.576865       -15.6973
  26   2.0000      -0.504801       -13.7363
  27   2.0000      -0.493051       -13.4166
  28   2.0000      -0.486971       -13.2512
  29   2.0000      -0.435573       -11.8525
  30   2.0000      -0.362165        -9.8550
  31   0.0000       0.040382         1.0989
  32   0.0000       0.111197         3.0258
  33   0.0000       0.146739         3.9930
  34   0.0000       0.158940         4.3250
  35   0.0000       0.167433         4.5561

MULLIKEN ATOMIC CHARGES
-----------------------
   0 O :   -0.248842
   1 C :    0.318955
   2 C :   -0.150702
   3 N :   -0.044123
   4 C :    0.011252
   5 C :   -0.008422
   6 O :   -0.181907
   7 C :    0.033072
   8 C :   -0.253802
   9 H :    0.184916
  10 H :    0.168729
  11 H :    0.170873
Sum of atomic charges:   -0.0000000

LOEWDIN ATOMIC CHARGES
----------------------
   0 O :    0.198400
   1 C :   -0.302572
   2 C :   -0.126021
   3 N :    0.095388
   4 C :   -0.164074
   5 C :   -0.175359
   6 O :    0.362014
   7 C :   -0.206025
   8 C :   -0.127328
   9 H :    0.148938
  10 H :    0.139282
  11 H :    0.157357

  Mayer bond orders larger than 0.1
B(  0-O ,  1-C ) :   1.9800 B(  1-C ,  2-C ) :   0.9041 B(  1-C ,  4-C ) :   0.9475
B(  2-C ,  3-N ) :   2.7919 B(  4-C ,  5-C ) :   1.4427 B(  4-C ,  8-C ) :   1.1312
B(  5-C ,  6-O ) :   1.1143 B(  5-C ,  9-H ) :   0.9110 B(  6-O ,  7-C ) :   1.0024
B(  7-C ,  8-C ) :   1.5787 B(  7-C , 10-H ) :   0.9303 B(  8-C , 11-H ) :   0.9106

MP2 TOTAL ENERGY:     -434.796690017 Eh
FINAL SINGLE POINT ENERGY      -434.796690016583

DIPOLE MOMENT
-------------
                                X             Y             Z
Electronic contribution:      3.35208      -0.37407      -0.02390
Nuclear contribution   :     -5.00369       0.73492       0.03612
                        -----------------------------------------
Total Dipole Moment    :     -1.65161       0.36085       0.01221
                        -----------------------------------------
Magnitude (a.u.)       :      1.69061
Magnitude (Debye)      :      4.29720

                             ****ORCA TERMINATED NORMALLY****
TOTAL RUN TIME: 0 days 0 hours 13 minutes 18 seconds 841 msec
