                         Program Version 3.0.3 - RELEASE   -
|  1> ! RI-MP2 RIJK def2-TZVP def2-TZVP/C def2-TZVP/JK TIGHTSCF
|  2> % maxcore 2000
|  3> % mp2 density relaxed end
|  4> *xyz 0 1
|  5>  O       -0.6098644300     0.5866688394     0.1531288612
|  6>  C        0.0800321986     1.5655557317     0.2738756560
|  7>  C        1.4587292363     1.7340267766    -0.3230242554
|  8>  C        1.5238387757     2.9582932594    -1.2517960685
|  9>  C        2.9449191782     3.2068464785    -1.7761138534
| 10>  N        3.0390351184     4.3702265302    -2.6442028681
| 11>  C        3.1787411794     5.6283358217    -2.1487679211
| 12>  O        3.2649335324     5.8991473095    -0.9691680831
| 13>  H       -0.2772692534     2.4512781110     0.8503646685
| 14>  H        2.1660133103     1.8774054705     0.5069278402
| 15>  H        1.7270361532     0.8112033903    -0.8464092391
| 16>  H        0.8388357151     2.8188641752    -2.0969058063
| 17>  H        1.1957167593     3.8549661470    -0.7145369568
| 18>  H        3.6205261719     3.3751147875    -0.9321663731
| 19>  H        3.3080630411     2.3347007526    -2.3293740448
| 20>  H        2.9188254133     4.2561264839    -3.6375563602
| 21>  H        3.2167480803     6.3906016651    -2.9520885859
| 22> *
| 23>
| 24>                          ****END OF INPUT****

CARTESIAN COORDINATES (ANGSTROEM)
---------------------------------
  O     -0.609864    0.586669    0.153129
  C      0.080032    1.565556    0.273876
  C      1.458729    1.734027   -0.323024
  C      1.523839    2.958293   -1.251796
  C      2.944919    3.206846   -1.776114
  N      3.039035    4.370227   -2.644203
  C      3.178741    5.628336   -2.148768
  O      3.264934    5.899147   -0.969168
  H     -0.277269    2.451278    0.850365
  H      2.166013    1.877405    0.506928
  H      1.727036    0.811203   -0.846409
  H      0.838836    2.818864   -2.096906
  H      1.195717    3.854966   -0.714537
  H      3.620526    3.375115   -0.932166
  H      3.308063    2.334701   -2.329374
  H      2.918825    4.256126   -3.637556
  H      3.216748    6.390602   -2.952089

 Total Charge           Charge          ....    0
 Multiplicity           Mult            ....    1
 Number of Electrons    NEL             ....   62
 Basis Dimension        Dim             ....  302

ORBITAL ENERGIES
----------------

  NO   OCC          E(Eh)            E(eV)
   0   2.0000     -20.559030      -559.4397
   1   2.0000     -20.530800      -558.6715
   2   2.0000     -15.599152      -424.4745
   3   2.0000     -11.356736      -309.0325
   4   2.0000     -11.334019      -308.4143
   5   2.0000     -11.281330      -306.9806
   6   2.0000     -11.247708      -306.0657
   7   2.0000     -11.246795      -306.0408
   8   2.0000      -1.397887       -38.0384
   9   2.0000      -1.391647       -37.8686
  10   2.0000      -1.246424       -33.9169
  11   2.0000      -1.088688       -29.6247
  12   2.0000      -0.984872       -26.7997
  13   2.0000      -0.873869       -23.7792
  14   2.0000      -0.808193       -21.9920
  15   2.0000      -0.796842       -21.6832
  16   2.0000      -0.752393       -20.4737
  17   2.0000      -0.683928       -18.6106
  18   2.0000      -0.657138       -17.8816
  19   2.0000      -0.640189       -17.4204
  20   2.0000      -0.634096       -17.2546
  21   2.0000      -0.610831       -16.6216
  22   2.0000      -0.592896       -16.1335
  23   2.0000      -0.566669       -15.4199
  24   2.0000      -0.545442       -14.8422
  25   2.0000      -0.526794       -14.3348
  26   2.0000      -0.505835       -13.7645
  27   2.0000      -0.496440       -13.5088
  28   2.0000      -0.440823       -11.9954
  29   2.0000      -0.425827       -11.5873
  30   2.0000      -0.401831       -10.9344
  31   0.0000       0.116577         3.1722
  32   0.0000       0.129997         3.5374
  33   0.0000       0.143208         3.8969
  34   0.0000       0.162529         4.4226
  35   0.0000       0.169225         4.6049

MULLIKEN ATOMIC CHARGES
-----------------------
   0 O :   -0.263750
   1 C :    0.096557
   2 C :   -0.158939
   3 C :   -0.266331
   4 C :   -0.116243
   5 N :   -0.327493
   6 C :    0.200485
   7 O :   -0.369761
   8 H :    0.077604
   9 H :    0.130535
  10 H :    0.119892
  11 H :    0.118322
  12 H :    0.147108
  13 H :    0.142157
  14 H :    0.140553
  15 H :    0.244110
  16 H :    0.085193
Sum of atomic charges:   -0.0000000

LOEWDIN ATOMIC CHARGES
----------------------
   0 O :    0.131521
   1 C :   -0.296442
   2 C :   -0.261085
   3 C :   -0.264030
   4 C :   -0.278396
   5 N :    0.081064
   6 C :   -0.437233
   7 O :    0.055267
   8 H :    0.111341
   9 H :    0.153404
  10 H :    0.144205
  11 H :    0.137906
  12 H :    0.146814
  13 H :    0.145469
  14 H :    0.135713
  15 H :    0.184056
  16 H :    0.110425

  Mayer bond orders larger than 0.1
B(  0-O ,  1-C ) :   2.0036 B(  1-C ,  2-C ) :   0.8796 B(  1-C ,  8-H ) :   0.9386
B(  2-C ,  3-C ) :   0.9070 B(  2-C ,  9-H ) :   0.9127 B(  2-C , 10-H ) :   0.9052
B(  3-C ,  4-C ) :   0.9162 B(  3-C , 11-H ) :   0.9219 B(  3-C , 12-H ) :   0.9294
B(  4-C ,  5-N ) :   0.8616 B(  4-C , 13-H ) :   0.9230 B(  4-C , 14-H ) :   0.9383
B(  5-N ,  6-C ) :   1.1609 B(  5-N , 15-H ) :   0.8723 B(  6-C ,  7-O ) :   1.8766
B(  6-C , 16-H ) :   0.9299

MP2 TOTAL ENERGY:     -400.380832633 Eh
FINAL SINGLE POINT ENERGY      -400.380832632902

DIPOLE MOMENT
-------------
                                X             Y             Z
Electronic contribution:     -1.30546       1.01590       0.97564
Nuclear contribution   :      1.83572      -1.04235      -2.21366
                        -----------------------------------------
Total Dipole Moment    :      0.53026      -0.02645      -1.23802
                        -----------------------------------------
Magnitude (a.u.)       :      1.34706
Magnitude (Debye)      :      3.42394

                             ****ORCA TERMINATED NORMALLY****
TOTAL RUN TIME: 0 days 0 hours 9 minutes 30 seconds 520 msec
