                         Program Version 3.0.3 - RELEASE   -
|  1> ! RI-MP2 RIJK def2-TZVP def2-TZVP/C def2-TZVP/JK TIGHTSCF
|  2> % maxcore 2000
|  3> % mp2 density relaxed end
|  4> *xyz 0 1
|  5>  C       -0.0559872978     1.4279493780     0.0636922823
|  6>  C        1.3187445210     0.7978462544     0.0310638633
|  7>  O        2.0337902441     0.5960816587     1.2214101136
|  8>  C        1.1934357846    -0.1267904840     2.1264280176
|  9>  C        0.1607783489    -0.8820998269     1.2704345311
| 10>  C        0.5779582060    -2.2670036506     0.7401540777
| 11>  C       -0.2176025575    -2.4202204848    -0.5726364699
| 12>  C       -0.2951728052    -0.9888434033    -1.1807936566
| 13>  C        0.0994442084    -0.0744588446    -0.0283168803
| 14>  H       -0.4229814033     1.8677264261     0.9861536781
| 15>  H       -0.3699424544     1.9525647376    -0.8339350861
| 16>  H        1.9765944697     0.9678405218    -0.8144054087
| 17>  H        1.8324890546    -0.7840173674     2.7249464791
| 18>  H        0.6929987885     0.5714631068     2.8122210572
| 19>  H       -0.8036091176    -0.9437028417     1.7880534897
| 20>  H        1.6551068201    -2.2575128851     0.5325373371
| 21>  H        0.3868404754    -3.0767116563     1.4506192527
| 22>  H        0.2321728372    -3.1457707385    -1.2557490224
| 23>  H       -1.2281866096    -2.7794476106    -0.3483507532
| 24>  H        0.3849232731    -0.8727879464    -2.0316528219
| 25>  H       -1.3025672562    -0.7700634431    -1.5502697105
| 26> *
| 27>
| 28>                          ****END OF INPUT****

CARTESIAN COORDINATES (ANGSTROEM)
---------------------------------
  C     -0.055987    1.427949    0.063692
  C      1.318745    0.797846    0.031064
  O      2.033790    0.596082    1.221410
  C      1.193436   -0.126790    2.126428
  C      0.160778   -0.882100    1.270435
  C      0.577958   -2.267004    0.740154
  C     -0.217603   -2.420220   -0.572636
  C     -0.295173   -0.988843   -1.180794
  C      0.099444   -0.074459   -0.028317
  H     -0.422981    1.867726    0.986154
  H     -0.369942    1.952565   -0.833935
  H      1.976594    0.967841   -0.814405
  H      1.832489   -0.784017    2.724946
  H      0.692999    0.571463    2.812221
  H     -0.803609   -0.943703    1.788053
  H      1.655107   -2.257513    0.532537
  H      0.386840   -3.076712    1.450619
  H      0.232173   -3.145771   -1.255749
  H     -1.228187   -2.779448   -0.348351
  H      0.384923   -0.872788   -2.031653
  H     -1.302567   -0.770063   -1.550270

 Total Charge           Charge          ....    0
 Multiplicity           Mult            ....    1
 Number of Electrons    NEL             ....   68
 Basis Dimension        Dim             ....  351

ORBITAL ENERGIES
----------------

  NO   OCC          E(Eh)            E(eV)
   0   2.0000     -20.551049      -559.2225
   1   2.0000     -11.273089      -306.7564
   2   2.0000     -11.270625      -306.6893
   3   2.0000     -11.228682      -305.5480
   4   2.0000     -11.227997      -305.5293
   5   2.0000     -11.223196      -305.3987
   6   2.0000     -11.223111      -305.3964
   7   2.0000     -11.221216      -305.3448
   8   2.0000     -11.219299      -305.2927
   9   2.0000      -1.379025       -37.5252
  10   2.0000      -1.153309       -31.3831
  11   2.0000      -1.076224       -29.2855
  12   2.0000      -1.000541       -27.2261
  13   2.0000      -0.928947       -25.2779
  14   2.0000      -0.871733       -23.7211
  15   2.0000      -0.795903       -21.6576
  16   2.0000      -0.779597       -21.2139
  17   2.0000      -0.747550       -20.3419
  18   2.0000      -0.675679       -18.3862
  19   2.0000      -0.654469       -17.8090
  20   2.0000      -0.636561       -17.3217
  21   2.0000      -0.606273       -16.4975
  22   2.0000      -0.587437       -15.9850
  23   2.0000      -0.572935       -15.5904
  24   2.0000      -0.553543       -15.0627
  25   2.0000      -0.543207       -14.7814
  26   2.0000      -0.503766       -13.7082
  27   2.0000      -0.489257       -13.3134
  28   2.0000      -0.478241       -13.0136
  29   2.0000      -0.465153       -12.6575
  30   2.0000      -0.458299       -12.4709
  31   2.0000      -0.445038       -12.1101
  32   2.0000      -0.400774       -10.9056
  33   2.0000      -0.361584        -9.8392
  34   0.0000       0.136622         3.7177
  35   0.0000       0.154285         4.1983
  36   0.0000       0.158209         4.3051
  37   0.0000       0.167126         4.5477
  38   0.0000       0.187983         5.1153

MULLIKEN ATOMIC CHARGES
-----------------------
   0 C :   -0.274667
   1 C :    0.000317
   2 O :   -0.317225
   3 C :   -0.064629
   4 C :   -0.046047
   5 C :   -0.280976
   6 C :   -0.208640
   7 C :   -0.252292
   8 C :    0.038879
   9 H :    0.129751
  10 H :    0.125864
  11 H :    0.122792
  12 H :    0.116047
  13 H :    0.102355
  14 H :    0.101822
  15 H :    0.122224
  16 H :    0.121716
  17 H :    0.120551
  18 H :    0.112518
  19 H :    0.114384
  20 H :    0.115257
Sum of atomic charges:    0.0000000

LOEWDIN ATOMIC CHARGES
----------------------
   0 C :   -0.189442
   1 C :   -0.262063
   2 O :    0.176732
   3 C :   -0.267463
   4 C :   -0.201098
   5 C :   -0.229043
   6 C :   -0.244493
   7 C :   -0.209154
   8 C :   -0.207618
   9 H :    0.137477
  10 H :    0.138124
  11 H :    0.138333
  12 H :    0.128578
  13 H :    0.120539
  14 H :    0.152842
  15 H :    0.144254
  16 H :    0.132437
  17 H :    0.131337
  18 H :    0.135493
  19 H :    0.138087
  20 H :    0.136141

  Mayer bond orders larger than 0.1
B(  0-C ,  1-C ) :   0.8852 B(  0-C ,  8-C ) :   0.8620 B(  0-C ,  9-H ) :   0.8982
B(  0-C , 10-H ) :   0.9141 B(  1-C ,  2-O ) :   0.9734 B(  1-C ,  8-C ) :   0.8720
B(  1-C , 11-H ) :   0.9325 B(  2-O ,  3-C ) :   0.9254 B(  3-C ,  4-C ) :   0.9288
B(  3-C , 12-H ) :   0.9160 B(  3-C , 13-H ) :   0.9347 B(  4-C ,  5-C ) :   0.9002
B(  4-C ,  8-C ) :   0.9342 B(  4-C , 14-H ) :   0.9229 B(  5-C ,  6-C ) :   0.9399
B(  5-C , 15-H ) :   0.9265 B(  5-C , 16-H ) :   0.9296 B(  6-C ,  7-C ) :   0.9480
B(  6-C , 17-H ) :   0.9300 B(  6-C , 18-H ) :   0.9294 B(  7-C ,  8-C ) :   0.9007
B(  7-C , 19-H ) :   0.9227 B(  7-C , 20-H ) :   0.9277

MP2 TOTAL ENERGY:     -386.418336967 Eh
FINAL SINGLE POINT ENERGY      -386.418336966908

DIPOLE MOMENT
-------------
                                X             Y             Z
Electronic contribution:      2.84421       3.41245       1.36653
Nuclear contribution   :     -3.38782      -3.76283      -1.49750
                        -----------------------------------------
Total Dipole Moment    :     -0.54361      -0.35038      -0.13098
                        -----------------------------------------
Magnitude (a.u.)       :      0.65987
Magnitude (Debye)      :      1.67726

                             ****ORCA TERMINATED NORMALLY****
TOTAL RUN TIME: 0 days 0 hours 20 minutes 8 seconds 641 msec
