                         Program Version 3.0.3 - RELEASE   -
|  1> ! RI-MP2 RIJK def2-TZVP def2-TZVP/C def2-TZVP/JK TIGHTSCF
|  2> % maxcore 2000
|  3> % mp2 density relaxed end
|  4> *xyz 0 1
|  5>  C       -1.5543371982    -0.3215965001     0.1211802745
|  6>  C       -0.0700510046     0.0459859398     0.0357917253
|  7>  C        0.7431257253    -0.4138188056     1.2621347726
|  8>  C        0.8655659972    -1.9468352291     1.4013515934
|  9>  C        2.3713266709    -2.2396008541     1.4977928249
| 10>  O        2.8712726308    -3.3312227524     1.6506822764
| 11>  C        3.0639935939    -0.9450319774     1.3709483480
| 12>  C        2.1898667038     0.0659545377     1.2438645882
| 13>  C        2.5286841367     1.5169572187     1.1220147027
| 14>  H       -2.0225780361     0.1360343019     0.9998476144
| 15>  H       -2.0958203541     0.0259079482    -0.7638425980
| 16>  H       -1.7003144345    -1.4038954237     0.1950300078
| 17>  H        0.3737214381    -0.3932475109    -0.8674288017
| 18>  H        0.0201026096     1.1331632084    -0.0731341802
| 19>  H        0.2573465564     0.0130789068     2.1526179624
| 20>  H        0.3553676109    -2.3500554930     2.2803686500
| 21>  H        0.4614264747    -2.4778553737     0.5328344283
| 22>  H        4.1436044452    -0.8592827319     1.3994915508
| 23>  H        3.6003056759     1.6917541242     1.2418794640
| 24>  H        2.2266763663     1.9140707649     0.1456598734
| 25>  H        1.9928181018     2.1069767414     1.8759430429
| 26> *
| 27>
| 28>                          ****END OF INPUT****

CARTESIAN COORDINATES (ANGSTROEM)
---------------------------------
  C     -1.554337   -0.321597    0.121180
  C     -0.070051    0.045986    0.035792
  C      0.743126   -0.413819    1.262135
  C      0.865566   -1.946835    1.401352
  C      2.371327   -2.239601    1.497793
  O      2.871273   -3.331223    1.650682
  C      3.063994   -0.945032    1.370948
  C      2.189867    0.065955    1.243865
  C      2.528684    1.516957    1.122015
  H     -2.022578    0.136034    0.999848
  H     -2.095820    0.025908   -0.763843
  H     -1.700314   -1.403895    0.195030
  H      0.373721   -0.393248   -0.867429
  H      0.020103    1.133163   -0.073134
  H      0.257347    0.013079    2.152618
  H      0.355368   -2.350055    2.280369
  H      0.461426   -2.477855    0.532834
  H      4.143604   -0.859283    1.399492
  H      3.600306    1.691754    1.241879
  H      2.226676    1.914071    0.145660
  H      1.992818    2.106977    1.875943

 Total Charge           Charge          ....    0
 Multiplicity           Mult            ....    1
 Number of Electrons    NEL             ....   68
 Basis Dimension        Dim             ....  351

ORBITAL ENERGIES
----------------

  NO   OCC          E(Eh)            E(eV)
   0   2.0000     -20.526265      -558.5481
   1   2.0000     -11.318223      -307.9845
   2   2.0000     -11.269993      -306.6721
   3   2.0000     -11.249963      -306.1270
   4   2.0000     -11.243116      -305.9407
   5   2.0000     -11.237477      -305.7873
   6   2.0000     -11.232102      -305.6410
   7   2.0000     -11.226914      -305.4999
   8   2.0000     -11.225509      -305.4616
   9   2.0000      -1.369813       -37.2745
  10   2.0000      -1.159723       -31.5577
  11   2.0000      -1.056806       -28.7572
  12   2.0000      -1.017926       -27.6992
  13   2.0000      -0.960389       -26.1335
  14   2.0000      -0.909884       -24.7592
  15   2.0000      -0.828325       -22.5399
  16   2.0000      -0.758624       -20.6432
  17   2.0000      -0.728822       -19.8323
  18   2.0000      -0.664950       -18.0942
  19   2.0000      -0.643278       -17.5045
  20   2.0000      -0.618020       -16.8172
  21   2.0000      -0.608432       -16.5563
  22   2.0000      -0.587056       -15.9746
  23   2.0000      -0.576649       -15.6914
  24   2.0000      -0.571359       -15.5475
  25   2.0000      -0.555995       -15.1294
  26   2.0000      -0.542042       -14.7497
  27   2.0000      -0.529035       -14.3958
  28   2.0000      -0.501725       -13.6526
  29   2.0000      -0.486423       -13.2362
  30   2.0000      -0.482947       -13.1417
  31   2.0000      -0.475905       -12.9500
  32   2.0000      -0.395165       -10.7530
  33   2.0000      -0.367046        -9.9878
  34   0.0000       0.103885         2.8269
  35   0.0000       0.123437         3.3589
  36   0.0000       0.145260         3.9527
  37   0.0000       0.157527         4.2865
  38   0.0000       0.168231         4.5778

MULLIKEN ATOMIC CHARGES
-----------------------
   0 C :   -0.393362
   1 C :   -0.252433
   2 C :    0.014658
   3 C :   -0.251570
   4 C :    0.189675
   5 O :   -0.292448
   6 C :   -0.240132
   7 C :    0.071912
   8 C :   -0.446773
   9 H :    0.124431
  10 H :    0.138497
  11 H :    0.132628
  12 H :    0.122536
  13 H :    0.113935
  14 H :    0.103190
  15 H :    0.138614
  16 H :    0.134299
  17 H :    0.139367
  18 H :    0.149473
  19 H :    0.155572
  20 H :    0.147931
Sum of atomic charges:    0.0000000

LOEWDIN ATOMIC CHARGES
----------------------
   0 C :   -0.314976
   1 C :   -0.267124
   2 C :   -0.203640
   3 C :   -0.186981
   4 C :   -0.323615
   5 O :    0.131145
   6 C :   -0.104121
   7 C :   -0.127676
   8 C :   -0.265479
   9 H :    0.121845
  10 H :    0.122765
  11 H :    0.121823
  12 H :    0.140583
  13 H :    0.137260
  14 H :    0.160790
  15 H :    0.149542
  16 H :    0.153880
  17 H :    0.146555
  18 H :    0.133773
  19 H :    0.136625
  20 H :    0.137026

  Mayer bond orders larger than 0.1
B(  0-C ,  1-C ) :   0.9223 B(  0-C ,  9-H ) :   0.9362 B(  0-C , 10-H ) :   0.9413
B(  0-C , 11-H ) :   0.9398 B(  1-C ,  2-C ) :   0.8649 B(  1-C , 12-H ) :   0.9274
B(  1-C , 13-H ) :   0.9358 B(  2-C ,  3-C ) :   0.9026 B(  2-C ,  7-C ) :   0.8878
B(  2-C , 14-H ) :   0.9019 B(  3-C ,  4-C ) :   0.9211 B(  3-C , 15-H ) :   0.9047
B(  3-C , 16-H ) :   0.9061 B(  4-C ,  5-O ) :   2.0243 B(  4-C ,  6-C ) :   1.0098
B(  6-C ,  7-C ) :   1.6296 B(  6-C , 17-H ) :   0.9241 B(  7-C ,  8-C ) :   0.8748
B(  8-C , 18-H ) :   0.9433 B(  8-C , 19-H ) :   0.9282 B(  8-C , 20-H ) :   0.9296

MP2 TOTAL ENERGY:     -386.456535986 Eh
FINAL SINGLE POINT ENERGY      -386.456535986191

DIPOLE MOMENT
-------------
                                X             Y             Z
Electronic contribution:      8.07636      -7.52585       3.20653
Nuclear contribution   :     -8.73598       9.01723      -3.43448
                        -----------------------------------------
Total Dipole Moment    :     -0.65962       1.49138      -0.22795
                        -----------------------------------------
Magnitude (a.u.)       :      1.64659
Magnitude (Debye)      :      4.18530

                             ****ORCA TERMINATED NORMALLY****
TOTAL RUN TIME: 0 days 0 hours 31 minutes 10 seconds 149 msec
