                         Program Version 3.0.3 - RELEASE   -
|  1> ! RI-MP2 RIJK def2-TZVP def2-TZVP/C def2-TZVP/JK TIGHTSCF
|  2> % maxcore 2000
|  3> % mp2 density relaxed end
|  4> *xyz 0 1
|  5>  C        0.2627909884     1.3190453342    -0.0424581095
|  6>  N       -0.0363597343    -0.1098003864     0.0543887256
|  7>  C       -1.4656805577    -0.4407096649     0.0875120928
|  8>  C       -2.1077939652     0.0771479375     1.3028181956
|  9>  C       -2.6435104273     0.4892956145     2.2946507346
| 10>  C       -2.2218477748    -0.0124782969    -1.1092148437
| 11>  C       -2.7675622990     0.3314208850    -2.1311498031
| 12>  C       -3.4666784650     0.7254235571    -3.3281693893
| 13>  O       -2.9773401232     1.3747710095    -4.2235047618
| 14>  H        1.3477097909     1.4428203254    -0.0855935488
| 15>  H       -0.1826111806     1.8130855398    -0.9196347578
| 16>  H       -0.1004891154     1.8229119502     0.8573966722
| 17>  H        0.3762062962    -0.5998000515    -0.7329928598
| 18>  H       -1.5262887606    -1.5384093669     0.1248653497
| 19>  H       -3.1143167886     0.8537599933     3.1744600395
| 20>  H       -4.5192775138     0.3795120500    -3.3712498262
| 21> *
| 22>
| 23>                          ****END OF INPUT****

CARTESIAN COORDINATES (ANGSTROEM)
---------------------------------
  C      0.262791    1.319045   -0.042458
  N     -0.036360   -0.109800    0.054389
  C     -1.465681   -0.440710    0.087512
  C     -2.107794    0.077148    1.302818
  C     -2.643510    0.489296    2.294651
  C     -2.221848   -0.012478   -1.109215
  C     -2.767562    0.331421   -2.131150
  C     -3.466678    0.725424   -3.328169
  O     -2.977340    1.374771   -4.223505
  H      1.347710    1.442820   -0.085594
  H     -0.182611    1.813086   -0.919635
  H     -0.100489    1.822912    0.857397
  H      0.376206   -0.599800   -0.732993
  H     -1.526289   -1.538409    0.124865
  H     -3.114317    0.853760    3.174460
  H     -4.519278    0.379512   -3.371250

 Total Charge           Charge          ....    0
 Multiplicity           Mult            ....    1
 Number of Electrons    NEL             ....   64
 Basis Dimension        Dim             ....  321

ORBITAL ENERGIES
----------------

  NO   OCC          E(Eh)            E(eV)
   0   2.0000     -20.574108      -559.8499
   1   2.0000     -15.571804      -423.7303
   2   2.0000     -11.363931      -309.2283
   3   2.0000     -11.333642      -308.4041
   4   2.0000     -11.274691      -306.7999
   5   2.0000     -11.253869      -306.2333
   6   2.0000     -11.251566      -306.1707
   7   2.0000     -11.251150      -306.1594
   8   2.0000     -11.242033      -305.9113
   9   2.0000      -1.409342       -38.3502
  10   2.0000      -1.241369       -33.7794
  11   2.0000      -1.091062       -29.6893
  12   2.0000      -1.052212       -28.6321
  13   2.0000      -0.988283       -26.8925
  14   2.0000      -0.913430       -24.8557
  15   2.0000      -0.884756       -24.0754
  16   2.0000      -0.756068       -20.5736
  17   2.0000      -0.727697       -19.8016
  18   2.0000      -0.705856       -19.2073
  19   2.0000      -0.689053       -18.7501
  20   2.0000      -0.662666       -18.0321
  21   2.0000      -0.655048       -17.8248
  22   2.0000      -0.604182       -16.4406
  23   2.0000      -0.561625       -15.2826
  24   2.0000      -0.555031       -15.1032
  25   2.0000      -0.535818       -14.5804
  26   2.0000      -0.460725       -12.5370
  27   2.0000      -0.437580       -11.9072
  28   2.0000      -0.420387       -11.4393
  29   2.0000      -0.407159       -11.0794
  30   2.0000      -0.405309       -11.0290
  31   2.0000      -0.395815       -10.7707
  32   0.0000       0.073061         1.9881
  33   0.0000       0.117421         3.1952
  34   0.0000       0.138621         3.7721
  35   0.0000       0.155218         4.2237
  36   0.0000       0.164215         4.4685

MULLIKEN ATOMIC CHARGES
-----------------------
   0 C :   -0.318236
   1 N :   -0.329310
   2 C :   -0.085476
   3 C :   -0.048112
   4 C :   -0.103252
   5 C :   -0.036269
   6 C :    0.050433
   7 C :    0.024320
   8 O :   -0.252264
   9 H :    0.140633
  10 H :    0.135225
  11 H :    0.146561
  12 H :    0.214035
  13 H :    0.153550
  14 H :    0.198464
  15 H :    0.109699
Sum of atomic charges:    0.0000000

LOEWDIN ATOMIC CHARGES
----------------------
   0 C :   -0.335830
   1 N :   -0.002954
   2 C :   -0.289925
   3 C :   -0.069611
   4 C :   -0.074036
   5 C :    0.002205
   6 C :   -0.055408
   7 C :   -0.292114
   8 O :    0.149416
   9 H :    0.118537
  10 H :    0.108426
  11 H :    0.123157
  12 H :    0.174966
  13 H :    0.187169
  14 H :    0.130199
  15 H :    0.125803

  Mayer bond orders larger than 0.1
B(  0-C ,  1-N ) :   0.9256 B(  0-C ,  9-H ) :   0.9353 B(  0-C , 10-H ) :   0.9259
B(  0-C , 11-H ) :   0.9347 B(  1-N ,  2-C ) :   0.9835 B(  1-N , 12-H ) :   0.8820
B(  2-C ,  3-C ) :   1.1950 B(  2-C ,  4-C ) :  -0.1037 B(  2-C ,  5-C ) :   1.0368
B(  2-C , 13-H ) :   0.9117 B(  3-C ,  4-C ) :   2.5738 B(  4-C , 14-H ) :   0.8915
B(  5-C ,  6-C ) :   2.6558 B(  6-C ,  7-C ) :   0.8569 B(  6-C , 15-H ) :  -0.1108
B(  7-C ,  8-O ) :   2.0160 B(  7-C , 15-H ) :   1.0106

MP2 TOTAL ENERGY:     -399.953529219 Eh
FINAL SINGLE POINT ENERGY      -399.953529219204

DIPOLE MOMENT
-------------
                                X             Y             Z
Electronic contribution:     -5.26899      -1.42222      -3.98475
Nuclear contribution   :      5.16728       0.96852       4.64049
                        -----------------------------------------
Total Dipole Moment    :     -0.10172      -0.45370       0.65573
                        -----------------------------------------
Magnitude (a.u.)       :      0.80385
Magnitude (Debye)      :      2.04323

                             ****ORCA TERMINATED NORMALLY****
TOTAL RUN TIME: 0 days 0 hours 13 minutes 8 seconds 94 msec
