                         Program Version 3.0.3 - RELEASE   -
|  1> ! RI-MP2 RIJK def2-TZVP def2-TZVP/C def2-TZVP/JK TIGHTSCF
|  2> % maxcore 2000
|  3> % mp2 density relaxed end
|  4> *xyz 0 1
|  5>  N        0.0263516088     1.5281503561    -0.0009085728
|  6>  C        0.0223465414     0.0582253223    -0.0126763576
|  7>  C       -1.4531418032    -0.4483440331     0.1271653831
|  8>  C       -2.1210367137     0.0078260791     1.3346940404
|  9>  C       -2.6843155410     0.3621417917     2.3338748004
| 10>  C        0.6015625299    -0.5224687425    -1.2384897159
| 11>  C        1.0422873142    -0.9522830457    -2.2702718547
| 12>  C        0.8145749952    -0.4063905633     1.1485946585
| 13>  N        1.4468970816    -0.7805428369     2.0389929779
| 14>  H        0.9809625310     1.8643007389    -0.0921597397
| 15>  H       -0.4791108062     1.8582687412    -0.8191473613
| 16>  H       -1.9881255564    -0.1051558086    -0.7664579494
| 17>  H       -1.4407392668    -1.5419593002     0.0827834567
| 18>  H       -3.1728712487     0.6800615393     3.2216126721
| 19>  H        1.4478117838    -1.3369788284    -3.1741043776
| 20> *
| 21>
| 22>                          ****END OF INPUT****

CARTESIAN COORDINATES (ANGSTROEM)
---------------------------------
  N      0.026352    1.528150   -0.000909
  C      0.022347    0.058225   -0.012676
  C     -1.453142   -0.448344    0.127165
  C     -2.121037    0.007826    1.334694
  C     -2.684316    0.362142    2.333875
  C      0.601563   -0.522469   -1.238490
  C      1.042287   -0.952283   -2.270272
  C      0.814575   -0.406391    1.148595
  N      1.446897   -0.780543    2.038993
  H      0.980963    1.864301   -0.092160
  H     -0.479111    1.858269   -0.819147
  H     -1.988126   -0.105156   -0.766458
  H     -1.440739   -1.541959    0.082783
  H     -3.172871    0.680062    3.221613
  H      1.447812   -1.336979   -3.174104

 Total Charge           Charge          ....    0
 Multiplicity           Mult            ....    1
 Number of Electrons    NEL             ....   62
 Basis Dimension        Dim             ....  315

ORBITAL ENERGIES
----------------

  NO   OCC          E(Eh)            E(eV)
   0   2.0000     -15.583479      -424.0480
   1   2.0000     -15.579439      -423.9381
   2   2.0000     -11.364075      -309.2322
   3   2.0000     -11.289163      -307.1938
   4   2.0000     -11.279919      -306.9422
   5   2.0000     -11.264274      -306.5165
   6   2.0000     -11.258840      -306.3686
   7   2.0000     -11.242367      -305.9204
   8   2.0000     -11.232448      -305.6504
   9   2.0000      -1.259453       -34.2715
  10   2.0000      -1.213465       -33.0201
  11   2.0000      -1.098428       -29.8898
  12   2.0000      -1.061783       -28.8926
  13   2.0000      -1.005812       -27.3695
  14   2.0000      -0.934792       -25.4370
  15   2.0000      -0.793075       -21.5807
  16   2.0000      -0.741734       -20.1836
  17   2.0000      -0.721124       -19.6228
  18   2.0000      -0.705640       -19.2014
  19   2.0000      -0.669492       -18.2178
  20   2.0000      -0.637412       -17.3449
  21   2.0000      -0.613565       -16.6960
  22   2.0000      -0.585918       -15.9436
  23   2.0000      -0.560207       -15.2440
  24   2.0000      -0.483801       -13.1649
  25   2.0000      -0.476389       -12.9632
  26   2.0000      -0.459792       -12.5116
  27   2.0000      -0.428323       -11.6553
  28   2.0000      -0.416070       -11.3218
  29   2.0000      -0.396876       -10.7996
  30   2.0000      -0.394767       -10.7422
  31   0.0000       0.106668         2.9026
  32   0.0000       0.136898         3.7252
  33   0.0000       0.138022         3.7558
  34   0.0000       0.148526         4.0416
  35   0.0000       0.158520         4.3136

MULLIKEN ATOMIC CHARGES
-----------------------
   0 N :   -0.535369
   1 C :    0.290201
   2 C :   -0.410017
   3 C :    0.035975
   4 C :   -0.133346
   5 C :   -0.115950
   6 C :   -0.118770
   7 C :   -0.185340
   8 N :   -0.037642
   9 H :    0.246703
  10 H :    0.235662
  11 H :    0.159068
  12 H :    0.167704
  13 H :    0.196217
  14 H :    0.204906
Sum of atomic charges:   -0.0000000

LOEWDIN ATOMIC CHARGES
----------------------
   0 N :   -0.074404
   1 C :   -0.329696
   2 C :   -0.180407
   3 C :   -0.105155
   4 C :   -0.076495
   5 C :   -0.066711
   6 C :   -0.063234
   7 C :   -0.126349
   8 N :    0.087166
   9 H :    0.168955
  10 H :    0.166759
  11 H :    0.166281
  12 H :    0.171649
  13 H :    0.129098
  14 H :    0.132543

  Mayer bond orders larger than 0.1
B(  0-N ,  1-C ) :   0.8011 B(  0-N ,  9-H ) :   0.8829 B(  0-N , 10-H ) :   0.8842
B(  1-C ,  2-C ) :   0.8664 B(  1-C ,  5-C ) :   1.2201 B(  1-C ,  7-C ) :   0.9035
B(  2-C ,  3-C ) :   1.0803 B(  2-C ,  4-C ) :  -0.1019 B(  2-C , 11-H ) :   0.9129
B(  2-C , 12-H ) :   0.9218 B(  3-C ,  4-C ) :   2.6492 B(  4-C , 13-H ) :   0.8815
B(  5-C ,  6-C ) :   2.5772 B(  6-C , 14-H ) :   0.8710 B(  7-C ,  8-N ) :   2.8647

MP2 TOTAL ENERGY:     -378.908875606 Eh
FINAL SINGLE POINT ENERGY      -378.908875605970

DIPOLE MOMENT
-------------
                                X             Y             Z
Electronic contribution:      2.40620      -1.49663       1.96325
Nuclear contribution   :     -2.95144       1.85699      -3.54490
                        -----------------------------------------
Total Dipole Moment    :     -0.54525       0.36036      -1.58166
                        -----------------------------------------
Magnitude (a.u.)       :      1.71137
Magnitude (Debye)      :      4.34997

                             ****ORCA TERMINATED NORMALLY****
TOTAL RUN TIME: 0 days 0 hours 15 minutes 12 seconds 990 msec
