                         Program Version 3.0.3 - RELEASE   -
|  1> ! RI-MP2 RIJK def2-TZVP def2-TZVP/C def2-TZVP/JK TIGHTSCF
|  2> % maxcore 2000
|  3> % mp2 density relaxed end
|  4> *xyz 0 1
|  5>  C       -0.0133494364     1.4909508729    -0.0304781132
|  6>  C       -0.0144452171    -0.0237900734     0.0246989166
|  7>  O       -0.0251813992    -0.6332472061     1.0728525886
|  8>  C       -0.0016679000    -0.7496349083    -1.2765099733
|  9>  C       -0.0004888614    -2.0808022022    -1.4260671846
| 10>  C        0.0135700505    -2.4083734085    -2.8540112174
| 11>  N        0.0184449143    -3.5652999899    -3.3674241378
| 12>  O        0.0210477418    -1.2249227838    -3.5579435628
| 13>  C        0.0122688453    -0.1219876274    -2.6491100261
| 14>  H        0.8738206699     1.8554802072    -0.5616163450
| 15>  H       -0.8882397960     1.8562665435    -0.5810594234
| 16>  H       -0.0242697092     1.8940574912     0.9821518527
| 17>  H       -0.0084803756    -2.8236553872    -0.6430167839
| 18>  H        0.0286781290    -3.5084232337    -4.3870767750
| 19>  H       -0.8722321529     0.4975925534    -2.8481335770
| 20>  H        0.9009124471     0.4971154524    -2.8303747983
| 21> *
| 22>
| 23>                          ****END OF INPUT****

CARTESIAN COORDINATES (ANGSTROEM)
---------------------------------
  C     -0.013349    1.490951   -0.030478
  C     -0.014445   -0.023790    0.024699
  O     -0.025181   -0.633247    1.072853
  C     -0.001668   -0.749635   -1.276510
  C     -0.000489   -2.080802   -1.426067
  C      0.013570   -2.408373   -2.854011
  N      0.018445   -3.565300   -3.367424
  O      0.021048   -1.224923   -3.557944
  C      0.012269   -0.121988   -2.649110
  H      0.873821    1.855480   -0.561616
  H     -0.888240    1.856267   -0.581059
  H     -0.024270    1.894057    0.982152
  H     -0.008480   -2.823655   -0.643017
  H      0.028678   -3.508423   -4.387077
  H     -0.872232    0.497593   -2.848134
  H      0.900912    0.497115   -2.830375

 Total Charge           Charge          ....    0
 Multiplicity           Mult            ....    1
 Number of Electrons    NEL             ....   66
 Basis Dimension        Dim             ....  321

ORBITAL ENERGIES
----------------

  NO   OCC          E(Eh)            E(eV)
   0   2.0000     -20.607999      -560.7722
   1   2.0000     -20.564796      -559.5965
   2   2.0000     -15.545319      -423.0096
   3   2.0000     -11.357768      -309.0606
   4   2.0000     -11.350265      -308.8564
   5   2.0000     -11.321287      -308.0679
   6   2.0000     -11.276385      -306.8460
   7   2.0000     -11.272322      -306.7355
   8   2.0000     -11.255551      -306.2791
   9   2.0000      -1.445613       -39.3371
  10   2.0000      -1.407079       -38.2886
  11   2.0000      -1.206143       -32.8208
  12   2.0000      -1.127596       -30.6834
  13   2.0000      -1.035812       -28.1859
  14   2.0000      -0.980419       -26.6786
  15   2.0000      -0.883584       -24.0435
  16   2.0000      -0.790373       -21.5071
  17   2.0000      -0.765478       -20.8297
  18   2.0000      -0.709485       -19.3061
  19   2.0000      -0.694393       -18.8954
  20   2.0000      -0.669685       -18.2231
  21   2.0000      -0.647221       -17.6118
  22   2.0000      -0.634885       -17.2761
  23   2.0000      -0.620967       -16.8974
  24   2.0000      -0.578333       -15.7372
  25   2.0000      -0.562668       -15.3110
  26   2.0000      -0.547669       -14.9028
  27   2.0000      -0.543484       -14.7889
  28   2.0000      -0.528630       -14.3848
  29   2.0000      -0.453862       -12.3502
  30   2.0000      -0.447872       -12.1872
  31   2.0000      -0.440476       -11.9860
  32   2.0000      -0.371701       -10.1145
  33   0.0000       0.047704         1.2981
  34   0.0000       0.112646         3.0653
  35   0.0000       0.159547         4.3415
  36   0.0000       0.174860         4.7582
  37   0.0000       0.179126         4.8743

MULLIKEN ATOMIC CHARGES
-----------------------
   0 C :   -0.409049
   1 C :    0.201979
   2 O :   -0.273009
   3 C :   -0.030135
   4 C :   -0.146141
   5 C :    0.174108
   6 N :   -0.362952
   7 O :   -0.266151
   8 C :   -0.013432
   9 H :    0.147348
  10 H :    0.147274
  11 H :    0.164394
  12 H :    0.173339
  13 H :    0.227679
  14 H :    0.132387
  15 H :    0.132360
Sum of atomic charges:   -0.0000000

LOEWDIN ATOMIC CHARGES
----------------------
   0 C :   -0.269322
   1 C :   -0.322766
   2 O :    0.166268
   3 C :   -0.126835
   4 C :   -0.037858
   5 C :   -0.391440
   6 N :   -0.046531
   7 O :    0.238123
   8 C :   -0.233325
   9 H :    0.138674
  10 H :    0.138635
  11 H :    0.137460
  12 H :    0.162966
  13 H :    0.170186
  14 H :    0.137879
  15 H :    0.137885

  Mayer bond orders larger than 0.1
B(  0-C ,  1-C ) :   0.9490 B(  0-C ,  9-H ) :   0.9131 B(  0-C , 10-H ) :   0.9132
B(  0-C , 11-H ) :   0.9334 B(  1-C ,  2-O ) :   2.0041 B(  1-C ,  3-C ) :   0.8663
B(  2-O ,  3-C ) :  -0.1071 B(  3-C ,  4-C ) :   1.6412 B(  3-C ,  8-C ) :   0.9454
B(  4-C ,  5-C ) :   1.0019 B(  4-C , 12-H ) :   0.9183 B(  5-C ,  6-N ) :   2.0113
B(  5-C ,  7-O ) :   1.0604 B(  6-N , 13-H ) :   0.8544 B(  7-O ,  8-C ) :   0.9135
B(  8-C , 14-H ) :   0.9108 B(  8-C , 15-H ) :   0.9107

MP2 TOTAL ENERGY:     -437.191436831 Eh
FINAL SINGLE POINT ENERGY      -437.191436830843

DIPOLE MOMENT
-------------
                                X             Y             Z
Electronic contribution:      0.00326      -5.26320      -0.53207
Nuclear contribution   :      0.00152       6.86176       0.11642
                        -----------------------------------------
Total Dipole Moment    :      0.00478       1.59856      -0.41565
                        -----------------------------------------
Magnitude (a.u.)       :      1.65172
Magnitude (Debye)      :      4.19833

                             ****ORCA TERMINATED NORMALLY****
TOTAL RUN TIME: 0 days 0 hours 16 minutes 13 seconds 912 msec
