                         Program Version 3.0.3 - RELEASE   -
|  1> ! RI-MP2 RIJK def2-TZVP def2-TZVP/C def2-TZVP/JK TIGHTSCF
|  2> % maxcore 2000
|  3> % mp2 density relaxed end
|  4> *xyz 0 1
|  5>  N       -0.1228856061     1.2840774213    -0.0609495373
|  6>  C        0.0495872365    -0.0585856133     0.0012727612
|  7>  O        1.0947194355    -0.6532249182     0.0258337409
|  8>  N       -1.2114454867    -0.7523678994     0.0202084838
|  9>  N       -2.3848380172    -0.1126725799     0.0274974645
| 10>  C       -3.2814179473    -1.0845980456     0.0547183345
| 11>  C       -2.5949029969    -2.3284161303     0.0577334963
| 12>  N       -3.1184378128    -3.6054526009     0.1507599052
| 13>  N       -1.2903494533    -2.0942420569     0.0310264798
| 14>  H        0.6989522065     1.8564534417     0.0110142345
| 15>  H       -1.0436524648     1.6842756652     0.0025823073
| 16>  H       -4.3395400393    -0.8754112469     0.0737842545
| 17>  H       -3.9857803414    -3.7404121834    -0.3482036843
| 18>  H       -2.4417799227    -4.3220575234    -0.0747731209
| 19> *
| 20>
| 21>                          ****END OF INPUT****

CARTESIAN COORDINATES (ANGSTROEM)
---------------------------------
  N     -0.122886    1.284077   -0.060950
  C      0.049587   -0.058586    0.001273
  O      1.094719   -0.653225    0.025834
  N     -1.211445   -0.752368    0.020208
  N     -2.384838   -0.112673    0.027497
  C     -3.281418   -1.084598    0.054718
  C     -2.594903   -2.328416    0.057733
  N     -3.118438   -3.605453    0.150760
  N     -1.290349   -2.094242    0.031026
  H      0.698952    1.856453    0.011014
  H     -1.043652    1.684276    0.002582
  H     -4.339540   -0.875411    0.073784
  H     -3.985780   -3.740412   -0.348204
  H     -2.441780   -4.322058   -0.074773

 Total Charge           Charge          ....    0
 Multiplicity           Mult            ....    1
 Number of Electrons    NEL             ....   66
 Basis Dimension        Dim             ....  309

ORBITAL ENERGIES
----------------

  NO   OCC          E(Eh)            E(eV)
   0   2.0000     -20.530134      -558.6533
   1   2.0000     -15.684279      -426.7909
   2   2.0000     -15.637441      -425.5164
   3   2.0000     -15.607348      -424.6975
   4   2.0000     -15.591231      -424.2590
   5   2.0000     -15.584526      -424.0765
   6   2.0000     -11.400552      -310.2248
   7   2.0000     -11.319153      -308.0098
   8   2.0000     -11.282717      -307.0183
   9   2.0000      -1.466588       -39.9079
  10   2.0000      -1.396431       -37.9988
  11   2.0000      -1.257263       -34.2119
  12   2.0000      -1.227894       -33.4127
  13   2.0000      -1.188377       -32.3374
  14   2.0000      -1.101806       -29.9817
  15   2.0000      -0.904653       -24.6169
  16   2.0000      -0.845427       -23.0052
  17   2.0000      -0.804384       -21.8884
  18   2.0000      -0.771094       -20.9825
  19   2.0000      -0.714457       -19.4414
  20   2.0000      -0.684349       -18.6221
  21   2.0000      -0.680172       -18.5084
  22   2.0000      -0.667625       -18.1670
  23   2.0000      -0.649402       -17.6711
  24   2.0000      -0.622948       -16.9513
  25   2.0000      -0.581249       -15.8166
  26   2.0000      -0.518301       -14.1037
  27   2.0000      -0.509742       -13.8708
  28   2.0000      -0.483200       -13.1485
  29   2.0000      -0.458295       -12.4708
  30   2.0000      -0.432883       -11.7793
  31   2.0000      -0.409868       -11.1531
  32   2.0000      -0.345894        -9.4123
  33   0.0000       0.094898         2.5823
  34   0.0000       0.125184         3.4064
  35   0.0000       0.141658         3.8547
  36   0.0000       0.168152         4.5756
  37   0.0000       0.185887         5.0583

MULLIKEN ATOMIC CHARGES
-----------------------
   0 N :   -0.489733
   1 C :    0.297995
   2 O :   -0.307337
   3 N :    0.243955
   4 N :   -0.286721
   5 C :   -0.128317
   6 C :    0.205673
   7 N :   -0.520222
   8 N :   -0.249047
   9 H :    0.270523
  10 H :    0.290441
  11 H :    0.150347
  12 H :    0.256355
  13 H :    0.266088
Sum of atomic charges:    0.0000000

LOEWDIN ATOMIC CHARGES
----------------------
   0 N :   -0.008176
   1 C :   -0.518846
   2 O :    0.120236
   3 N :    0.143009
   4 N :    0.039667
   5 C :   -0.253569
   6 C :   -0.383215
   7 N :   -0.069519
   8 N :    0.084593
   9 H :    0.180723
  10 H :    0.176892
  11 H :    0.138216
  12 H :    0.172479
  13 H :    0.177511

  Mayer bond orders larger than 0.1
B(  0-N ,  1-C ) :   1.2064 B(  0-N ,  9-H ) :   0.8625 B(  0-N , 10-H ) :   0.8428
B(  1-C ,  2-O ) :   2.0273 B(  1-C ,  3-N ) :   0.8989 B(  3-N ,  4-N ) :   1.0421
B(  3-N ,  8-N ) :   1.0486 B(  4-N ,  5-C ) :   1.4506 B(  5-C ,  6-C ) :   1.2841
B(  5-C , 11-H ) :   0.9241 B(  6-C ,  7-N ) :   1.0551 B(  6-C ,  8-N ) :   1.4586
B(  7-N , 12-H ) :   0.8743 B(  7-N , 13-H ) :   0.8668

MP2 TOTAL ENERGY:     -465.479975322 Eh
FINAL SINGLE POINT ENERGY      -465.479975322475

DIPOLE MOMENT
-------------
                                X             Y             Z
Electronic contribution:      2.46856       0.63303       0.10418
Nuclear contribution   :     -3.84294      -0.20339      -0.45511
                        -----------------------------------------
Total Dipole Moment    :     -1.37437       0.42965      -0.35092
                        -----------------------------------------
Magnitude (a.u.)       :      1.48211
Magnitude (Debye)      :      3.76721

                             ****ORCA TERMINATED NORMALLY****
TOTAL RUN TIME: 0 days 0 hours 15 minutes 29 seconds 59 msec
