                         Program Version 3.0.3 - RELEASE   -
|  1> ! RI-MP2 RIJK def2-TZVP def2-TZVP/C def2-TZVP/JK TIGHTSCF
|  2> % maxcore 2000
|  3> % mp2 density relaxed end
|  4> *xyz 0 1
|  5>  C       -0.1098486113     1.4999787299     0.0452931698
|  6>  C       -0.0066435634    -0.0127683573     0.0409888285
|  7>  O       -1.3437487240    -0.5377956004    -0.0043813989
|  8>  C       -1.4290884136    -1.8730949843    -0.0142590844
|  9>  N       -0.4569863613    -2.7462699598     0.0122057031
| 10>  C       -1.0877025014    -3.9870565338    -0.0146384730
| 11>  C       -0.2982764246    -5.2537846114     0.0037623759
| 12>  C       -2.4422041079    -3.8266180209    -0.0572388764
| 13>  N       -2.6579129378    -2.4506518627    -0.0567342103
| 14>  H        0.8914599373     1.9392019601     0.0795877712
| 15>  H       -0.6137158929     1.8596070487    -0.8564463539
| 16>  H       -0.6705165655     1.8506765380     0.9165062938
| 17>  H        0.5514033945    -0.3834762951    -0.8256583027
| 18>  H        0.4950512176    -0.3923112033     0.9377487977
| 19>  H        0.3224868641    -5.3207443572     0.9043143539
| 20>  H       -0.9571583577    -6.1261887611    -0.0221047930
| 21>  H        0.3788744767    -5.3111507190    -0.8558877807
| 22>  H       -3.2581178532    -4.5288797722    -0.0868082944
| 23>  H       -3.5370134357    -1.9642371682    -0.0821955263
| 24> *
| 25>
| 26>                          ****END OF INPUT****

CARTESIAN COORDINATES (ANGSTROEM)
---------------------------------
  C     -0.109849    1.499979    0.045293
  C     -0.006644   -0.012768    0.040989
  O     -1.343749   -0.537796   -0.004381
  C     -1.429088   -1.873095   -0.014259
  N     -0.456986   -2.746270    0.012206
  C     -1.087703   -3.987057   -0.014638
  C     -0.298276   -5.253785    0.003762
  C     -2.442204   -3.826618   -0.057239
  N     -2.657913   -2.450652   -0.056734
  H      0.891460    1.939202    0.079588
  H     -0.613716    1.859607   -0.856446
  H     -0.670517    1.850677    0.916506
  H      0.551403   -0.383476   -0.825658
  H      0.495051   -0.392311    0.937749
  H      0.322487   -5.320744    0.904314
  H     -0.957158   -6.126189   -0.022105
  H      0.378874   -5.311151   -0.855888
  H     -3.258118   -4.528880   -0.086808
  H     -3.537013   -1.964237   -0.082196

 Total Charge           Charge          ....    0
 Multiplicity           Mult            ....    1
 Number of Electrons    NEL             ....   68
 Basis Dimension        Dim             ....  339

ORBITAL ENERGIES
----------------

  NO   OCC          E(Eh)            E(eV)
   0   2.0000     -20.594494      -560.4047
   1   2.0000     -15.602161      -424.5564
   2   2.0000     -15.526406      -422.4950
   3   2.0000     -11.350026      -308.8499
   4   2.0000     -11.284420      -307.0647
   5   2.0000     -11.244342      -305.9741
   6   2.0000     -11.241899      -305.9076
   7   2.0000     -11.222102      -305.3689
   8   2.0000     -11.213256      -305.1282
   9   2.0000      -1.436692       -39.0944
  10   2.0000      -1.315530       -35.7974
  11   2.0000      -1.163444       -31.6589
  12   2.0000      -1.044308       -28.4171
  13   2.0000      -1.010257       -27.4905
  14   2.0000      -0.928232       -25.2585
  15   2.0000      -0.862312       -23.4647
  16   2.0000      -0.801881       -21.8203
  17   2.0000      -0.776207       -21.1217
  18   2.0000      -0.739665       -20.1273
  19   2.0000      -0.680079       -18.5059
  20   2.0000      -0.647759       -17.6264
  21   2.0000      -0.623393       -16.9634
  22   2.0000      -0.606716       -16.5096
  23   2.0000      -0.581447       -15.8220
  24   2.0000      -0.558521       -15.1981
  25   2.0000      -0.542860       -14.7720
  26   2.0000      -0.536293       -14.5933
  27   2.0000      -0.528925       -14.3928
  28   2.0000      -0.527881       -14.3644
  29   2.0000      -0.504152       -13.7187
  30   2.0000      -0.470712       -12.8087
  31   2.0000      -0.432743       -11.7755
  32   2.0000      -0.391633       -10.6569
  33   2.0000      -0.294216        -8.0060
  34   0.0000       0.137704         3.7471
  35   0.0000       0.147078         4.0022
  36   0.0000       0.160015         4.3542
  37   0.0000       0.187055         5.0900
  38   0.0000       0.188091         5.1182

MULLIKEN ATOMIC CHARGES
-----------------------
   0 C :   -0.357838
   1 C :   -0.044116
   2 O :   -0.283952
   3 C :    0.355117
   4 N :   -0.353407
   5 C :    0.076292
   6 C :   -0.411715
   7 C :   -0.124832
   8 N :   -0.278328
   9 H :    0.130017
  10 H :    0.130461
  11 H :    0.130463
  12 H :    0.117441
  13 H :    0.117426
  14 H :    0.138005
  15 H :    0.126212
  16 H :    0.138001
  17 H :    0.143266
  18 H :    0.251487
Sum of atomic charges:    0.0000000

LOEWDIN ATOMIC CHARGES
----------------------
   0 C :   -0.316559
   1 C :   -0.305363
   2 O :    0.239399
   3 C :   -0.451808
   4 N :    0.103290
   5 C :   -0.291249
   6 C :   -0.277499
   7 C :   -0.229137
   8 N :    0.181550
   9 H :    0.128054
  10 H :    0.124233
  11 H :    0.124235
  12 H :    0.127669
  13 H :    0.127665
  14 H :    0.130418
  15 H :    0.128316
  16 H :    0.130421
  17 H :    0.133505
  18 H :    0.192858

  Mayer bond orders larger than 0.1
B(  0-C ,  1-C ) :   0.9361 B(  0-C ,  9-H ) :   0.9345 B(  0-C , 10-H ) :   0.9345
B(  0-C , 11-H ) :   0.9345 B(  1-C ,  2-O ) :   0.8308 B(  1-C , 12-H ) :   0.9303
B(  1-C , 13-H ) :   0.9303 B(  2-O ,  3-C ) :   1.1191 B(  3-C ,  4-N ) :   1.5118
B(  3-C ,  8-N ) :   1.1843 B(  4-N ,  5-C ) :   1.2154 B(  5-C ,  6-C ) :   0.8850
B(  5-C ,  7-C ) :   1.5778 B(  6-C , 14-H ) :   0.9354 B(  6-C , 15-H ) :   0.9515
B(  6-C , 16-H ) :   0.9354 B(  7-C ,  8-N ) :   1.0644 B(  7-C , 17-H ) :   0.9070
B(  8-N , 18-H ) :   0.8647

MP2 TOTAL ENERGY:     -418.544037691 Eh
FINAL SINGLE POINT ENERGY      -418.544037690828

DIPOLE MOMENT
-------------
                                X             Y             Z
Electronic contribution:     -4.81784      -1.88867      -0.16289
Nuclear contribution   :      4.11171       2.22267       0.14204
                        -----------------------------------------
Total Dipole Moment    :     -0.70613       0.33400      -0.02084
                        -----------------------------------------
Magnitude (a.u.)       :      0.78142
Magnitude (Debye)      :      1.98621

                             ****ORCA TERMINATED NORMALLY****
TOTAL RUN TIME: 0 days 0 hours 15 minutes 57 seconds 718 msec
