                         Program Version 3.0.3 - RELEASE   -
|  1> ! RI-MP2 RIJK def2-TZVP def2-TZVP/C def2-TZVP/JK TIGHTSCF
|  2> % maxcore 2000
|  3> % mp2 density relaxed end
|  4> *xyz 0 1
|  5>  C       -0.1331319138     1.5046360533    -0.0046192167
|  6>  C        0.0884464427     0.0275212004     0.0429894719
|  7>  C        0.8989009205    -0.8374292932    -0.8435533006
|  8>  C        1.7515041386    -1.7225099479    -0.0163993934
|  9>  C        1.3009867829    -1.7289470034     1.2457890651
| 10>  C        0.0300544892    -0.9228290484     1.3043114296
| 11>  O       -0.4281699865    -0.4664375076     2.5400254396
| 12>  C       -1.0225255092    -1.7003356225     0.4562975809
| 13>  N       -0.6449911641    -0.9749432359    -0.7872598118
| 14>  H        0.7275640741     2.0487122321     0.4006290009
| 15>  H       -0.2915583954     1.8291542761    -1.0373493052
| 16>  H       -1.0150084460     1.7830286879     0.5818997710
| 17>  H        1.2048820227    -0.5071837069    -1.8290679518
| 18>  H        2.5630606629    -2.3162823605    -0.4173832238
| 19>  H        1.6348454617    -2.3610150444     2.0606322730
| 20>  H        0.3173184466    -0.0869462205     3.0175886208
| 21>  H       -0.9590062599    -2.7926252494     0.4275682236
| 22>  H       -2.0322398070    -1.3797210793     0.7244717068
| 23> *
| 24>
| 25>                          ****END OF INPUT****

CARTESIAN COORDINATES (ANGSTROEM)
---------------------------------
  C     -0.133132    1.504636   -0.004619
  C      0.088446    0.027521    0.042989
  C      0.898901   -0.837429   -0.843553
  C      1.751504   -1.722510   -0.016399
  C      1.300987   -1.728947    1.245789
  C      0.030054   -0.922829    1.304311
  O     -0.428170   -0.466438    2.540025
  C     -1.022526   -1.700336    0.456298
  N     -0.644991   -0.974943   -0.787260
  H      0.727564    2.048712    0.400629
  H     -0.291558    1.829154   -1.037349
  H     -1.015008    1.783029    0.581900
  H      1.204882   -0.507184   -1.829068
  H      2.563061   -2.316282   -0.417383
  H      1.634845   -2.361015    2.060632
  H      0.317318   -0.086946    3.017589
  H     -0.959006   -2.792625    0.427568
  H     -2.032240   -1.379721    0.724472

 Total Charge           Charge          ....    0
 Multiplicity           Mult            ....    1
 Number of Electrons    NEL             ....   66
 Basis Dimension        Dim             ....  333

ORBITAL ENERGIES
----------------

  NO   OCC          E(Eh)            E(eV)
   0   2.0000     -20.573386      -559.8303
   1   2.0000     -15.561012      -423.4367
   2   2.0000     -11.298713      -307.4536
   3   2.0000     -11.266569      -306.5789
   4   2.0000     -11.262233      -306.4609
   5   2.0000     -11.251807      -306.1772
   6   2.0000     -11.239097      -305.8314
   7   2.0000     -11.235646      -305.7375
   8   2.0000     -11.225348      -305.4572
   9   2.0000      -1.386159       -37.7193
  10   2.0000      -1.293988       -35.2112
  11   2.0000      -1.081974       -29.4420
  12   2.0000      -1.014245       -27.5990
  13   2.0000      -0.988493       -26.8983
  14   2.0000      -0.879189       -23.9239
  15   2.0000      -0.837749       -22.7963
  16   2.0000      -0.764450       -20.8017
  17   2.0000      -0.739778       -20.1304
  18   2.0000      -0.700399       -19.0588
  19   2.0000      -0.652947       -17.7676
  20   2.0000      -0.617394       -16.8001
  21   2.0000      -0.608968       -16.5709
  22   2.0000      -0.589140       -16.0313
  23   2.0000      -0.575473       -15.6594
  24   2.0000      -0.565702       -15.3935
  25   2.0000      -0.556164       -15.1340
  26   2.0000      -0.543277       -14.7833
  27   2.0000      -0.500033       -13.6066
  28   2.0000      -0.484964       -13.1965
  29   2.0000      -0.429233       -11.6800
  30   2.0000      -0.406755       -11.0684
  31   2.0000      -0.380107       -10.3432
  32   2.0000      -0.341608        -9.2956
  33   0.0000       0.115324         3.1381
  34   0.0000       0.139564         3.7977
  35   0.0000       0.165090         4.4923
  36   0.0000       0.166648         4.5347
  37   0.0000       0.186038         5.0624

MULLIKEN ATOMIC CHARGES
-----------------------
   0 C :   -0.421234
   1 C :    0.150321
   2 C :   -0.119087
   3 C :   -0.165167
   4 C :   -0.281775
   5 C :    0.273665
   6 O :   -0.458419
   7 C :   -0.132986
   8 N :   -0.244756
   9 H :    0.133205
  10 H :    0.147326
  11 H :    0.149733
  12 H :    0.126011
  13 H :    0.135853
  14 H :    0.141917
  15 H :    0.323532
  16 H :    0.110097
  17 H :    0.131765
Sum of atomic charges:   -0.0000000

LOEWDIN ATOMIC CHARGES
----------------------
   0 C :   -0.270416
   1 C :   -0.213269
   2 C :   -0.179460
   3 C :   -0.135735
   4 C :   -0.130906
   5 C :   -0.314489
   6 O :    0.027850
   7 C :   -0.202450
   8 N :    0.136590
   9 H :    0.131409
  10 H :    0.137809
  11 H :    0.135755
  12 H :    0.146477
  13 H :    0.140336
  14 H :    0.140790
  15 H :    0.183717
  16 H :    0.122569
  17 H :    0.143422

  Mayer bond orders larger than 0.1
B(  0-C ,  1-C ) :   0.8194 B(  0-C ,  9-H ) :   0.9337 B(  0-C , 10-H ) :   0.9446
B(  0-C , 11-H ) :   0.9391 B(  1-C ,  2-C ) :   0.8497 B(  1-C ,  5-C ) :   0.8160
B(  1-C ,  8-N ) :   0.8443 B(  2-C ,  3-C ) :   1.0081 B(  2-C ,  8-N ) :   0.8664
B(  2-C , 12-H ) :   0.9325 B(  3-C ,  4-C ) :   1.7036 B(  3-C , 13-H ) :   0.9208
B(  4-C ,  5-C ) :   0.9931 B(  4-C , 14-H ) :   0.9242 B(  5-C ,  6-O ) :   1.0268
B(  5-C ,  7-C ) :   0.9293 B(  6-O , 15-H ) :   0.8371 B(  7-C ,  8-N ) :   0.9745
B(  7-C , 16-H ) :   0.9201 B(  7-C , 17-H ) :   0.9116

MP2 TOTAL ENERGY:     -401.217223360 Eh
FINAL SINGLE POINT ENERGY      -401.217223360228

DIPOLE MOMENT
-------------
                                X             Y             Z
Electronic contribution:      0.26711      -2.39683       0.79127
Nuclear contribution   :      0.54422       2.59306      -0.39136
                        -----------------------------------------
Total Dipole Moment    :      0.81133       0.19623       0.39991
                        -----------------------------------------
Magnitude (a.u.)       :      0.92558
Magnitude (Debye)      :      2.35263

                             ****ORCA TERMINATED NORMALLY****
TOTAL RUN TIME: 0 days 0 hours 18 minutes 42 seconds 264 msec
