                         Program Version 3.0.3 - RELEASE   -
|  1> ! RI-MP2 RIJK def2-TZVP def2-TZVP/C def2-TZVP/JK TIGHTSCF
|  2> % maxcore 2000
|  3> % mp2 density relaxed end
|  4> *xyz 0 1
|  5>  C       -0.0655496447     1.5328693126    -0.0126371719
|  6>  C        0.0071971257     0.0190102631    -0.0115345034
|  7>  C       -1.2386738275    -0.6776029460    -0.5238935257
|  8>  C        1.3351143858    -0.6332235818    -0.2632529211
|  9>  C        0.7378831241    -0.6788606168     1.1398805154
| 10>  C        1.3416836143     0.0786406161     2.1978700215
| 11>  N        1.8224045199     0.6940531075     3.0523708660
| 12>  H        0.8378864206     1.9851846586     0.4036138517
| 13>  H       -0.1927217308     1.9043010442    -1.0353845311
| 14>  H       -0.9172954966     1.8837765221     0.5799213650
| 15>  H       -1.4398455834    -0.3886207776    -1.5615504534
| 16>  H       -1.1343836686    -1.7665843396    -0.4952291339
| 17>  H       -2.1151248682    -0.4055604858     0.0741203400
| 18>  H        1.3673654268    -1.5725216334    -0.8044238567
| 19>  H        2.2019049367     0.0021191149    -0.4053545941
| 20>  H        0.3300087058    -1.6308560781     1.4640393717
| 21> *
| 22>
| 23>                          ****END OF INPUT****

CARTESIAN COORDINATES (ANGSTROEM)
---------------------------------
  C     -0.065550    1.532869   -0.012637
  C      0.007197    0.019010   -0.011535
  C     -1.238674   -0.677603   -0.523894
  C      1.335114   -0.633224   -0.263253
  C      0.737883   -0.678861    1.139881
  C      1.341684    0.078641    2.197870
  N      1.822405    0.694053    3.052371
  H      0.837886    1.985185    0.403614
  H     -0.192722    1.904301   -1.035385
  H     -0.917295    1.883777    0.579921
  H     -1.439846   -0.388621   -1.561550
  H     -1.134384   -1.766584   -0.495229
  H     -2.115125   -0.405560    0.074120
  H      1.367365   -1.572522   -0.804424
  H      2.201905    0.002119   -0.405355
  H      0.330009   -1.630856    1.464039

 Total Charge           Charge          ....    0
 Multiplicity           Mult            ....    1
 Number of Electrons    NEL             ....   52
 Basis Dimension        Dim             ....  271

ORBITAL ENERGIES
----------------

  NO   OCC          E(Eh)            E(eV)
   0   2.0000     -15.561843      -423.4593
   1   2.0000     -11.278927      -306.9152
   2   2.0000     -11.272936      -306.7522
   3   2.0000     -11.269279      -306.6527
   4   2.0000     -11.255944      -306.2898
   5   2.0000     -11.237787      -305.7957
   6   2.0000     -11.231725      -305.6308
   7   2.0000      -1.219463       -33.1833
   8   2.0000      -1.181230       -32.1429
   9   2.0000      -1.011059       -27.5123
  10   2.0000      -0.957797       -26.0630
  11   2.0000      -0.904046       -24.6003
  12   2.0000      -0.782951       -21.3052
  13   2.0000      -0.713449       -19.4139
  14   2.0000      -0.657434       -17.8897
  15   2.0000      -0.614158       -16.7121
  16   2.0000      -0.595087       -16.1931
  17   2.0000      -0.578213       -15.7340
  18   2.0000      -0.557757       -15.1773
  19   2.0000      -0.549217       -14.9449
  20   2.0000      -0.540680       -14.7126
  21   2.0000      -0.507860       -13.8196
  22   2.0000      -0.503874       -13.7111
  23   2.0000      -0.475205       -12.9310
  24   2.0000      -0.423487       -11.5237
  25   2.0000      -0.403313       -10.9747
  26   0.0000       0.121618         3.3094
  27   0.0000       0.156454         4.2573
  28   0.0000       0.160610         4.3704
  29   0.0000       0.168205         4.5771
  30   0.0000       0.181981         4.9520

MULLIKEN ATOMIC CHARGES
-----------------------
   0 C :   -0.391829
   1 C :    0.095082
   2 C :   -0.393790
   3 C :   -0.275138
   4 C :   -0.037535
   5 C :   -0.219301
   6 N :   -0.061660
   7 H :    0.149117
   8 H :    0.137610
   9 H :    0.138533
  10 H :    0.138012
  11 H :    0.129300
  12 H :    0.140568
  13 H :    0.145165
  14 H :    0.150829
  15 H :    0.155038
Sum of atomic charges:    0.0000000

LOEWDIN ATOMIC CHARGES
----------------------
   0 C :   -0.255021
   1 C :   -0.265607
   2 C :   -0.259396
   3 C :   -0.157514
   4 C :   -0.179761
   5 C :   -0.182794
   6 N :    0.055438
   7 H :    0.136046
   8 H :    0.130853
   9 H :    0.132508
  10 H :    0.130905
  11 H :    0.128979
  12 H :    0.130752
  13 H :    0.139379
  14 H :    0.144901
  15 H :    0.170334

  Mayer bond orders larger than 0.1
B(  0-C ,  1-C ) :   0.9450 B(  0-C ,  7-H ) :   0.9216 B(  0-C ,  8-H ) :   0.9362
B(  0-C ,  9-H ) :   0.9344 B(  1-C ,  2-C ) :   0.9119 B(  1-C ,  3-C ) :   0.8860
B(  1-C ,  4-C ) :   0.8093 B(  2-C , 10-H ) :   0.9369 B(  2-C , 11-H ) :   0.9260
B(  2-C , 12-H ) :   0.9377 B(  3-C ,  4-C ) :   0.8426 B(  3-C , 13-H ) :   0.9256
B(  3-C , 14-H ) :   0.9246 B(  4-C ,  5-C ) :   0.9762 B(  4-C , 15-H ) :   0.9082
B(  5-C ,  6-N ) :   2.8516

MP2 TOTAL ENERGY:     -288.133263117 Eh
FINAL SINGLE POINT ENERGY      -288.133263117286

DIPOLE MOMENT
-------------
                                X             Y             Z
Electronic contribution:      4.66175      -0.17631       6.58971
Nuclear contribution   :     -5.41692      -0.46685      -7.98543
                        -----------------------------------------
Total Dipole Moment    :     -0.75517      -0.64316      -1.39572
                        -----------------------------------------
Magnitude (a.u.)       :      1.71230
Magnitude (Debye)      :      4.35233

                             ****ORCA TERMINATED NORMALLY****
TOTAL RUN TIME: 0 days 0 hours 9 minutes 13 seconds 471 msec
