                         Program Version 3.0.3 - RELEASE   -
|  1> ! RI-MP2 RIJK def2-TZVP def2-TZVP/C def2-TZVP/JK TIGHTSCF
|  2> % maxcore 2000
|  3> % mp2 density relaxed end
|  4> *xyz 0 1
|  5>  C        0.0073526853     1.5890804033    -0.1092339294
|  6>  C       -0.0021185881     0.0546740540    -0.0135556468
|  7>  C       -1.4572970187    -0.4510044583     0.0807910193
|  8>  C        0.7553909184    -0.6009422412    -1.2129619290
|  9>  C        1.5661123311    -1.7862241426    -0.6315408610
| 10>  C        1.6375714074    -1.4592723628     0.8327275764
| 11>  C        0.8000736132    -0.4694984107     1.1764210060
| 12>  C        0.6345611872    -0.0348796944     2.5665070672
| 13>  O       -0.1781066376     0.7764232408     2.9577706429
| 14>  H        1.0318646947     1.9751837024    -0.1391793705
| 15>  H       -0.5003503936     1.9140111720    -1.0244382592
| 16>  H       -0.5003439539     2.0364753217     0.7477073082
| 17>  H       -2.0401322362    -0.0984763505    -0.7773201715
| 18>  H       -1.4991583087    -1.5454817391     0.0914423518
| 19>  H       -1.9344502517    -0.0830181121     0.9929404570
| 20>  H        0.0722211152    -0.9071070725    -2.0098132643
| 21>  H        1.4468264943     0.1297294462    -1.6447034352
| 22>  H        1.0611803599    -2.7523574338    -0.7746377497
| 23>  H        2.5553011769    -1.8951730965    -1.0902914652
| 24>  H        2.2680622075    -1.9988493556     1.5337736074
| 25>  H        1.3327568772    -0.5280381802     3.2809501257
| 26> *
| 27>
| 28>                          ****END OF INPUT****

CARTESIAN COORDINATES (ANGSTROEM)
---------------------------------
  C      0.007353    1.589080   -0.109234
  C     -0.002119    0.054674   -0.013556
  C     -1.457297   -0.451004    0.080791
  C      0.755391   -0.600942   -1.212962
  C      1.566112   -1.786224   -0.631541
  C      1.637571   -1.459272    0.832728
  C      0.800074   -0.469498    1.176421
  C      0.634561   -0.034880    2.566507
  O     -0.178107    0.776423    2.957771
  H      1.031865    1.975184   -0.139179
  H     -0.500350    1.914011   -1.024438
  H     -0.500344    2.036475    0.747707
  H     -2.040132   -0.098476   -0.777320
  H     -1.499158   -1.545482    0.091442
  H     -1.934450   -0.083018    0.992940
  H      0.072221   -0.907107   -2.009813
  H      1.446826    0.129729   -1.644703
  H      1.061180   -2.752357   -0.774638
  H      2.555301   -1.895173   -1.090291
  H      2.268062   -1.998849    1.533774
  H      1.332757   -0.528038    3.280950

 Total Charge           Charge          ....    0
 Multiplicity           Mult            ....    1
 Number of Electrons    NEL             ....   68
 Basis Dimension        Dim             ....  351

ORBITAL ENERGIES
----------------

  NO   OCC          E(Eh)            E(eV)
   0   2.0000     -20.547560      -559.1275
   1   2.0000     -11.328479      -308.2636
   2   2.0000     -11.258691      -306.3645
   3   2.0000     -11.244254      -305.9717
   4   2.0000     -11.240702      -305.8751
   5   2.0000     -11.236909      -305.7718
   6   2.0000     -11.227503      -305.5159
   7   2.0000     -11.211369      -305.0769
   8   2.0000     -11.207159      -304.9623
   9   2.0000      -1.384433       -37.6723
  10   2.0000      -1.161425       -31.6040
  11   2.0000      -1.041333       -28.3361
  12   2.0000      -1.005978       -27.3741
  13   2.0000      -0.928326       -25.2610
  14   2.0000      -0.892376       -24.2828
  15   2.0000      -0.838236       -22.8096
  16   2.0000      -0.783635       -21.3238
  17   2.0000      -0.712255       -19.3815
  18   2.0000      -0.679883       -18.5006
  19   2.0000      -0.644300       -17.5323
  20   2.0000      -0.635615       -17.2960
  21   2.0000      -0.589587       -16.0435
  22   2.0000      -0.583174       -15.8690
  23   2.0000      -0.562965       -15.3191
  24   2.0000      -0.556822       -15.1519
  25   2.0000      -0.553331       -15.0569
  26   2.0000      -0.519914       -14.1476
  27   2.0000      -0.504069       -13.7164
  28   2.0000      -0.501742       -13.6531
  29   2.0000      -0.479012       -13.0346
  30   2.0000      -0.471588       -12.8326
  31   2.0000      -0.457610       -12.4522
  32   2.0000      -0.413702       -11.2574
  33   2.0000      -0.362302        -9.8587
  34   0.0000       0.088728         2.4144
  35   0.0000       0.130444         3.5496
  36   0.0000       0.152813         4.1583
  37   0.0000       0.166472         4.5299
  38   0.0000       0.172562         4.6957

MULLIKEN ATOMIC CHARGES
-----------------------
   0 C :   -0.433802
   1 C :    0.226895
   2 C :   -0.461590
   3 C :   -0.293872
   4 C :   -0.183180
   5 C :   -0.157234
   6 C :   -0.031002
   7 C :    0.056962
   8 O :   -0.292460
   9 H :    0.124362
  10 H :    0.129287
  11 H :    0.162289
  12 H :    0.130947
  13 H :    0.129166
  14 H :    0.158074
  15 H :    0.129650
  16 H :    0.123602
  17 H :    0.127399
  18 H :    0.132580
  19 H :    0.139011
  20 H :    0.082918
Sum of atomic charges:   -0.0000000

LOEWDIN ATOMIC CHARGES
----------------------
   0 C :   -0.266552
   1 C :   -0.265362
   2 C :   -0.260419
   3 C :   -0.190692
   4 C :   -0.236918
   5 C :   -0.085942
   6 C :   -0.136200
   7 C :   -0.272307
   8 O :    0.121753
   9 H :    0.124951
  10 H :    0.125676
  11 H :    0.131920
  12 H :    0.125225
  13 H :    0.125871
  14 H :    0.132178
  15 H :    0.137055
  16 H :    0.142091
  17 H :    0.146061
  18 H :    0.140867
  19 H :    0.142428
  20 H :    0.118314

  Mayer bond orders larger than 0.1
B(  0-C ,  1-C ) :   0.8868 B(  0-C ,  9-H ) :   0.9321 B(  0-C , 10-H ) :   0.9327
B(  0-C , 11-H ) :   0.9335 B(  1-C ,  2-C ) :   0.8833 B(  1-C ,  3-C ) :   0.8773
B(  1-C ,  6-C ) :   0.8700 B(  2-C , 12-H ) :   0.9315 B(  2-C , 13-H ) :   0.9315
B(  2-C , 14-H ) :   0.9375 B(  3-C ,  4-C ) :   0.9615 B(  3-C , 15-H ) :   0.9363
B(  3-C , 16-H ) :   0.9313 B(  4-C ,  5-C ) :   0.9389 B(  4-C , 17-H ) :   0.9046
B(  4-C , 18-H ) :   0.9284 B(  5-C ,  6-C ) :   1.6539 B(  5-C , 19-H ) :   0.9163
B(  6-C ,  7-C ) :   0.8843 B(  6-C , 20-H ) :  -0.1068 B(  7-C ,  8-O ) :   1.9459
B(  7-C , 20-H ) :   0.9827

MP2 TOTAL ENERGY:     -386.445669625 Eh
FINAL SINGLE POINT ENERGY      -386.445669625080

DIPOLE MOMENT
-------------
                                X             Y             Z
Electronic contribution:      1.85889       0.06674       7.10566
Nuclear contribution   :     -1.25285      -0.85050      -7.87279
                        -----------------------------------------
Total Dipole Moment    :      0.60604      -0.78376      -0.76712
                        -----------------------------------------
Magnitude (a.u.)       :      1.25301
Magnitude (Debye)      :      3.18490

                             ****ORCA TERMINATED NORMALLY****
TOTAL RUN TIME: 0 days 0 hours 22 minutes 37 seconds 571 msec
