                         Program Version 3.0.3 - RELEASE   -
|  1> ! RI-MP2 RIJK def2-TZVP def2-TZVP/C def2-TZVP/JK TIGHTSCF
|  2> % maxcore 2000
|  3> % mp2 density relaxed end
|  4> *xyz 0 1
|  5>  C        0.5220821082     1.5154518732     0.0718522237
|  6>  C       -0.0401642756     0.0987511103     0.1221190794
|  7>  C        0.2548831596    -0.7505624801    -1.1355360752
|  8>  C        1.4349453262    -1.6442263903    -0.7076610386
|  9>  C        1.5561104957    -2.9476439315    -1.4940562683
| 10>  O        2.6640383076    -0.9135293301    -0.7641312744
| 11>  C        1.1046698835    -1.8422756248     0.7870397389
| 12>  C        2.2662861657    -2.2195411829     1.6906001335
| 13>  O        0.5676973738    -0.5974749138     1.2186476967
| 14>  H        1.5916761052     1.4827580488    -0.1507722528
| 15>  H        0.0127764943     2.1083392940    -0.6958728064
| 16>  H        0.3817518790     2.0105791898     1.0369968709
| 17>  H       -1.1240709614     0.1447288674     0.3004671449
| 18>  H       -0.6078188862    -1.3704091185    -1.3995092236
| 19>  H        0.5028218522    -0.1394796838    -2.0087835040
| 20>  H        1.7207279273    -2.7440118019    -2.5588233518
| 21>  H        2.4041200370    -3.5353298377    -1.1304360266
| 22>  H        0.6489008903    -3.5537448739    -1.4095833351
| 23>  H        2.8535949559    -0.7318549459    -1.6903118387
| 24>  H        0.3258020708    -2.6234665086     0.8478186829
| 25>  H        3.0659654732    -1.4826328086     1.6049432652
| 26>  H        1.9280196408    -2.2599231082     2.7294627021
| 27>  H        2.6614067870    -3.2043434126     1.4216905274
| 28> *
| 29>
| 30>                          ****END OF INPUT****

CARTESIAN COORDINATES (ANGSTROEM)
---------------------------------
  C      0.522082    1.515452    0.071852
  C     -0.040164    0.098751    0.122119
  C      0.254883   -0.750562   -1.135536
  C      1.434945   -1.644226   -0.707661
  C      1.556110   -2.947644   -1.494056
  O      2.664038   -0.913529   -0.764131
  C      1.104670   -1.842276    0.787040
  C      2.266286   -2.219541    1.690600
  O      0.567697   -0.597475    1.218648
  H      1.591676    1.482758   -0.150772
  H      0.012776    2.108339   -0.695873
  H      0.381752    2.010579    1.036997
  H     -1.124071    0.144729    0.300467
  H     -0.607819   -1.370409   -1.399509
  H      0.502822   -0.139480   -2.008784
  H      1.720728   -2.744012   -2.558823
  H      2.404120   -3.535330   -1.130436
  H      0.648901   -3.553745   -1.409583
  H      2.853595   -0.731855   -1.690312
  H      0.325802   -2.623467    0.847819
  H      3.065965   -1.482633    1.604943
  H      1.928020   -2.259923    2.729463
  H      2.661407   -3.204343    1.421691

 Total Charge           Charge          ....    0
 Multiplicity           Mult            ....    1
 Number of Electrons    NEL             ....   72
 Basis Dimension        Dim             ....  363

ORBITAL ENERGIES
----------------

  NO   OCC          E(Eh)            E(eV)
   0   2.0000     -20.555236      -559.3364
   1   2.0000     -20.538057      -558.8690
   2   2.0000     -11.287408      -307.1460
   3   2.0000     -11.273143      -306.7578
   4   2.0000     -11.271420      -306.7109
   5   2.0000     -11.224639      -305.4379
   6   2.0000     -11.224480      -305.4336
   7   2.0000     -11.203796      -304.8708
   8   2.0000     -11.202506      -304.8357
   9   2.0000      -1.379509       -37.5384
  10   2.0000      -1.350367       -36.7453
  11   2.0000      -1.065584       -28.9960
  12   2.0000      -1.047445       -28.5024
  13   2.0000      -0.970694       -26.4139
  14   2.0000      -0.941680       -25.6244
  15   2.0000      -0.860616       -23.4186
  16   2.0000      -0.790979       -21.5236
  17   2.0000      -0.769253       -20.9324
  18   2.0000      -0.684820       -18.6349
  19   2.0000      -0.664653       -18.0861
  20   2.0000      -0.634790       -17.2735
  21   2.0000      -0.615431       -16.7467
  22   2.0000      -0.600722       -16.3465
  23   2.0000      -0.591049       -16.0833
  24   2.0000      -0.564179       -15.3521
  25   2.0000      -0.552905       -15.0453
  26   2.0000      -0.544812       -14.8251
  27   2.0000      -0.524187       -14.2638
  28   2.0000      -0.521416       -14.1885
  29   2.0000      -0.511897       -13.9294
  30   2.0000      -0.502132       -13.6637
  31   2.0000      -0.482872       -13.1396
  32   2.0000      -0.470283       -12.7970
  33   2.0000      -0.447350       -12.1730
  34   2.0000      -0.431253       -11.7350
  35   2.0000      -0.398502       -10.8438
  36   0.0000       0.121124         3.2960
  37   0.0000       0.155842         4.2407
  38   0.0000       0.159379         4.3369
  39   0.0000       0.174344         4.7441
  40   0.0000       0.183874         5.0035

MULLIKEN ATOMIC CHARGES
-----------------------
   0 C :   -0.441799
   1 C :    0.196075
   2 C :   -0.309179
   3 C :    0.192521
   4 C :   -0.441381
   5 O :   -0.476980
   6 C :    0.103897
   7 C :   -0.409638
   8 O :   -0.319351
   9 H :    0.144085
  10 H :    0.113105
  11 H :    0.135097
  12 H :    0.078567
  13 H :    0.123791
  14 H :    0.120799
  15 H :    0.126817
  16 H :    0.150292
  17 H :    0.130382
  18 H :    0.311296
  19 H :    0.067502
  20 H :    0.149068
  21 H :    0.139927
  22 H :    0.115105
Sum of atomic charges:   -0.0000000

LOEWDIN ATOMIC CHARGES
----------------------
   0 C :   -0.300678
   1 C :   -0.318343
   2 C :   -0.206630
   3 C :   -0.380418
   4 C :   -0.278480
   5 O :    0.015379
   6 C :   -0.304674
   7 C :   -0.288103
   8 O :    0.192766
   9 H :    0.126245
  10 H :    0.120745
  11 H :    0.125698
  12 H :    0.133885
  13 H :    0.142780
  14 H :    0.140208
  15 H :    0.124543
  16 H :    0.129586
  17 H :    0.128608
  18 H :    0.173561
  19 H :    0.140189
  20 H :    0.131135
  21 H :    0.127410
  22 H :    0.124587

  Mayer bond orders larger than 0.1
B(  0-C ,  1-C ) :   0.8908 B(  0-C ,  9-H ) :   0.9427 B(  0-C , 10-H ) :   0.9301
B(  0-C , 11-H ) :   0.9377 B(  1-C ,  2-C ) :   0.9047 B(  1-C ,  8-O ) :   0.9305
B(  1-C , 12-H ) :   0.9273 B(  2-C ,  3-C ) :   0.9447 B(  2-C , 13-H ) :   0.9181
B(  2-C , 14-H ) :   0.9208 B(  3-C ,  4-C ) :   0.9149 B(  3-C ,  5-O ) :   0.8830
B(  3-C ,  6-C ) :   0.8869 B(  4-C , 15-H ) :   0.9242 B(  4-C , 16-H ) :   0.9449
B(  4-C , 17-H ) :   0.9348 B(  5-O , 18-H ) :   0.8417 B(  6-C ,  7-C ) :   0.9093
B(  6-C ,  8-O ) :   0.9679 B(  6-C , 19-H ) :   0.9269 B(  7-C , 20-H ) :   0.9341
B(  7-C , 21-H ) :   0.9385 B(  7-C , 22-H ) :   0.9307

MP2 TOTAL ENERGY:     -424.749913712 Eh
FINAL SINGLE POINT ENERGY      -424.749913712093

DIPOLE MOMENT
-------------
                                X             Y             Z
Electronic contribution:     -0.12647       1.06022       1.47908
Nuclear contribution   :     -0.11615      -1.41219      -2.51480
                        -----------------------------------------
Total Dipole Moment    :     -0.24262      -0.35198      -1.03572
                        -----------------------------------------
Magnitude (a.u.)       :      1.12048
Magnitude (Debye)      :      2.84802

                             ****ORCA TERMINATED NORMALLY****
TOTAL RUN TIME: 0 days 0 hours 21 minutes 21 seconds 545 msec
