                         Program Version 3.0.3 - RELEASE   -
|  1> ! RI-MP2 RIJK def2-TZVP def2-TZVP/C def2-TZVP/JK TIGHTSCF
|  2> % maxcore 2000
|  3> % mp2 density relaxed end
|  4> *xyz 0 1
|  5>  C        0.2251843382     1.5866237270    -0.4720041817
|  6>  C       -0.0102272916     0.1199789813    -0.1798943461
|  7>  C       -1.4222710701    -0.4180872442    -0.3624633396
|  8>  C       -2.4225983190     0.0793058584     0.6864245639
|  9>  O       -2.7465584013     1.4710722784     0.5431982375
| 10>  C       -3.7257468136    -0.7252539028     0.6834184975
| 11>  O       -4.6469769470    -0.1998479521     1.6114074393
| 12>  C        1.1188985474    -0.8204579629    -0.2621271124
| 13>  O        0.6344551147    -0.3728893414     1.0066699594
| 14>  H        1.2647817553     1.8519558262    -0.2649288317
| 15>  H        0.0156816371     1.8068871386    -1.5252807018
| 16>  H       -0.4298981607     2.2108274344     0.1397026145
| 17>  H       -1.7897946847    -0.1698558342    -1.3688089036
| 18>  H       -1.3885022739    -1.5117648976    -0.3025487135
| 19>  H       -1.9683796446     0.0063908618     1.6800656101
| 20>  H       -3.0497583775     1.6093254870    -0.3626009872
| 21>  H       -4.1424465340    -0.7303221627    -0.3424895706
| 22>  H       -3.5308491903    -1.7672543986     0.9601899914
| 23>  H       -4.5472583653     0.7597147524     1.5539164475
| 24>  H        0.9389392182    -1.8711916058    -0.4883279930
| 25>  H        2.1065643628    -0.4534297132    -0.5397370299
| 26> *
| 27>
| 28>                          ****END OF INPUT****

CARTESIAN COORDINATES (ANGSTROEM)
---------------------------------
  C      0.225184    1.586624   -0.472004
  C     -0.010227    0.119979   -0.179894
  C     -1.422271   -0.418087   -0.362463
  C     -2.422598    0.079306    0.686425
  O     -2.746558    1.471072    0.543198
  C     -3.725747   -0.725254    0.683418
  O     -4.646977   -0.199848    1.611407
  C      1.118899   -0.820458   -0.262127
  O      0.634455   -0.372889    1.006670
  H      1.264782    1.851956   -0.264929
  H      0.015682    1.806887   -1.525281
  H     -0.429898    2.210827    0.139703
  H     -1.789795   -0.169856   -1.368809
  H     -1.388502   -1.511765   -0.302549
  H     -1.968380    0.006391    1.680066
  H     -3.049758    1.609325   -0.362601
  H     -4.142447   -0.730322   -0.342490
  H     -3.530849   -1.767254    0.960190
  H     -4.547258    0.759715    1.553916
  H      0.938939   -1.871192   -0.488328
  H      2.106564   -0.453430   -0.539737

 Total Charge           Charge          ....    0
 Multiplicity           Mult            ....    1
 Number of Electrons    NEL             ....   72
 Basis Dimension        Dim             ....  351

ORBITAL ENERGIES
----------------

  NO   OCC          E(Eh)            E(eV)
   0   2.0000     -20.573179      -559.8247
   1   2.0000     -20.567165      -559.6610
   2   2.0000     -20.549822      -559.1891
   3   2.0000     -11.298503      -307.4479
   4   2.0000     -11.289071      -307.1912
   5   2.0000     -11.283636      -307.0433
   6   2.0000     -11.277773      -306.8838
   7   2.0000     -11.243945      -305.9633
   8   2.0000     -11.223119      -305.3966
   9   2.0000      -1.412421       -38.4339
  10   2.0000      -1.385315       -37.6963
  11   2.0000      -1.349852       -36.7313
  12   2.0000      -1.071850       -29.1665
  13   2.0000      -1.006923       -27.3998
  14   2.0000      -0.936777       -25.4910
  15   2.0000      -0.909965       -24.7614
  16   2.0000      -0.838053       -22.8046
  17   2.0000      -0.781673       -21.2704
  18   2.0000      -0.711553       -19.3623
  19   2.0000      -0.685139       -18.6436
  20   2.0000      -0.669986       -18.2312
  21   2.0000      -0.650588       -17.7034
  22   2.0000      -0.638617       -17.3777
  23   2.0000      -0.626155       -17.0385
  24   2.0000      -0.597081       -16.2474
  25   2.0000      -0.574380       -15.6297
  26   2.0000      -0.571429       -15.5494
  27   2.0000      -0.538196       -14.6451
  28   2.0000      -0.526442       -14.3252
  29   2.0000      -0.517365       -14.0782
  30   2.0000      -0.511294       -13.9130
  31   2.0000      -0.499854       -13.6017
  32   2.0000      -0.474749       -12.9186
  33   2.0000      -0.447702       -12.1826
  34   2.0000      -0.438878       -11.9425
  35   2.0000      -0.415586       -11.3087
  36   0.0000       0.118240         3.2175
  37   0.0000       0.157528         4.2865
  38   0.0000       0.160294         4.3618
  39   0.0000       0.169833         4.6214
  40   0.0000       0.182688         4.9712

MULLIKEN ATOMIC CHARGES
-----------------------
   0 C :   -0.460206
   1 C :    0.249603
   2 C :   -0.272549
   3 C :   -0.005696
   4 O :   -0.492438
   5 C :    0.016361
   6 O :   -0.475258
   7 C :   -0.081469
   8 O :   -0.346916
   9 H :    0.136892
  10 H :    0.124751
  11 H :    0.172294
  12 H :    0.125309
  13 H :    0.124863
  14 H :    0.123790
  15 H :    0.318973
  16 H :    0.075851
  17 H :    0.112359
  18 H :    0.329183
  19 H :    0.109926
  20 H :    0.114378
Sum of atomic charges:    0.0000000

LOEWDIN ATOMIC CHARGES
----------------------
   0 C :   -0.270883
   1 C :   -0.347136
   2 C :   -0.215171
   3 C :   -0.345369
   4 O :   -0.027976
   5 C :   -0.346383
   6 O :   -0.045181
   7 C :   -0.248730
   8 O :    0.159870
   9 H :    0.131619
  10 H :    0.128575
  11 H :    0.134498
  12 H :    0.145180
  13 H :    0.156565
  14 H :    0.155308
  15 H :    0.174725
  16 H :    0.114365
  17 H :    0.130726
  18 H :    0.175989
  19 H :    0.118823
  20 H :    0.120587

  Mayer bond orders larger than 0.1
B(  0-C ,  1-C ) :   0.8959 B(  0-C ,  9-H ) :   0.9326 B(  0-C , 10-H ) :   0.9365
B(  0-C , 11-H ) :   0.9324 B(  1-C ,  2-C ) :   0.8927 B(  1-C ,  7-C ) :   0.9893
B(  1-C ,  8-O ) :   0.8119 B(  2-C ,  3-C ) :   0.9349 B(  2-C , 12-H ) :   0.9141
B(  2-C , 13-H ) :   0.9217 B(  3-C ,  4-O ) :   0.8647 B(  3-C ,  5-C ) :   0.9668
B(  3-C , 14-H ) :   0.9201 B(  4-O , 15-H ) :   0.8367 B(  5-C ,  6-O ) :   0.9497
B(  5-C , 16-H ) :   0.8924 B(  5-C , 17-H ) :   0.9323 B(  6-O , 18-H ) :   0.8230
B(  7-C ,  8-O ) :   0.9161 B(  7-C , 19-H ) :   0.8975 B(  7-C , 20-H ) :   0.9154

MP2 TOTAL ENERGY:     -460.612250427 Eh
FINAL SINGLE POINT ENERGY      -460.612250426798

DIPOLE MOMENT
-------------
                                X             Y             Z
Electronic contribution:     -1.09638      -0.42284       3.58845
Nuclear contribution   :      1.47933       0.45038      -5.10802
                        -----------------------------------------
Total Dipole Moment    :      0.38296       0.02753      -1.51957
                        -----------------------------------------
Magnitude (a.u.)       :      1.56733
Magnitude (Debye)      :      3.98383

                             ****ORCA TERMINATED NORMALLY****
TOTAL RUN TIME: 0 days 0 hours 15 minutes 47 seconds 323 msec
