                         Program Version 3.0.3 - RELEASE   -
|  1> ! RI-MP2 RIJK def2-TZVP def2-TZVP/C def2-TZVP/JK TIGHTSCF
|  2> % maxcore 2000
|  3> % mp2 density relaxed end
|  4> *xyz 0 1
|  5>  O        0.3045041631     0.0192976400    -0.2559715925
|  6>  C        0.2782360750     1.2108147098    -0.3098913050
|  7>  O        0.9018308242     1.9951824394     0.5909485177
|  8>  C        0.8210744887     3.4144621715     0.4240249980
|  9>  C        2.2203300579     3.9727284197     0.1908000269
| 10>  C        2.2141883189     5.4850148064     0.0604666671
| 11>  O        1.1951881262     6.1409907524     0.1102196515
| 12>  C        3.5151657647     6.0993062553    -0.1319248581
| 13>  C        4.6041501355     6.5863954865    -0.2913325026
| 14>  H       -0.2529453031     1.7934497440    -1.0886220265
| 15>  H        0.1564751113     3.6691698674    -0.4089964221
| 16>  H        0.3840510725     3.8307755332     1.3345479421
| 17>  H        2.8907160413     3.6879496845     1.0108314026
| 18>  H        2.6667133871     3.5446796687    -0.7161012713
| 19>  H        5.5584352067     7.0340449313    -0.4322869180
| 20> *
| 21>
| 22>                          ****END OF INPUT****

CARTESIAN COORDINATES (ANGSTROEM)
---------------------------------
  O      0.304504    0.019298   -0.255972
  C      0.278236    1.210815   -0.309891
  O      0.901831    1.995182    0.590949
  C      0.821074    3.414462    0.424025
  C      2.220330    3.972728    0.190800
  C      2.214188    5.485015    0.060467
  O      1.195188    6.140991    0.110220
  C      3.515166    6.099306   -0.131925
  C      4.604150    6.586395   -0.291333
  H     -0.252945    1.793450   -1.088622
  H      0.156475    3.669170   -0.408996
  H      0.384051    3.830776    1.334548
  H      2.890716    3.687950    1.010831
  H      2.666713    3.544680   -0.716101
  H      5.558435    7.034045   -0.432287

 Total Charge           Charge          ....    0
 Multiplicity           Mult            ....    1
 Number of Electrons    NEL             ....   66
 Basis Dimension        Dim             ....  315

ORBITAL ENERGIES
----------------

  NO   OCC          E(Eh)            E(eV)
   0   2.0000     -20.617352      -561.0267
   1   2.0000     -20.582701      -560.0838
   2   2.0000     -20.556215      -559.3630
   3   2.0000     -11.389759      -309.9311
   4   2.0000     -11.382204      -309.7255
   5   2.0000     -11.318291      -307.9864
   6   2.0000     -11.278953      -306.9159
   7   2.0000     -11.271590      -306.7156
   8   2.0000     -11.267820      -306.6130
   9   2.0000      -1.470196       -40.0061
  10   2.0000      -1.424866       -38.7726
  11   2.0000      -1.380440       -37.5637
  12   2.0000      -1.101594       -29.9759
  13   2.0000      -1.065973       -29.0066
  14   2.0000      -0.956690       -26.0329
  15   2.0000      -0.868018       -23.6200
  16   2.0000      -0.848300       -23.0834
  17   2.0000      -0.753609       -20.5068
  18   2.0000      -0.741982       -20.1904
  19   2.0000      -0.702957       -19.1284
  20   2.0000      -0.695396       -18.9227
  21   2.0000      -0.680698       -18.5227
  22   2.0000      -0.649386       -17.6707
  23   2.0000      -0.634950       -17.2779
  24   2.0000      -0.589361       -16.0373
  25   2.0000      -0.563404       -15.3310
  26   2.0000      -0.549075       -14.9411
  27   2.0000      -0.524985       -14.2856
  28   2.0000      -0.480959       -13.0876
  29   2.0000      -0.465100       -12.6560
  30   2.0000      -0.457647       -12.4532
  31   2.0000      -0.436665       -11.8823
  32   2.0000      -0.434283       -11.8174
  33   0.0000       0.066691         1.8147
  34   0.0000       0.122349         3.3293
  35   0.0000       0.140645         3.8272
  36   0.0000       0.145752         3.9661
  37   0.0000       0.152616         4.1529

MULLIKEN ATOMIC CHARGES
-----------------------
   0 O :   -0.268049
   1 C :    0.199277
   2 O :   -0.206612
   3 C :   -0.084587
   4 C :   -0.228917
   5 C :   -0.013392
   6 O :   -0.270794
   7 C :    0.058312
   8 C :   -0.056735
   9 H :    0.074171
  10 H :    0.126453
  11 H :    0.145918
  12 H :    0.163258
  13 H :    0.153580
  14 H :    0.208119
Sum of atomic charges:    0.0000000

LOEWDIN ATOMIC CHARGES
----------------------
   0 O :    0.122880
   1 C :   -0.453057
   2 O :    0.244878
   3 C :   -0.282890
   4 C :   -0.228018
   5 C :   -0.321398
   6 O :    0.180996
   7 C :   -0.060412
   8 C :   -0.031724
   9 H :    0.101904
  10 H :    0.129826
  11 H :    0.137875
  12 H :    0.163671
  13 H :    0.160870
  14 H :    0.134601

  Mayer bond orders larger than 0.1
B(  0-O ,  1-C ) :   2.0252 B(  1-C ,  2-O ) :   1.0659 B(  1-C ,  9-H ) :   0.9161
B(  2-O ,  3-C ) :   0.8693 B(  3-C ,  4-C ) :   0.9326 B(  3-C , 10-H ) :   0.9436
B(  3-C , 11-H ) :   0.9290 B(  4-C ,  5-C ) :   0.9773 B(  4-C ,  7-C ) :  -0.1136
B(  4-C , 12-H ) :   0.8989 B(  4-C , 13-H ) :   0.8997 B(  5-C ,  6-O ) :   1.9686
B(  5-C ,  7-C ) :   1.0566 B(  5-C ,  8-C ) :  -0.1328 B(  7-C ,  8-C ) :   2.5947
B(  8-C , 14-H ) :   0.8865

MP2 TOTAL ENERGY:     -457.006279167 Eh
FINAL SINGLE POINT ENERGY      -457.006279167211

DIPOLE MOMENT
-------------
                                X             Y             Z
Electronic contribution:     -0.21205       0.23278       0.23894
Nuclear contribution   :      1.11092       0.82142      -0.55099
                        -----------------------------------------
Total Dipole Moment    :      0.89887       1.05419      -0.31205
                        -----------------------------------------
Magnitude (a.u.)       :      1.42009
Magnitude (Debye)      :      3.60958

                             ****ORCA TERMINATED NORMALLY****
TOTAL RUN TIME: 0 days 0 hours 12 minutes 33 seconds 825 msec
