                         Program Version 3.0.3 - RELEASE   -
|  1> ! RI-MP2 RIJK def2-TZVP def2-TZVP/C def2-TZVP/JK TIGHTSCF
|  2> % maxcore 2000
|  3> % mp2 density relaxed end
|  4> *xyz 0 1
|  5>  C       -0.0697164694     1.4361039876    -0.1745471604
|  6>  C       -0.2641089414    -0.0685867082    -0.1351660167
|  7>  O       -1.1502648058    -0.6068309359     0.4991600434
|  8>  N        0.6365921886    -0.7859189893    -0.8861059488
|  9>  C        0.5052680325    -2.2239363450    -1.0347925287
| 10>  C        0.2831896819    -2.6328444817    -2.4175878935
| 11>  C        0.1237676633    -2.9627695590    -3.5686057038
| 12>  C       -0.0588020981    -3.3340400276    -4.8697714691
| 13>  N       -0.2104666707    -3.6479571599    -5.9778220581
| 14>  H       -0.7195669892     1.8597034607    -0.9474141124
| 15>  H       -0.3737088913     1.8531905772     0.7860760331
| 16>  H        0.9608256172     1.7286463268    -0.3926608956
| 17>  H        1.3195384567    -0.3036393497    -1.4468302686
| 18>  H        1.3889217690    -2.7447461992    -0.6427210989
| 19>  H       -0.3491205434    -2.5097337468    -0.4101060320
| 20> *
| 21>
| 22>                          ****END OF INPUT****

CARTESIAN COORDINATES (ANGSTROEM)
---------------------------------
  C     -0.069716    1.436104   -0.174547
  C     -0.264109   -0.068587   -0.135166
  O     -1.150265   -0.606831    0.499160
  N      0.636592   -0.785919   -0.886106
  C      0.505268   -2.223936   -1.034793
  C      0.283190   -2.632844   -2.417588
  C      0.123768   -2.962770   -3.568606
  C     -0.058802   -3.334040   -4.869771
  N     -0.210467   -3.647957   -5.977822
  H     -0.719567    1.859703   -0.947414
  H     -0.373709    1.853191    0.786076
  H      0.960826    1.728646   -0.392661
  H      1.319538   -0.303639   -1.446830
  H      1.388922   -2.744746   -0.642721
  H     -0.349121   -2.509734   -0.410106

 Total Charge           Charge          ....    0
 Multiplicity           Mult            ....    1
 Number of Electrons    NEL             ....   64
 Basis Dimension        Dim             ....  315

ORBITAL ENERGIES
----------------

  NO   OCC          E(Eh)            E(eV)
   0   2.0000     -20.536446      -558.8251
   1   2.0000     -15.612919      -424.8491
   2   2.0000     -15.599115      -424.4735
   3   2.0000     -11.372490      -309.4612
   4   2.0000     -11.322438      -308.0992
   5   2.0000     -11.306100      -307.6546
   6   2.0000     -11.300662      -307.5067
   7   2.0000     -11.286494      -307.1211
   8   2.0000     -11.254140      -306.2407
   9   2.0000      -1.404462       -38.2174
  10   2.0000      -1.262131       -34.3443
  11   2.0000      -1.238966       -33.7140
  12   2.0000      -1.107637       -30.1403
  13   2.0000      -1.041065       -28.3288
  14   2.0000      -0.983814       -26.7709
  15   2.0000      -0.882778       -24.0216
  16   2.0000      -0.819355       -22.2958
  17   2.0000      -0.736887       -20.0517
  18   2.0000      -0.693969       -18.8839
  19   2.0000      -0.684446       -18.6247
  20   2.0000      -0.627508       -17.0754
  21   2.0000      -0.616588       -16.7782
  22   2.0000      -0.601099       -16.3567
  23   2.0000      -0.583389       -15.8748
  24   2.0000      -0.576637       -15.6911
  25   2.0000      -0.540432       -14.7059
  26   2.0000      -0.539112       -14.6700
  27   2.0000      -0.532242       -14.4830
  28   2.0000      -0.451068       -12.2742
  29   2.0000      -0.432055       -11.7568
  30   2.0000      -0.413644       -11.2558
  31   2.0000      -0.406165       -11.0523
  32   0.0000       0.084016         2.2862
  33   0.0000       0.092957         2.5295
  34   0.0000       0.112379         3.0580
  35   0.0000       0.140587         3.8256
  36   0.0000       0.155766         4.2386

MULLIKEN ATOMIC CHARGES
-----------------------
   0 C :   -0.417658
   1 C :    0.330388
   2 O :   -0.372544
   3 N :   -0.349904
   4 C :   -0.170331
   5 C :   -0.105675
   6 C :    0.274448
   7 C :   -0.221128
   8 N :   -0.037834
   9 H :    0.157571
  10 H :    0.161886
  11 H :    0.128863
  12 H :    0.246709
  13 H :    0.169832
  14 H :    0.205378
Sum of atomic charges:   -0.0000000

LOEWDIN ATOMIC CHARGES
----------------------
   0 C :   -0.274461
   1 C :   -0.468868
   2 O :    0.086544
   3 N :    0.105646
   4 C :   -0.254211
   5 C :    0.002899
   6 C :   -0.054820
   7 C :   -0.174677
   8 N :    0.102824
   9 H :    0.142074
  10 H :    0.140690
  11 H :    0.125320
  12 H :    0.188866
  13 H :    0.156779
  14 H :    0.175396

  Mayer bond orders larger than 0.1
B(  0-C ,  1-C ) :   0.9020 B(  0-C ,  9-H ) :   0.9089 B(  0-C , 10-H ) :   0.9357
B(  0-C , 11-H ) :   0.9342 B(  1-C ,  2-O ) :   1.8908 B(  1-C ,  3-N ) :   1.1303
B(  3-N ,  4-C ) :   0.8275 B(  3-N , 12-H ) :   0.8711 B(  4-C ,  5-C ) :   0.9704
B(  4-C , 13-H ) :   0.9343 B(  4-C , 14-H ) :   0.9144 B(  5-C ,  6-C ) :   2.5823
B(  5-C ,  8-N ) :   0.1118 B(  6-C ,  7-C ) :   0.9946 B(  7-C ,  8-N ) :   2.7553

MP2 TOTAL ENERGY:     -416.103999047 Eh
FINAL SINGLE POINT ENERGY      -416.103999046548

DIPOLE MOMENT
-------------
                                X             Y             Z
Electronic contribution:     -1.03066      -7.66137      -7.22830
Nuclear contribution   :      2.25739       8.63038       8.11444
                        -----------------------------------------
Total Dipole Moment    :      1.22672       0.96901       0.88614
                        -----------------------------------------
Magnitude (a.u.)       :      1.79696
Magnitude (Debye)      :      4.56751

                             ****ORCA TERMINATED NORMALLY****
TOTAL RUN TIME: 0 days 0 hours 12 minutes 58 seconds 863 msec
