                         Program Version 3.0.3 - RELEASE   -
|  1> ! RI-MP2 RIJK def2-TZVP def2-TZVP/C def2-TZVP/JK TIGHTSCF
|  2> % maxcore 2000
|  3> % mp2 density relaxed end
|  4> *xyz 0 1
|  5>  O       -0.1059156347     1.3529576671     0.0438458782
|  6>  N        0.0369083791    -0.0506168838    -0.0074540072
|  7>  C       -1.0841858121    -0.6243173950    -0.0525310313
|  8>  C       -1.5068634510    -2.0855656483     0.0102912229
|  9>  C       -2.6105289785    -1.5565445217     0.9986655830
| 10>  C       -2.5826449243    -0.3425936595     0.0252315240
| 11>  O       -3.0723819411    -0.9060406398    -1.2039600687
| 12>  C       -2.3341242932    -2.1543061846    -1.2876604548
| 13>  H        0.8117501653     1.6457664947     0.0617159983
| 14>  H       -0.8239033601    -2.8988610537     0.2414652851
| 15>  H       -3.5511451477    -2.1110825682     1.0440352179
| 16>  H       -2.2195031735    -1.3330043918     1.9918394730
| 17>  H       -3.0316157725     0.6272539417     0.2135760803
| 18>  H       -1.7163019446    -2.1636916962    -2.1918454423
| 19>  H       -3.0322045811    -2.9984240910    -1.3140406783
| 20> *
| 21>
| 22>                          ****END OF INPUT****

CARTESIAN COORDINATES (ANGSTROEM)
---------------------------------
  O     -0.105916    1.352958    0.043846
  N      0.036908   -0.050617   -0.007454
  C     -1.084186   -0.624317   -0.052531
  C     -1.506863   -2.085566    0.010291
  C     -2.610529   -1.556545    0.998666
  C     -2.582645   -0.342594    0.025232
  O     -3.072382   -0.906041   -1.203960
  C     -2.334124   -2.154306   -1.287660
  H      0.811750    1.645766    0.061716
  H     -0.823903   -2.898861    0.241465
  H     -3.551145   -2.111083    1.044035
  H     -2.219503   -1.333004    1.991839
  H     -3.031616    0.627254    0.213576
  H     -1.716302   -2.163692   -2.191845
  H     -3.032205   -2.998424   -1.314041

 Total Charge           Charge          ....    0
 Multiplicity           Mult            ....    1
 Number of Electrons    NEL             ....   60
 Basis Dimension        Dim             ....  290

ORBITAL ENERGIES
----------------

  NO   OCC          E(Eh)            E(eV)
   0   2.0000     -20.591746      -560.3299
   1   2.0000     -20.565839      -559.6249
   2   2.0000     -15.619383      -425.0250
   3   2.0000     -11.305589      -307.6407
   4   2.0000     -11.289905      -307.2139
   5   2.0000     -11.284772      -307.0743
   6   2.0000     -11.262214      -306.4604
   7   2.0000     -11.248952      -306.0995
   8   2.0000      -1.417265       -38.5657
   9   2.0000      -1.394675       -37.9510
  10   2.0000      -1.181689       -32.1554
  11   2.0000      -1.096412       -29.8349
  12   2.0000      -0.993955       -27.0469
  13   2.0000      -0.869663       -23.6647
  14   2.0000      -0.815214       -22.1831
  15   2.0000      -0.751513       -20.4497
  16   2.0000      -0.714185       -19.4340
  17   2.0000      -0.692326       -18.8391
  18   2.0000      -0.669281       -18.2121
  19   2.0000      -0.645426       -17.5629
  20   2.0000      -0.583851       -15.8874
  21   2.0000      -0.569585       -15.4992
  22   2.0000      -0.562623       -15.3097
  23   2.0000      -0.541749       -14.7417
  24   2.0000      -0.522584       -14.2202
  25   2.0000      -0.502151       -13.6642
  26   2.0000      -0.489213       -13.3122
  27   2.0000      -0.447236       -12.1699
  28   2.0000      -0.399691       -10.8761
  29   2.0000      -0.391660       -10.6576
  30   0.0000       0.143921         3.9163
  31   0.0000       0.151828         4.1315
  32   0.0000       0.152356         4.1458
  33   0.0000       0.172634         4.6976
  34   0.0000       0.181019         4.9258

MULLIKEN ATOMIC CHARGES
-----------------------
   0 O :   -0.357772
   1 N :   -0.077425
   2 C :   -0.088944
   3 C :   -0.059095
   4 C :   -0.265597
   5 C :    0.099985
   6 O :   -0.322191
   7 C :   -0.064917
   8 H :    0.337015
   9 H :    0.147047
  10 H :    0.130941
  11 H :    0.137092
  12 H :    0.148557
  13 H :    0.119227
  14 H :    0.116077
Sum of atomic charges:   -0.0000000

LOEWDIN ATOMIC CHARGES
----------------------
   0 O :   -0.079561
   1 N :    0.029560
   2 C :   -0.246847
   3 C :   -0.174121
   4 C :   -0.182685
   5 C :   -0.233777
   6 O :    0.153253
   7 C :   -0.247721
   8 H :    0.168864
   9 H :    0.143938
  10 H :    0.134889
  11 H :    0.143626
  12 H :    0.139457
  13 H :    0.127146
  14 H :    0.123980

  Mayer bond orders larger than 0.1
B(  0-O ,  1-N ) :   0.7934 B(  0-O ,  8-H ) :   0.8427 B(  1-N ,  2-C ) :   1.9343
B(  2-C ,  3-C ) :   0.9149 B(  2-C ,  5-C ) :   0.8933 B(  3-C ,  4-C ) :   0.9092
B(  3-C ,  7-C ) :   0.9243 B(  3-C ,  9-H ) :   0.8971 B(  4-C ,  5-C ) :   0.9210
B(  4-C , 10-H ) :   0.9162 B(  4-C , 11-H ) :   0.9171 B(  5-C ,  6-O ) :   0.9266
B(  5-C , 12-H ) :   0.8996 B(  6-O ,  7-C ) :   0.9122 B(  7-C , 13-H ) :   0.9268
B(  7-C , 14-H ) :   0.9252

MP2 TOTAL ENERGY:     -399.065133592 Eh
FINAL SINGLE POINT ENERGY      -399.065133591736

DIPOLE MOMENT
-------------
                                X             Y             Z
Electronic contribution:      2.10556       3.27748      -0.87197
Nuclear contribution   :     -1.94194      -3.74629       1.32787
                        -----------------------------------------
Total Dipole Moment    :      0.16363      -0.46881       0.45590
                        -----------------------------------------
Magnitude (a.u.)       :      0.67409
Magnitude (Debye)      :      1.71341

                             ****ORCA TERMINATED NORMALLY****
TOTAL RUN TIME: 0 days 0 hours 11 minutes 6 seconds 909 msec
