                         Program Version 3.0.3 - RELEASE   -
|  1> ! RI-MP2 RIJK def2-TZVP def2-TZVP/C def2-TZVP/JK TIGHTSCF
|  2> % maxcore 2000
|  3> % mp2 density relaxed end
|  4> *xyz 0 1
|  5>  O        0.0249880010    -0.0605236500     0.0039821845
|  6>  C       -0.0557453856     1.1315572362     0.0573117706
|  7>  C       -1.3127003279     1.9908412559     0.1346977687
|  8>  C       -0.7988350550     3.3903530653     0.4923201564
|  9>  C       -0.7571188240     3.7026676780     1.9713749512
| 10>  C        0.4671483415     4.0066945774     2.3971990228
| 11>  C        1.4855857168     3.9752951678     1.2835896170
| 12>  C        0.7128113922     3.3335537900     0.1157249345
| 13>  O        1.0424148426     1.9347288294     0.0333205165
| 14>  H       -1.8011411642     1.9618078218    -0.8452244528
| 15>  H       -2.0093466623     1.5650307595     0.8590676482
| 16>  H       -1.3323510663     4.1689281043    -0.0632210290
| 17>  H       -1.6503680028     3.6783800619     2.5859719115
| 18>  H        0.7264991593     4.2711807129     3.4160737191
| 19>  H        1.8285705659     4.9857163709     1.0255844001
| 20>  H        2.3781377169     3.3872321587     1.5204596984
| 21>  H        0.9460680520     3.7829177601    -0.8531492377
| 22> *
| 23>
| 24>                          ****END OF INPUT****

CARTESIAN COORDINATES (ANGSTROEM)
---------------------------------
  O      0.024988   -0.060524    0.003982
  C     -0.055745    1.131557    0.057312
  C     -1.312700    1.990841    0.134698
  C     -0.798835    3.390353    0.492320
  C     -0.757119    3.702668    1.971375
  C      0.467148    4.006695    2.397199
  C      1.485586    3.975295    1.283590
  C      0.712811    3.333554    0.115725
  O      1.042415    1.934729    0.033321
  H     -1.801141    1.961808   -0.845224
  H     -2.009347    1.565031    0.859068
  H     -1.332351    4.168928   -0.063221
  H     -1.650368    3.678380    2.585972
  H      0.726499    4.271181    3.416074
  H      1.828571    4.985716    1.025584
  H      2.378138    3.387232    1.520460
  H      0.946068    3.782918   -0.853149

 Total Charge           Charge          ....    0
 Multiplicity           Mult            ....    1
 Number of Electrons    NEL             ....   66
 Basis Dimension        Dim             ....  327

ORBITAL ENERGIES
----------------

  NO   OCC          E(Eh)            E(eV)
   0   2.0000     -20.596710      -560.4650
   1   2.0000     -20.535049      -558.7871
   2   2.0000     -11.374547      -309.5172
   3   2.0000     -11.305996      -307.6518
   4   2.0000     -11.258802      -306.3676
   5   2.0000     -11.253755      -306.2302
   6   2.0000     -11.245251      -305.9988
   7   2.0000     -11.242751      -305.9308
   8   2.0000     -11.241393      -305.8938
   9   2.0000      -1.454324       -39.5742
  10   2.0000      -1.363068       -37.0910
  11   2.0000      -1.154208       -31.4076
  12   2.0000      -1.061148       -28.8753
  13   2.0000      -0.986238       -26.8369
  14   2.0000      -0.936757       -25.4905
  15   2.0000      -0.822991       -22.3947
  16   2.0000      -0.780783       -21.2462
  17   2.0000      -0.750930       -20.4338
  18   2.0000      -0.718392       -19.5484
  19   2.0000      -0.678017       -18.4498
  20   2.0000      -0.655710       -17.8428
  21   2.0000      -0.636220       -17.3124
  22   2.0000      -0.606669       -16.5083
  23   2.0000      -0.591219       -16.0879
  24   2.0000      -0.560251       -15.2452
  25   2.0000      -0.557604       -15.1732
  26   2.0000      -0.537908       -14.6372
  27   2.0000      -0.515928       -14.0391
  28   2.0000      -0.497244       -13.5307
  29   2.0000      -0.486955       -13.2507
  30   2.0000      -0.447844       -12.1865
  31   2.0000      -0.437923       -11.9165
  32   2.0000      -0.368359       -10.0236
  33   0.0000       0.122605         3.3362
  34   0.0000       0.138082         3.7574
  35   0.0000       0.158921         4.3245
  36   0.0000       0.159804         4.3485
  37   0.0000       0.168760         4.5922

MULLIKEN ATOMIC CHARGES
-----------------------
   0 O :   -0.285223
   1 C :    0.226678
   2 C :   -0.227267
   3 C :   -0.031857
   4 C :   -0.208653
   5 C :   -0.207379
   6 C :   -0.148699
   7 C :    0.045948
   8 O :   -0.225331
   9 H :    0.145800
  10 H :    0.141695
  11 H :    0.121392
  12 H :    0.136473
  13 H :    0.135325
  14 H :    0.120961
  15 H :    0.143274
  16 H :    0.116863
Sum of atomic charges:   -0.0000000

LOEWDIN ATOMIC CHARGES
----------------------
   0 O :    0.136562
   1 C :   -0.462560
   2 C :   -0.202945
   3 C :   -0.203583
   4 C :   -0.140443
   5 C :   -0.148747
   6 C :   -0.218406
   7 C :   -0.220382
   8 O :    0.277311
   9 H :    0.156707
  10 H :    0.155167
  11 H :    0.156333
  12 H :    0.141183
  13 H :    0.139597
  14 H :    0.145311
  15 H :    0.149747
  16 H :    0.139147

  Mayer bond orders larger than 0.1
B(  0-O ,  1-C ) :   2.0448 B(  1-C ,  2-C ) :   0.9306 B(  1-C ,  8-O ) :   1.1086
B(  2-C ,  3-C ) :   0.9075 B(  2-C ,  9-H ) :   0.9045 B(  2-C , 10-H ) :   0.9062
B(  3-C ,  4-C ) :   0.9129 B(  3-C ,  7-C ) :   0.9458 B(  3-C , 11-H ) :   0.9092
B(  4-C ,  5-C ) :   1.7960 B(  4-C , 12-H ) :   0.9199 B(  5-C ,  6-C ) :   0.9396
B(  5-C , 13-H ) :   0.9234 B(  6-C ,  7-C ) :   0.9273 B(  6-C , 14-H ) :   0.9044
B(  6-C , 15-H ) :   0.9151 B(  7-C ,  8-O ) :   0.8883 B(  7-C , 16-H ) :   0.9283

MP2 TOTAL ENERGY:     -421.179390628 Eh
FINAL SINGLE POINT ENERGY      -421.179390627930

DIPOLE MOMENT
-------------
                                X             Y             Z
Electronic contribution:      1.11158      -5.20369      -1.79312
Nuclear contribution   :     -1.63357       6.89210       1.96548
                        -----------------------------------------
Total Dipole Moment    :     -0.52199       1.68840       0.17236
                        -----------------------------------------
Magnitude (a.u.)       :      1.77564
Magnitude (Debye)      :      4.51332

                             ****ORCA TERMINATED NORMALLY****
TOTAL RUN TIME: 0 days 0 hours 16 minutes 53 seconds 743 msec
