                         Program Version 3.0.3 - RELEASE   -
|  1> ! RI-MP2 RIJK def2-TZVP def2-TZVP/C def2-TZVP/JK TIGHTSCF
|  2> % maxcore 2000
|  3> % mp2 density relaxed end
|  4> *xyz 0 1
|  5>  C       -0.1891349340     1.5162963429     0.0947321052
|  6>  N        0.0469902998     0.0817495815    -0.0565840538
|  7>  C        0.6291031733    -0.4946766061    -1.2564766559
|  8>  C        1.3713568231    -0.5150597736     0.0490098947
|  9>  C        2.5477600740     0.3993454948    -0.1471967787
| 10>  O        3.4646587954     0.6278174047     0.5768418849
| 11>  O        2.4312080329     1.0079607695    -1.3945745164
| 12>  C        1.4133545315     0.4176941126    -2.1399201989
| 13>  N        1.2149191824     0.6311063063    -3.3615339438
| 14>  H        0.5734364268     2.1690532285    -0.3490673099
| 15>  H       -1.1531828850     1.7457884221    -0.3664724106
| 16>  H       -0.2576853536     1.7356554627     1.1633654289
| 17>  H        0.1251047905    -1.3430296362    -1.7034993078
| 18>  H        1.4913990555    -1.3700808272     0.7040128275
| 19>  H        1.9013014774     1.2859735575    -3.7405192355
| 20> *
| 21>
| 22>                          ****END OF INPUT****

CARTESIAN COORDINATES (ANGSTROEM)
---------------------------------
  C     -0.189135    1.516296    0.094732
  N      0.046990    0.081750   -0.056584
  C      0.629103   -0.494677   -1.256477
  C      1.371357   -0.515060    0.049010
  C      2.547760    0.399345   -0.147197
  O      3.464659    0.627817    0.576842
  O      2.431208    1.007961   -1.394575
  C      1.413355    0.417694   -2.139920
  N      1.214919    0.631106   -3.361534
  H      0.573436    2.169053   -0.349067
  H     -1.153183    1.745788   -0.366472
  H     -0.257685    1.735655    1.163365
  H      0.125105   -1.343030   -1.703499
  H      1.491399   -1.370081    0.704013
  H      1.901301    1.285974   -3.740519

 Total Charge           Charge          ....    0
 Multiplicity           Mult            ....    1
 Number of Electrons    NEL             ....   66
 Basis Dimension        Dim             ....  315

ORBITAL ENERGIES
----------------

  NO   OCC          E(Eh)            E(eV)
   0   2.0000     -20.641829      -561.6927
   1   2.0000     -20.578829      -559.9784
   2   2.0000     -15.612231      -424.8304
   3   2.0000     -15.571818      -423.7307
   4   2.0000     -11.412340      -310.5456
   5   2.0000     -11.371716      -309.4401
   6   2.0000     -11.311119      -307.7912
   7   2.0000     -11.310078      -307.7629
   8   2.0000     -11.273901      -306.7784
   9   2.0000      -1.501753       -40.8648
  10   2.0000      -1.411997       -38.4224
  11   2.0000      -1.322547       -35.9883
  12   2.0000      -1.232164       -33.5289
  13   2.0000      -1.050517       -28.5860
  14   2.0000      -0.957976       -26.0679
  15   2.0000      -0.919647       -25.0249
  16   2.0000      -0.854856       -23.2618
  17   2.0000      -0.784563       -21.3490
  18   2.0000      -0.740091       -20.1389
  19   2.0000      -0.707906       -19.2631
  20   2.0000      -0.695466       -18.9246
  21   2.0000      -0.668965       -18.2035
  22   2.0000      -0.635027       -17.2800
  23   2.0000      -0.623914       -16.9776
  24   2.0000      -0.608295       -16.5525
  25   2.0000      -0.583257       -15.8712
  26   2.0000      -0.551548       -15.0084
  27   2.0000      -0.534036       -14.5319
  28   2.0000      -0.497714       -13.5435
  29   2.0000      -0.477390       -12.9904
  30   2.0000      -0.461916       -12.5694
  31   2.0000      -0.437868       -11.9150
  32   2.0000      -0.416077       -11.3220
  33   0.0000       0.111859         3.0438
  34   0.0000       0.138189         3.7603
  35   0.0000       0.146182         3.9778
  36   0.0000       0.162745         4.4285
  37   0.0000       0.165402         4.5008

MULLIKEN ATOMIC CHARGES
-----------------------
   0 C :   -0.312829
   1 N :   -0.189669
   2 C :   -0.008369
   3 C :   -0.095449
   4 C :    0.256811
   5 O :   -0.237248
   6 O :   -0.213358
   7 C :    0.114628
   8 N :   -0.328876
   9 H :    0.137415
  10 H :    0.153827
  11 H :    0.153864
  12 H :    0.162587
  13 H :    0.166926
  14 H :    0.239740
Sum of atomic charges:   -0.0000000

LOEWDIN ATOMIC CHARGES
----------------------
   0 C :   -0.308667
   1 N :    0.146293
   2 C :   -0.180201
   3 C :   -0.187356
   4 C :   -0.420037
   5 O :    0.181378
   6 O :    0.292324
   7 C :   -0.368950
   8 N :   -0.012803
   9 H :    0.115606
  10 H :    0.127055
  11 H :    0.126385
  12 H :    0.156814
  13 H :    0.154845
  14 H :    0.177316

  Mayer bond orders larger than 0.1
B(  0-C ,  1-N ) :   0.8668 B(  0-C ,  9-H ) :   0.9147 B(  0-C , 10-H ) :   0.9322
B(  0-C , 11-H ) :   0.9324 B(  1-N ,  2-C ) :   0.9027 B(  1-N ,  3-C ) :   0.9033
B(  2-C ,  3-C ) :   0.8557 B(  2-C ,  7-C ) :   0.9155 B(  2-C , 12-H ) :   0.9210
B(  3-C ,  4-C ) :   0.9372 B(  3-C , 13-H ) :   0.9123 B(  4-C ,  5-O ) :   2.0623
B(  4-C ,  6-O ) :   0.9981 B(  6-O ,  7-C ) :   0.9766 B(  7-C ,  8-N ) :   2.0759
B(  8-N , 14-H ) :   0.8479

MP2 TOTAL ENERGY:     -453.218233019 Eh
FINAL SINGLE POINT ENERGY      -453.218233018742

DIPOLE MOMENT
-------------
                                X             Y             Z
Electronic contribution:      5.11461      -1.57897      -0.67273
Nuclear contribution   :     -5.66485       1.45886       0.71313
                        -----------------------------------------
Total Dipole Moment    :     -0.55024      -0.12011       0.04040
                        -----------------------------------------
Magnitude (a.u.)       :      0.56464
Magnitude (Debye)      :      1.43521

                             ****ORCA TERMINATED NORMALLY****
TOTAL RUN TIME: 0 days 0 hours 15 minutes 18 seconds 257 msec
