                         Program Version 3.0.3 - RELEASE   -
|  1> ! RI-MP2 RIJK def2-TZVP def2-TZVP/C def2-TZVP/JK TIGHTSCF
|  2> % maxcore 2000
|  3> % mp2 density relaxed end
|  4> *xyz 0 1
|  5>  N       -0.0454746233     1.2799917092    -0.4880645041
|  6>  C        0.0046136828     0.0603530465    -0.1132435134
|  7>  C        1.2106368913    -0.6628114504     0.2700020095
|  8>  C        1.4479475541    -1.9879580968     0.2247278264
|  9>  N        0.6813394704    -3.0493715006    -0.2494612514
| 10>  N       -0.5680122696    -3.0801303483    -0.3281628263
| 11>  N       -1.3738517793    -2.0408154781     0.0745795561
| 12>  C       -1.3332109626    -0.6276556765     0.0386984177
| 13>  O       -2.3723484986    -0.0314892325     0.1436797706
| 14>  H        0.8967823245     1.6781795892    -0.5332872486
| 15>  H        2.0375184326    -0.0328795586     0.5903160103
| 16>  H        2.4378098078    -2.3357912422     0.5056990452
| 17>  H       -2.3386935400    -2.3518685109     0.0537236481
| 18> *
| 19>
| 20>                          ****END OF INPUT****

CARTESIAN COORDINATES (ANGSTROEM)
---------------------------------
  N     -0.045475    1.279992   -0.488065
  C      0.004614    0.060353   -0.113244
  C      1.210637   -0.662811    0.270002
  C      1.447948   -1.987958    0.224728
  N      0.681339   -3.049372   -0.249461
  N     -0.568012   -3.080130   -0.328163
  N     -1.373852   -2.040815    0.074580
  C     -1.333211   -0.627656    0.038698
  O     -2.372348   -0.031489    0.143680
  H      0.896782    1.678180   -0.533287
  H      2.037518   -0.032880    0.590316
  H      2.437810   -2.335791    0.505699
  H     -2.338694   -2.351869    0.053724

 Total Charge           Charge          ....    0
 Multiplicity           Mult            ....    1
 Number of Electrons    NEL             ....   64
 Basis Dimension        Dim             ....  303

ORBITAL ENERGIES
----------------

  NO   OCC          E(Eh)            E(eV)
   0   2.0000     -20.564687      -559.5936
   1   2.0000     -15.712112      -427.5483
   2   2.0000     -15.654476      -425.9799
   3   2.0000     -15.643412      -425.6789
   4   2.0000     -15.595165      -424.3660
   5   2.0000     -11.395495      -310.0872
   6   2.0000     -11.329525      -308.2921
   7   2.0000     -11.314725      -307.8893
   8   2.0000     -11.288260      -307.1692
   9   2.0000      -1.448048       -39.4034
  10   2.0000      -1.414900       -38.5014
  11   2.0000      -1.255683       -34.1689
  12   2.0000      -1.246139       -33.9092
  13   2.0000      -1.117595       -30.4113
  14   2.0000      -0.983486       -26.7620
  15   2.0000      -0.961651       -26.1678
  16   2.0000      -0.848180       -23.0802
  17   2.0000      -0.790013       -21.4973
  18   2.0000      -0.757380       -20.6093
  19   2.0000      -0.691031       -18.8039
  20   2.0000      -0.680910       -18.5285
  21   2.0000      -0.661219       -17.9927
  22   2.0000      -0.660274       -17.9670
  23   2.0000      -0.624208       -16.9856
  24   2.0000      -0.576490       -15.6871
  25   2.0000      -0.552999       -15.0479
  26   2.0000      -0.518764       -14.1163
  27   2.0000      -0.487127       -13.2554
  28   2.0000      -0.471536       -12.8311
  29   2.0000      -0.444186       -12.0869
  30   2.0000      -0.426416       -11.6034
  31   2.0000      -0.375896       -10.2286
  32   0.0000       0.031180         0.8484
  33   0.0000       0.068794         1.8720
  34   0.0000       0.129604         3.5267
  35   0.0000       0.149897         4.0789
  36   0.0000       0.160552         4.3688

MULLIKEN ATOMIC CHARGES
-----------------------
   0 N :   -0.258661
   1 C :    0.047221
   2 C :   -0.203944
   3 C :   -0.040413
   4 N :   -0.127968
   5 N :   -0.048782
   6 N :   -0.169644
   7 C :    0.264557
   8 O :   -0.255737
   9 H :    0.219858
  10 H :    0.151395
  11 H :    0.149489
  12 H :    0.272629
Sum of atomic charges:   -0.0000000

LOEWDIN ATOMIC CHARGES
----------------------
   0 N :    0.040258
   1 C :   -0.262990
   2 C :   -0.132012
   3 C :   -0.221259
   4 N :    0.035851
   5 N :   -0.004889
   6 N :    0.071299
   7 C :   -0.391214
   8 O :    0.174771
   9 H :    0.168515
  10 H :    0.164083
  11 H :    0.154742
  12 H :    0.202844

  Mayer bond orders larger than 0.1
B(  0-N ,  1-C ) :   1.9814 B(  0-N ,  9-H ) :   0.8617 B(  1-C ,  2-C ) :   1.0106
B(  1-C ,  7-C ) :   0.8724 B(  2-C ,  3-C ) :   1.5956 B(  2-C , 10-H ) :   0.9050
B(  3-C ,  4-N ) :   1.1388 B(  3-C , 11-H ) :   0.9319 B(  4-N ,  5-N ) :   1.4807
B(  5-N ,  6-N ) :   0.9383 B(  6-N ,  7-C ) :   1.0494 B(  6-N , 12-H ) :   0.8525
B(  7-C ,  8-O ) :   2.0233

MP2 TOTAL ENERGY:     -448.134357615 Eh
FINAL SINGLE POINT ENERGY      -448.134357614842

DIPOLE MOMENT
-------------
                                X             Y             Z
Electronic contribution:     -2.72296      -1.38727      -0.35937
Nuclear contribution   :      3.94001       1.34365       0.75564
                        -----------------------------------------
Total Dipole Moment    :      1.21705      -0.04362       0.39627
                        -----------------------------------------
Magnitude (a.u.)       :      1.28068
Magnitude (Debye)      :      3.25522

                             ****ORCA TERMINATED NORMALLY****
TOTAL RUN TIME: 0 days 0 hours 14 minutes 45 seconds 697 msec
