                         Program Version 3.0.3 - RELEASE   -
|  1> ! RI-MP2 RIJK def2-TZVP def2-TZVP/C def2-TZVP/JK TIGHTSCF
|  2> % maxcore 2000
|  3> % mp2 density relaxed end
|  4> *xyz 0 1
|  5>  C       -0.1780574484     1.5090720493     0.0121257988
|  6>  C        0.1668276017     0.0260444443     0.0024938872
|  7>  O        1.2981031745    -0.3978578284    -0.0108996622
|  8>  N       -0.9556547057    -0.7870374452     0.0092114848
|  9>  C       -1.0147149042    -2.1714666432     0.0016537041
| 10>  N        0.0213719629    -2.9948741578    -0.0096701760
| 11>  N       -0.6073629091    -4.2044554772    -0.0122723120
| 12>  C       -1.9405944918    -4.0499798833    -0.0027078973
| 13>  N       -2.2461058059    -2.7667696312     0.0064678708
| 14>  H        0.7501753777     2.0787521781     0.0070492380
| 15>  H       -0.7731996045     1.7796914562    -0.8665624889
| 16>  H       -0.7587459598     1.7716721999     0.9028166510
| 17>  H       -1.8662239283    -0.3543559591     0.0187258285
| 18>  H       -0.0553128716    -5.0457192485    -0.0206936111
| 19>  H       -2.6381411375    -4.8736662339    -0.0027068057
| 20> *
| 21>
| 22>                          ****END OF INPUT****

CARTESIAN COORDINATES (ANGSTROEM)
---------------------------------
  C     -0.178057    1.509072    0.012126
  C      0.166828    0.026044    0.002494
  O      1.298103   -0.397858   -0.010900
  N     -0.955655   -0.787037    0.009211
  C     -1.014715   -2.171467    0.001654
  N      0.021372   -2.994874   -0.009670
  N     -0.607363   -4.204455   -0.012272
  C     -1.940594   -4.049980   -0.002708
  N     -2.246106   -2.766770    0.006468
  H      0.750175    2.078752    0.007049
  H     -0.773200    1.779691   -0.866562
  H     -0.758746    1.771672    0.902817
  H     -1.866224   -0.354356    0.018726
  H     -0.055313   -5.045719   -0.020694
  H     -2.638141   -4.873666   -0.002707

 Total Charge           Charge          ....    0
 Multiplicity           Mult            ....    1
 Number of Electrons    NEL             ....   66
 Basis Dimension        Dim             ....  315

ORBITAL ENERGIES
----------------

  NO   OCC          E(Eh)            E(eV)
   0   2.0000     -20.523704      -558.4784
   1   2.0000     -15.650931      -425.8835
   2   2.0000     -15.602312      -424.5605
   3   2.0000     -15.585207      -424.0950
   4   2.0000     -15.562750      -423.4840
   5   2.0000     -11.358076      -309.0690
   6   2.0000     -11.335068      -308.4429
   7   2.0000     -11.327769      -308.2443
   8   2.0000     -11.241478      -305.8962
   9   2.0000      -1.418994       -38.6128
  10   2.0000      -1.387762       -37.7629
  11   2.0000      -1.260885       -34.3104
  12   2.0000      -1.195217       -32.5235
  13   2.0000      -1.108309       -30.1586
  14   2.0000      -1.009578       -27.4720
  15   2.0000      -0.888413       -24.1750
  16   2.0000      -0.849513       -23.1164
  17   2.0000      -0.778031       -21.1713
  18   2.0000      -0.772545       -21.0220
  19   2.0000      -0.684680       -18.6311
  20   2.0000      -0.666297       -18.1309
  21   2.0000      -0.654199       -17.8017
  22   2.0000      -0.622482       -16.9386
  23   2.0000      -0.615867       -16.7586
  24   2.0000      -0.593083       -16.1386
  25   2.0000      -0.563318       -15.3287
  26   2.0000      -0.540181       -14.6991
  27   2.0000      -0.514663       -14.0047
  28   2.0000      -0.467302       -12.7159
  29   2.0000      -0.456680       -12.4269
  30   2.0000      -0.424181       -11.5425
  31   2.0000      -0.412874       -11.2349
  32   2.0000      -0.345132        -9.3915
  33   0.0000       0.127427         3.4675
  34   0.0000       0.130586         3.5534
  35   0.0000       0.140286         3.8174
  36   0.0000       0.168004         4.5716
  37   0.0000       0.172073         4.6823

MULLIKEN ATOMIC CHARGES
-----------------------
   0 C :   -0.448760
   1 C :    0.300047
   2 O :   -0.310802
   3 N :   -0.325399
   4 C :    0.270198
   5 N :   -0.208954
   6 N :   -0.109256
   7 C :    0.034647
   8 N :   -0.341843
   9 H :    0.159734
  10 H :    0.147469
  11 H :    0.147405
  12 H :    0.256855
  13 H :    0.267371
  14 H :    0.161289
Sum of atomic charges:   -0.0000000

LOEWDIN ATOMIC CHARGES
----------------------
   0 C :   -0.280775
   1 C :   -0.454803
   2 O :    0.126398
   3 N :    0.149588
   4 C :   -0.413099
   5 N :    0.047083
   6 N :    0.128112
   7 C :   -0.323195
   8 N :    0.082992
   9 H :    0.137782
  10 H :    0.133180
  11 H :    0.133126
  12 H :    0.205235
  13 H :    0.192594
  14 H :    0.135781

  Mayer bond orders larger than 0.1
B(  0-C ,  1-C ) :   0.9079 B(  0-C ,  9-H ) :   0.9418 B(  0-C , 10-H ) :   0.9186
B(  0-C , 11-H ) :   0.9187 B(  1-C ,  2-O ) :   1.9942 B(  1-C ,  3-N ) :   1.0387
B(  3-N ,  4-C ) :   0.9944 B(  3-N , 12-H ) :   0.8610 B(  4-C ,  5-N ) :   1.5660
B(  4-C ,  8-N ) :   1.3111 B(  5-N ,  6-N ) :   1.0041 B(  5-N ,  7-C ) :   0.1025
B(  6-N ,  7-C ) :   1.2368 B(  6-N , 13-H ) :   0.8663 B(  7-C ,  8-N ) :   1.5026
B(  7-C , 14-H ) :   0.9230

MP2 TOTAL ENERGY:     -449.445601935 Eh
FINAL SINGLE POINT ENERGY      -449.445601935273

DIPOLE MOMENT
-------------
                                X             Y             Z
Electronic contribution:      0.67372      -6.00030      -0.03296
Nuclear contribution   :     -1.71980       5.36985       0.03875
                        -----------------------------------------
Total Dipole Moment    :     -1.04608      -0.63044       0.00579
                        -----------------------------------------
Magnitude (a.u.)       :      1.22138
Magnitude (Debye)      :      3.10451

                             ****ORCA TERMINATED NORMALLY****
TOTAL RUN TIME: 0 days 0 hours 13 minutes 48 seconds 762 msec
