                         Program Version 3.0.3 - RELEASE   -
|  1> ! RI-MP2 RIJK def2-TZVP def2-TZVP/C def2-TZVP/JK TIGHTSCF
|  2> % maxcore 2000
|  3> % mp2 density relaxed end
|  4> *xyz 0 1
|  5>  O        0.0973995219     0.0931406855    -0.7254513954
|  6>  C        0.0149227724     1.1304381744    -0.1137447937
|  7>  C       -1.3529296423     1.7567112513     0.2056952137
|  8>  C       -1.5885959735     2.3017224193     1.6362179508
|  9>  C       -1.0006744731     3.7137590515     1.8799738367
| 10>  C        0.3204596233     3.8153564924     1.1586969266
| 11>  O        0.6562214425     4.6627707438     0.3823410441
| 12>  O        1.0849948746     2.7006518574     1.4281911588
| 13>  C        1.3009288377     1.8675044975     0.2917899342
| 14>  H       -1.5115018817     2.5653249704    -0.5239620988
| 15>  H       -2.0816439779     0.9782966835    -0.0327834658
| 16>  H       -2.6674617857     2.3393741629     1.8159492599
| 17>  H       -1.1732074684     1.6014312605     2.3656497978
| 18>  H       -1.6540077443     4.5042716412     1.5032681917
| 19>  H       -0.8545375264     3.8776384216     2.9530060796
| 20>  H        2.0621509139     1.1341090310     0.5596380409
| 21>  H        1.6625711771     2.4558872161    -0.5616786812
| 22> *
| 23>
| 24>                          ****END OF INPUT****

CARTESIAN COORDINATES (ANGSTROEM)
---------------------------------
  O      0.097400    0.093141   -0.725451
  C      0.014923    1.130438   -0.113745
  C     -1.352930    1.756711    0.205695
  C     -1.588596    2.301722    1.636218
  C     -1.000674    3.713759    1.879974
  C      0.320460    3.815356    1.158697
  O      0.656221    4.662771    0.382341
  O      1.084995    2.700652    1.428191
  C      1.300929    1.867504    0.291790
  H     -1.511502    2.565325   -0.523962
  H     -2.081644    0.978297   -0.032783
  H     -2.667462    2.339374    1.815949
  H     -1.173207    1.601431    2.365650
  H     -1.654008    4.504272    1.503268
  H     -0.854538    3.877638    2.953006
  H      2.062151    1.134109    0.559638
  H      1.662571    2.455887   -0.561679

 Total Charge           Charge          ....    0
 Multiplicity           Mult            ....    1
 Number of Electrons    NEL             ....   68
 Basis Dimension        Dim             ....  327

ORBITAL ENERGIES
----------------

  NO   OCC          E(Eh)            E(eV)
   0   2.0000     -20.602620      -560.6258
   1   2.0000     -20.568502      -559.6974
   2   2.0000     -20.562076      -559.5225
   3   2.0000     -11.394127      -310.0500
   4   2.0000     -11.347571      -308.7831
   5   2.0000     -11.312696      -307.8341
   6   2.0000     -11.261523      -306.4416
   7   2.0000     -11.260726      -306.4199
   8   2.0000     -11.257808      -306.3405
   9   2.0000      -1.470741       -40.0209
  10   2.0000      -1.407443       -38.2985
  11   2.0000      -1.379908       -37.5492
  12   2.0000      -1.108168       -30.1548
  13   2.0000      -1.044128       -28.4122
  14   2.0000      -0.968552       -26.3556
  15   2.0000      -0.894262       -24.3341
  16   2.0000      -0.798715       -21.7342
  17   2.0000      -0.756992       -20.5988
  18   2.0000      -0.712977       -19.4011
  19   2.0000      -0.697136       -18.9700
  20   2.0000      -0.689725       -18.7684
  21   2.0000      -0.663573       -18.0567
  22   2.0000      -0.637653       -17.3514
  23   2.0000      -0.611041       -16.6273
  24   2.0000      -0.599373       -16.3098
  25   2.0000      -0.593168       -16.1409
  26   2.0000      -0.569520       -15.4974
  27   2.0000      -0.540012       -14.6945
  28   2.0000      -0.517220       -14.0743
  29   2.0000      -0.508695       -13.8423
  30   2.0000      -0.500374       -13.6159
  31   2.0000      -0.491645       -13.3783
  32   2.0000      -0.457670       -12.4538
  33   2.0000      -0.416906       -11.3446
  34   0.0000       0.113256         3.0818
  35   0.0000       0.123903         3.3716
  36   0.0000       0.150625         4.0987
  37   0.0000       0.154949         4.2164
  38   0.0000       0.167788         4.5658

MULLIKEN ATOMIC CHARGES
-----------------------
   0 O :   -0.263694
   1 C :    0.111770
   2 C :   -0.210285
   3 C :   -0.240223
   4 C :   -0.234906
   5 C :    0.266159
   6 O :   -0.260121
   7 O :   -0.280074
   8 C :   -0.052459
   9 H :    0.146245
  10 H :    0.153330
  11 H :    0.139088
  12 H :    0.134383
  13 H :    0.139042
  14 H :    0.145535
  15 H :    0.155275
  16 H :    0.150936
Sum of atomic charges:    0.0000000

LOEWDIN ATOMIC CHARGES
----------------------
   0 O :    0.162912
   1 C :   -0.320570
   2 C :   -0.227799
   3 C :   -0.250016
   4 C :   -0.229409
   5 C :   -0.459151
   6 O :    0.162708
   7 O :    0.223487
   8 C :   -0.260957
   9 H :    0.159646
  10 H :    0.153527
  11 H :    0.143085
  12 H :    0.144377
  13 H :    0.150805
  14 H :    0.156355
  15 H :    0.145958
  16 H :    0.145042

  Mayer bond orders larger than 0.1
B(  0-O ,  1-C ) :   2.0112 B(  1-C ,  2-C ) :   0.9202 B(  1-C ,  8-C ) :   0.8780
B(  2-C ,  3-C ) :   0.8952 B(  2-C ,  9-H ) :   0.9091 B(  2-C , 10-H ) :   0.9179
B(  3-C ,  4-C ) :   0.9154 B(  3-C , 11-H ) :   0.9302 B(  3-C , 12-H ) :   0.9216
B(  4-C ,  5-C ) :   0.9497 B(  4-C , 13-H ) :   0.9245 B(  4-C , 14-H ) :   0.9017
B(  5-C ,  6-O ) :   2.0360 B(  5-C ,  7-O ) :   1.0231 B(  7-O ,  8-C ) :   0.8584
B(  8-C , 15-H ) :   0.9220 B(  8-C , 16-H ) :   0.9152

MP2 TOTAL ENERGY:     -458.270347473 Eh
FINAL SINGLE POINT ENERGY      -458.270347473378

DIPOLE MOMENT
-------------
                                X             Y             Z
Electronic contribution:      4.80122       0.24658      -1.82611
Nuclear contribution   :     -5.53810      -0.14409       2.51267
                        -----------------------------------------
Total Dipole Moment    :     -0.73687       0.10248       0.68656
                        -----------------------------------------
Magnitude (a.u.)       :      1.01235
Magnitude (Debye)      :      2.57319

                             ****ORCA TERMINATED NORMALLY****
TOTAL RUN TIME: 0 days 0 hours 19 minutes 22 seconds 904 msec
