                         Program Version 3.0.3 - RELEASE   -
|  1> ! RI-MP2 RIJK def2-TZVP def2-TZVP/C def2-TZVP/JK TIGHTSCF
|  2> % maxcore 2000
|  3> % mp2 density relaxed end
|  4> *xyz 0 1
|  5>  C       -0.0731543387     1.5563783090     0.0020658872
|  6>  C        0.1693570374     0.0862435344    -0.0304618118
|  7>  O       -0.7786375938    -0.8042676496     0.6178026647
|  8>  C        0.5991949984    -0.9187288388     0.9789466720
|  9>  C        1.2472070136    -1.8477960231    -0.0618443979
| 10>  C        0.7672612741    -3.2873920256    -0.2345540809
| 11>  O        1.2775469831    -3.8403492480    -1.4343612027
| 12>  C        0.7530135579    -0.8202926950    -1.1215210467
| 13>  O        0.8422186212    -0.7651727236    -2.3147493264
| 14>  H        0.8344367647     2.1014540430    -0.2743263822
| 15>  H       -0.8602368861     1.8299674673    -0.7076167689
| 16>  H       -0.3850619229     1.8691600775     1.0018154343
| 17>  H        0.8671834430    -0.7542975510     2.0156475083
| 18>  H        2.3434888780    -1.8143461700    -0.0322455956
| 19>  H        1.1379667660    -3.9195719016     0.5794517883
| 20>  H       -0.3311203678    -3.3094640356    -0.2032720319
| 21>  H        1.0413049820    -3.2436150695    -2.1548072598
| 22> *
| 23>
| 24>                          ****END OF INPUT****

CARTESIAN COORDINATES (ANGSTROEM)
---------------------------------
  C     -0.073154    1.556378    0.002066
  C      0.169357    0.086244   -0.030462
  O     -0.778638   -0.804268    0.617803
  C      0.599195   -0.918729    0.978947
  C      1.247207   -1.847796   -0.061844
  C      0.767261   -3.287392   -0.234554
  O      1.277547   -3.840349   -1.434361
  C      0.753014   -0.820293   -1.121521
  O      0.842219   -0.765173   -2.314749
  H      0.834437    2.101454   -0.274326
  H     -0.860237    1.829967   -0.707617
  H     -0.385062    1.869160    1.001815
  H      0.867183   -0.754298    2.015648
  H      2.343489   -1.814346   -0.032246
  H      1.137967   -3.919572    0.579452
  H     -0.331120   -3.309464   -0.203272
  H      1.041305   -3.243615   -2.154807

 Total Charge           Charge          ....    0
 Multiplicity           Mult            ....    1
 Number of Electrons    NEL             ....   68
 Basis Dimension        Dim             ....  327

ORBITAL ENERGIES
----------------

  NO   OCC          E(Eh)            E(eV)
   0   2.0000     -20.599479      -560.5403
   1   2.0000     -20.576486      -559.9147
   2   2.0000     -20.556899      -559.3817
   3   2.0000     -11.355109      -308.9882
   4   2.0000     -11.320690      -308.0516
   5   2.0000     -11.317942      -307.9769
   6   2.0000     -11.287522      -307.1491
   7   2.0000     -11.264211      -306.5148
   8   2.0000     -11.249451      -306.1131
   9   2.0000      -1.451535       -39.4983
  10   2.0000      -1.413930       -38.4750
  11   2.0000      -1.362980       -37.0886
  12   2.0000      -1.106715       -30.1153
  13   2.0000      -1.036805       -28.2129
  14   2.0000      -0.952269       -25.9125
  15   2.0000      -0.878982       -23.9183
  16   2.0000      -0.839464       -22.8430
  17   2.0000      -0.731667       -19.9097
  18   2.0000      -0.716627       -19.5004
  19   2.0000      -0.696020       -18.9397
  20   2.0000      -0.681861       -18.5544
  21   2.0000      -0.635573       -17.2948
  22   2.0000      -0.615813       -16.7571
  23   2.0000      -0.613265       -16.6878
  24   2.0000      -0.584531       -15.9059
  25   2.0000      -0.580586       -15.7986
  26   2.0000      -0.567640       -15.4463
  27   2.0000      -0.559062       -15.2128
  28   2.0000      -0.531801       -14.4710
  29   2.0000      -0.514146       -13.9906
  30   2.0000      -0.496438       -13.5088
  31   2.0000      -0.461323       -12.5532
  32   2.0000      -0.423819       -11.5327
  33   2.0000      -0.404057       -10.9949
  34   0.0000       0.118769         3.2319
  35   0.0000       0.133497         3.6326
  36   0.0000       0.154103         4.1934
  37   0.0000       0.161324         4.3899
  38   0.0000       0.169754         4.6192

MULLIKEN ATOMIC CHARGES
-----------------------
   0 C :   -0.404655
   1 C :    0.165085
   2 O :   -0.310356
   3 C :   -0.050104
   4 C :   -0.028063
   5 C :   -0.046438
   6 O :   -0.474372
   7 C :    0.103684
   8 O :   -0.258929
   9 H :    0.145876
  10 H :    0.156000
  11 H :    0.152286
  12 H :    0.154788
  13 H :    0.127162
  14 H :    0.114761
  15 H :    0.124920
  16 H :    0.328352
Sum of atomic charges:   -0.0000000

LOEWDIN ATOMIC CHARGES
----------------------
   0 C :   -0.264168
   1 C :   -0.253637
   2 O :    0.201641
   3 C :   -0.196757
   4 C :   -0.197734
   5 C :   -0.321189
   6 O :   -0.040136
   7 C :   -0.251741
   8 O :    0.166634
   9 H :    0.138808
  10 H :    0.140928
  11 H :    0.139634
  12 H :    0.136522
  13 H :    0.167674
  14 H :    0.129904
  15 H :    0.125562
  16 H :    0.178056

  Mayer bond orders larger than 0.1
B(  0-C ,  1-C ) :   0.8708 B(  0-C ,  9-H ) :   0.9309 B(  0-C , 10-H ) :   0.9327
B(  0-C , 11-H ) :   0.9385 B(  1-C ,  2-O ) :   0.8506 B(  1-C ,  3-C ) :   0.8986
B(  1-C ,  7-C ) :   0.8639 B(  2-O ,  3-C ) :   0.8950 B(  3-C ,  4-C ) :   0.8754
B(  3-C , 12-H ) :   0.9162 B(  4-C ,  5-C ) :   0.8998 B(  4-C ,  7-C ) :   0.8884
B(  4-C , 13-H ) :   0.8840 B(  5-C ,  6-O ) :   0.9263 B(  5-C , 14-H ) :   0.9326
B(  5-C , 15-H ) :   0.9199 B(  6-O , 16-H ) :   0.8345 B(  7-C ,  8-O ) :   2.0077

MP2 TOTAL ENERGY:     -458.198249021 Eh
FINAL SINGLE POINT ENERGY      -458.198249020689

DIPOLE MOMENT
-------------
                                X             Y             Z
Electronic contribution:     -0.15803      -1.42606      -2.40780
Nuclear contribution   :      0.38924       2.35955       3.43385
                        -----------------------------------------
Total Dipole Moment    :      0.23121       0.93349       1.02606
                        -----------------------------------------
Magnitude (a.u.)       :      1.40629
Magnitude (Debye)      :      3.57450

                             ****ORCA TERMINATED NORMALLY****
TOTAL RUN TIME: 0 days 0 hours 26 minutes 44 seconds 917 msec
