                         Program Version 3.0.3 - RELEASE   -
|  1> ! RI-MP2 RIJK def2-TZVP def2-TZVP/C def2-TZVP/JK TIGHTSCF
|  2> % maxcore 2000
|  3> % mp2 density relaxed end
|  4> *xyz 0 1
|  5>  C       -0.0247322014     1.5951169730    -0.0014591334
|  6>  C       -0.0216494019     0.0644883174     0.0109437143
|  7>  C       -1.4296282505    -0.5268219504    -0.0672370699
|  8>  N       -1.4158250568    -1.9781158004    -0.0335047311
|  9>  C       -0.9147403550    -2.6968379328    -1.2302235850
| 10>  C       -2.1278160420    -3.6304250867    -1.1061488987
| 11>  O       -2.4588044578    -4.6650939950    -1.5989113354
| 12>  C       -2.7233811955    -2.6733987520    -0.0635195917
| 13>  H        0.9929146473     1.9930289323     0.0495541908
| 14>  H       -0.4890684406     1.9856989130    -0.9137149530
| 15>  H       -0.5820992813     1.9979899390     0.8515021043
| 16>  H        0.5736403222    -0.3083861115    -0.8327257833
| 17>  H        0.4631267089    -0.3099784040     0.9197069794
| 18>  H       -2.0194442013    -0.1784048064     0.7900075400
| 19>  H       -1.9401488865    -0.1465845266    -0.9771176240
| 20>  H       -0.9567741634    -2.1122234279    -2.1656439354
| 21>  H        0.0796428108    -3.1450054059    -1.1370531792
| 22>  H       -3.0537690755    -3.1016790469     0.8888307989
| 23>  H       -3.5479509398    -2.0797170183    -0.4939082778
| 24> *
| 25>
| 26>                          ****END OF INPUT****

CARTESIAN COORDINATES (ANGSTROEM)
---------------------------------
  C     -0.024732    1.595117   -0.001459
  C     -0.021649    0.064488    0.010944
  C     -1.429628   -0.526822   -0.067237
  N     -1.415825   -1.978116   -0.033505
  C     -0.914740   -2.696838   -1.230224
  C     -2.127816   -3.630425   -1.106149
  O     -2.458804   -4.665094   -1.598911
  C     -2.723381   -2.673399   -0.063520
  H      0.992915    1.993029    0.049554
  H     -0.489068    1.985699   -0.913715
  H     -0.582099    1.997990    0.851502
  H      0.573640   -0.308386   -0.832726
  H      0.463127   -0.309978    0.919707
  H     -2.019444   -0.178405    0.790008
  H     -1.940149   -0.146585   -0.977118
  H     -0.956774   -2.112223   -2.165644
  H      0.079643   -3.145005   -1.137053
  H     -3.053769   -3.101679    0.888831
  H     -3.547951   -2.079717   -0.493908

 Total Charge           Charge          ....    0
 Multiplicity           Mult            ....    1
 Number of Electrons    NEL             ....   62
 Basis Dimension        Dim             ....  314

ORBITAL ENERGIES
----------------

  NO   OCC          E(Eh)            E(eV)
   0   2.0000     -20.560546      -559.4809
   1   2.0000     -15.563877      -423.5146
   2   2.0000     -11.339581      -308.5657
   3   2.0000     -11.270571      -306.6878
   4   2.0000     -11.270515      -306.6863
   5   2.0000     -11.259565      -306.3883
   6   2.0000     -11.227817      -305.5244
   7   2.0000     -11.221644      -305.3565
   8   2.0000      -1.405011       -38.2323
   9   2.0000      -1.264876       -34.4190
  10   2.0000      -1.073757       -29.2184
  11   2.0000      -0.987324       -26.8664
  12   2.0000      -0.950739       -25.8709
  13   2.0000      -0.868607       -23.6360
  14   2.0000      -0.801832       -21.8190
  15   2.0000      -0.740861       -20.1599
  16   2.0000      -0.682505       -18.5719
  17   2.0000      -0.675661       -18.3857
  18   2.0000      -0.649836       -17.6829
  19   2.0000      -0.628632       -17.1060
  20   2.0000      -0.585009       -15.9189
  21   2.0000      -0.576597       -15.6900
  22   2.0000      -0.574754       -15.6398
  23   2.0000      -0.563317       -15.3286
  24   2.0000      -0.526357       -14.3229
  25   2.0000      -0.512025       -13.9329
  26   2.0000      -0.499534       -13.5930
  27   2.0000      -0.481098       -13.0914
  28   2.0000      -0.474469       -12.9110
  29   2.0000      -0.406661       -11.0658
  30   2.0000      -0.377923       -10.2838
  31   0.0000       0.126068         3.4305
  32   0.0000       0.131703         3.5838
  33   0.0000       0.148628         4.0444
  34   0.0000       0.159644         4.3441
  35   0.0000       0.176335         4.7983

MULLIKEN ATOMIC CHARGES
-----------------------
   0 C :   -0.394776
   1 C :   -0.170411
   2 C :   -0.200379
   3 N :   -0.128242
   4 C :   -0.179975
   5 C :    0.155105
   6 O :   -0.243853
   7 C :   -0.164453
   8 H :    0.138015
   9 H :    0.123766
  10 H :    0.124828
  11 H :    0.106763
  12 H :    0.115692
  13 H :    0.120928
  14 H :    0.088327
  15 H :    0.116600
  16 H :    0.139209
  17 H :    0.136110
  18 H :    0.116746
Sum of atomic charges:   -0.0000000

LOEWDIN ATOMIC CHARGES
----------------------
   0 C :   -0.319361
   1 C :   -0.293668
   2 C :   -0.307289
   3 N :    0.089255
   4 C :   -0.228608
   5 C :   -0.310860
   6 O :    0.169986
   7 C :   -0.226465
   8 H :    0.122688
   9 H :    0.120685
  10 H :    0.121369
  11 H :    0.134649
  12 H :    0.137966
  13 H :    0.136090
  14 H :    0.118880
  15 H :    0.134631
  16 H :    0.132883
  17 H :    0.132672
  18 H :    0.134498

  Mayer bond orders larger than 0.1
B(  0-C ,  1-C ) :   0.9187 B(  0-C ,  8-H ) :   0.9414 B(  0-C ,  9-H ) :   0.9360
B(  0-C , 10-H ) :   0.9392 B(  1-C ,  2-C ) :   0.9354 B(  1-C , 11-H ) :   0.9288
B(  1-C , 12-H ) :   0.9304 B(  2-C ,  3-N ) :   0.9296 B(  2-C , 13-H ) :   0.9233
B(  2-C , 14-H ) :   0.9206 B(  3-N ,  4-C ) :   0.9302 B(  3-N ,  7-C ) :   0.9339
B(  4-C ,  5-C ) :   0.9108 B(  4-C , 15-H ) :   0.8936 B(  4-C , 16-H ) :   0.9021
B(  5-C ,  6-O ) :   2.0522 B(  5-C ,  7-C ) :   0.9090 B(  7-C , 17-H ) :   0.9014
B(  7-C , 18-H ) :   0.8987

MP2 TOTAL ENERGY:     -364.425430005 Eh
FINAL SINGLE POINT ENERGY      -364.425430005023

DIPOLE MOMENT
-------------
                                X             Y             Z
Electronic contribution:     -4.27842     -12.28071      -2.32230
Nuclear contribution   :      4.44414      13.33406       2.49831
                        -----------------------------------------
Total Dipole Moment    :      0.16572       1.05336       0.17600
                        -----------------------------------------
Magnitude (a.u.)       :      1.08074
Magnitude (Debye)      :      2.74702

                             ****ORCA TERMINATED NORMALLY****
TOTAL RUN TIME: 0 days 0 hours 11 minutes 55 seconds 866 msec
