                         Program Version 3.0.3 - RELEASE   -
|  1> ! RI-MP2 RIJK def2-TZVP def2-TZVP/C def2-TZVP/JK TIGHTSCF
|  2> % maxcore 2000
|  3> % mp2 density relaxed end
|  4> *xyz 0 1
|  5>  N       -0.0349692403     1.4257809555    -0.1334105832
|  6>  C       -0.0298518341     0.0317863718    -0.0563008570
|  7>  C       -1.2023549471    -0.7219161974     0.0204025710
|  8>  C       -1.1654082934    -2.1151384731     0.0377633465
|  9>  C        0.0523098954    -2.7822403256    -0.0207651442
| 10>  C        1.2344920670    -2.0435407987    -0.0942188755
| 11>  C        1.1969258435    -0.6565485763    -0.1108206728
| 12>  O        2.3215762679     0.1291100627    -0.1719433049
| 13>  H        0.8422492084     1.8469176876     0.1370719639
| 14>  H       -0.8226478071     1.8657572527     0.3194640831
| 15>  H       -2.1547000971    -0.2011160064     0.0628630441
| 16>  H       -2.0932431604    -2.6734755769     0.0978162096
| 17>  H        0.0928039921    -3.8653880105    -0.0084739471
| 18>  H        2.1967368723    -2.5485661647    -0.1353964845
| 19>  H        3.0995365829    -0.4367003108    -0.1749779889
| 20> *
| 21>
| 22>                          ****END OF INPUT****

CARTESIAN COORDINATES (ANGSTROEM)
---------------------------------
  N     -0.034969    1.425781   -0.133411
  C     -0.029852    0.031786   -0.056301
  C     -1.202355   -0.721916    0.020403
  C     -1.165408   -2.115138    0.037763
  C      0.052310   -2.782240   -0.020765
  C      1.234492   -2.043541   -0.094219
  C      1.196926   -0.656549   -0.110821
  O      2.321576    0.129110   -0.171943
  H      0.842249    1.846918    0.137072
  H     -0.822648    1.865757    0.319464
  H     -2.154700   -0.201116    0.062863
  H     -2.093243   -2.673476    0.097816
  H      0.092804   -3.865388   -0.008474
  H      2.196737   -2.548566   -0.135396
  H      3.099537   -0.436700   -0.174978

 Total Charge           Charge          ....    0
 Multiplicity           Mult            ....    1
 Number of Electrons    NEL             ....   58
 Basis Dimension        Dim             ....  290

ORBITAL ENERGIES
----------------

  NO   OCC          E(Eh)            E(eV)
   0   2.0000     -20.588144      -560.2319
   1   2.0000     -15.555615      -423.2898
   2   2.0000     -11.290601      -307.2329
   3   2.0000     -11.270420      -306.6837
   4   2.0000     -11.232527      -305.6526
   5   2.0000     -11.226155      -305.4792
   6   2.0000     -11.224954      -305.4465
   7   2.0000     -11.223933      -305.4187
   8   2.0000      -1.404248       -38.2115
   9   2.0000      -1.215198       -33.0672
  10   2.0000      -1.125109       -30.6158
  11   2.0000      -1.005315       -27.3560
  12   2.0000      -0.984283       -26.7837
  13   2.0000      -0.850362       -23.1395
  14   2.0000      -0.811864       -22.0919
  15   2.0000      -0.727712       -19.8020
  16   2.0000      -0.698207       -18.9992
  17   2.0000      -0.685276       -18.6473
  18   2.0000      -0.626353       -17.0439
  19   2.0000      -0.608144       -16.5485
  20   2.0000      -0.596106       -16.2209
  21   2.0000      -0.592122       -16.1125
  22   2.0000      -0.573467       -15.6048
  23   2.0000      -0.512929       -13.9575
  24   2.0000      -0.506497       -13.7825
  25   2.0000      -0.497374       -13.5342
  26   2.0000      -0.447335       -12.1726
  27   2.0000      -0.326671        -8.8892
  28   2.0000      -0.286529        -7.7969
  29   0.0000       0.128896         3.5074
  30   0.0000       0.135685         3.6922
  31   0.0000       0.149278         4.0621
  32   0.0000       0.152606         4.1526
  33   0.0000       0.164178         4.4675

MULLIKEN ATOMIC CHARGES
-----------------------
   0 N :   -0.511022
   1 C :    0.199240
   2 C :   -0.236071
   3 C :   -0.117595
   4 C :   -0.158084
   5 C :   -0.182620
   6 C :    0.179574
   7 O :   -0.460510
   8 H :    0.261213
   9 H :    0.242796
  10 H :    0.109462
  11 H :    0.117357
  12 H :    0.119514
  13 H :    0.105021
  14 H :    0.331725
Sum of atomic charges:   -0.0000000

LOEWDIN ATOMIC CHARGES
----------------------
   0 N :   -0.065448
   1 C :   -0.222011
   2 C :   -0.135867
   3 C :   -0.165440
   4 C :   -0.166224
   5 C :   -0.156977
   6 C :   -0.249265
   7 O :    0.054571
   8 H :    0.171134
   9 H :    0.166167
  10 H :    0.145851
  11 H :    0.144787
  12 H :    0.144203
  13 H :    0.143870
  14 H :    0.190648

  Mayer bond orders larger than 0.1
B(  0-N ,  1-C ) :   1.0270 B(  0-N ,  8-H ) :   0.8647 B(  0-N ,  9-H ) :   0.8763
B(  1-C ,  2-C ) :   1.3310 B(  1-C ,  6-C ) :   1.2722 B(  2-C ,  3-C ) :   1.3619
B(  2-C , 10-H ) :   0.9307 B(  3-C ,  4-C ) :   1.3579 B(  3-C , 11-H ) :   0.9349
B(  4-C ,  5-C ) :   1.3100 B(  4-C , 12-H ) :   0.9290 B(  5-C ,  6-C ) :   1.3495
B(  5-C , 13-H ) :   0.9236 B(  6-C ,  7-O ) :   1.0378 B(  7-O , 14-H ) :   0.8340

MP2 TOTAL ENERGY:     -362.103655268 Eh
FINAL SINGLE POINT ENERGY      -362.103655267626

DIPOLE MOMENT
-------------
                                X             Y             Z
Electronic contribution:      1.56004       0.61262      -0.28727
Nuclear contribution   :     -1.22252      -0.58659       0.69972
                        -----------------------------------------
Total Dipole Moment    :      0.33752       0.02604       0.41245
                        -----------------------------------------
Magnitude (a.u.)       :      0.53359
Magnitude (Debye)      :      1.35627

                             ****ORCA TERMINATED NORMALLY****
TOTAL RUN TIME: 0 days 0 hours 11 minutes 39 seconds 482 msec
