                         Program Version 3.0.3 - RELEASE   -
|  1> ! RI-MP2 RIJK def2-TZVP def2-TZVP/C def2-TZVP/JK TIGHTSCF
|  2> % maxcore 2000
|  3> % mp2 density relaxed end
|  4> *xyz 0 1
|  5>  C        0.1151328311     1.4852532088     0.0090408054
|  6>  N       -0.0885634310     0.0502436461     0.0029975373
|  7>  C       -1.2277043568    -0.5905023267     0.0105895602
|  8>  N       -2.4360134482    -0.0769730836     0.0252700392
|  9>  H       -3.1471371360    -0.8094864898     0.0281617335
| 10>  H       -2.6676353094     0.9026383014     0.0329596560
| 11>  C       -1.1394713450    -2.1693967819     0.0009482898
| 12>  O        0.0331932678    -2.5650073880    -0.0125929781
| 13>  O       -2.2573810590    -2.6969733340     0.0092315333
| 14>  H        1.1852554238     1.6932935922    -0.0002988996
| 15>  H       -0.3343525498     1.9507705303    -0.8757134640
| 16>  H       -0.3168514032     1.9407769740     0.9076071366
| 17>  H        0.6764265456    -0.6315314488    -0.0082365295
| 18> *
| 19>
| 20>                          ****END OF INPUT****

CARTESIAN COORDINATES (ANGSTROEM)
---------------------------------
  C      0.115133    1.485253    0.009041
  N     -0.088563    0.050244    0.002998
  C     -1.227704   -0.590502    0.010590
  N     -2.436013   -0.076973    0.025270
  H     -3.147137   -0.809486    0.028162
  H     -2.667635    0.902638    0.032960
  C     -1.139471   -2.169397    0.000948
  O      0.033193   -2.565007   -0.012593
  O     -2.257381   -2.696973    0.009232
  H      1.185255    1.693294   -0.000299
  H     -0.334353    1.950771   -0.875713
  H     -0.316851    1.940777    0.907607
  H      0.676427   -0.631531   -0.008237

 Total Charge           Charge          ....    0
 Multiplicity           Mult            ....    1
 Number of Electrons    NEL             ....   54
 Basis Dimension        Dim             ....  253

ORBITAL ENERGIES
----------------

  NO   OCC          E(Eh)            E(eV)
   0   2.0000     -20.492018      -557.6162
   1   2.0000     -20.491979      -557.6151
   2   2.0000     -15.639535      -425.5734
   3   2.0000     -15.637115      -425.5075
   4   2.0000     -11.375911      -309.5543
   5   2.0000     -11.345027      -308.7139
   6   2.0000     -11.313305      -307.8507
   7   2.0000      -1.392011       -37.8785
   8   2.0000      -1.336851       -36.3776
   9   2.0000      -1.293519       -35.1984
  10   2.0000      -1.246475       -33.9183
  11   2.0000      -1.024710       -27.8838
  12   2.0000      -0.889536       -24.2055
  13   2.0000      -0.828477       -22.5440
  14   2.0000      -0.762458       -20.7475
  15   2.0000      -0.707786       -19.2598
  16   2.0000      -0.691834       -18.8258
  17   2.0000      -0.674970       -18.3669
  18   2.0000      -0.617799       -16.8112
  19   2.0000      -0.601842       -16.3770
  20   2.0000      -0.594325       -16.1724
  21   2.0000      -0.594273       -16.1710
  22   2.0000      -0.535794       -14.5797
  23   2.0000      -0.448141       -12.1945
  24   2.0000      -0.421563       -11.4713
  25   2.0000      -0.410367       -11.1667
  26   2.0000      -0.390864       -10.6359
  27   0.0000       0.092159         2.5078
  28   0.0000       0.103619         2.8196
  29   0.0000       0.143500         3.9048
  30   0.0000       0.158041         4.3005
  31   0.0000       0.176959         4.8153

MULLIKEN ATOMIC CHARGES
-----------------------
   0 C :   -0.326228
   1 N :   -0.236207
   2 C :    0.222776
   3 N :   -0.425144
   4 H :    0.313892
   5 H :    0.266388
   6 C :    0.322114
   7 O :   -0.460840
   8 O :   -0.460614
   9 H :    0.168578
  10 H :    0.160083
  11 H :    0.160089
  12 H :    0.295112
Sum of atomic charges:   -0.0000000

LOEWDIN ATOMIC CHARGES
----------------------
   0 C :   -0.296637
   1 N :    0.151960
   2 C :   -0.260566
   3 N :    0.068206
   4 H :    0.211196
   5 H :    0.177722
   6 C :   -0.648795
   7 O :   -0.005334
   8 O :   -0.002620
   9 H :    0.132597
  10 H :    0.124356
  11 H :    0.124357
  12 H :    0.223557

  Mayer bond orders larger than 0.1
B(  0-C ,  1-N ) :   0.8446 B(  0-C ,  9-H ) :   0.9323 B(  0-C , 10-H ) :   0.9273
B(  0-C , 11-H ) :   0.9273 B(  1-N ,  2-C ) :   1.4293 B(  1-N , 12-H ) :   0.7965
B(  2-C ,  3-N ) :   1.3539 B(  2-C ,  6-C ) :   0.8288 B(  3-N ,  4-H ) :   0.7968
B(  3-N ,  5-H ) :   0.8580 B(  6-C ,  7-O ) :   1.6971 B(  6-C ,  8-O ) :   1.6990

MP2 TOTAL ENERGY:     -377.222946731 Eh
FINAL SINGLE POINT ENERGY      -377.222946731000

DIPOLE MOMENT
-------------
                                X             Y             Z
Electronic contribution:     -1.36447      -6.17056      -0.02103
Nuclear contribution   :      1.33342       9.92024       0.04191
                        -----------------------------------------
Total Dipole Moment    :     -0.03105       3.74968       0.02088
                        -----------------------------------------
Magnitude (a.u.)       :      3.74986
Magnitude (Debye)      :      9.53140

                             ****ORCA TERMINATED NORMALLY****
TOTAL RUN TIME: 0 days 0 hours 6 minutes 1 seconds 676 msec
