                         Program Version 3.0.3 - RELEASE   -
|  1> ! RI-MP2 RIJK def2-TZVP def2-TZVP/C def2-TZVP/JK TIGHTSCF
|  2> % maxcore 2000
|  3> % mp2 density relaxed end
|  4> *xyz 0 1
|  5>  N       -0.1406430921     1.2822968593     0.0104564898
|  6>  C       -0.0085497181     0.0273073698     0.0028891859
|  7>  N        1.1338765620    -0.7795342612    -0.0069379614
|  8>  C        0.8351265254    -2.1328385408    -0.0131744384
|  9>  N        1.5737880546    -3.1648924507    -0.0224270460
| 10>  C       -0.6551864043    -2.1495595543    -0.0064259516
| 11>  C       -1.4601284251    -3.1628778477    -0.7640678270
| 12>  C       -1.4531849382    -3.1713754122     0.7471377905
| 13>  O       -1.0860548339    -0.7973453754     0.0031671025
| 14>  H        0.7596624591     1.7542882335     0.0089011406
| 15>  H        2.0648821180    -0.3987792938    -0.0092116774
| 16>  H        2.5670502637    -2.9356371685    -0.0257273543
| 17>  H       -2.3491434371    -2.7932712280    -1.2617582548
| 18>  H       -0.8996199461    -3.9289336497    -1.2874369615
| 19>  H       -0.8879271607    -3.9432351296     1.2566889155
| 20>  H       -2.3375695571    -2.8074338306     1.2571017178
| 21> *
| 22>
| 23>                          ****END OF INPUT****

CARTESIAN COORDINATES (ANGSTROEM)
---------------------------------
  N     -0.140643    1.282297    0.010456
  C     -0.008550    0.027307    0.002889
  N      1.133877   -0.779534   -0.006938
  C      0.835127   -2.132839   -0.013174
  N      1.573788   -3.164892   -0.022427
  C     -0.655186   -2.149560   -0.006426
  C     -1.460128   -3.162878   -0.764068
  C     -1.453185   -3.171375    0.747138
  O     -1.086055   -0.797345    0.003167
  H      0.759662    1.754288    0.008901
  H      2.064882   -0.398779   -0.009212
  H      2.567050   -2.935637   -0.025727
  H     -2.349143   -2.793271   -1.261758
  H     -0.899620   -3.928934   -1.287437
  H     -0.887927   -3.943235    1.256689
  H     -2.337570   -2.807434    1.257102

 Total Charge           Charge          ....    0
 Multiplicity           Mult            ....    1
 Number of Electrons    NEL             ....   66
 Basis Dimension        Dim             ....  321

ORBITAL ENERGIES
----------------

  NO   OCC          E(Eh)            E(eV)
   0   2.0000     -20.612344      -560.8904
   1   2.0000     -15.628096      -425.2621
   2   2.0000     -15.549069      -423.1117
   3   2.0000     -15.535211      -422.7346
   4   2.0000     -11.390202      -309.9432
   5   2.0000     -11.348068      -308.7966
   6   2.0000     -11.318443      -307.9905
   7   2.0000     -11.247663      -306.0645
   8   2.0000     -11.247007      -306.0466
   9   2.0000      -1.473433       -40.0942
  10   2.0000      -1.298656       -35.3382
  11   2.0000      -1.232197       -33.5298
  12   2.0000      -1.172263       -31.8989
  13   2.0000      -1.149156       -31.2701
  14   2.0000      -0.929605       -25.2958
  15   2.0000      -0.867110       -23.5953
  16   2.0000      -0.849745       -23.1227
  17   2.0000      -0.807938       -21.9851
  18   2.0000      -0.751554       -20.4508
  19   2.0000      -0.700116       -19.0511
  20   2.0000      -0.674940       -18.3661
  21   2.0000      -0.672932       -18.3114
  22   2.0000      -0.649239       -17.6667
  23   2.0000      -0.616577       -16.7779
  24   2.0000      -0.565860       -15.3978
  25   2.0000      -0.558941       -15.2096
  26   2.0000      -0.529351       -14.4044
  27   2.0000      -0.498468       -13.5640
  28   2.0000      -0.473766       -12.8918
  29   2.0000      -0.462392       -12.5823
  30   2.0000      -0.430188       -11.7060
  31   2.0000      -0.389328       -10.5942
  32   2.0000      -0.379420       -10.3245
  33   0.0000       0.110224         2.9993
  34   0.0000       0.148363         4.0372
  35   0.0000       0.151872         4.1326
  36   0.0000       0.166552         4.5321
  37   0.0000       0.181275         4.9327

MULLIKEN ATOMIC CHARGES
-----------------------
   0 N :   -0.360913
   1 C :    0.247504
   2 N :   -0.305151
   3 C :    0.011453
   4 N :   -0.381350
   5 C :    0.309486
   6 C :   -0.288580
   7 C :   -0.288575
   8 O :   -0.222239
   9 H :    0.212989
  10 H :    0.242804
  11 H :    0.211012
  12 H :    0.151789
  13 H :    0.153993
  14 H :    0.153990
  15 H :    0.151788
Sum of atomic charges:    0.0000000

LOEWDIN ATOMIC CHARGES
----------------------
   0 N :   -0.079267
   1 C :   -0.469917
   2 N :    0.154187
   3 C :   -0.333702
   4 N :   -0.060967
   5 C :   -0.263280
   6 C :   -0.179460
   7 C :   -0.179462
   8 O :    0.314911
   9 H :    0.165433
  10 H :    0.190958
  11 H :    0.162190
  12 H :    0.144097
  13 H :    0.145091
  14 H :    0.145090
  15 H :    0.144097

  Mayer bond orders larger than 0.1
B(  0-N ,  1-C ) :   2.0076 B(  0-N ,  9-H ) :   0.8486 B(  1-C ,  2-N ) :   1.0348
B(  1-C ,  8-O ) :   1.0876 B(  2-N ,  3-C ) :   1.0942 B(  2-N , 10-H ) :   0.8670
B(  3-C ,  4-N ) :   2.0688 B(  3-C ,  5-C ) :   0.8890 B(  4-N ,  5-C ) :  -0.1039
B(  4-N , 11-H ) :   0.8563 B(  5-C ,  6-C ) :   0.8422 B(  5-C ,  7-C ) :   0.8422
B(  5-C ,  8-O ) :   0.9443 B(  6-C ,  7-C ) :   0.9392 B(  6-C , 12-H ) :   0.9224
B(  6-C , 13-H ) :   0.9107 B(  7-C , 14-H ) :   0.9107 B(  7-C , 15-H ) :   0.9224

MP2 TOTAL ENERGY:     -433.355456109 Eh
FINAL SINGLE POINT ENERGY      -433.355456109343

DIPOLE MOMENT
-------------
                                X             Y             Z
Electronic contribution:      1.32621       3.76697       0.01528
Nuclear contribution   :     -0.20324      -4.00260      -0.02183
                        -----------------------------------------
Total Dipole Moment    :      1.12297      -0.23563      -0.00656
                        -----------------------------------------
Magnitude (a.u.)       :      1.14744
Magnitude (Debye)      :      2.91656

                             ****ORCA TERMINATED NORMALLY****
TOTAL RUN TIME: 0 days 0 hours 14 minutes 31 seconds 651 msec
