                         Program Version 3.0.3 - RELEASE   -
|  1> ! RI-MP2 RIJK def2-TZVP def2-TZVP/C def2-TZVP/JK TIGHTSCF
|  2> % maxcore 2000
|  3> % mp2 density relaxed end
|  4> *xyz 0 1
|  5>  C       -0.0516508566     1.5912898055    -0.0695318642
|  6>  C        0.0742794032     0.0893143155    -0.0159230755
|  7>  C        0.4829019011    -0.6477119872    -1.2827197275
|  8>  O        0.9171907087    -1.9407532324    -0.8745351169
|  9>  C        1.4799614628    -1.8260763047     0.4277327329
| 10>  C        0.7362747483    -0.6924826253     1.1171848100
| 11>  C        1.3446790711    -0.0685297857     2.3471435962
| 12>  C       -0.7695337020    -0.7403511221     0.9169942524
| 13>  O       -1.5942091819    -0.0212156739     1.7907125065
| 14>  H        0.9037100869     2.0592253065    -0.3328632582
| 15>  H       -0.7872141509     1.8921952131    -0.8246588278
| 16>  H       -0.3857555477     1.9952633613     0.8872623703
| 17>  H       -0.3343831089    -0.7904593227    -1.9988839256
| 18>  H        1.2922515228    -0.0940338140    -1.7886985289
| 19>  H        1.3650651679    -2.8005125618     0.9174359593
| 20>  H        2.5577034147    -1.5918314144     0.3808334417
| 21>  H        2.3145681989     0.3906427614     2.1248923000
| 22>  H        0.6911412562     0.7014797821     2.7629751081
| 23>  H        1.5112790043    -0.8199542942     3.1291154316
| 24>  H       -1.2057434017    -1.6620594444     0.5277222212
| 25>  H       -1.6792299271    -0.5280258127     2.6050332146
| 26> *
| 27>
| 28>                          ****END OF INPUT****

CARTESIAN COORDINATES (ANGSTROEM)
---------------------------------
  C     -0.051651    1.591290   -0.069532
  C      0.074279    0.089314   -0.015923
  C      0.482902   -0.647712   -1.282720
  O      0.917191   -1.940753   -0.874535
  C      1.479961   -1.826076    0.427733
  C      0.736275   -0.692483    1.117185
  C      1.344679   -0.068530    2.347144
  C     -0.769534   -0.740351    0.916994
  O     -1.594209   -0.021216    1.790713
  H      0.903710    2.059225   -0.332863
  H     -0.787214    1.892195   -0.824659
  H     -0.385756    1.995263    0.887262
  H     -0.334383   -0.790459   -1.998884
  H      1.292252   -0.094034   -1.788699
  H      1.365065   -2.800513    0.917436
  H      2.557703   -1.591831    0.380833
  H      2.314568    0.390643    2.124892
  H      0.691141    0.701480    2.762975
  H      1.511279   -0.819954    3.129115
  H     -1.205743   -1.662059    0.527722
  H     -1.679230   -0.528026    2.605033

 Total Charge           Charge          ....    0
 Multiplicity           Mult            ....    1
 Number of Electrons    NEL             ....   70
 Basis Dimension        Dim             ....  351

ORBITAL ENERGIES
----------------

  NO   OCC          E(Eh)            E(eV)
   0   2.0000     -20.565691      -559.6209
   1   2.0000     -20.551505      -559.2349
   2   2.0000     -11.278237      -306.8964
   3   2.0000     -11.274347      -306.7906
   4   2.0000     -11.272468      -306.7394
   5   2.0000     -11.234892      -305.7169
   6   2.0000     -11.233972      -305.6919
   7   2.0000     -11.224225      -305.4267
   8   2.0000     -11.217623      -305.2470
   9   2.0000      -1.382111       -37.6092
  10   2.0000      -1.370539       -37.2943
  11   2.0000      -1.148922       -31.2638
  12   2.0000      -1.022222       -27.8161
  13   2.0000      -0.952622       -25.9222
  14   2.0000      -0.941196       -25.6112
  15   2.0000      -0.882190       -24.0056
  16   2.0000      -0.777685       -21.1619
  17   2.0000      -0.732136       -19.9224
  18   2.0000      -0.707329       -19.2474
  19   2.0000      -0.666689       -18.1415
  20   2.0000      -0.651092       -17.7171
  21   2.0000      -0.616948       -16.7880
  22   2.0000      -0.612414       -16.6646
  23   2.0000      -0.579653       -15.7732
  24   2.0000      -0.573643       -15.6096
  25   2.0000      -0.559472       -15.2240
  26   2.0000      -0.548631       -14.9290
  27   2.0000      -0.543955       -14.8018
  28   2.0000      -0.534221       -14.5369
  29   2.0000      -0.495739       -13.4897
  30   2.0000      -0.489224       -13.3125
  31   2.0000      -0.473511       -12.8849
  32   2.0000      -0.424229       -11.5439
  33   2.0000      -0.390770       -10.6334
  34   2.0000      -0.370895       -10.0926
  35   0.0000       0.122605         3.3362
  36   0.0000       0.154648         4.2082
  37   0.0000       0.168505         4.5853
  38   0.0000       0.172779         4.7016
  39   0.0000       0.195532         5.3207

MULLIKEN ATOMIC CHARGES
-----------------------
   0 C :   -0.433305
   1 C :    0.049145
   2 C :   -0.015992
   3 O :   -0.331986
   4 C :   -0.016650
   5 C :   -0.000291
   6 C :   -0.456911
   7 C :   -0.033475
   8 O :   -0.469033
   9 H :    0.132245
  10 H :    0.137596
  11 H :    0.157672
  12 H :    0.113123
  13 H :    0.091411
  14 H :    0.108899
  15 H :    0.088513
  16 H :    0.137623
  17 H :    0.153120
  18 H :    0.136629
  19 H :    0.126251
  20 H :    0.325417
Sum of atomic charges:   -0.0000000

LOEWDIN ATOMIC CHARGES
----------------------
   0 C :   -0.262461
   1 C :   -0.225069
   2 C :   -0.258375
   3 O :    0.150457
   4 C :   -0.262054
   5 C :   -0.231647
   6 C :   -0.271190
   7 C :   -0.259893
   8 O :    0.003494
   9 H :    0.128213
  10 H :    0.131619
  11 H :    0.134831
  12 H :    0.130501
  13 H :    0.125247
  14 H :    0.128854
  15 H :    0.124660
  16 H :    0.130394
  17 H :    0.132641
  18 H :    0.128661
  19 H :    0.139539
  20 H :    0.181577

  Mayer bond orders larger than 0.1
B(  0-C ,  1-C ) :   0.9059 B(  0-C ,  9-H ) :   0.9365 B(  0-C , 10-H ) :   0.9348
B(  0-C , 11-H ) :   0.9336 B(  1-C ,  2-C ) :   0.9428 B(  1-C ,  5-C ) :   0.8208
B(  1-C ,  7-C ) :   0.8467 B(  2-C ,  3-O ) :   0.9280 B(  2-C , 12-H ) :   0.9196
B(  2-C , 13-H ) :   0.9235 B(  3-O ,  4-C ) :   0.9305 B(  4-C ,  5-C ) :   0.9458
B(  4-C , 14-H ) :   0.9216 B(  4-C , 15-H ) :   0.9136 B(  5-C ,  6-C ) :   0.8803
B(  5-C ,  7-C ) :   0.8624 B(  6-C , 16-H ) :   0.9358 B(  6-C , 17-H ) :   0.9396
B(  6-C , 18-H ) :   0.9364 B(  7-C ,  8-O ) :   1.0161 B(  7-C , 19-H ) :   0.9445
B(  8-O , 20-H ) :   0.8420

MP2 TOTAL ENERGY:     -423.518744622 Eh
FINAL SINGLE POINT ENERGY      -423.518744621596

DIPOLE MOMENT
-------------
                                X             Y             Z
Electronic contribution:     -2.54876      -3.97811      -1.60254
Nuclear contribution   :      2.75966       4.10239       2.20962
                        -----------------------------------------
Total Dipole Moment    :      0.21090       0.12428       0.60708
                        -----------------------------------------
Magnitude (a.u.)       :      0.65458
Magnitude (Debye)      :      1.66381

                             ****ORCA TERMINATED NORMALLY****
TOTAL RUN TIME: 0 days 0 hours 19 minutes 33 seconds 228 msec
