                         Program Version 3.0.3 - RELEASE   -
|  1> ! RI-MP2 RIJK def2-TZVP def2-TZVP/C def2-TZVP/JK TIGHTSCF
|  2> % maxcore 2000
|  3> % mp2 density relaxed end
|  4> *xyz 0 1
|  5>  O        0.4338615797     1.3057033655    -0.2532265681
|  6>  C        0.1614503785    -0.0056065715    -0.1485140810
|  7>  C        0.2721731704    -0.9744316202    -1.1200289293
|  8>  N       -0.1393851317    -2.1047989820    -0.4770753533
|  9>  C       -0.1754043436    -3.4606857438    -0.9730475572
| 10>  C        1.2159558961    -4.0901663222    -1.0493740184
| 11>  O        1.4954244198    -4.9667049861    -1.8192288684
| 12>  N       -0.4663948019    -1.8490967624     0.7973143902
| 13>  N       -0.2875637078    -0.5670746432     0.9979463402
| 14>  H        0.2452835407     1.6997104562     0.6083400025
| 15>  H        0.5761477865    -0.9546052409    -2.1513813184
| 16>  H       -0.7740164452    -4.0383027843    -0.2606102594
| 17>  H       -0.6551026563    -3.5100046893    -1.9537270242
| 18>  H        1.9423303747    -3.6800518857    -0.3141838752
| 19> *
| 20>
| 21>                          ****END OF INPUT****

CARTESIAN COORDINATES (ANGSTROEM)
---------------------------------
  O      0.433862    1.305703   -0.253227
  C      0.161450   -0.005607   -0.148514
  C      0.272173   -0.974432   -1.120029
  N     -0.139385   -2.104799   -0.477075
  C     -0.175404   -3.460686   -0.973048
  C      1.215956   -4.090166   -1.049374
  O      1.495424   -4.966705   -1.819229
  N     -0.466395   -1.849097    0.797314
  N     -0.287564   -0.567075    0.997946
  H      0.245284    1.699710    0.608340
  H      0.576148   -0.954605   -2.151381
  H     -0.774016   -4.038303   -0.260610
  H     -0.655103   -3.510005   -1.953727
  H      1.942330   -3.680052   -0.314184

 Total Charge           Charge          ....    0
 Multiplicity           Mult            ....    1
 Number of Electrons    NEL             ....   66
 Basis Dimension        Dim             ....  309

ORBITAL ENERGIES
----------------

  NO   OCC          E(Eh)            E(eV)
   0   2.0000     -20.607277      -560.7525
   1   2.0000     -20.585673      -560.1646
   2   2.0000     -15.682369      -426.7390
   3   2.0000     -15.658949      -426.1017
   4   2.0000     -15.606709      -424.6802
   5   2.0000     -11.360128      -309.1248
   6   2.0000     -11.333473      -308.3995
   7   2.0000     -11.315164      -307.9013
   8   2.0000     -11.288453      -307.1744
   9   2.0000      -1.466882       -39.9159
  10   2.0000      -1.426775       -38.8245
  11   2.0000      -1.421466       -38.6801
  12   2.0000      -1.239696       -33.7338
  13   2.0000      -1.092234       -29.7212
  14   2.0000      -1.041738       -28.3471
  15   2.0000      -0.874219       -23.7887
  16   2.0000      -0.857811       -23.3422
  17   2.0000      -0.829933       -22.5836
  18   2.0000      -0.768192       -20.9036
  19   2.0000      -0.713361       -19.4115
  20   2.0000      -0.695354       -18.9215
  21   2.0000      -0.684007       -18.6128
  22   2.0000      -0.649260       -17.6672
  23   2.0000      -0.634216       -17.2579
  24   2.0000      -0.627871       -17.0852
  25   2.0000      -0.601361       -16.3639
  26   2.0000      -0.579886       -15.7795
  27   2.0000      -0.537406       -14.6236
  28   2.0000      -0.531592       -14.4654
  29   2.0000      -0.464617       -12.6429
  30   2.0000      -0.458879       -12.4867
  31   2.0000      -0.416223       -11.3260
  32   2.0000      -0.349180        -9.5017
  33   0.0000       0.101223         2.7544
  34   0.0000       0.112005         3.0478
  35   0.0000       0.137687         3.7466
  36   0.0000       0.145612         3.9623
  37   0.0000       0.169599         4.6150

MULLIKEN ATOMIC CHARGES
-----------------------
   0 O :   -0.434072
   1 C :    0.207329
   2 C :   -0.201206
   3 N :    0.128714
   4 C :   -0.126086
   5 C :    0.072155
   6 O :   -0.239772
   7 N :   -0.193109
   8 N :   -0.191240
   9 H :    0.349687
  10 H :    0.175478
  11 H :    0.181268
  12 H :    0.160438
  13 H :    0.110418
Sum of atomic charges:    0.0000000

LOEWDIN ATOMIC CHARGES
----------------------
   0 O :    0.079376
   1 C :   -0.428613
   2 C :   -0.211599
   3 N :    0.178305
   4 C :   -0.241723
   5 C :   -0.287361
   6 O :    0.154012
   7 N :   -0.036824
   8 N :    0.003695
   9 H :    0.205522
  10 H :    0.146883
  11 H :    0.166339
  12 H :    0.152782
  13 H :    0.119207

  Mayer bond orders larger than 0.1
B(  0-O ,  1-C ) :   1.1068 B(  0-O ,  9-H ) :   0.8126 B(  1-C ,  2-C ) :   1.4216
B(  1-C ,  8-N ) :   1.3847 B(  2-C ,  3-N ) :   1.1606 B(  2-C ,  7-N ) :   0.1210
B(  2-C , 10-H ) :   0.9057 B(  3-N ,  4-C ) :   0.8415 B(  3-N ,  7-N ) :   1.0359
B(  4-C ,  5-C ) :   0.8525 B(  4-C , 11-H ) :   0.8947 B(  4-C , 12-H ) :   0.9057
B(  5-C ,  6-O ) :   2.0068 B(  5-C , 13-H ) :   0.9343 B(  7-N ,  8-N ) :   1.2322

MP2 TOTAL ENERGY:     -469.253255309 Eh
FINAL SINGLE POINT ENERGY      -469.253255309201

DIPOLE MOMENT
-------------
                                X             Y             Z
Electronic contribution:      0.05361       1.35217       1.13554
Nuclear contribution   :     -0.11831      -1.15864      -1.66952
                        -----------------------------------------
Total Dipole Moment    :     -0.06469       0.19353      -0.53398
                        -----------------------------------------
Magnitude (a.u.)       :      0.57164
Magnitude (Debye)      :      1.45300

                             ****ORCA TERMINATED NORMALLY****
TOTAL RUN TIME: 0 days 0 hours 14 minutes 14 seconds 98 msec
