                         Program Version 3.0.3 - RELEASE   -
|  1> ! RI-MP2 RIJK def2-TZVP def2-TZVP/C def2-TZVP/JK TIGHTSCF
|  2> % maxcore 2000
|  3> % mp2 density relaxed end
|  4> *xyz 0 1
|  5>  C        0.0852517930     1.4409723117     0.0037453258
|  6>  C        0.0438516312    -0.0628401876     0.0347724702
|  7>  C        0.5300871731    -0.8949491395    -1.1571995098
|  8>  C        0.5553917655    -2.3339439481    -0.6179608755
|  9>  C        0.1204435394    -2.2394686719     0.8033330571
| 10>  C        0.3213605331    -0.8294694758     1.3208664723
| 11>  O        1.5987516081    -0.5945257494     1.8845908069
| 12>  N       -0.9033840836    -2.2949912346    -0.2761889821
| 13>  C       -0.9279014485    -0.8581264819    -0.7840425812
| 14>  H        1.0443148174     1.8028714249     0.3883011943
| 15>  H       -0.0415712379     1.8262831616    -1.0126095004
| 16>  H       -0.7077119314     1.8709896622     0.6258686260
| 17>  H        1.0482316287    -0.4939457409    -2.0167630166
| 18>  H        1.0057018212    -3.2013277596    -1.0862891459
| 19>  H        0.1456025443    -3.0960245822     1.4670750408
| 20>  H       -0.3977295494    -0.5719444310     2.1056766801
| 21>  H        2.2526299967    -0.8447796973     1.2210390101
| 22>  H       -1.8046817508    -0.4820626307    -1.2947627921
| 23> *
| 24>
| 25>                          ****END OF INPUT****

CARTESIAN COORDINATES (ANGSTROEM)
---------------------------------
  C      0.085252    1.440972    0.003745
  C      0.043852   -0.062840    0.034772
  C      0.530087   -0.894949   -1.157200
  C      0.555392   -2.333944   -0.617961
  C      0.120444   -2.239469    0.803333
  C      0.321361   -0.829469    1.320866
  O      1.598752   -0.594526    1.884591
  N     -0.903384   -2.294991   -0.276189
  C     -0.927901   -0.858126   -0.784043
  H      1.044315    1.802871    0.388301
  H     -0.041571    1.826283   -1.012610
  H     -0.707712    1.870990    0.625869
  H      1.048232   -0.493946   -2.016763
  H      1.005702   -3.201328   -1.086289
  H      0.145603   -3.096025    1.467075
  H     -0.397730   -0.571944    2.105677
  H      2.252630   -0.844780    1.221039
  H     -1.804682   -0.482063   -1.294763

 Total Charge           Charge          ....    0
 Multiplicity           Mult            ....    1
 Number of Electrons    NEL             ....   66
 Basis Dimension        Dim             ....  333

ORBITAL ENERGIES
----------------

  NO   OCC          E(Eh)            E(eV)
   0   2.0000     -20.562047      -559.5217
   1   2.0000     -15.566123      -423.5757
   2   2.0000     -11.287074      -307.1369
   3   2.0000     -11.269774      -306.6661
   4   2.0000     -11.266669      -306.5816
   5   2.0000     -11.262109      -306.4576
   6   2.0000     -11.247244      -306.0531
   7   2.0000     -11.244462      -305.9774
   8   2.0000     -11.228566      -305.5448
   9   2.0000      -1.373053       -37.3627
  10   2.0000      -1.321290       -35.9541
  11   2.0000      -1.118014       -30.4227
  12   2.0000      -1.004428       -27.3319
  13   2.0000      -0.957356       -26.0510
  14   2.0000      -0.919627       -25.0243
  15   2.0000      -0.805717       -21.9247
  16   2.0000      -0.771468       -20.9927
  17   2.0000      -0.742395       -20.2016
  18   2.0000      -0.711930       -19.3726
  19   2.0000      -0.674395       -18.3512
  20   2.0000      -0.632404       -17.2086
  21   2.0000      -0.603096       -16.4111
  22   2.0000      -0.592148       -16.1132
  23   2.0000      -0.568563       -15.4714
  24   2.0000      -0.556297       -15.1376
  25   2.0000      -0.550165       -14.9707
  26   2.0000      -0.534295       -14.5389
  27   2.0000      -0.474176       -12.9030
  28   2.0000      -0.471259       -12.8236
  29   2.0000      -0.452143       -12.3034
  30   2.0000      -0.440186       -11.9781
  31   2.0000      -0.377654       -10.2765
  32   2.0000      -0.352645        -9.5960
  33   0.0000       0.133894         3.6434
  34   0.0000       0.145915         3.9705
  35   0.0000       0.169016         4.5992
  36   0.0000       0.175589         4.7780
  37   0.0000       0.188269         5.1231

MULLIKEN ATOMIC CHARGES
-----------------------
   0 C :   -0.451591
   1 C :    0.022035
   2 C :   -0.221267
   3 C :   -0.051135
   4 C :   -0.145419
   5 C :    0.179101
   6 O :   -0.460022
   7 N :   -0.207517
   8 C :   -0.077270
   9 H :    0.146310
  10 H :    0.138154
  11 H :    0.138906
  12 H :    0.144663
  13 H :    0.142895
  14 H :    0.131472
  15 H :    0.112174
  16 H :    0.317604
  17 H :    0.140906
Sum of atomic charges:   -0.0000000

LOEWDIN ATOMIC CHARGES
----------------------
   0 C :   -0.259425
   1 C :   -0.221303
   2 C :   -0.139454
   3 C :   -0.178315
   4 C :   -0.207121
   5 C :   -0.277505
   6 O :   -0.005216
   7 N :    0.146860
   8 C :   -0.149031
   9 H :    0.133323
  10 H :    0.131637
  11 H :    0.131185
  12 H :    0.140597
  13 H :    0.134799
  14 H :    0.146888
  15 H :    0.154027
  16 H :    0.180818
  17 H :    0.137235

  Mayer bond orders larger than 0.1
B(  0-C ,  1-C ) :   0.8901 B(  0-C ,  9-H ) :   0.9383 B(  0-C , 10-H ) :   0.9369
B(  0-C , 11-H ) :   0.9385 B(  1-C ,  2-C ) :   0.8695 B(  1-C ,  5-C ) :   0.9027
B(  1-C ,  8-C ) :   0.8893 B(  2-C ,  3-C ) :   0.8975 B(  2-C ,  8-C ) :   0.8853
B(  2-C , 12-H ) :   0.9227 B(  3-C ,  4-C ) :   0.9318 B(  3-C ,  7-N ) :   0.8822
B(  3-C , 13-H ) :   0.9065 B(  4-C ,  5-C ) :   0.9090 B(  4-C ,  7-N ) :   0.8825
B(  4-C , 14-H ) :   0.9393 B(  5-C ,  6-O ) :   0.9513 B(  5-C , 15-H ) :   0.9151
B(  6-O , 16-H ) :   0.8370 B(  7-N ,  8-C ) :   0.9251 B(  8-C , 17-H ) :   0.9191

MP2 TOTAL ENERGY:     -401.202551253 Eh
FINAL SINGLE POINT ENERGY      -401.202551253074

DIPOLE MOMENT
-------------
                                X             Y             Z
Electronic contribution:     -0.34914      -4.48374       0.56865
Nuclear contribution   :      0.74024       4.83915      -1.10726
                        -----------------------------------------
Total Dipole Moment    :      0.39110       0.35541      -0.53861
                        -----------------------------------------
Magnitude (a.u.)       :      0.75456
Magnitude (Debye)      :      1.91795

                             ****ORCA TERMINATED NORMALLY****
TOTAL RUN TIME: 0 days 0 hours 18 minutes 51 seconds 163 msec
