                         Program Version 3.0.3 - RELEASE   -
|  1> ! RI-MP2 RIJK def2-TZVP def2-TZVP/C def2-TZVP/JK TIGHTSCF
|  2> % maxcore 2000
|  3> % mp2 density relaxed end
|  4> *xyz 0 1
|  5>  C       -0.3126352291     1.3027063497    -0.0993898108
|  6>  O        0.2405871963     0.0103953919     0.0918835246
|  7>  C        0.8030419676    -0.5335903754    -1.0503765809
|  8>  C       -0.0680999952    -1.1093392036    -2.1271503521
|  9>  C        0.7958293895    -2.0227199894    -1.2611497614
| 10>  C        2.1366735118    -2.3890058543    -1.8427172508
| 11>  O        2.5717433428    -3.4947872482    -2.0734515253
| 12>  N        2.7948665127    -1.2006058948    -2.0760122754
| 13>  C        2.1860241870    -0.0253992202    -1.4785245825
| 14>  H        0.4553470582     2.0433446841    -0.3635969480
| 15>  H       -1.0808246255     1.2989662336    -0.8846199400
| 16>  H       -0.7687380337     1.5940880265     0.8488967616
| 17>  H       -1.1308531101    -1.1444150518    -1.9142721976
| 18>  H        0.1932230730    -0.9754114495    -3.1721428334
| 19>  H        0.3192997911    -2.7138423847    -0.5799959558
| 20>  H        3.7443631012    -1.2145408850    -2.4122406918
| 21>  H        2.1326844387     0.8069239603    -2.1908540495
| 22>  H        2.7296598937     0.3166925708    -0.5869046008
| 23> *
| 24>
| 25>                          ****END OF INPUT****

CARTESIAN COORDINATES (ANGSTROEM)
---------------------------------
  C     -0.312635    1.302706   -0.099390
  O      0.240587    0.010395    0.091884
  C      0.803042   -0.533590   -1.050377
  C     -0.068100   -1.109339   -2.127150
  C      0.795829   -2.022720   -1.261150
  C      2.136674   -2.389006   -1.842717
  O      2.571743   -3.494787   -2.073452
  N      2.794867   -1.200606   -2.076012
  C      2.186024   -0.025399   -1.478525
  H      0.455347    2.043345   -0.363597
  H     -1.080825    1.298966   -0.884620
  H     -0.768738    1.594088    0.848897
  H     -1.130853   -1.144415   -1.914272
  H      0.193223   -0.975411   -3.172143
  H      0.319300   -2.713842   -0.579996
  H      3.744363   -1.214541   -2.412241
  H      2.132684    0.806924   -2.190854
  H      2.729660    0.316693   -0.586905

 Total Charge           Charge          ....    0
 Multiplicity           Mult            ....    1
 Number of Electrons    NEL             ....   68
 Basis Dimension        Dim             ....  333

ORBITAL ENERGIES
----------------

  NO   OCC          E(Eh)            E(eV)
   0   2.0000     -20.580080      -560.0125
   1   2.0000     -20.516221      -558.2747
   2   2.0000     -15.581783      -424.0019
   3   2.0000     -11.348103      -308.7976
   4   2.0000     -11.309306      -307.7419
   5   2.0000     -11.287414      -307.1462
   6   2.0000     -11.282868      -307.0225
   7   2.0000     -11.249665      -306.1189
   8   2.0000     -11.247315      -306.0550
   9   2.0000      -1.405920       -38.2570
  10   2.0000      -1.379810       -37.5465
  11   2.0000      -1.256447       -34.1897
  12   2.0000      -1.143088       -31.1050
  13   2.0000      -0.981324       -26.7032
  14   2.0000      -0.946355       -25.7516
  15   2.0000      -0.896245       -24.3881
  16   2.0000      -0.793142       -21.5825
  17   2.0000      -0.781350       -21.2616
  18   2.0000      -0.713386       -19.4122
  19   2.0000      -0.668959       -18.2033
  20   2.0000      -0.664917       -18.0933
  21   2.0000      -0.657112       -17.8809
  22   2.0000      -0.628467       -17.1015
  23   2.0000      -0.621364       -16.9082
  24   2.0000      -0.600298       -16.3349
  25   2.0000      -0.583080       -15.8664
  26   2.0000      -0.556356       -15.1392
  27   2.0000      -0.550440       -14.9782
  28   2.0000      -0.520422       -14.1614
  29   2.0000      -0.477373       -12.9900
  30   2.0000      -0.441671       -12.0185
  31   2.0000      -0.420687       -11.4475
  32   2.0000      -0.406161       -11.0522
  33   2.0000      -0.390993       -10.6394
  34   0.0000       0.125887         3.4256
  35   0.0000       0.147199         4.0055
  36   0.0000       0.158696         4.3183
  37   0.0000       0.171114         4.6562
  38   0.0000       0.184136         5.0106

MULLIKEN ATOMIC CHARGES
-----------------------
   0 C :   -0.217342
   1 O :   -0.293451
   2 C :    0.176382
   3 C :   -0.307630
   4 C :   -0.097216
   5 C :    0.199434
   6 O :   -0.331908
   7 N :   -0.338448
   8 C :   -0.119201
   9 H :    0.117583
  10 H :    0.121369
  11 H :    0.147849
  12 H :    0.148792
  13 H :    0.142580
  14 H :    0.158291
  15 H :    0.238211
  16 H :    0.126205
  17 H :    0.128500
Sum of atomic charges:   -0.0000000

LOEWDIN ATOMIC CHARGES
----------------------
   0 C :   -0.334549
   1 O :    0.198057
   2 C :   -0.332143
   3 C :   -0.172003
   4 C :   -0.128868
   5 C :   -0.430010
   6 O :    0.091627
   7 N :    0.113935
   8 C :   -0.227750
   9 H :    0.104031
  10 H :    0.105762
  11 H :    0.115824
  12 H :    0.144983
  13 H :    0.140159
  14 H :    0.158916
  15 H :    0.182705
  16 H :    0.131920
  17 H :    0.137403

  Mayer bond orders larger than 0.1
B(  0-C ,  1-O ) :   0.8846 B(  0-C ,  9-H ) :   0.9348 B(  0-C , 10-H ) :   0.9330
B(  0-C , 11-H ) :   0.9396 B(  1-O ,  2-C ) :   1.0279 B(  2-C ,  3-C ) :   0.9085
B(  2-C ,  4-C ) :   0.8318 B(  2-C ,  8-C ) :   0.9319 B(  3-C ,  4-C ) :   0.8569
B(  3-C , 12-H ) :   0.9196 B(  3-C , 13-H ) :   0.9019 B(  4-C ,  5-C ) :   0.9351
B(  4-C , 14-H ) :   0.9148 B(  5-C ,  6-O ) :   2.0115 B(  5-C ,  7-N ) :   1.1521
B(  7-N ,  8-C ) :   0.8944 B(  7-N , 15-H ) :   0.8663 B(  8-C , 16-H ) :   0.9184
B(  8-C , 17-H ) :   0.9239

MP2 TOTAL ENERGY:     -438.379268760 Eh
FINAL SINGLE POINT ENERGY      -438.379268759875

DIPOLE MOMENT
-------------
                                X             Y             Z
Electronic contribution:      3.87679      -6.79277      -0.55136
Nuclear contribution   :     -4.24893       8.61763       0.50436
                        -----------------------------------------
Total Dipole Moment    :     -0.37214       1.82486      -0.04701
                        -----------------------------------------
Magnitude (a.u.)       :      1.86301
Magnitude (Debye)      :      4.73539

                             ****ORCA TERMINATED NORMALLY****
TOTAL RUN TIME: 0 days 0 hours 17 minutes 6 seconds 758 msec
