                         Program Version 3.0.3 - RELEASE   -
|  1> ! RI-MP2 RIJK def2-TZVP def2-TZVP/C def2-TZVP/JK TIGHTSCF
|  2> % maxcore 2000
|  3> % mp2 density relaxed end
|  4> *xyz 0 1
|  5>  C       -0.4404838830     1.5263543841     0.1129080753
|  6>  C        0.0331042565     0.0957150521    -0.0159711560
|  7>  C       -0.6042467542    -0.9901122620     0.8370232912
|  8>  C        0.8082602580    -0.5388230872     1.0977069606
|  9>  O        1.9092467358    -1.3816816418     0.8327209494
| 10>  C        2.0548310388    -1.9916334556    -0.3737587209
| 11>  O        2.8870984872    -2.8494322990    -0.5230919489
| 12>  N        1.1820430865    -1.5932645830    -1.3598826879
| 13>  C        0.5092691120    -0.3017145204    -1.3989813906
| 14>  H        0.3386862481     2.2329949604    -0.1949316288
| 15>  H       -1.3239014404     1.7070345361    -0.5108051438
| 16>  H       -0.7142786734     1.7581077415     1.1462004701
| 17>  H       -1.3666447743    -0.7002712846     1.5520924132
| 18>  H       -0.7428136667    -1.9685626050     0.3914444043
| 19>  H        1.0212403704     0.0299762917     1.9953182873
| 20>  H        1.4043090254    -2.0224585028    -2.2450593779
| 21>  H       -0.3349105441    -0.3752953873    -2.0953678350
| 22>  H        1.1761951573     0.4875770630    -1.7816210318
| 23> *
| 24>
| 25>                          ****END OF INPUT****

CARTESIAN COORDINATES (ANGSTROEM)
---------------------------------
  C     -0.440484    1.526354    0.112908
  C      0.033104    0.095715   -0.015971
  C     -0.604247   -0.990112    0.837023
  C      0.808260   -0.538823    1.097707
  O      1.909247   -1.381682    0.832721
  C      2.054831   -1.991633   -0.373759
  O      2.887098   -2.849432   -0.523092
  N      1.182043   -1.593265   -1.359883
  C      0.509269   -0.301715   -1.398981
  H      0.338686    2.232995   -0.194932
  H     -1.323901    1.707035   -0.510805
  H     -0.714279    1.758108    1.146200
  H     -1.366645   -0.700271    1.552092
  H     -0.742814   -1.968563    0.391444
  H      1.021240    0.029976    1.995318
  H      1.404309   -2.022459   -2.245059
  H     -0.334911   -0.375295   -2.095368
  H      1.176195    0.487577   -1.781621

 Total Charge           Charge          ....    0
 Multiplicity           Mult            ....    1
 Number of Electrons    NEL             ....   68
 Basis Dimension        Dim             ....  333

ORBITAL ENERGIES
----------------

  NO   OCC          E(Eh)            E(eV)
   0   2.0000     -20.602149      -560.6130
   1   2.0000     -20.516284      -558.2765
   2   2.0000     -15.591383      -424.2631
   3   2.0000     -11.399811      -310.2046
   4   2.0000     -11.306504      -307.6656
   5   2.0000     -11.289958      -307.2154
   6   2.0000     -11.262533      -306.4691
   7   2.0000     -11.240843      -305.8789
   8   2.0000     -11.240814      -305.8781
   9   2.0000      -1.462019       -39.7836
  10   2.0000      -1.357644       -36.9434
  11   2.0000      -1.245141       -33.8820
  12   2.0000      -1.167854       -31.7789
  13   2.0000      -1.001751       -27.2590
  14   2.0000      -0.958611       -26.0851
  15   2.0000      -0.896089       -24.3838
  16   2.0000      -0.825349       -22.4589
  17   2.0000      -0.744794       -20.2669
  18   2.0000      -0.718823       -19.5602
  19   2.0000      -0.708480       -19.2787
  20   2.0000      -0.670230       -18.2379
  21   2.0000      -0.642721       -17.4893
  22   2.0000      -0.625644       -17.0246
  23   2.0000      -0.614251       -16.7146
  24   2.0000      -0.597363       -16.2551
  25   2.0000      -0.578474       -15.7411
  26   2.0000      -0.564932       -15.3726
  27   2.0000      -0.551585       -15.0094
  28   2.0000      -0.524261       -14.2659
  29   2.0000      -0.503693       -13.7062
  30   2.0000      -0.451757       -12.2929
  31   2.0000      -0.431626       -11.7451
  32   2.0000      -0.402562       -10.9543
  33   2.0000      -0.400830       -10.9071
  34   0.0000       0.120811         3.2874
  35   0.0000       0.141662         3.8548
  36   0.0000       0.161911         4.4058
  37   0.0000       0.175216         4.7679
  38   0.0000       0.180209         4.9037

MULLIKEN ATOMIC CHARGES
-----------------------
   0 C :   -0.422160
   1 C :    0.064245
   2 C :   -0.312731
   3 C :    0.019528
   4 O :   -0.228506
   5 C :    0.345060
   6 O :   -0.337165
   7 N :   -0.375670
   8 C :   -0.100974
   9 H :    0.140304
  10 H :    0.138761
  11 H :    0.136261
  12 H :    0.137193
  13 H :    0.161076
  14 H :    0.135608
  15 H :    0.247927
  16 H :    0.128876
  17 H :    0.122368
Sum of atomic charges:   -0.0000000

LOEWDIN ATOMIC CHARGES
----------------------
   0 C :   -0.260470
   1 C :   -0.267251
   2 C :   -0.180824
   3 C :   -0.239283
   4 O :    0.285591
   5 C :   -0.582913
   6 O :    0.089815
   7 N :    0.090191
   8 C :   -0.232462
   9 H :    0.130211
  10 H :    0.130319
  11 H :    0.132132
  12 H :    0.138269
  13 H :    0.146415
  14 H :    0.147465
  15 H :    0.195733
  16 H :    0.140387
  17 H :    0.136674

  Mayer bond orders larger than 0.1
B(  0-C ,  1-C ) :   0.9024 B(  0-C ,  9-H ) :   0.9351 B(  0-C , 10-H ) :   0.9360
B(  0-C , 11-H ) :   0.9320 B(  1-C ,  2-C ) :   0.8593 B(  1-C ,  3-C ) :   0.8767
B(  1-C ,  8-C ) :   0.9444 B(  2-C ,  3-C ) :   0.8721 B(  2-C , 12-H ) :   0.9176
B(  2-C , 13-H ) :   0.9126 B(  3-C ,  4-O ) :   0.9002 B(  3-C , 14-H ) :   0.9485
B(  4-O ,  5-C ) :   1.0847 B(  5-C ,  6-O ) :   2.0075 B(  5-C ,  7-N ) :   1.1149
B(  7-N ,  8-C ) :   0.8803 B(  7-N , 15-H ) :   0.8683 B(  8-C , 16-H ) :   0.9251
B(  8-C , 17-H ) :   0.9290

MP2 TOTAL ENERGY:     -438.399976987 Eh
FINAL SINGLE POINT ENERGY      -438.399976987338

DIPOLE MOMENT
-------------
                                X             Y             Z
Electronic contribution:      7.03386      -7.26427       0.30441
Nuclear contribution   :     -8.50698       8.69422      -0.78826
                        -----------------------------------------
Total Dipole Moment    :     -1.47312       1.42994      -0.48385
                        -----------------------------------------
Magnitude (a.u.)       :      2.10925
Magnitude (Debye)      :      5.36129

                             ****ORCA TERMINATED NORMALLY****
TOTAL RUN TIME: 0 days 0 hours 17 minutes 20 seconds 587 msec
