                         Program Version 3.0.3 - RELEASE   -
|  1> ! RI-MP2 RIJK def2-TZVP def2-TZVP/C def2-TZVP/JK TIGHTSCF
|  2> % maxcore 2000
|  3> % mp2 density relaxed end
|  4> *xyz 0 1
|  5>  C        0.0668861378     1.5345636706     0.0483984140
|  6>  C        0.0001029985     0.0115545415    -0.0245313744
|  7>  O        0.7515086892    -0.5780114232     1.0537310062
|  8>  C       -1.4295192384    -0.5387388828    -0.0559635428
|  9>  C       -2.2488326455    -0.1379688360    -1.3001657134
| 10>  C       -3.3398524378    -1.2163021682    -1.3744802347
| 11>  C       -2.5807653028    -2.5089755494    -1.0361051853
| 12>  C       -1.4972607588    -2.1096212593    -0.0104136400
| 13>  O       -0.2837929191    -2.7460073753    -0.3729311481
| 14>  H        1.1080431390     1.8632093668     0.1083956714
| 15>  H       -0.3913558815     1.9948351460    -0.8318707041
| 16>  H       -0.4629330238     1.9082187339     0.9338669868
| 17>  H        0.5237853491    -0.3337590221    -0.9218033781
| 18>  H        0.3333387641    -0.3141824700     1.8813253920
| 19>  H       -1.9543091044    -0.1575799506     0.8339252890
| 20>  H       -2.6489499259     0.8783522331    -1.2433438016
| 21>  H       -1.6142091362    -0.1905516395    -2.1949940215
| 22>  H       -4.1119532470    -1.0136850185    -0.6213857370
| 23>  H       -3.8407328285    -1.2578668078    -2.3458925532
| 24>  H       -3.2286890879    -3.3118668439    -0.6756394006
| 25>  H       -2.0561262873    -2.8818475468    -1.9220758630
| 26>  H       -1.7911300828    -2.4242272894     1.0019969182
| 27>  H        0.3807584400    -2.4252959590     0.2528644904
| 28> *
| 29>
| 30>                          ****END OF INPUT****

CARTESIAN COORDINATES (ANGSTROEM)
---------------------------------
  C      0.066886    1.534564    0.048398
  C      0.000103    0.011555   -0.024531
  O      0.751509   -0.578011    1.053731
  C     -1.429519   -0.538739   -0.055964
  C     -2.248833   -0.137969   -1.300166
  C     -3.339852   -1.216302   -1.374480
  C     -2.580765   -2.508976   -1.036105
  C     -1.497261   -2.109621   -0.010414
  O     -0.283793   -2.746007   -0.372931
  H      1.108043    1.863209    0.108396
  H     -0.391356    1.994835   -0.831871
  H     -0.462933    1.908219    0.933867
  H      0.523785   -0.333759   -0.921803
  H      0.333339   -0.314182    1.881325
  H     -1.954309   -0.157580    0.833925
  H     -2.648950    0.878352   -1.243344
  H     -1.614209   -0.190552   -2.194994
  H     -4.111953   -1.013685   -0.621386
  H     -3.840733   -1.257867   -2.345893
  H     -3.228689   -3.311867   -0.675639
  H     -2.056126   -2.881848   -1.922076
  H     -1.791130   -2.424227    1.001997
  H      0.380758   -2.425296    0.252864

 Total Charge           Charge          ....    0
 Multiplicity           Mult            ....    1
 Number of Electrons    NEL             ....   72
 Basis Dimension        Dim             ....  363

ORBITAL ENERGIES
----------------

  NO   OCC          E(Eh)            E(eV)
   0   2.0000     -20.565002      -559.6022
   1   2.0000     -20.535584      -558.8017
   2   2.0000     -11.283295      -307.0341
   3   2.0000     -11.271061      -306.7012
   4   2.0000     -11.227165      -305.5067
   5   2.0000     -11.222107      -305.3691
   6   2.0000     -11.222071      -305.3681
   7   2.0000     -11.219123      -305.2879
   8   2.0000     -11.210891      -305.0639
   9   2.0000      -1.371332       -37.3158
  10   2.0000      -1.342557       -36.5328
  11   2.0000      -1.117661       -30.4131
  12   2.0000      -1.033015       -28.1098
  13   2.0000      -0.954865       -25.9832
  14   2.0000      -0.945855       -25.7380
  15   2.0000      -0.846822       -23.0432
  16   2.0000      -0.789478       -21.4828
  17   2.0000      -0.762775       -20.7562
  18   2.0000      -0.693547       -18.8724
  19   2.0000      -0.674752       -18.3609
  20   2.0000      -0.652892       -17.7661
  21   2.0000      -0.632136       -17.2013
  22   2.0000      -0.623300       -16.9608
  23   2.0000      -0.583798       -15.8860
  24   2.0000      -0.566702       -15.4207
  25   2.0000      -0.550761       -14.9870
  26   2.0000      -0.545534       -14.8447
  27   2.0000      -0.527909       -14.3651
  28   2.0000      -0.521470       -14.1899
  29   2.0000      -0.485364       -13.2074
  30   2.0000      -0.482367       -13.1259
  31   2.0000      -0.472620       -12.8606
  32   2.0000      -0.468218       -12.7409
  33   2.0000      -0.444917       -12.1068
  34   2.0000      -0.437666       -11.9095
  35   2.0000      -0.411791       -11.2054
  36   0.0000       0.121834         3.3153
  37   0.0000       0.143553         3.9063
  38   0.0000       0.151457         4.1214
  39   0.0000       0.169354         4.6084
  40   0.0000       0.187419         5.0999

MULLIKEN ATOMIC CHARGES
-----------------------
   0 C :   -0.391067
   1 C :    0.028658
   2 O :   -0.498087
   3 C :   -0.081521
   4 C :   -0.283495
   5 C :   -0.197182
   6 C :   -0.226894
   7 C :    0.074353
   8 O :   -0.467855
   9 H :    0.150110
  10 H :    0.136674
  11 H :    0.113405
  12 H :    0.120857
  13 H :    0.316274
  14 H :    0.083110
  15 H :    0.124965
  16 H :    0.114316
  17 H :    0.104758
  18 H :    0.123016
  19 H :    0.122674
  20 H :    0.122274
  21 H :    0.075717
  22 H :    0.334943
Sum of atomic charges:    0.0000000

LOEWDIN ATOMIC CHARGES
----------------------
   0 C :   -0.299936
   1 C :   -0.348812
   2 O :   -0.035629
   3 C :   -0.227972
   4 C :   -0.236594
   5 C :   -0.259754
   6 C :   -0.234880
   7 C :   -0.309570
   8 O :   -0.021970
   9 H :    0.127544
  10 H :    0.128537
  11 H :    0.121317
  12 H :    0.150178
  13 H :    0.174500
  14 H :    0.150451
  15 H :    0.132320
  16 H :    0.142881
  17 H :    0.135521
  18 H :    0.132770
  19 H :    0.132740
  20 H :    0.146580
  21 H :    0.127018
  22 H :    0.172759

  Mayer bond orders larger than 0.1
B(  0-C ,  1-C ) :   0.9302 B(  0-C ,  9-H ) :   0.9434 B(  0-C , 10-H ) :   0.9350
B(  0-C , 11-H ) :   0.9190 B(  1-C ,  2-O ) :   0.8321 B(  1-C ,  3-C ) :   0.9228
B(  1-C , 12-H ) :   0.9250 B(  2-O , 13-H ) :   0.8399 B(  3-C ,  4-C ) :   0.8978
B(  3-C ,  7-C ) :   0.8980 B(  3-C , 14-H ) :   0.9101 B(  4-C ,  5-C ) :   0.9276
B(  4-C , 15-H ) :   0.9256 B(  4-C , 16-H ) :   0.9257 B(  5-C ,  6-C ) :   0.9319
B(  5-C , 17-H ) :   0.9294 B(  5-C , 18-H ) :   0.9313 B(  6-C ,  7-C ) :   0.9135
B(  6-C , 19-H ) :   0.9323 B(  6-C , 20-H ) :   0.9251 B(  7-C ,  8-O ) :   1.0526
B(  7-C , 21-H ) :   0.9571 B(  8-O , 22-H ) :   0.8165

MP2 TOTAL ENERGY:     -424.752236557 Eh
FINAL SINGLE POINT ENERGY      -424.752236557245

DIPOLE MOMENT
-------------
                                X             Y             Z
Electronic contribution:      3.31325      -4.07328       1.78265
Nuclear contribution   :     -3.87430       4.94804      -1.33688
                        -----------------------------------------
Total Dipole Moment    :     -0.56105       0.87476       0.44577
                        -----------------------------------------
Magnitude (a.u.)       :      1.13080
Magnitude (Debye)      :      2.87426

                             ****ORCA TERMINATED NORMALLY****
TOTAL RUN TIME: 0 days 0 hours 21 minutes 23 seconds 659 msec
