                         Program Version 3.0.3 - RELEASE   -
|  1> ! RI-MP2 RIJK def2-TZVP def2-TZVP/C def2-TZVP/JK TIGHTSCF
|  2> % maxcore 2000
|  3> % mp2 density relaxed end
|  4> *xyz 0 1
|  5>  O       -0.1825051892     1.5490364320    -0.3280958226
|  6>  C        0.0201255550     0.1985639765     0.0849975643
|  7>  C       -1.3275306374    -0.5370943639     0.1234875148
|  8>  N       -1.2285217905    -1.8825084813     0.6664420689
|  9>  C       -0.8006866350    -2.9873213306    -0.0212275568
| 10>  O       -1.1450361335    -4.1219185445     0.2546079373
| 11>  N        0.0821553715    -2.7582215489    -1.0808851179
| 12>  C        0.9854713041    -1.7204226489    -1.3023709794
| 13>  C        1.0210836308    -0.4804968533    -0.8010257747
| 14>  H       -0.3033835418     1.5396543181    -1.2845925960
| 15>  H        0.3975545012     0.2766913804     1.1123658226
| 16>  H       -2.0075532851     0.0324340328     0.7595638187
| 17>  H       -1.7568986320    -0.5478071664    -0.8882067372
| 18>  H       -1.8818428247    -2.1366640072     1.3906180705
| 19>  H        0.3092828115    -3.6356514949    -1.5230685049
| 20>  H        1.7726345845    -2.0224448924    -1.9866517889
| 21>  H        1.8615051307     0.1400550726    -1.0963107589
| 22> *
| 23>
| 24>                          ****END OF INPUT****

CARTESIAN COORDINATES (ANGSTROEM)
---------------------------------
  O     -0.182505    1.549036   -0.328096
  C      0.020126    0.198564    0.084998
  C     -1.327531   -0.537094    0.123488
  N     -1.228522   -1.882508    0.666442
  C     -0.800687   -2.987321   -0.021228
  O     -1.145036   -4.121919    0.254608
  N      0.082155   -2.758222   -1.080885
  C      0.985471   -1.720423   -1.302371
  C      1.021084   -0.480497   -0.801026
  H     -0.303384    1.539654   -1.284593
  H      0.397555    0.276691    1.112366
  H     -2.007553    0.032434    0.759564
  H     -1.756899   -0.547807   -0.888207
  H     -1.881843   -2.136664    1.390618
  H      0.309283   -3.635651   -1.523069
  H      1.772635   -2.022445   -1.986652
  H      1.861505    0.140055   -1.096311

 Total Charge           Charge          ....    0
 Multiplicity           Mult            ....    1
 Number of Electrons    NEL             ....   68
 Basis Dimension        Dim             ....  327

ORBITAL ENERGIES
----------------

  NO   OCC          E(Eh)            E(eV)
   0   2.0000     -20.567193      -559.6618
   1   2.0000     -20.517520      -558.3101
   2   2.0000     -15.604345      -424.6158
   3   2.0000     -15.590050      -424.2268
   4   2.0000     -11.385854      -309.8248
   5   2.0000     -11.297515      -307.4210
   6   2.0000     -11.297033      -307.4079
   7   2.0000     -11.279818      -306.9395
   8   2.0000     -11.232675      -305.6566
   9   2.0000      -1.402989       -38.1773
  10   2.0000      -1.374027       -37.3892
  11   2.0000      -1.266222       -34.4557
  12   2.0000      -1.226931       -33.3865
  13   2.0000      -1.072699       -29.1896
  14   2.0000      -0.989300       -26.9202
  15   2.0000      -0.913441       -24.8560
  16   2.0000      -0.832206       -22.6455
  17   2.0000      -0.790354       -21.5066
  18   2.0000      -0.726231       -19.7618
  19   2.0000      -0.707712       -19.2578
  20   2.0000      -0.677477       -18.4351
  21   2.0000      -0.666314       -18.1313
  22   2.0000      -0.628826       -17.1112
  23   2.0000      -0.620196       -16.8764
  24   2.0000      -0.614075       -16.7098
  25   2.0000      -0.597574       -16.2608
  26   2.0000      -0.567117       -15.4320
  27   2.0000      -0.540423       -14.7057
  28   2.0000      -0.509583       -13.8665
  29   2.0000      -0.493208       -13.4209
  30   2.0000      -0.465847       -12.6763
  31   2.0000      -0.449458       -12.2304
  32   2.0000      -0.403811       -10.9883
  33   2.0000      -0.340176        -9.2567
  34   0.0000       0.118949         3.2368
  35   0.0000       0.131505         3.5784
  36   0.0000       0.145854         3.9689
  37   0.0000       0.162463         4.4208
  38   0.0000       0.169166         4.6033

MULLIKEN ATOMIC CHARGES
-----------------------
   0 O :   -0.471382
   1 C :    0.185525
   2 C :   -0.153631
   3 N :   -0.333228
   4 C :    0.312427
   5 O :   -0.374760
   6 N :   -0.307879
   7 C :   -0.004713
   8 C :   -0.335258
   9 H :    0.313973
  10 H :    0.103921
  11 H :    0.151716
  12 H :    0.122068
  13 H :    0.253139
  14 H :    0.253909
  15 H :    0.139457
  16 H :    0.144717
Sum of atomic charges:   -0.0000000

LOEWDIN ATOMIC CHARGES
----------------------
   0 O :   -0.016970
   1 C :   -0.345366
   2 C :   -0.264045
   3 N :    0.103467
   4 C :   -0.538519
   5 O :    0.057507
   6 N :    0.127259
   7 C :   -0.223310
   8 C :   -0.209888
   9 H :    0.175175
  10 H :    0.150957
  11 H :    0.143043
  12 H :    0.135764
  13 H :    0.196663
  14 H :    0.204746
  15 H :    0.148966
  16 H :    0.154551

  Mayer bond orders larger than 0.1
B(  0-O ,  1-C ) :   0.9092 B(  0-O ,  9-H ) :   0.8384 B(  1-C ,  2-C ) :   0.8990
B(  1-C ,  8-C ) :   0.9760 B(  1-C , 10-H ) :   0.9113 B(  2-C ,  3-N ) :   0.8810
B(  2-C , 11-H ) :   0.9307 B(  2-C , 12-H ) :   0.9278 B(  3-N ,  4-C ) :   1.1579
B(  3-N , 13-H ) :   0.8650 B(  4-C ,  5-O ) :   1.9678 B(  4-C ,  6-N ) :   1.0431
B(  6-N ,  7-C ) :   1.0308 B(  6-N , 14-H ) :   0.8640 B(  7-C ,  8-C ) :   1.7171
B(  7-C , 15-H ) :   0.9122 B(  8-C , 16-H ) :   0.9246

MP2 TOTAL ENERGY:     -454.455681565 Eh
FINAL SINGLE POINT ENERGY      -454.455681564941

DIPOLE MOMENT
-------------
                                X             Y             Z
Electronic contribution:     -0.63553      -3.95479       0.64887
Nuclear contribution   :      0.82863       4.51452      -1.32700
                        -----------------------------------------
Total Dipole Moment    :      0.19309       0.55973      -0.67813
                        -----------------------------------------
Magnitude (a.u.)       :      0.90025
Magnitude (Debye)      :      2.28824

                             ****ORCA TERMINATED NORMALLY****
TOTAL RUN TIME: 0 days 0 hours 14 minutes 48 seconds 763 msec
