                         Program Version 3.0.3 - RELEASE   -
|  1> ! RI-MP2 RIJK def2-TZVP def2-TZVP/C def2-TZVP/JK TIGHTSCF
|  2> % maxcore 2000
|  3> % mp2 density relaxed end
|  4> *xyz 0 1
|  5>  O        0.0602254680     1.3845051244    -0.1304375857
|  6>  C        0.0122631743    -0.0232439551    -0.0007110932
|  7>  C        0.6965543259    -0.5478934527     1.2936428908
|  8>  C       -0.3801866636    -0.6159051759     2.3746833739
|  9>  N       -1.1910196473     0.6646732148     2.2672083132
| 10>  C       -2.1318060228    -0.0929718580     1.3970689051
| 11>  C       -1.6073289049    -1.4634160034     1.8282365553
| 12>  O       -1.4193384467    -1.9207074812     0.4855195684
| 13>  C       -1.4410654527    -0.5207938109     0.0514511856
| 14>  H       -0.2947472460     1.7197920994     0.7086454122
| 15>  H        0.5087496634    -0.4341866314    -0.8848075414
| 16>  H        1.1250128541    -1.5405973322     1.1303577423
| 17>  H        1.4994873722     0.1382522145     1.5768181598
| 18>  H       -0.0039514258    -0.8393122823     3.3745406846
| 19>  H       -1.6503128236     0.8593840194     3.1531486179
| 20>  H       -3.1714360664     0.2315573342     1.3552285638
| 21>  H       -2.0826787219    -2.1930449779     2.4865081959
| 22>  H       -1.9932987063    -0.3825842357    -0.8795113286
| 23> *
| 24>
| 25>                          ****END OF INPUT****

CARTESIAN COORDINATES (ANGSTROEM)
---------------------------------
  O      0.060225    1.384505   -0.130438
  C      0.012263   -0.023244   -0.000711
  C      0.696554   -0.547893    1.293643
  C     -0.380187   -0.615905    2.374683
  N     -1.191020    0.664673    2.267208
  C     -2.131806   -0.092972    1.397069
  C     -1.607329   -1.463416    1.828237
  O     -1.419338   -1.920707    0.485520
  C     -1.441065   -0.520794    0.051451
  H     -0.294747    1.719792    0.708645
  H      0.508750   -0.434187   -0.884808
  H      1.125013   -1.540597    1.130358
  H      1.499487    0.138252    1.576818
  H     -0.003951   -0.839312    3.374541
  H     -1.650313    0.859384    3.153149
  H     -3.171436    0.231557    1.355229
  H     -2.082679   -2.193045    2.486508
  H     -1.993299   -0.382584   -0.879511

 Total Charge           Charge          ....    0
 Multiplicity           Mult            ....    1
 Number of Electrons    NEL             ....   68
 Basis Dimension        Dim             ....  333

ORBITAL ENERGIES
----------------

  NO   OCC          E(Eh)            E(eV)
   0   2.0000     -20.557757      -559.4050
   1   2.0000     -20.539328      -558.9035
   2   2.0000     -15.564748      -423.5383
   3   2.0000     -11.293124      -307.3015
   4   2.0000     -11.288555      -307.1772
   5   2.0000     -11.277878      -306.8867
   6   2.0000     -11.274602      -306.7975
   7   2.0000     -11.274064      -306.7829
   8   2.0000     -11.224697      -305.4395
   9   2.0000      -1.400899       -38.1204
  10   2.0000      -1.349689       -36.7269
  11   2.0000      -1.240268       -33.7494
  12   2.0000      -1.039949       -28.2985
  13   2.0000      -0.991505       -26.9802
  14   2.0000      -0.960851       -26.1461
  15   2.0000      -0.835683       -22.7401
  16   2.0000      -0.834164       -22.6988
  17   2.0000      -0.746133       -20.3033
  18   2.0000      -0.712221       -19.3805
  19   2.0000      -0.674280       -18.3481
  20   2.0000      -0.663571       -18.0567
  21   2.0000      -0.640950       -17.4411
  22   2.0000      -0.622821       -16.9478
  23   2.0000      -0.576550       -15.6887
  24   2.0000      -0.560895       -15.2627
  25   2.0000      -0.544731       -14.8229
  26   2.0000      -0.533875       -14.5275
  27   2.0000      -0.528533       -14.3821
  28   2.0000      -0.502545       -13.6749
  29   2.0000      -0.488234       -13.2855
  30   2.0000      -0.456172       -12.4131
  31   2.0000      -0.439719       -11.9654
  32   2.0000      -0.393793       -10.7156
  33   2.0000      -0.378718       -10.3054
  34   0.0000       0.125388         3.4120
  35   0.0000       0.152693         4.1550
  36   0.0000       0.166625         4.5341
  37   0.0000       0.173424         4.7191
  38   0.0000       0.186815         5.0835

MULLIKEN ATOMIC CHARGES
-----------------------
   0 O :   -0.479595
   1 C :    0.076991
   2 C :   -0.267891
   3 C :    0.040731
   4 N :   -0.425419
   5 C :   -0.067551
   6 C :   -0.026513
   7 O :   -0.328341
   8 C :    0.056865
   9 H :    0.339056
  10 H :    0.106053
  11 H :    0.121551
  12 H :    0.130171
  13 H :    0.135118
  14 H :    0.208659
  15 H :    0.134971
  16 H :    0.122462
  17 H :    0.122683
Sum of atomic charges:   -0.0000000

LOEWDIN ATOMIC CHARGES
----------------------
   0 O :   -0.018452
   1 C :   -0.322179
   2 C :   -0.223799
   3 C :   -0.223094
   4 N :   -0.010991
   5 C :   -0.216772
   6 C :   -0.239044
   7 O :    0.160565
   8 C :   -0.209300
   9 H :    0.171629
  10 H :    0.144989
  11 H :    0.146628
  12 H :    0.145256
  13 H :    0.133659
  14 H :    0.165306
  15 H :    0.131333
  16 H :    0.127642
  17 H :    0.136623

  Mayer bond orders larger than 0.1
B(  0-O ,  1-C ) :   0.9394 B(  0-O ,  9-H ) :   0.8022 B(  1-C ,  2-C ) :   0.9458
B(  1-C ,  4-N ) :   0.1217 B(  1-C ,  8-C ) :   0.8990 B(  1-C , 10-H ) :   0.9236
B(  2-C ,  3-C ) :   0.9152 B(  2-C , 11-H ) :   0.9014 B(  2-C , 12-H ) :   0.9178
B(  3-C ,  4-N ) :   0.9369 B(  3-C ,  6-C ) :   0.8670 B(  3-C , 13-H ) :   0.9133
B(  4-N ,  5-C ) :   0.9312 B(  4-N , 14-H ) :   0.8759 B(  5-C ,  6-C ) :   0.9643
B(  5-C ,  8-C ) :   0.9187 B(  5-C , 15-H ) :   0.9239 B(  6-C ,  7-O ) :   0.9920
B(  6-C , 16-H ) :   0.9258 B(  7-O ,  8-C ) :   0.9209 B(  8-C , 17-H ) :   0.9150

MP2 TOTAL ENERGY:     -438.330090646 Eh
FINAL SINGLE POINT ENERGY      -438.330090646174

DIPOLE MOMENT
-------------
                                X             Y             Z
Electronic contribution:     -1.66543      -0.67040      -1.28176
Nuclear contribution   :      1.14108       0.43571       2.42866
                        -----------------------------------------
Total Dipole Moment    :     -0.52435      -0.23468       1.14690
                        -----------------------------------------
Magnitude (a.u.)       :      1.28273
Magnitude (Debye)      :      3.26044

                             ****ORCA TERMINATED NORMALLY****
TOTAL RUN TIME: 0 days 0 hours 17 minutes 2 seconds 706 msec
