                         Program Version 3.0.3 - RELEASE   -
|  1> ! RI-MP2 RIJK def2-TZVP def2-TZVP/C def2-TZVP/JK TIGHTSCF
|  2> % maxcore 2000
|  3> % mp2 density relaxed end
|  4> *xyz 0 1
|  5>  C        0.0024968770     1.5718780615    -0.1010980056
|  6>  C       -0.0407861362     0.0464457208     0.1010868710
|  7>  C       -1.3899531099    -0.4962721112     0.1234130659
|  8>  C       -2.5192499968    -0.9253987227     0.1387556840
|  9>  C       -3.8549810043    -1.4546703066     0.1597988481
| 10>  O       -4.1201518501    -2.6309080864     0.3063483271
| 11>  C       -4.9939152619    -0.4183592528    -0.0200094212
| 12>  C       -6.3904127775    -0.9874183712     0.0039726589
| 13>  O       -4.7327227840     0.7504994950    -0.1656611227
| 14>  H        1.0389308251     1.9204967656    -0.1091017595
| 15>  H       -0.4654191954     1.8512838504    -1.0482311520
| 16>  H       -0.5305950505     2.0852288556     0.7028652090
| 17>  H        0.5251771847    -0.4568052390    -0.6937194593
| 18>  H        0.4606810813    -0.2252827297     1.0391654222
| 19>  H       -6.5026271444    -1.7396987903    -0.7831476442
| 20>  H       -6.5665706027    -1.5097232788     0.9496117410
| 21>  H       -7.1150509042    -0.1840727701    -0.1294266328
| 22> *
| 23>
| 24>                          ****END OF INPUT****

CARTESIAN COORDINATES (ANGSTROEM)
---------------------------------
  C      0.002497    1.571878   -0.101098
  C     -0.040786    0.046446    0.101087
  C     -1.389953   -0.496272    0.123413
  C     -2.519250   -0.925399    0.138756
  C     -3.854981   -1.454670    0.159799
  O     -4.120152   -2.630908    0.306348
  C     -4.993915   -0.418359   -0.020009
  C     -6.390413   -0.987418    0.003973
  O     -4.732723    0.750499   -0.165661
  H      1.038931    1.920497   -0.109102
  H     -0.465419    1.851284   -1.048231
  H     -0.530595    2.085229    0.702865
  H      0.525177   -0.456805   -0.693719
  H      0.460681   -0.225283    1.039165
  H     -6.502627   -1.739699   -0.783148
  H     -6.566571   -1.509723    0.949612
  H     -7.115051   -0.184073   -0.129427

 Total Charge           Charge          ....    0
 Multiplicity           Mult            ....    1
 Number of Electrons    NEL             ....   66
 Basis Dimension        Dim             ....  327

ORBITAL ENERGIES
----------------

  NO   OCC          E(Eh)            E(eV)
   0   2.0000     -20.581452      -560.0498
   1   2.0000     -20.576577      -559.9171
   2   2.0000     -11.370276      -309.4009
   3   2.0000     -11.353500      -308.9444
   4   2.0000     -11.268728      -306.6377
   5   2.0000     -11.266392      -306.5741
   6   2.0000     -11.241885      -305.9072
   7   2.0000     -11.239544      -305.8435
   8   2.0000     -11.235249      -305.7267
   9   2.0000      -1.426433       -38.8152
  10   2.0000      -1.407853       -38.3096
  11   2.0000      -1.101859       -29.9831
  12   2.0000      -1.037356       -28.2279
  13   2.0000      -1.024335       -27.8736
  14   2.0000      -0.934027       -25.4162
  15   2.0000      -0.881316       -23.9818
  16   2.0000      -0.794259       -21.6129
  17   2.0000      -0.706336       -19.2204
  18   2.0000      -0.683952       -18.6113
  19   2.0000      -0.666391       -18.1334
  20   2.0000      -0.640205       -17.4209
  21   2.0000      -0.628651       -17.1065
  22   2.0000      -0.621691       -16.9171
  23   2.0000      -0.570930       -15.5358
  24   2.0000      -0.565099       -15.3771
  25   2.0000      -0.559486       -15.2244
  26   2.0000      -0.536738       -14.6054
  27   2.0000      -0.524510       -14.2726
  28   2.0000      -0.516199       -14.0465
  29   2.0000      -0.511631       -13.9222
  30   2.0000      -0.421843       -11.4789
  31   2.0000      -0.401617       -10.9285
  32   2.0000      -0.399863       -10.8808
  33   0.0000       0.046953         1.2777
  34   0.0000       0.123918         3.3720
  35   0.0000       0.144124         3.9218
  36   0.0000       0.155803         4.2396
  37   0.0000       0.167618         4.5611

MULLIKEN ATOMIC CHARGES
-----------------------
   0 C :   -0.359096
   1 C :   -0.308484
   2 C :    0.065035
   3 C :    0.154774
   4 C :   -0.019190
   5 O :   -0.265377
   6 C :    0.192091
   7 C :   -0.390037
   8 O :   -0.253168
   9 H :    0.137183
  10 H :    0.137709
  11 H :    0.137724
  12 H :    0.152324
  13 H :    0.152320
  14 H :    0.155853
  15 H :    0.155859
  16 H :    0.154478
Sum of atomic charges:   -0.0000000

LOEWDIN ATOMIC CHARGES
----------------------
   0 C :   -0.292988
   1 C :   -0.269852
   2 C :   -0.016739
   3 C :   -0.030371
   4 C :   -0.299231
   5 O :    0.187361
   6 C :   -0.311316
   7 C :   -0.274572
   8 O :    0.184790
   9 H :    0.123375
  10 H :    0.127502
  11 H :    0.127506
  12 H :    0.160265
  13 H :    0.160270
  14 H :    0.144794
  15 H :    0.144792
  16 H :    0.134414

  Mayer bond orders larger than 0.1
B(  0-C ,  1-C ) :   0.9432 B(  0-C ,  9-H ) :   0.9382 B(  0-C , 10-H ) :   0.9332
B(  0-C , 11-H ) :   0.9332 B(  1-C ,  2-C ) :   0.9509 B(  1-C , 12-H ) :   0.9330
B(  1-C , 13-H ) :   0.9330 B(  2-C ,  3-C ) :   2.6466 B(  3-C ,  4-C ) :   0.9260
B(  3-C ,  6-C ) :  -0.1476 B(  4-C ,  5-O ) :   1.9566 B(  4-C ,  6-C ) :   0.9396
B(  6-C ,  7-C ) :   0.9567 B(  6-C ,  8-O ) :   1.9683 B(  7-C , 14-H ) :   0.9084
B(  7-C , 15-H ) :   0.9084 B(  7-C , 16-H ) :   0.9360

MP2 TOTAL ENERGY:     -421.104711402 Eh
FINAL SINGLE POINT ENERGY      -421.104711401988

DIPOLE MOMENT
-------------
                                X             Y             Z
Electronic contribution:     -5.15069      -4.98727       0.47488
Nuclear contribution   :      5.65497       5.26751      -0.49360
                        -----------------------------------------
Total Dipole Moment    :      0.50428       0.28024      -0.01873
                        -----------------------------------------
Magnitude (a.u.)       :      0.57723
Magnitude (Debye)      :      1.46719

                             ****ORCA TERMINATED NORMALLY****
TOTAL RUN TIME: 0 days 0 hours 13 minutes 13 seconds 885 msec
