                         Program Version 3.0.3 - RELEASE   -
|  1> ! RI-MP2 RIJK def2-TZVP def2-TZVP/C def2-TZVP/JK TIGHTSCF
|  2> % maxcore 2000
|  3> % mp2 density relaxed end
|  4> *xyz 0 1
|  5>  C        0.8883736485     0.4596064123    -1.2349199752
|  6>  O        0.0662801200     0.3605951131    -0.0918539541
|  7>  C        0.4937936801    -0.5716656511     0.8892446616
|  8>  C        1.8140104666    -0.1603064155     1.5497934925
|  9>  C        1.8037944364     1.2564399301     2.1118668422
| 10>  O        3.0580629868     1.4732679156     2.7455929406
| 11>  C       -0.6490139830    -0.8725572966     1.8959978179
| 12>  C       -0.3326875618    -2.3860665354     1.7656109554
| 13>  C        0.4665502344    -2.0773324166     0.4710487039
| 14>  H        1.0605274161    -0.5199683138    -1.7044543493
| 15>  H        0.3627283299     1.0994616008    -1.9483625992
| 16>  H        1.8656682352     0.9134440781    -1.0169087198
| 17>  H        2.0396082700    -0.8586961330     2.3638623349
| 18>  H        2.6411728833    -0.2505698271     0.8357147758
| 19>  H        1.6327873633     1.9788905683     1.3012527539
| 20>  H        0.9734432628     1.3722924106     2.8261386926
| 21>  H        3.0717974643     2.3756028880     3.0773632378
| 22>  H       -0.5830190433    -0.4195550542     2.8878958146
| 23>  H       -1.6099022936    -0.6112977108     1.4470841028
| 24>  H        0.3080180043    -2.7495861058     2.5729263957
| 25>  H       -1.1832211456    -3.0638417151     1.6720192532
| 26>  H       -0.1473478915    -2.2116844145    -0.4235676534
| 27>  H        1.4250954267    -2.5831824677     0.3289911955
| 28> *
| 29>
| 30>                          ****END OF INPUT****

CARTESIAN COORDINATES (ANGSTROEM)
---------------------------------
  C      0.888374    0.459606   -1.234920
  O      0.066280    0.360595   -0.091854
  C      0.493794   -0.571666    0.889245
  C      1.814010   -0.160306    1.549793
  C      1.803794    1.256440    2.111867
  O      3.058063    1.473268    2.745593
  C     -0.649014   -0.872557    1.895998
  C     -0.332688   -2.386067    1.765611
  C      0.466550   -2.077332    0.471049
  H      1.060527   -0.519968   -1.704454
  H      0.362728    1.099462   -1.948363
  H      1.865668    0.913444   -1.016909
  H      2.039608   -0.858696    2.363862
  H      2.641173   -0.250570    0.835715
  H      1.632787    1.978891    1.301253
  H      0.973443    1.372292    2.826139
  H      3.071797    2.375603    3.077363
  H     -0.583019   -0.419555    2.887896
  H     -1.609902   -0.611298    1.447084
  H      0.308018   -2.749586    2.572926
  H     -1.183221   -3.063842    1.672019
  H     -0.147348   -2.211684   -0.423568
  H      1.425095   -2.583182    0.328991

 Total Charge           Charge          ....    0
 Multiplicity           Mult            ....    1
 Number of Electrons    NEL             ....   72
 Basis Dimension        Dim             ....  363

ORBITAL ENERGIES
----------------

  NO   OCC          E(Eh)            E(eV)
   0   2.0000     -20.552083      -559.2506
   1   2.0000     -20.550284      -559.2017
   2   2.0000     -11.281686      -306.9903
   3   2.0000     -11.270091      -306.6748
   4   2.0000     -11.267985      -306.6175
   5   2.0000     -11.220728      -305.3315
   6   2.0000     -11.218365      -305.2672
   7   2.0000     -11.217114      -305.2332
   8   2.0000     -11.215385      -305.1861
   9   2.0000      -1.371744       -37.3270
  10   2.0000      -1.355256       -36.8784
  11   2.0000      -1.126603       -30.6564
  12   2.0000      -1.018969       -27.7276
  13   2.0000      -0.940204       -25.5843
  14   2.0000      -0.903078       -24.5740
  15   2.0000      -0.867724       -23.6120
  16   2.0000      -0.817638       -22.2491
  17   2.0000      -0.732848       -19.9418
  18   2.0000      -0.694661       -18.9027
  19   2.0000      -0.675674       -18.3860
  20   2.0000      -0.643887       -17.5211
  21   2.0000      -0.641222       -17.4485
  22   2.0000      -0.628201       -17.0942
  23   2.0000      -0.606005       -16.4902
  24   2.0000      -0.576632       -15.6910
  25   2.0000      -0.563066       -15.3218
  26   2.0000      -0.540284       -14.7019
  27   2.0000      -0.525726       -14.3057
  28   2.0000      -0.505840       -13.7646
  29   2.0000      -0.492964       -13.4142
  30   2.0000      -0.469342       -12.7714
  31   2.0000      -0.465070       -12.6552
  32   2.0000      -0.461864       -12.5680
  33   2.0000      -0.439892       -11.9701
  34   2.0000      -0.424229       -11.5439
  35   2.0000      -0.399032       -10.8582
  36   0.0000       0.135101         3.6763
  37   0.0000       0.145406         3.9567
  38   0.0000       0.156477         4.2580
  39   0.0000       0.173104         4.7104
  40   0.0000       0.176952         4.8151

MULLIKEN ATOMIC CHARGES
-----------------------
   0 C :   -0.232974
   1 O :   -0.326191
   2 C :    0.251455
   3 C :   -0.251703
   4 C :   -0.089362
   5 O :   -0.465439
   6 C :   -0.244643
   7 C :   -0.244942
   8 C :   -0.256862
   9 H :    0.117924
  10 H :    0.142484
  11 H :    0.119055
  12 H :    0.123070
  13 H :    0.122435
  14 H :    0.109098
  15 H :    0.094555
  16 H :    0.315178
  17 H :    0.114491
  18 H :    0.123556
  19 H :    0.121761
  20 H :    0.116842
  21 H :    0.119793
  22 H :    0.120421
Sum of atomic charges:   -0.0000000

LOEWDIN ATOMIC CHARGES
----------------------
   0 C :   -0.356336
   1 O :    0.172469
   2 C :   -0.340502
   3 C :   -0.234608
   4 C :   -0.342949
   5 O :   -0.053871
   6 C :   -0.199509
   7 C :   -0.242388
   8 C :   -0.210017
   9 H :    0.104984
  10 H :    0.113719
  11 H :    0.102121
  12 H :    0.151469
  13 H :    0.143258
  14 H :    0.117619
  15 H :    0.115532
  16 H :    0.171101
  17 H :    0.125239
  18 H :    0.141335
  19 H :    0.131549
  20 H :    0.123944
  21 H :    0.139524
  22 H :    0.126318

  Mayer bond orders larger than 0.1
B(  0-C ,  1-O ) :   0.9031 B(  0-C ,  9-H ) :   0.9326 B(  0-C , 10-H ) :   0.9411
B(  0-C , 11-H ) :   0.9312 B(  1-O ,  2-C ) :   0.9642 B(  2-C ,  3-C ) :   0.9150
B(  2-C ,  6-C ) :   0.8636 B(  2-C ,  8-C ) :   0.9051 B(  3-C ,  4-C ) :   0.9343
B(  3-C ,  5-O ) :  -0.1002 B(  3-C , 12-H ) :   0.9105 B(  3-C , 13-H ) :   0.9209
B(  4-C ,  5-O ) :   1.0196 B(  4-C , 14-H ) :   0.9331 B(  4-C , 15-H ) :   0.9324
B(  5-O , 16-H ) :   0.8495 B(  6-C ,  7-C ) :   0.9411 B(  6-C , 17-H ) :   0.9264
B(  6-C , 18-H ) :   0.9212 B(  7-C ,  8-C ) :   0.9599 B(  7-C , 19-H ) :   0.9264
B(  7-C , 20-H ) :   0.9286 B(  8-C , 21-H ) :   0.9176 B(  8-C , 22-H ) :   0.9263

MP2 TOTAL ENERGY:     -424.699923161 Eh
FINAL SINGLE POINT ENERGY      -424.699923161496

DIPOLE MOMENT
-------------
                                X             Y             Z
Electronic contribution:      0.45979       2.43544       1.27917
Nuclear contribution   :     -0.53937      -2.27760      -1.40887
                        -----------------------------------------
Total Dipole Moment    :     -0.07958       0.15783      -0.12970
                        -----------------------------------------
Magnitude (a.u.)       :      0.21924
Magnitude (Debye)      :      0.55727

                             ****ORCA TERMINATED NORMALLY****
TOTAL RUN TIME: 0 days 0 hours 19 minutes 30 seconds 211 msec
