                         Program Version 3.0.3 - RELEASE   -
|  1> ! RI-MP2 RIJK def2-TZVP def2-TZVP/C def2-TZVP/JK TIGHTSCF
|  2> % maxcore 2000
|  3> % mp2 density relaxed end
|  4> *xyz 0 1
|  5>  C       -0.2553885451     1.5176872158    -0.2453265471
|  6>  C       -0.0312079326     0.0121761236     0.0414740520
|  7>  C        0.8756285001    -0.1640953383     1.2767604737
|  8>  N       -1.2651548833    -0.7785943076     0.2090447690
|  9>  C       -2.1052732206    -0.4897943520     1.3415186494
| 10>  C       -3.1081914648     0.6514737454     1.3991354182
| 11>  C       -3.5724493410    -0.7801674084     1.2448617848
| 12>  C        0.6621949545    -0.5738885869    -1.1272806935
| 13>  N        1.2000238713    -1.0046472116    -2.0547340328
| 14>  H        0.6972621607     2.0265591666    -0.4181555245
| 15>  H       -0.8796896477     1.6544371753    -1.1328824466
| 16>  H       -0.7507349720     1.9845562953     0.6084356315
| 17>  H        0.4259115175     0.3268449560     2.1434064240
| 18>  H        1.0131853860    -1.2243780401     1.4989739276
| 19>  H        1.8523196500     0.2908188499     1.0977089716
| 20>  H       -1.8010576225    -0.7694067648    -0.6514769838
| 21>  H       -1.6382722580    -0.7556805905     2.2848722053
| 22>  H       -3.2744203274     1.1529566829     2.3470616090
| 23>  H       -3.1964129773     1.2956141800     0.5312010284
| 24>  H       -3.9624699587    -1.0781758615     0.2762618523
| 25>  H       -4.0582667091    -1.2701677192     2.0807850415
| 26> *
| 27>
| 28>                          ****END OF INPUT****

CARTESIAN COORDINATES (ANGSTROEM)
---------------------------------
  C     -0.255389    1.517687   -0.245327
  C     -0.031208    0.012176    0.041474
  C      0.875629   -0.164095    1.276760
  N     -1.265155   -0.778594    0.209045
  C     -2.105273   -0.489794    1.341519
  C     -3.108191    0.651474    1.399135
  C     -3.572449   -0.780167    1.244862
  C      0.662195   -0.573889   -1.127281
  N      1.200024   -1.004647   -2.054734
  H      0.697262    2.026559   -0.418156
  H     -0.879690    1.654437   -1.132882
  H     -0.750735    1.984556    0.608436
  H      0.425912    0.326845    2.143406
  H      1.013185   -1.224378    1.498974
  H      1.852320    0.290819    1.097709
  H     -1.801058   -0.769407   -0.651477
  H     -1.638272   -0.755681    2.284872
  H     -3.274420    1.152957    2.347062
  H     -3.196413    1.295614    0.531201
  H     -3.962470   -1.078176    0.276262
  H     -4.058267   -1.270168    2.080785

 Total Charge           Charge          ....    0
 Multiplicity           Mult            ....    1
 Number of Electrons    NEL             ....   68
 Basis Dimension        Dim             ....  351

ORBITAL ENERGIES
----------------

  NO   OCC          E(Eh)            E(eV)
   0   2.0000     -15.567963      -423.6258
   1   2.0000     -15.565315      -423.5537
   2   2.0000     -11.319575      -308.0213
   3   2.0000     -11.273689      -306.7727
   4   2.0000     -11.264987      -306.5359
   5   2.0000     -11.238903      -305.8261
   6   2.0000     -11.238745      -305.8218
   7   2.0000     -11.237536      -305.7889
   8   2.0000     -11.235837      -305.7427
   9   2.0000      -1.254387       -34.1336
  10   2.0000      -1.208988       -32.8982
  11   2.0000      -1.135010       -30.8852
  12   2.0000      -1.049948       -28.5705
  13   2.0000      -0.960752       -26.1434
  14   2.0000      -0.882507       -24.0142
  15   2.0000      -0.838123       -22.8065
  16   2.0000      -0.806158       -21.9367
  17   2.0000      -0.718966       -19.5641
  18   2.0000      -0.678716       -18.4688
  19   2.0000      -0.657764       -17.8987
  20   2.0000      -0.634529       -17.2664
  21   2.0000      -0.609220       -16.5777
  22   2.0000      -0.577446       -15.7131
  23   2.0000      -0.567829       -15.4514
  24   2.0000      -0.558469       -15.1967
  25   2.0000      -0.546072       -14.8594
  26   2.0000      -0.527447       -14.3526
  27   2.0000      -0.525263       -14.2931
  28   2.0000      -0.518114       -14.0986
  29   2.0000      -0.484582       -13.1861
  30   2.0000      -0.463326       -12.6077
  31   2.0000      -0.450979       -12.2718
  32   2.0000      -0.432759       -11.7760
  33   2.0000      -0.367437        -9.9985
  34   0.0000       0.121622         3.3095
  35   0.0000       0.139310         3.7908
  36   0.0000       0.154370         4.2006
  37   0.0000       0.156972         4.2714
  38   0.0000       0.181412         4.9365

MULLIKEN ATOMIC CHARGES
-----------------------
   0 C :   -0.405591
   1 C :    0.251182
   2 C :   -0.440426
   3 N :   -0.287071
   4 C :   -0.113317
   5 C :   -0.243043
   6 C :   -0.264575
   7 C :   -0.203407
   8 N :   -0.051304
   9 H :    0.146596
  10 H :    0.135506
  11 H :    0.154921
  12 H :    0.145371
  13 H :    0.157194
  14 H :    0.149913
  15 H :    0.204165
  16 H :    0.127759
  17 H :    0.129053
  18 H :    0.134335
  19 H :    0.135073
  20 H :    0.137666
Sum of atomic charges:    0.0000000

LOEWDIN ATOMIC CHARGES
----------------------
   0 C :   -0.255622
   1 C :   -0.360151
   2 C :   -0.246626
   3 N :    0.065419
   4 C :   -0.290658
   5 C :   -0.244325
   6 C :   -0.228506
   7 C :   -0.152662
   8 N :    0.064706
   9 H :    0.133278
  10 H :    0.128173
  11 H :    0.130830
  12 H :    0.129232
  13 H :    0.136232
  14 H :    0.134649
  15 H :    0.181676
  16 H :    0.145436
  17 H :    0.129945
  18 H :    0.130866
  19 H :    0.134317
  20 H :    0.133789

  Mayer bond orders larger than 0.1
B(  0-C ,  1-C ) :   0.9124 B(  0-C ,  9-H ) :   0.9226 B(  0-C , 10-H ) :   0.9285
B(  0-C , 11-H ) :   0.9323 B(  1-C ,  2-C ) :   0.8720 B(  1-C ,  3-N ) :   0.9629
B(  1-C ,  7-C ) :   0.8734 B(  2-C , 12-H ) :   0.9311 B(  2-C , 13-H ) :   0.9368
B(  2-C , 14-H ) :   0.9258 B(  3-N ,  4-C ) :   0.9898 B(  3-N , 15-H ) :   0.8664
B(  4-C ,  5-C ) :   0.8518 B(  4-C ,  6-C ) :   0.9066 B(  4-C , 16-H ) :   0.9388
B(  5-C ,  6-C ) :   0.8828 B(  5-C , 17-H ) :   0.9196 B(  5-C , 18-H ) :   0.9240
B(  6-C , 19-H ) :   0.9301 B(  6-C , 20-H ) :   0.9314 B(  7-C ,  8-N ) :   2.8944

MP2 TOTAL ENERGY:     -382.583407176 Eh
FINAL SINGLE POINT ENERGY      -382.583407176296

DIPOLE MOMENT
-------------
                                X             Y             Z
Electronic contribution:      4.01756      -4.25769      -5.89811
Nuclear contribution   :     -4.89086       5.14469       7.08230
                        -----------------------------------------
Total Dipole Moment    :     -0.87330       0.88700       1.18420
                        -----------------------------------------
Magnitude (a.u.)       :      1.71806
Magnitude (Debye)      :      4.36697

                             ****ORCA TERMINATED NORMALLY****
TOTAL RUN TIME: 0 days 0 hours 21 minutes 41 seconds 697 msec
