                         Program Version 3.0.3 - RELEASE   -
|  1> ! RI-MP2 RIJK def2-TZVP def2-TZVP/C def2-TZVP/JK TIGHTSCF
|  2> % maxcore 2000
|  3> % mp2 density relaxed end
|  4> *xyz 0 1
|  5>  C       -0.1849490695     1.4993407100     0.1086658478
|  6>  C        0.0375221772    -0.0035125672     0.0349535943
|  7>  C        1.1917472484    -0.6315981649    -0.7884027013
|  8>  C        2.1942158332    -0.1738884056     0.3420771233
|  9>  C        0.9508135224    -0.7582050671     1.0802405289
| 10>  C        0.4099285613    -1.3663076474     2.3511213715
| 11>  C       -0.5093482100    -2.4792914272     1.7149853557
| 12>  O       -0.1619765685    -2.6514484282     0.3147130852
| 13>  C        1.0201052181    -1.9168626183     0.0956567074
| 14>  H        0.7288538448     2.0765913414     0.2702948030
| 15>  H       -0.6408740759     1.8605635238    -0.8201694537
| 16>  H       -0.8770511556     1.7441729968     0.9226528518
| 17>  H       -0.9160763423    -0.5085945097    -0.1334872295
| 18>  H        1.3607063775    -0.5660379259    -1.8647376930
| 19>  H        3.1217408410    -0.7468007769     0.4302780048
| 20>  H        2.3912571589     0.8938687230     0.4227798060
| 21>  H        1.2021883501    -1.8159902274     2.9580126426
| 22>  H       -0.1659266543    -0.6880877263     2.9864494980
| 23>  H       -0.3890760009    -3.4376590405     2.2332437322
| 24>  H       -1.5667320371    -2.1981024534     1.7595571404
| 25>  H        1.9035524714    -2.5675763588     0.1336115446
| 26> *
| 27>
| 28>                          ****END OF INPUT****

CARTESIAN COORDINATES (ANGSTROEM)
---------------------------------
  C     -0.184949    1.499341    0.108666
  C      0.037522   -0.003513    0.034954
  C      1.191747   -0.631598   -0.788403
  C      2.194216   -0.173888    0.342077
  C      0.950814   -0.758205    1.080241
  C      0.409929   -1.366308    2.351121
  C     -0.509348   -2.479291    1.714985
  O     -0.161977   -2.651448    0.314713
  C      1.020105   -1.916863    0.095657
  H      0.728854    2.076591    0.270295
  H     -0.640874    1.860564   -0.820169
  H     -0.877051    1.744173    0.922653
  H     -0.916076   -0.508595   -0.133487
  H      1.360706   -0.566038   -1.864738
  H      3.121741   -0.746801    0.430278
  H      2.391257    0.893869    0.422780
  H      1.202188   -1.815990    2.958013
  H     -0.165927   -0.688088    2.986449
  H     -0.389076   -3.437659    2.233244
  H     -1.566732   -2.198102    1.759557
  H      1.903552   -2.567576    0.133612

 Total Charge           Charge          ....    0
 Multiplicity           Mult            ....    1
 Number of Electrons    NEL             ....   68
 Basis Dimension        Dim             ....  351

ORBITAL ENERGIES
----------------

  NO   OCC          E(Eh)            E(eV)
   0   2.0000     -20.547157      -559.1166
   1   2.0000     -11.276593      -306.8517
   2   2.0000     -11.268368      -306.6279
   3   2.0000     -11.244976      -305.9914
   4   2.0000     -11.239042      -305.8299
   5   2.0000     -11.237297      -305.7824
   6   2.0000     -11.232187      -305.6433
   7   2.0000     -11.228279      -305.5370
   8   2.0000     -11.212487      -305.1073
   9   2.0000      -1.371735       -37.3268
  10   2.0000      -1.200350       -32.6632
  11   2.0000      -1.027936       -27.9715
  12   2.0000      -0.994100       -27.0508
  13   2.0000      -0.909502       -24.7488
  14   2.0000      -0.872803       -23.7502
  15   2.0000      -0.828391       -22.5417
  16   2.0000      -0.793603       -21.5950
  17   2.0000      -0.706632       -19.2284
  18   2.0000      -0.665638       -18.1129
  19   2.0000      -0.654255       -17.8032
  20   2.0000      -0.644266       -17.5314
  21   2.0000      -0.615960       -16.7611
  22   2.0000      -0.576356       -15.6834
  23   2.0000      -0.563172       -15.3247
  24   2.0000      -0.546873       -14.8812
  25   2.0000      -0.533286       -14.5115
  26   2.0000      -0.525392       -14.2967
  27   2.0000      -0.492031       -13.3888
  28   2.0000      -0.466410       -12.6917
  29   2.0000      -0.450386       -12.2556
  30   2.0000      -0.439516       -11.9598
  31   2.0000      -0.421827       -11.4785
  32   2.0000      -0.403111       -10.9692
  33   2.0000      -0.393283       -10.7018
  34   0.0000       0.136346         3.7102
  35   0.0000       0.155878         4.2417
  36   0.0000       0.163200         4.4409
  37   0.0000       0.171598         4.6694
  38   0.0000       0.191775         5.2185

MULLIKEN ATOMIC CHARGES
-----------------------
   0 C :   -0.413328
   1 C :   -0.100117
   2 C :   -0.085664
   3 C :   -0.233568
   4 C :    0.002221
   5 C :   -0.269473
   6 C :   -0.039161
   7 O :   -0.338116
   8 C :    0.036516
   9 H :    0.119898
  10 H :    0.137033
  11 H :    0.129633
  12 H :    0.119965
  13 H :    0.135699
  14 H :    0.115566
  15 H :    0.122195
  16 H :    0.122461
  17 H :    0.128877
  18 H :    0.106507
  19 H :    0.111458
  20 H :    0.091400
Sum of atomic charges:    0.0000000

LOEWDIN ATOMIC CHARGES
----------------------
   0 C :   -0.296535
   1 C :   -0.182146
   2 C :   -0.140454
   3 C :   -0.167246
   4 C :   -0.192928
   5 C :   -0.227895
   6 C :   -0.260682
   7 O :    0.153519
   8 C :   -0.244980
   9 H :    0.120609
  10 H :    0.127381
  11 H :    0.125277
  12 H :    0.154183
  13 H :    0.123502
  14 H :    0.130497
  15 H :    0.126135
  16 H :    0.140235
  17 H :    0.137652
  18 H :    0.119560
  19 H :    0.120748
  20 H :    0.133567

  Mayer bond orders larger than 0.1
B(  0-C ,  1-C ) :   0.9018 B(  0-C ,  9-H ) :   0.9376 B(  0-C , 10-H ) :   0.9406
B(  0-C , 11-H ) :   0.9381 B(  1-C ,  2-C ) :   0.9041 B(  1-C ,  4-C ) :   0.9019
B(  1-C , 12-H ) :   0.9008 B(  2-C ,  3-C ) :   0.9002 B(  2-C ,  8-C ) :   0.8178
B(  2-C , 13-H ) :   0.8844 B(  3-C ,  4-C ) :   0.8860 B(  3-C , 14-H ) :   0.9241
B(  3-C , 15-H ) :   0.9224 B(  4-C ,  5-C ) :   0.8743 B(  4-C ,  8-C ) :   0.8806
B(  5-C ,  6-C ) :   0.9437 B(  5-C , 16-H ) :   0.9216 B(  5-C , 17-H ) :   0.9255
B(  6-C ,  7-O ) :   0.9042 B(  6-C , 18-H ) :   0.9240 B(  6-C , 19-H ) :   0.9323
B(  7-O ,  8-C ) :   1.0083 B(  8-C , 20-H ) :   0.9949

MP2 TOTAL ENERGY:     -386.349804029 Eh
FINAL SINGLE POINT ENERGY      -386.349804028875

DIPOLE MOMENT
-------------
                                X             Y             Z
Electronic contribution:      0.33289      -4.74064      -1.56247
Nuclear contribution   :     -0.12950       5.12768       2.03497
                        -----------------------------------------
Total Dipole Moment    :      0.20339       0.38704       0.47250
                        -----------------------------------------
Magnitude (a.u.)       :      0.64375
Magnitude (Debye)      :      1.63629

                             ****ORCA TERMINATED NORMALLY****
TOTAL RUN TIME: 0 days 0 hours 19 minutes 49 seconds 35 msec
