                         Program Version 3.0.3 - RELEASE   -
|  1> ! RI-MP2 RIJK def2-TZVP def2-TZVP/C def2-TZVP/JK TIGHTSCF
|  2> % maxcore 2000
|  3> % mp2 density relaxed end
|  4> *xyz 0 1
|  5>  C       -0.1988012054     1.5863043811     0.0125090369
|  6>  C        1.1874691751     1.0039576077    -0.0039651501
|  7>  C        2.2492696205     1.0771053792    -1.1119480749
|  8>  C        3.3337763663     0.8117521296    -0.0256343986
|  9>  C        2.2703776649     1.0652272838     1.0841305331
| 10>  C       -0.0046301285     0.0983161643     0.0025945383
| 11>  C       -0.4214122647    -0.9368124245     1.0426365652
| 12>  O       -0.7830821377    -1.8687132566    -0.0005624805
| 13>  C       -0.4414335311    -0.9255458369    -1.0403797449
| 14>  H       -0.5511899099     2.0484754465     0.9313663983
| 15>  H       -0.5687381662     2.0583503270    -0.8943525919
| 16>  H        2.1735008469     0.3438148732    -1.9203160289
| 17>  H        2.3278615337     2.0738212779    -1.5573821735
| 18>  H        3.6882610638    -0.2217029771    -0.0346313240
| 19>  H        4.2010344938     1.4749307687    -0.0303832385
| 20>  H        2.3576204029     2.0570751236     1.5387263661
| 21>  H        2.2100843403     0.3232283022     1.8858267640
| 22>  H        0.3779165530    -1.3306925515     1.6855068216
| 23>  H       -1.2824372105    -0.6673637770     1.6691367180
| 24>  H       -1.3143133367    -0.6494260855    -1.6472633379
| 25>  H        0.3453500795    -1.3123663656    -1.7027178078
| 26> *
| 27>
| 28>                          ****END OF INPUT****

CARTESIAN COORDINATES (ANGSTROEM)
---------------------------------
  C     -0.198801    1.586304    0.012509
  C      1.187469    1.003958   -0.003965
  C      2.249270    1.077105   -1.111948
  C      3.333776    0.811752   -0.025634
  C      2.270378    1.065227    1.084131
  C     -0.004630    0.098316    0.002595
  C     -0.421412   -0.936812    1.042637
  O     -0.783082   -1.868713   -0.000562
  C     -0.441434   -0.925546   -1.040380
  H     -0.551190    2.048475    0.931366
  H     -0.568738    2.058350   -0.894353
  H      2.173501    0.343815   -1.920316
  H      2.327862    2.073821   -1.557382
  H      3.688261   -0.221703   -0.034631
  H      4.201034    1.474931   -0.030383
  H      2.357620    2.057075    1.538726
  H      2.210084    0.323228    1.885827
  H      0.377917   -1.330693    1.685507
  H     -1.282437   -0.667364    1.669137
  H     -1.314313   -0.649426   -1.647263
  H      0.345350   -1.312366   -1.702718

 Total Charge           Charge          ....    0
 Multiplicity           Mult            ....    1
 Number of Electrons    NEL             ....   68
 Basis Dimension        Dim             ....  351

ORBITAL ENERGIES
----------------

  NO   OCC          E(Eh)            E(eV)
   0   2.0000     -20.544483      -559.0438
   1   2.0000     -11.275926      -306.8336
   2   2.0000     -11.275925      -306.8335
   3   2.0000     -11.238426      -305.8131
   4   2.0000     -11.237533      -305.7888
   5   2.0000     -11.226073      -305.4770
   6   2.0000     -11.225803      -305.4696
   7   2.0000     -11.225645      -305.4653
   8   2.0000     -11.224821      -305.4429
   9   2.0000      -1.373470       -37.3740
  10   2.0000      -1.170182       -31.8423
  11   2.0000      -1.075449       -29.2645
  12   2.0000      -0.935480       -25.4557
  13   2.0000      -0.928597       -25.2684
  14   2.0000      -0.904505       -24.6128
  15   2.0000      -0.841451       -22.8971
  16   2.0000      -0.765800       -20.8385
  17   2.0000      -0.710576       -19.3358
  18   2.0000      -0.676832       -18.4175
  19   2.0000      -0.663348       -18.0506
  20   2.0000      -0.638187       -17.3660
  21   2.0000      -0.634855       -17.2753
  22   2.0000      -0.573167       -15.5967
  23   2.0000      -0.565281       -15.3821
  24   2.0000      -0.562147       -15.2968
  25   2.0000      -0.540063       -14.6959
  26   2.0000      -0.503921       -13.7124
  27   2.0000      -0.486723       -13.2444
  28   2.0000      -0.485412       -13.2087
  29   2.0000      -0.464042       -12.6272
  30   2.0000      -0.437343       -11.9007
  31   2.0000      -0.433418       -11.7939
  32   2.0000      -0.388559       -10.5732
  33   2.0000      -0.379786       -10.3345
  34   0.0000       0.135721         3.6932
  35   0.0000       0.147917         4.0250
  36   0.0000       0.160099         4.3565
  37   0.0000       0.162385         4.4187
  38   0.0000       0.184867         5.0305

MULLIKEN ATOMIC CHARGES
-----------------------
   0 C :   -0.292395
   1 C :    0.103649
   2 C :   -0.239548
   3 C :   -0.220358
   4 C :   -0.239548
   5 C :   -0.087810
   6 C :   -0.008070
   7 O :   -0.329531
   8 C :   -0.008070
   9 H :    0.130077
  10 H :    0.130077
  11 H :    0.116268
  12 H :    0.114709
  13 H :    0.114940
  14 H :    0.117467
  15 H :    0.114709
  16 H :    0.116268
  17 H :    0.089108
  18 H :    0.094475
  19 H :    0.094475
  20 H :    0.089108
Sum of atomic charges:    0.0000000

LOEWDIN ATOMIC CHARGES
----------------------
   0 C :   -0.174790
   1 C :   -0.194918
   2 C :   -0.194479
   3 C :   -0.229071
   4 C :   -0.194479
   5 C :   -0.202414
   6 C :   -0.227144
   7 O :    0.113613
   8 C :   -0.227144
   9 H :    0.138537
  10 H :    0.138537
  11 H :    0.126825
  12 H :    0.134994
  13 H :    0.132366
  14 H :    0.123941
  15 H :    0.134994
  16 H :    0.126825
  17 H :    0.117709
  18 H :    0.119196
  19 H :    0.119196
  20 H :    0.117709

  Mayer bond orders larger than 0.1
B(  0-C ,  1-C ) :   0.8536 B(  0-C ,  5-C ) :   0.9054 B(  0-C ,  9-H ) :   0.9184
B(  0-C , 10-H ) :   0.9184 B(  1-C ,  2-C ) :   0.8792 B(  1-C ,  4-C ) :   0.8792
B(  1-C ,  5-C ) :   0.8033 B(  2-C ,  3-C ) :   0.9667 B(  2-C , 11-H ) :   0.9235
B(  2-C , 12-H ) :   0.9206 B(  3-C ,  4-C ) :   0.9667 B(  3-C , 13-H ) :   0.9232
B(  3-C , 14-H ) :   0.9321 B(  4-C , 15-H ) :   0.9206 B(  4-C , 16-H ) :   0.9235
B(  5-C ,  6-C ) :   0.9750 B(  5-C ,  8-C ) :   0.9750 B(  6-C ,  7-O ) :   0.9680
B(  6-C , 17-H ) :   0.9024 B(  6-C , 18-H ) :   0.9108 B(  7-O ,  8-C ) :   0.9680
B(  8-C , 19-H ) :   0.9108 B(  8-C , 20-H ) :   0.9024

MP2 TOTAL ENERGY:     -386.350431788 Eh
FINAL SINGLE POINT ENERGY      -386.350431788461

DIPOLE MOMENT
-------------
                                X             Y             Z
Electronic contribution:     -3.87953      -3.07725       0.02064
Nuclear contribution   :      4.25461       3.81243      -0.02027
                        -----------------------------------------
Total Dipole Moment    :      0.37508       0.73519       0.00037
                        -----------------------------------------
Magnitude (a.u.)       :      0.82534
Magnitude (Debye)      :      2.09785

                             ****ORCA TERMINATED NORMALLY****
TOTAL RUN TIME: 0 days 0 hours 17 minutes 21 seconds 738 msec
