                         Program Version 3.0.3 - RELEASE   -
|  1> ! RI-MP2 RIJK def2-TZVP def2-TZVP/C def2-TZVP/JK TIGHTSCF
|  2> % maxcore 2000
|  3> % mp2 density relaxed end
|  4> *xyz 0 1
|  5>  C       -0.5463976659     1.4238752670    -0.0296368285
|  6>  N       -0.2056991827     0.0158231857     0.0437004549
|  7>  C        0.8584065959    -0.4479673984     0.7559235696
|  8>  O        1.6097496642     0.2780860684     1.3880205537
|  9>  C        1.0657542799    -1.9515098025     0.7212549802
| 10>  C        2.5173338284    -2.4034231310     0.3493526870
| 11>  C        2.4791352920    -3.3281156455     1.5732818130
| 12>  O        3.1057148788    -4.2894381711     1.9079618174
| 13>  C        1.2342243160    -2.6213283449     2.1257099429
| 14>  H       -0.5108081341     1.7888043935    -1.0620003564
| 15>  H       -1.5468056237     1.6130919320     0.3748708348
| 16>  H        0.1883393955     1.9659195835     0.5664571628
| 17>  H       -0.7786099770    -0.6466924117    -0.4515031106
| 18>  H        0.3148932662    -2.4654078949     0.1158574940
| 19>  H        2.6935757914    -2.8621564687    -0.6256673942
| 20>  H        3.2231225054    -1.5811502052     0.5078724368
| 21>  H        1.5147652592    -1.8713127342     2.8728123052
| 22>  H        0.4271923306    -3.2472412319     2.5118584973
| 23> *
| 24>
| 25>                          ****END OF INPUT****

CARTESIAN COORDINATES (ANGSTROEM)
---------------------------------
  C     -0.546398    1.423875   -0.029637
  N     -0.205699    0.015823    0.043700
  C      0.858407   -0.447967    0.755924
  O      1.609750    0.278086    1.388021
  C      1.065754   -1.951510    0.721255
  C      2.517334   -2.403423    0.349353
  C      2.479135   -3.328116    1.573282
  O      3.105715   -4.289438    1.907962
  C      1.234224   -2.621328    2.125710
  H     -0.510808    1.788804   -1.062000
  H     -1.546806    1.613092    0.374871
  H      0.188339    1.965920    0.566457
  H     -0.778610   -0.646692   -0.451503
  H      0.314893   -2.465408    0.115857
  H      2.693576   -2.862156   -0.625667
  H      3.223123   -1.581150    0.507872
  H      1.514765   -1.871313    2.872812
  H      0.427192   -3.247241    2.511858

 Total Charge           Charge          ....    0
 Multiplicity           Mult            ....    1
 Number of Electrons    NEL             ....   68
 Basis Dimension        Dim             ....  333

ORBITAL ENERGIES
----------------

  NO   OCC          E(Eh)            E(eV)
   0   2.0000     -20.554311      -559.3112
   1   2.0000     -20.522268      -558.4393
   2   2.0000     -15.597543      -424.4307
   3   2.0000     -11.357852      -309.0629
   4   2.0000     -11.336502      -308.4819
   5   2.0000     -11.267292      -306.5986
   6   2.0000     -11.265658      -306.5542
   7   2.0000     -11.249192      -306.1061
   8   2.0000     -11.249162      -306.1053
   9   2.0000      -1.398155       -38.0457
  10   2.0000      -1.389230       -37.8029
  11   2.0000      -1.240505       -33.7559
  12   2.0000      -1.149861       -31.2893
  13   2.0000      -0.983268       -26.7561
  14   2.0000      -0.938678       -25.5427
  15   2.0000      -0.892185       -24.2776
  16   2.0000      -0.795797       -21.6547
  17   2.0000      -0.735042       -20.0015
  18   2.0000      -0.718704       -19.5569
  19   2.0000      -0.681960       -18.5571
  20   2.0000      -0.648027       -17.6337
  21   2.0000      -0.641069       -17.4444
  22   2.0000      -0.629229       -17.1222
  23   2.0000      -0.620189       -16.8762
  24   2.0000      -0.572352       -15.5745
  25   2.0000      -0.566090       -15.4041
  26   2.0000      -0.555226       -15.1085
  27   2.0000      -0.550870       -14.9899
  28   2.0000      -0.526439       -14.3251
  29   2.0000      -0.488855       -13.3024
  30   2.0000      -0.480464       -13.0741
  31   2.0000      -0.433418       -11.7939
  32   2.0000      -0.404965       -11.0196
  33   2.0000      -0.401859       -10.9351
  34   0.0000       0.113111         3.0779
  35   0.0000       0.132836         3.6146
  36   0.0000       0.151868         4.1325
  37   0.0000       0.158009         4.2997
  38   0.0000       0.158063         4.3011

MULLIKEN ATOMIC CHARGES
-----------------------
   0 C :   -0.284012
   1 N :   -0.314699
   2 C :    0.234426
   3 O :   -0.396840
   4 C :   -0.010232
   5 C :   -0.263112
   6 C :    0.147031
   7 O :   -0.249644
   8 C :   -0.263139
   9 H :    0.136608
  10 H :    0.136606
  11 H :    0.180270
  12 H :    0.239497
  13 H :    0.106117
  14 H :    0.137606
  15 H :    0.162950
  16 H :    0.162972
  17 H :    0.137594
Sum of atomic charges:   -0.0000000

LOEWDIN ATOMIC CHARGES
----------------------
   0 C :   -0.310306
   1 N :    0.086860
   2 C :   -0.450030
   3 O :    0.072649
   4 C :   -0.191349
   5 C :   -0.176229
   6 C :   -0.315873
   7 O :    0.163150
   8 C :   -0.176235
   9 H :    0.116196
  10 H :    0.116191
  11 H :    0.135843
  12 H :    0.183798
  13 H :    0.147092
  14 H :    0.137357
  15 H :    0.161764
  16 H :    0.161755
  17 H :    0.137368

  Mayer bond orders larger than 0.1
B(  0-C ,  1-N ) :   0.8420 B(  0-C ,  9-H ) :   0.9349 B(  0-C , 10-H ) :   0.9349
B(  0-C , 11-H ) :   0.9263 B(  1-N ,  2-C ) :   1.1951 B(  1-N , 12-H ) :   0.8758
B(  2-C ,  3-O ) :   1.8941 B(  2-C ,  4-C ) :   0.8786 B(  4-C ,  5-C ) :   0.9052
B(  4-C ,  8-C ) :   0.9053 B(  4-C , 13-H ) :   0.9107 B(  5-C ,  6-C ) :   0.8891
B(  5-C , 14-H ) :   0.9039 B(  5-C , 15-H ) :   0.8930 B(  6-C ,  7-O ) :   2.0418
B(  6-C ,  8-C ) :   0.8891 B(  8-C , 16-H ) :   0.8930 B(  8-C , 17-H ) :   0.9039

MP2 TOTAL ENERGY:     -438.397060438 Eh
FINAL SINGLE POINT ENERGY      -438.397060438134

DIPOLE MOMENT
-------------
                                X             Y             Z
Electronic contribution:      4.41328      -4.84441       2.59431
Nuclear contribution   :     -6.05175       5.31420      -3.72059
                        -----------------------------------------
Total Dipole Moment    :     -1.63847       0.46978      -1.12628
                        -----------------------------------------
Magnitude (a.u.)       :      2.04298
Magnitude (Debye)      :      5.19285

                             ****ORCA TERMINATED NORMALLY****
TOTAL RUN TIME: 0 days 0 hours 14 minutes 26 seconds 165 msec
