                         Program Version 3.0.3 - RELEASE   -
|  1> ! RI-MP2 RIJK def2-TZVP def2-TZVP/C def2-TZVP/JK TIGHTSCF
|  2> % maxcore 2000
|  3> % mp2 density relaxed end
|  4> *xyz 0 1
|  5>  C        0.0105237683     1.3578205978    -0.2261329432
|  6>  O       -0.0087984108    -0.0483163359    -0.2503911242
|  7>  C       -1.2759905459    -0.5861500114     0.0521675310
|  8>  C       -1.1840305421    -2.1048875110    -0.0066235965
|  9>  C       -2.5306889260    -2.7776548488     0.3216873325
| 10>  C       -2.4742579744    -4.2334049127     0.2658379637
| 11>  C       -2.4079846266    -5.4337439697     0.2058877435
| 12>  C       -2.3253087854    -6.8874390763     0.1586700838
| 13>  O       -2.9121079361    -7.3640178362    -1.0478408182
| 14>  H        1.0267215198     1.6763295893    -0.4711137113
| 15>  H       -0.6846620925     1.7903122052    -0.9637026104
| 16>  H       -0.2563261012     1.7546123972     0.7667454971
| 17>  H       -1.6037093815    -0.2583094318     1.0553667365
| 18>  H       -2.0318505301    -0.2181524201    -0.6649329761
| 19>  H       -0.8539924931    -2.4071380899    -1.0054263459
| 20>  H       -0.4185484261    -2.4451893536     0.6980486194
| 21>  H       -2.8657610171    -2.4632340998     1.3196199420
| 22>  H       -3.2995570356    -2.4221203152    -0.3777495222
| 23>  H       -1.2678416740    -7.1906773936     0.2319066190
| 24>  H       -2.8365907052    -7.3071780060     1.0407796994
| 25>  H       -2.8329729044    -8.3234366575    -1.0438657600
| 26> *
| 27>
| 28>                          ****END OF INPUT****

CARTESIAN COORDINATES (ANGSTROEM)
---------------------------------
  C      0.010524    1.357821   -0.226133
  O     -0.008798   -0.048316   -0.250391
  C     -1.275991   -0.586150    0.052168
  C     -1.184031   -2.104888   -0.006624
  C     -2.530689   -2.777655    0.321687
  C     -2.474258   -4.233405    0.265838
  C     -2.407985   -5.433744    0.205888
  C     -2.325309   -6.887439    0.158670
  O     -2.912108   -7.364018   -1.047841
  H      1.026722    1.676330   -0.471114
  H     -0.684662    1.790312   -0.963703
  H     -0.256326    1.754612    0.766745
  H     -1.603709   -0.258309    1.055367
  H     -2.031851   -0.218152   -0.664933
  H     -0.853992   -2.407138   -1.005426
  H     -0.418548   -2.445189    0.698049
  H     -2.865761   -2.463234    1.319620
  H     -3.299557   -2.422120   -0.377750
  H     -1.267842   -7.190677    0.231907
  H     -2.836591   -7.307178    1.040780
  H     -2.832973   -8.323437   -1.043866

 Total Charge           Charge          ....    0
 Multiplicity           Mult            ....    1
 Number of Electrons    NEL             ....   70
 Basis Dimension        Dim             ....  351

ORBITAL ENERGIES
----------------

  NO   OCC          E(Eh)            E(eV)
   0   2.0000     -20.563127      -559.5511
   1   2.0000     -20.555705      -559.3492
   2   2.0000     -11.303601      -307.5866
   3   2.0000     -11.276475      -306.8485
   4   2.0000     -11.270916      -306.6972
   5   2.0000     -11.250232      -306.1344
   6   2.0000     -11.225473      -305.4606
   7   2.0000     -11.223080      -305.3955
   8   2.0000     -11.215366      -305.1856
   9   2.0000      -1.377381       -37.4804
  10   2.0000      -1.366536       -37.1853
  11   2.0000      -1.089425       -29.6447
  12   2.0000      -1.034861       -28.1600
  13   2.0000      -0.976562       -26.5736
  14   2.0000      -0.923614       -25.1328
  15   2.0000      -0.881588       -23.9892
  16   2.0000      -0.819568       -22.3016
  17   2.0000      -0.710059       -19.3217
  18   2.0000      -0.678041       -18.4504
  19   2.0000      -0.673481       -18.3264
  20   2.0000      -0.646583       -17.5944
  21   2.0000      -0.642676       -17.4881
  22   2.0000      -0.634572       -17.2676
  23   2.0000      -0.621348       -16.9077
  24   2.0000      -0.605551       -16.4779
  25   2.0000      -0.554301       -15.0833
  26   2.0000      -0.531830       -14.4718
  27   2.0000      -0.528955       -14.3936
  28   2.0000      -0.505416       -13.7531
  29   2.0000      -0.490738       -13.3536
  30   2.0000      -0.477119       -12.9831
  31   2.0000      -0.467282       -12.7154
  32   2.0000      -0.424356       -11.5473
  33   2.0000      -0.375172       -10.2089
  34   2.0000      -0.364849        -9.9280
  35   0.0000       0.125811         3.4235
  36   0.0000       0.135851         3.6967
  37   0.0000       0.155811         4.2398
  38   0.0000       0.172978         4.7070
  39   0.0000       0.182782         4.9737

MULLIKEN ATOMIC CHARGES
-----------------------
   0 C :   -0.214708
   1 O :   -0.299927
   2 C :   -0.072948
   3 C :   -0.117946
   4 C :   -0.437216
   5 C :    0.066516
   6 C :    0.085473
   7 C :   -0.196825
   8 O :   -0.446076
   9 H :    0.139473
  10 H :    0.110959
  11 H :    0.110207
  12 H :    0.087122
  13 H :    0.088885
  14 H :    0.124616
  15 H :    0.119220
  16 H :    0.142269
  17 H :    0.145521
  18 H :    0.125815
  19 H :    0.124801
  20 H :    0.314770
Sum of atomic charges:   -0.0000000

LOEWDIN ATOMIC CHARGES
----------------------
   0 C :   -0.362767
   1 O :    0.135258
   2 C :   -0.333292
   3 C :   -0.249475
   4 C :   -0.249338
   5 C :   -0.068289
   6 C :   -0.078815
   7 C :   -0.338811
   8 O :   -0.044210
   9 H :    0.113531
  10 H :    0.100903
  11 H :    0.100678
  12 H :    0.117646
  13 H :    0.118141
  14 H :    0.144590
  15 H :    0.143302
  16 H :    0.155242
  17 H :    0.157454
  18 H :    0.132598
  19 H :    0.132409
  20 H :    0.173245

  Mayer bond orders larger than 0.1
B(  0-C ,  1-O ) :   0.9218 B(  0-C ,  9-H ) :   0.9393 B(  0-C , 10-H ) :   0.9376
B(  0-C , 11-H ) :   0.9374 B(  1-O ,  2-C ) :   0.9736 B(  2-C ,  3-C ) :   0.9481
B(  2-C , 12-H ) :   0.9225 B(  2-C , 13-H ) :   0.9230 B(  3-C ,  4-C ) :   0.9405
B(  3-C , 14-H ) :   0.9217 B(  3-C , 15-H ) :   0.9227 B(  4-C ,  5-C ) :   1.0756
B(  4-C ,  6-C ) :  -0.1438 B(  4-C , 16-H ) :   0.9253 B(  4-C , 17-H ) :   0.9133
B(  5-C ,  6-C ) :   2.7285 B(  6-C ,  7-C ) :   0.9038 B(  7-C ,  8-O ) :   1.1225
B(  7-C , 18-H ) :   0.9530 B(  7-C , 19-H ) :   0.9531 B(  8-O , 20-H ) :   0.8479

MP2 TOTAL ENERGY:     -423.462620469 Eh
FINAL SINGLE POINT ENERGY      -423.462620468661

DIPOLE MOMENT
-------------
                                X             Y             Z
Electronic contribution:     -1.79109      -8.54844      -0.95779
Nuclear contribution   :      1.73861       8.56828       1.49140
                        -----------------------------------------
Total Dipole Moment    :     -0.05248       0.01984       0.53362
                        -----------------------------------------
Magnitude (a.u.)       :      0.53656
Magnitude (Debye)      :      1.36382

                             ****ORCA TERMINATED NORMALLY****
TOTAL RUN TIME: 0 days 0 hours 14 minutes 11 seconds 892 msec
