                         Program Version 3.0.3 - RELEASE   -
|  1> ! RI-MP2 RIJK def2-TZVP def2-TZVP/C def2-TZVP/JK TIGHTSCF
|  2> % maxcore 2000
|  3> % mp2 density relaxed end
|  4> *xyz 0 1
|  5>  C       -0.6243014892     1.4285688862     0.4761562226
|  6>  N       -0.0197235459     0.1551740435     0.0924897792
|  7>  C        1.1214605156     0.1942964251    -0.8029560070
|  8>  C        1.3121985787    -0.2104883884     0.6189335827
|  9>  C        2.0741749749     0.6795292074     1.5500238779
| 10>  N        2.4375204532     1.8540123242     1.2311148846
| 11>  N        2.3029128079     0.0584648919     2.8034838590
| 12>  C        2.9621364174     0.5940337841     3.8818415724
| 13>  O        3.4556472637     1.6979731386     3.9335185544
| 14>  H        0.0921196760     2.2525441370     0.5791945506
| 15>  H       -1.3597675081     1.6899330557    -0.2907212666
| 16>  H       -1.1564730853     1.2995279726     1.4243265213
| 17>  H        1.1460419153    -0.5650741638    -1.5805032665
| 18>  H        1.5328524563     1.1651345821    -1.0695953105
| 19>  H        1.3895520363    -1.2726035989     0.8506846959
| 20>  H        2.9086067018     2.3145107777     2.0100632813
| 21>  H        1.9343451232    -0.8731620155     2.9242719805
| 22>  H        2.9952810483    -0.1176725796     4.7289995281
| 23> *
| 24>
| 25>                          ****END OF INPUT****

CARTESIAN COORDINATES (ANGSTROEM)
---------------------------------
  C     -0.624301    1.428569    0.476156
  N     -0.019724    0.155174    0.092490
  C      1.121461    0.194296   -0.802956
  C      1.312199   -0.210488    0.618934
  C      2.074175    0.679529    1.550024
  N      2.437520    1.854012    1.231115
  N      2.302913    0.058465    2.803484
  C      2.962136    0.594034    3.881842
  O      3.455647    1.697973    3.933519
  H      0.092120    2.252544    0.579195
  H     -1.359768    1.689933   -0.290721
  H     -1.156473    1.299528    1.424327
  H      1.146042   -0.565074   -1.580503
  H      1.532852    1.165135   -1.069595
  H      1.389552   -1.272604    0.850685
  H      2.908607    2.314511    2.010063
  H      1.934345   -0.873162    2.924272
  H      2.995281   -0.117673    4.729000

 Total Charge           Charge          ....    0
 Multiplicity           Mult            ....    1
 Number of Electrons    NEL             ....   68
 Basis Dimension        Dim             ....  333

ORBITAL ENERGIES
----------------

  NO   OCC          E(Eh)            E(eV)
   0   2.0000     -20.556840      -559.3801
   1   2.0000     -15.626327      -425.2140
   2   2.0000     -15.572280      -423.7433
   3   2.0000     -15.539487      -422.8509
   4   2.0000     -11.380098      -309.6682
   5   2.0000     -11.335661      -308.4590
   6   2.0000     -11.276922      -306.8607
   7   2.0000     -11.260340      -306.4094
   8   2.0000     -11.242358      -305.9201
   9   2.0000      -1.416887       -38.5554
  10   2.0000      -1.303069       -35.4583
  11   2.0000      -1.270762       -34.5792
  12   2.0000      -1.183029       -32.1919
  13   2.0000      -1.006361       -27.3845
  14   2.0000      -0.948752       -25.8169
  15   2.0000      -0.849603       -23.1189
  16   2.0000      -0.829785       -22.5796
  17   2.0000      -0.783891       -21.3307
  18   2.0000      -0.749956       -20.4073
  19   2.0000      -0.709634       -19.3101
  20   2.0000      -0.656708       -17.8699
  21   2.0000      -0.646614       -17.5953
  22   2.0000      -0.639453       -17.4004
  23   2.0000      -0.619514       -16.8578
  24   2.0000      -0.591773       -16.1030
  25   2.0000      -0.561191       -15.2708
  26   2.0000      -0.547913       -14.9095
  27   2.0000      -0.510366       -13.8878
  28   2.0000      -0.486509       -13.2386
  29   2.0000      -0.478363       -13.0169
  30   2.0000      -0.453818       -12.3490
  31   2.0000      -0.426705       -11.6112
  32   2.0000      -0.397011       -10.8032
  33   2.0000      -0.374114       -10.1802
  34   0.0000       0.111715         3.0399
  35   0.0000       0.115864         3.1528
  36   0.0000       0.161752         4.4015
  37   0.0000       0.169426         4.6103
  38   0.0000       0.179774         4.8919

MULLIKEN ATOMIC CHARGES
-----------------------
   0 C :   -0.302445
   1 N :   -0.225516
   2 C :   -0.171998
   3 C :   -0.055002
   4 C :    0.172367
   5 N :   -0.387854
   6 N :   -0.313105
   7 C :    0.219339
   8 O :   -0.350327
   9 H :    0.152791
  10 H :    0.141650
  11 H :    0.126647
  12 H :    0.130671
  13 H :    0.153013
  14 H :    0.112192
  15 H :    0.246256
  16 H :    0.250096
  17 H :    0.101225
Sum of atomic charges:    0.0000000

LOEWDIN ATOMIC CHARGES
----------------------
   0 C :   -0.326869
   1 N :    0.096083
   2 C :   -0.229017
   3 C :   -0.232841
   4 C :   -0.333163
   5 N :   -0.023365
   6 N :    0.122903
   7 C :   -0.398388
   8 O :    0.083118
   9 H :    0.115745
  10 H :    0.120525
  11 H :    0.116716
  12 H :    0.125972
  13 H :    0.137184
  14 H :    0.142649
  15 H :    0.167930
  16 H :    0.198045
  17 H :    0.116772

  Mayer bond orders larger than 0.1
B(  0-C ,  1-N ) :   0.8679 B(  0-C ,  9-H ) :   0.9210 B(  0-C , 10-H ) :   0.9341
B(  0-C , 11-H ) :   0.9378 B(  1-N ,  2-C ) :   0.9096 B(  1-N ,  3-C ) :   0.9026
B(  2-C ,  3-C ) :   0.9348 B(  2-C , 12-H ) :   0.9147 B(  2-C , 13-H ) :   0.9169
B(  3-C ,  4-C ) :   0.9151 B(  3-C , 14-H ) :   0.9184 B(  4-C ,  5-N ) :   1.9357
B(  4-C ,  6-N ) :   0.9410 B(  5-N , 15-H ) :   0.8461 B(  6-N ,  7-C ) :   1.0917
B(  6-N , 16-H ) :   0.8650 B(  7-C ,  8-O ) :   1.8623 B(  7-C , 17-H ) :   0.9269

MP2 TOTAL ENERGY:     -434.535239559 Eh
FINAL SINGLE POINT ENERGY      -434.535239558759

DIPOLE MOMENT
-------------
                                X             Y             Z
Electronic contribution:      4.92430      -0.48235       4.52587
Nuclear contribution   :     -5.23673      -0.72211      -4.20831
                        -----------------------------------------
Total Dipole Moment    :     -0.31242      -1.20445       0.31757
                        -----------------------------------------
Magnitude (a.u.)       :      1.28420
Magnitude (Debye)      :      3.26417

                             ****ORCA TERMINATED NORMALLY****
TOTAL RUN TIME: 0 days 0 hours 16 minutes 7 seconds 506 msec
