                         Program Version 3.0.3 - RELEASE   -
|  1> ! RI-MP2 RIJK def2-TZVP def2-TZVP/C def2-TZVP/JK TIGHTSCF
|  2> % maxcore 2000
|  3> % mp2 density relaxed end
|  4> *xyz 0 1
|  5>  C       -0.1305835220     1.4549215755     0.1819130037
|  6>  C        0.0059168669    -0.0289550946     0.0373240061
|  7>  C       -0.0160389895    -0.7260803078    -1.1004456814
|  8>  C        0.0727493964    -2.2156967124    -0.8807382331
|  9>  C        0.4988523736    -2.3157697045     0.6037087144
| 10>  C        0.1239014919    -0.9520940338     1.2460070231
| 11>  C        1.1084812380    -0.4981711815     2.3063735206
| 12>  C        0.6845362875     0.4060852228     3.4374499872
| 13>  C        1.0182936933    -1.0392177356     3.7119738787
| 14>  H        0.7270578043     1.8889217964     0.7087854084
| 15>  H       -0.2191446659     1.9449238649    -0.7917731174
| 16>  H       -1.0178283315     1.7155600402     0.7740947147
| 17>  H       -0.1351675741    -0.2861581052    -2.0859624803
| 18>  H       -0.9014870611    -2.6941278518    -1.0591333398
| 19>  H        0.7809543516    -2.7108263693    -1.5554442619
| 20>  H        0.0496273301    -3.1644593061     1.1259098476
| 21>  H        1.5856723830    -2.4424063883     0.6625155730
| 22>  H       -0.8656327298    -1.0213390114     1.7285293325
| 23>  H        2.1163044575    -0.3400811822     1.9274167743
| 24>  H        1.3758845427     1.1690261598     3.7782859792
| 25>  H       -0.3585976065     0.7014999117     3.4876885288
| 26>  H        0.1978478718    -1.7116671523     3.9419936625
| 27>  H        1.9372217617    -1.2654807648     4.2412128994
| 28> *
| 29>
| 30>                          ****END OF INPUT****

CARTESIAN COORDINATES (ANGSTROEM)
---------------------------------
  C     -0.130584    1.454922    0.181913
  C      0.005917   -0.028955    0.037324
  C     -0.016039   -0.726080   -1.100446
  C      0.072749   -2.215697   -0.880738
  C      0.498852   -2.315770    0.603709
  C      0.123901   -0.952094    1.246007
  C      1.108481   -0.498171    2.306374
  C      0.684536    0.406085    3.437450
  C      1.018294   -1.039218    3.711974
  H      0.727058    1.888922    0.708785
  H     -0.219145    1.944924   -0.791773
  H     -1.017828    1.715560    0.774095
  H     -0.135168   -0.286158   -2.085962
  H     -0.901487   -2.694128   -1.059133
  H      0.780954   -2.710826   -1.555444
  H      0.049627   -3.164459    1.125910
  H      1.585672   -2.442406    0.662516
  H     -0.865633   -1.021339    1.728529
  H      2.116304   -0.340081    1.927417
  H      1.375885    1.169026    3.778286
  H     -0.358598    0.701500    3.487689
  H      0.197848   -1.711667    3.941994
  H      1.937222   -1.265481    4.241213

 Total Charge           Charge          ....    0
 Multiplicity           Mult            ....    1
 Number of Electrons    NEL             ....   68
 Basis Dimension        Dim             ....  363

ORBITAL ENERGIES
----------------

  NO   OCC          E(Eh)            E(eV)
   0   2.0000     -11.226544      -305.4898
   1   2.0000     -11.225807      -305.4697
   2   2.0000     -11.221218      -305.3449
   3   2.0000     -11.220975      -305.3383
   4   2.0000     -11.220231      -305.3180
   5   2.0000     -11.216306      -305.2112
   6   2.0000     -11.215764      -305.1965
   7   2.0000     -11.213403      -305.1322
   8   2.0000     -11.208994      -305.0122
   9   2.0000      -1.153028       -31.3755
  10   2.0000      -1.114255       -30.3204
  11   2.0000      -1.004730       -27.3401
  12   2.0000      -0.961897       -26.1746
  13   2.0000      -0.899154       -24.4672
  14   2.0000      -0.820486       -22.3266
  15   2.0000      -0.810634       -22.0585
  16   2.0000      -0.765397       -20.8275
  17   2.0000      -0.705742       -19.2042
  18   2.0000      -0.653167       -17.7736
  19   2.0000      -0.638999       -17.3880
  20   2.0000      -0.628594       -17.1049
  21   2.0000      -0.589285       -16.0353
  22   2.0000      -0.569380       -15.4936
  23   2.0000      -0.559072       -15.2131
  24   2.0000      -0.523579       -14.2473
  25   2.0000      -0.511871       -13.9287
  26   2.0000      -0.502756       -13.6807
  27   2.0000      -0.484576       -13.1860
  28   2.0000      -0.480777       -13.0826
  29   2.0000      -0.473344       -12.8803
  30   2.0000      -0.471669       -12.8348
  31   2.0000      -0.409884       -11.1535
  32   2.0000      -0.395627       -10.7655
  33   2.0000      -0.328411        -8.9365
  34   0.0000       0.138924         3.7803
  35   0.0000       0.150315         4.0903
  36   0.0000       0.153131         4.1669
  37   0.0000       0.165055         4.4914
  38   0.0000       0.176208         4.7949

MULLIKEN ATOMIC CHARGES
-----------------------
   0 C :   -0.435309
   1 C :   -0.017907
   2 C :   -0.205723
   3 C :   -0.134807
   4 C :   -0.271794
   5 C :   -0.002400
   6 C :   -0.114081
   7 C :   -0.265336
   8 C :   -0.253313
   9 H :    0.145263
  10 H :    0.137271
  11 H :    0.131751
  12 H :    0.117726
  13 H :    0.107311
  14 H :    0.115708
  15 H :    0.119075
  16 H :    0.109657
  17 H :    0.092778
  18 H :    0.119146
  19 H :    0.128784
  20 H :    0.124111
  21 H :    0.122990
  22 H :    0.129097
Sum of atomic charges:    0.0000000

LOEWDIN ATOMIC CHARGES
----------------------
   0 C :   -0.271421
   1 C :   -0.168828
   2 C :   -0.144953
   3 C :   -0.244781
   4 C :   -0.208701
   5 C :   -0.192224
   6 C :   -0.211418
   7 C :   -0.232841
   8 C :   -0.228242
   9 H :    0.131928
  10 H :    0.128939
  11 H :    0.130402
  12 H :    0.135254
  13 H :    0.137469
  14 H :    0.133739
  15 H :    0.130782
  16 H :    0.141198
  17 H :    0.159707
  18 H :    0.149860
  19 H :    0.129874
  20 H :    0.131430
  21 H :    0.132643
  22 H :    0.130185

  Mayer bond orders larger than 0.1
B(  0-C ,  1-C ) :   0.8941 B(  0-C ,  9-H ) :   0.9344 B(  0-C , 10-H ) :   0.9452
B(  0-C , 11-H ) :   0.9309 B(  1-C ,  2-C ) :   1.7597 B(  1-C ,  5-C ) :   0.9035
B(  2-C ,  3-C ) :   0.9388 B(  2-C , 12-H ) :   0.9251 B(  3-C ,  4-C ) :   0.9521
B(  3-C , 13-H ) :   0.9090 B(  3-C , 14-H ) :   0.9329 B(  4-C ,  5-C ) :   0.9292
B(  4-C , 15-H ) :   0.9353 B(  4-C , 16-H ) :   0.9289 B(  5-C ,  6-C ) :   0.8841
B(  5-C , 17-H ) :   0.8968 B(  6-C ,  7-C ) :   0.8871 B(  6-C ,  8-C ) :   0.8781
B(  6-C , 18-H ) :   0.9235 B(  7-C ,  8-C ) :   0.9153 B(  7-C , 19-H ) :   0.9301
B(  7-C , 20-H ) :   0.9275 B(  8-C , 21-H ) :   0.9250 B(  8-C , 22-H ) :   0.9318

MP2 TOTAL ENERGY:     -350.508368199 Eh
FINAL SINGLE POINT ENERGY      -350.508368198637

DIPOLE MOMENT
-------------
                                X             Y             Z
Electronic contribution:     -0.04004      -0.78694      -1.63687
Nuclear contribution   :      0.03033       0.81695       1.69169
                        -----------------------------------------
Total Dipole Moment    :     -0.00971       0.03001       0.05482
                        -----------------------------------------
Magnitude (a.u.)       :      0.06325
Magnitude (Debye)      :      0.16076

                             ****ORCA TERMINATED NORMALLY****
TOTAL RUN TIME: 0 days 0 hours 21 minutes 58 seconds 75 msec
