                         Program Version 3.0.3 - RELEASE   -
|  1> ! RI-MP2 RIJK def2-TZVP def2-TZVP/C def2-TZVP/JK TIGHTSCF
|  2> % maxcore 2000
|  3> % mp2 density relaxed end
|  4> *xyz 0 1
|  5>  C       -0.0044188303     1.5305145775     0.0250801932
|  6>  C       -0.0225012029     0.0233458944    -0.0173703647
|  7>  C        0.3820760570    -0.8226423322    -1.2762056738
|  8>  C       -0.3553997672    -1.9261574573    -0.4782833873
|  9>  O        0.4876254916    -2.1193800407     0.6715911763
| 10>  C        0.7534384116    -0.7540165336     1.0639279005
| 11>  C       -1.3200439738    -0.8290714674    -0.0242779709
| 12>  C       -2.4921119523    -0.8667147636     0.8920894891
| 13>  C       -2.6612831839    -0.4761015543    -0.5705410867
| 14>  H        1.0164094735     1.9157816916    -0.0752987177
| 15>  H       -0.6025167800     1.9573327055    -0.7864069172
| 16>  H       -0.4071952210     1.9058657656     0.9732674192
| 17>  H       -0.1486340979    -0.5070671222    -2.1757672446
| 18>  H        1.4459274291    -0.9807442539    -1.4720247228
| 19>  H       -0.6607074532    -2.8889516336    -0.8852129842
| 20>  H        1.8331617240    -0.5595999914     1.0470347953
| 21>  H        0.3714112271    -0.5704433014     2.0758040853
| 22>  H       -2.8672649842    -1.8336492383     1.2118311609
| 23>  H       -2.5957087937    -0.0821911517     1.6362634135
| 24>  H       -2.8763846561     0.5651175101    -0.7925329015
| 25>  H       -3.1574768773    -1.1793436631    -1.2326396021
| 26> *
| 27>
| 28>                          ****END OF INPUT****

CARTESIAN COORDINATES (ANGSTROEM)
---------------------------------
  C     -0.004419    1.530515    0.025080
  C     -0.022501    0.023346   -0.017370
  C      0.382076   -0.822642   -1.276206
  C     -0.355400   -1.926157   -0.478283
  O      0.487625   -2.119380    0.671591
  C      0.753438   -0.754017    1.063928
  C     -1.320044   -0.829071   -0.024278
  C     -2.492112   -0.866715    0.892089
  C     -2.661283   -0.476102   -0.570541
  H      1.016409    1.915782   -0.075299
  H     -0.602517    1.957333   -0.786407
  H     -0.407195    1.905866    0.973267
  H     -0.148634   -0.507067   -2.175767
  H      1.445927   -0.980744   -1.472025
  H     -0.660707   -2.888952   -0.885213
  H      1.833162   -0.559600    1.047035
  H      0.371411   -0.570443    2.075804
  H     -2.867265   -1.833649    1.211831
  H     -2.595709   -0.082191    1.636263
  H     -2.876385    0.565118   -0.792533
  H     -3.157477   -1.179344   -1.232640

 Total Charge           Charge          ....    0
 Multiplicity           Mult            ....    1
 Number of Electrons    NEL             ....   68
 Basis Dimension        Dim             ....  351

ORBITAL ENERGIES
----------------

  NO   OCC          E(Eh)            E(eV)
   0   2.0000     -20.543682      -559.0220
   1   2.0000     -11.280646      -306.9620
   2   2.0000     -11.267595      -306.6069
   3   2.0000     -11.245130      -305.9955
   4   2.0000     -11.234950      -305.7185
   5   2.0000     -11.228226      -305.5356
   6   2.0000     -11.223571      -305.4089
   7   2.0000     -11.223251      -305.4002
   8   2.0000     -11.223105      -305.3962
   9   2.0000      -1.375202       -37.4211
  10   2.0000      -1.163250       -31.6536
  11   2.0000      -1.080224       -29.3944
  12   2.0000      -1.000662       -27.2294
  13   2.0000      -0.928584       -25.2681
  14   2.0000      -0.854122       -23.2418
  15   2.0000      -0.823838       -22.4178
  16   2.0000      -0.778411       -21.1816
  17   2.0000      -0.722718       -19.6661
  18   2.0000      -0.674654       -18.3583
  19   2.0000      -0.658396       -17.9159
  20   2.0000      -0.642862       -17.4932
  21   2.0000      -0.623859       -16.9761
  22   2.0000      -0.573974       -15.6186
  23   2.0000      -0.561786       -15.2870
  24   2.0000      -0.547551       -14.8996
  25   2.0000      -0.529682       -14.4134
  26   2.0000      -0.520615       -14.1667
  27   2.0000      -0.514120       -13.9899
  28   2.0000      -0.484833       -13.1930
  29   2.0000      -0.479335       -13.0434
  30   2.0000      -0.429743       -11.6939
  31   2.0000      -0.413317       -11.2469
  32   2.0000      -0.400223       -10.8906
  33   2.0000      -0.387330       -10.5398
  34   0.0000       0.132180         3.5968
  35   0.0000       0.159201         4.3321
  36   0.0000       0.161191         4.3862
  37   0.0000       0.170749         4.6463
  38   0.0000       0.189725         5.1627

MULLIKEN ATOMIC CHARGES
-----------------------
   0 C :   -0.400584
   1 C :    0.076352
   2 C :   -0.249539
   3 C :    0.103183
   4 O :   -0.335605
   5 C :   -0.045472
   6 C :   -0.064922
   7 C :   -0.275318
   8 C :   -0.293563
   9 H :    0.140790
  10 H :    0.135557
  11 H :    0.134906
  12 H :    0.119293
  13 H :    0.118693
  14 H :    0.124281
  15 H :    0.103907
  16 H :    0.096856
  17 H :    0.131116
  18 H :    0.126556
  19 H :    0.124184
  20 H :    0.129328
Sum of atomic charges:   -0.0000000

LOEWDIN ATOMIC CHARGES
----------------------
   0 C :   -0.270581
   1 C :   -0.236149
   2 C :   -0.169788
   3 C :   -0.230899
   4 O :    0.152357
   5 C :   -0.236332
   6 C :   -0.191426
   7 C :   -0.200223
   8 C :   -0.199255
   9 H :    0.131722
  10 H :    0.129562
  11 H :    0.130481
  12 H :    0.141179
  13 H :    0.130157
  14 H :    0.132591
  15 H :    0.122823
  16 H :    0.124731
  17 H :    0.136956
  18 H :    0.134607
  19 H :    0.133302
  20 H :    0.134184

  Mayer bond orders larger than 0.1
B(  0-C ,  1-C ) :   0.8596 B(  0-C ,  9-H ) :   0.9389 B(  0-C , 10-H ) :   0.9408
B(  0-C , 11-H ) :   0.9365 B(  1-C ,  2-C ) :   0.9123 B(  1-C ,  5-C ) :   0.9459
B(  1-C ,  6-C ) :   0.8381 B(  2-C ,  3-C ) :   0.9470 B(  2-C , 12-H ) :   0.9180
B(  2-C , 13-H ) :   0.9166 B(  3-C ,  4-O ) :   0.9362 B(  3-C ,  6-C ) :   0.8854
B(  3-C , 14-H ) :   0.9052 B(  4-O ,  5-C ) :   0.9480 B(  5-C , 15-H ) :   0.9175
B(  5-C , 16-H ) :   0.9190 B(  6-C ,  7-C ) :   0.8507 B(  6-C ,  8-C ) :   0.8644
B(  7-C ,  8-C ) :   0.9563 B(  7-C , 17-H ) :   0.9210 B(  7-C , 18-H ) :   0.9228
B(  8-C , 19-H ) :   0.9167 B(  8-C , 20-H ) :   0.9188

MP2 TOTAL ENERGY:     -386.379915174 Eh
FINAL SINGLE POINT ENERGY      -386.379915174220

DIPOLE MOMENT
-------------
                                X             Y             Z
Electronic contribution:      1.54576      -4.98531       0.64716
Nuclear contribution   :     -1.78696       5.62803      -0.94778
                        -----------------------------------------
Total Dipole Moment    :     -0.24120       0.64272      -0.30063
                        -----------------------------------------
Magnitude (a.u.)       :      0.74943
Magnitude (Debye)      :      1.90491

                             ****ORCA TERMINATED NORMALLY****
TOTAL RUN TIME: 0 days 0 hours 20 minutes 25 seconds 211 msec
