                         Program Version 3.0.3 - RELEASE   -
|  1> ! RI-MP2 RIJK def2-TZVP def2-TZVP/C def2-TZVP/JK TIGHTSCF
|  2> % maxcore 2000
|  3> % mp2 density relaxed end
|  4> *xyz 0 1
|  5>  C       -0.1698708314     1.5960628670    -0.0361855097
|  6>  C        0.0439702728     0.0844817574    -0.0557734993
|  7>  C        0.6805596510    -0.5742120924    -1.2837285453
|  8>  C        2.1544204388    -0.2419842616    -1.4040163945
|  9>  O        2.7344159039     1.0032311117    -1.1426711311
| 10>  C        1.7721625471    -1.2357747913    -0.3732520932
| 11>  O        2.3503945942    -2.4894656494    -0.3639714738
| 12>  C        1.1715121516    -0.5496539593     0.8457835334
| 13>  O        2.0977164320     0.3088590368     1.5053038941
| 14>  H        0.7336061476     2.1336449027    -0.3239956211
| 15>  H       -0.9614690334     1.8716651296    -0.7409169212
| 16>  H       -0.4892909651     1.9381975166     0.9564924135
| 17>  H       -0.9011466555    -0.4138937791     0.1869241320
| 18>  H        0.1328566533    -0.9961688274    -2.1188323671
| 19>  H        2.6036633020    -0.7147212655    -2.2752481920
| 20>  H        2.8389876249     1.0650640201    -0.1829894712
| 21>  H        1.7254585012    -3.1135892986     0.0224353538
| 22>  H        0.7540577104    -1.2708984183     1.5621650851
| 23>  H        1.6224659345     0.8298042610     2.1615790178
| 24> *
| 25>
| 26>                          ****END OF INPUT****

CARTESIAN COORDINATES (ANGSTROEM)
---------------------------------
  C     -0.169871    1.596063   -0.036186
  C      0.043970    0.084482   -0.055773
  C      0.680560   -0.574212   -1.283729
  C      2.154420   -0.241984   -1.404016
  O      2.734416    1.003231   -1.142671
  C      1.772163   -1.235775   -0.373252
  O      2.350395   -2.489466   -0.363971
  C      1.171512   -0.549654    0.845784
  O      2.097716    0.308859    1.505304
  H      0.733606    2.133645   -0.323996
  H     -0.961469    1.871665   -0.740917
  H     -0.489291    1.938198    0.956492
  H     -0.901147   -0.413894    0.186924
  H      0.132857   -0.996169   -2.118832
  H      2.603663   -0.714721   -2.275248
  H      2.838988    1.065064   -0.182989
  H      1.725459   -3.113589    0.022435
  H      0.754058   -1.270898    1.562165
  H      1.622466    0.829804    2.161579

 Total Charge           Charge          ....    0
 Multiplicity           Mult            ....    1
 Number of Electrons    NEL             ....   70
 Basis Dimension        Dim             ....  339

ORBITAL ENERGIES
----------------

  NO   OCC          E(Eh)            E(eV)
   0   2.0000     -20.578251      -559.9627
   1   2.0000     -20.575682      -559.8928
   2   2.0000     -20.543234      -559.0098
   3   2.0000     -11.298996      -307.4613
   4   2.0000     -11.293320      -307.3069
   5   2.0000     -11.282596      -307.0151
   6   2.0000     -11.245168      -305.9966
   7   2.0000     -11.235323      -305.7287
   8   2.0000     -11.217086      -305.2324
   9   2.0000      -1.395833       -37.9825
  10   2.0000      -1.377489       -37.4834
  11   2.0000      -1.353296       -36.8251
  12   2.0000      -1.174359       -31.9559
  13   2.0000      -1.022501       -27.8237
  14   2.0000      -0.947865       -25.7927
  15   2.0000      -0.867920       -23.6173
  16   2.0000      -0.795582       -21.6489
  17   2.0000      -0.761670       -20.7261
  18   2.0000      -0.727827       -19.8052
  19   2.0000      -0.709857       -19.3162
  20   2.0000      -0.674640       -18.3579
  21   2.0000      -0.647311       -17.6142
  22   2.0000      -0.612472       -16.6662
  23   2.0000      -0.591949       -16.1077
  24   2.0000      -0.583719       -15.8838
  25   2.0000      -0.577771       -15.7220
  26   2.0000      -0.561969       -15.2920
  27   2.0000      -0.556639       -15.1469
  28   2.0000      -0.531693       -14.4681
  29   2.0000      -0.507807       -13.8181
  30   2.0000      -0.489982       -13.3331
  31   2.0000      -0.463099       -12.6016
  32   2.0000      -0.435855       -11.8602
  33   2.0000      -0.390310       -10.6209
  34   2.0000      -0.371474       -10.1083
  35   0.0000       0.117966         3.2100
  36   0.0000       0.134028         3.6471
  37   0.0000       0.156944         4.2707
  38   0.0000       0.179283         4.8785
  39   0.0000       0.182099         4.9552

MULLIKEN ATOMIC CHARGES
-----------------------
   0 C :   -0.438764
   1 C :   -0.017976
   2 C :   -0.140579
   3 C :    0.051538
   4 O :   -0.480430
   5 C :    0.099207
   6 O :   -0.437252
   7 C :   -0.006458
   8 O :   -0.490138
   9 H :    0.154509
  10 H :    0.134390
  11 H :    0.112994
  12 H :    0.097678
  13 H :    0.139820
  14 H :    0.120002
  15 H :    0.348815
  16 H :    0.322566
  17 H :    0.104820
  18 H :    0.325259
Sum of atomic charges:   -0.0000000

LOEWDIN ATOMIC CHARGES
----------------------
   0 C :   -0.301987
   1 C :   -0.223619
   2 C :   -0.129302
   3 C :   -0.278361
   4 O :   -0.006112
   5 C :   -0.307242
   6 O :    0.039889
   7 C :   -0.263762
   8 O :   -0.019477
   9 H :    0.128387
  10 H :    0.128676
  11 H :    0.118238
  12 H :    0.150989
  13 H :    0.136111
  14 H :    0.155815
  15 H :    0.176256
  16 H :    0.183052
  17 H :    0.134260
  18 H :    0.178190

  Mayer bond orders larger than 0.1
B(  0-C ,  1-C ) :   0.8527 B(  0-C ,  9-H ) :   0.9280 B(  0-C , 10-H ) :   0.9357
B(  0-C , 11-H ) :   0.9357 B(  1-C ,  2-C ) :   0.9152 B(  1-C ,  7-C ) :   0.9328
B(  1-C , 12-H ) :   0.9254 B(  2-C ,  3-C ) :   0.8499 B(  2-C ,  5-C ) :   0.7172
B(  2-C , 13-H ) :   0.9086 B(  3-C ,  4-O ) :   0.9829 B(  3-C ,  5-C ) :   0.9413
B(  3-C , 14-H ) :   0.9545 B(  4-O , 15-H ) :   0.8078 B(  5-C ,  6-O ) :   1.0636
B(  5-C ,  7-C ) :   0.9206 B(  6-O , 16-H ) :   0.8351 B(  7-C ,  8-O ) :   0.9871
B(  7-C , 17-H ) :   0.9644 B(  8-O , 18-H ) :   0.8371

MP2 TOTAL ENERGY:     -459.396616179 Eh
FINAL SINGLE POINT ENERGY      -459.396616179326

DIPOLE MOMENT
-------------
                                X             Y             Z
Electronic contribution:      4.81571      -3.69170      -0.47937
Nuclear contribution   :     -6.16187       3.29811       1.35770
                        -----------------------------------------
Total Dipole Moment    :     -1.34615      -0.39359       0.87834
                        -----------------------------------------
Magnitude (a.u.)       :      1.65485
Magnitude (Debye)      :      4.20629

                             ****ORCA TERMINATED NORMALLY****
TOTAL RUN TIME: 0 days 0 hours 16 minutes 37 seconds 150 msec
