                         Program Version 3.0.3 - RELEASE   -
|  1> ! RI-MP2 RIJK def2-TZVP def2-TZVP/C def2-TZVP/JK TIGHTSCF
|  2> % maxcore 2000
|  3> % mp2 density relaxed end
|  4> *xyz 0 1
|  5>  C        0.3884078487     1.2339728484    -0.0256744770
|  6>  O        0.2023944756    -0.1578158054     0.1612446606
|  7>  C       -1.1402541015    -0.5802818095     0.0777786228
|  8>  C       -1.9175481959    -0.4569738343    -1.2788918027
|  9>  C       -2.0659226819    -1.9801852762    -1.2990675831
| 10>  C       -0.7113172100    -2.6232435915    -1.2821814120
| 11>  C       -1.2828326397    -2.1060493874     0.0097634916
| 12>  C       -1.9194548381    -0.0517211940     1.2778832126
| 13>  O       -3.0777471230     0.2737715110     1.2794174042
| 14>  H        1.4581031186     1.4272677961     0.0795481513
| 15>  H        0.0641058621     1.5586026480    -1.0238690040
| 16>  H       -0.1516824950     1.8330493345     0.7223938122
| 17>  H       -2.8566197929     0.0793890769    -1.1350117988
| 18>  H       -1.3576602087    -0.0223501906    -2.1117607887
| 19>  H       -2.9607550865    -2.5146280642    -1.5898941769
| 20>  H       -0.6998108671    -3.7053407122    -1.3642043122
| 21>  H        0.1424313081    -2.1261240761    -1.7331655980
| 22>  H       -1.4571659487    -2.7471251484     0.8653376022
| 23>  H       -1.2970607043    -0.0183705153     2.2019427360
| 24> *
| 25>
| 26>                          ****END OF INPUT****

CARTESIAN COORDINATES (ANGSTROEM)
---------------------------------
  C      0.388408    1.233973   -0.025674
  O      0.202394   -0.157816    0.161245
  C     -1.140254   -0.580282    0.077779
  C     -1.917548   -0.456974   -1.278892
  C     -2.065923   -1.980185   -1.299068
  C     -0.711317   -2.623244   -1.282181
  C     -1.282833   -2.106049    0.009763
  C     -1.919455   -0.051721    1.277883
  O     -3.077747    0.273772    1.279417
  H      1.458103    1.427268    0.079548
  H      0.064106    1.558603   -1.023869
  H     -0.151682    1.833049    0.722394
  H     -2.856620    0.079389   -1.135012
  H     -1.357660   -0.022350   -2.111761
  H     -2.960755   -2.514628   -1.589894
  H     -0.699811   -3.705341   -1.364204
  H      0.142431   -2.126124   -1.733166
  H     -1.457166   -2.747125    0.865338
  H     -1.297061   -0.018371    2.201943

 Total Charge           Charge          ....    0
 Multiplicity           Mult            ....    1
 Number of Electrons    NEL             ....   68
 Basis Dimension        Dim             ....  339

ORBITAL ENERGIES
----------------

  NO   OCC          E(Eh)            E(eV)
   0   2.0000     -20.571022      -559.7660
   1   2.0000     -20.563673      -559.5660
   2   2.0000     -11.333055      -308.3881
   3   2.0000     -11.304095      -307.6001
   4   2.0000     -11.282490      -307.0122
   5   2.0000     -11.243417      -305.9489
   6   2.0000     -11.242574      -305.9260
   7   2.0000     -11.234905      -305.7173
   8   2.0000     -11.233464      -305.6781
   9   2.0000      -1.407011       -38.2867
  10   2.0000      -1.388715       -37.7889
  11   2.0000      -1.197377       -32.5823
  12   2.0000      -1.012444       -27.5500
  13   2.0000      -0.955396       -25.9976
  14   2.0000      -0.909241       -24.7417
  15   2.0000      -0.829099       -22.5609
  16   2.0000      -0.801617       -21.8131
  17   2.0000      -0.731512       -19.9055
  18   2.0000      -0.710355       -19.3298
  19   2.0000      -0.690170       -18.7805
  20   2.0000      -0.662339       -18.0232
  21   2.0000      -0.647459       -17.6182
  22   2.0000      -0.625616       -17.0239
  23   2.0000      -0.595860       -16.2142
  24   2.0000      -0.581562       -15.8251
  25   2.0000      -0.557940       -15.1823
  26   2.0000      -0.540886       -14.7183
  27   2.0000      -0.512945       -13.9579
  28   2.0000      -0.496787       -13.5183
  29   2.0000      -0.480252       -13.0683
  30   2.0000      -0.455081       -12.3834
  31   2.0000      -0.429675       -11.6921
  32   2.0000      -0.404228       -10.9996
  33   2.0000      -0.390794       -10.6341
  34   0.0000       0.123117         3.3502
  35   0.0000       0.147380         4.0104
  36   0.0000       0.159038         4.3276
  37   0.0000       0.169486         4.6120
  38   0.0000       0.176623         4.8062

MULLIKEN ATOMIC CHARGES
-----------------------
   0 C :   -0.230652
   1 O :   -0.307078
   2 C :    0.270199
   3 C :   -0.276173
   4 C :   -0.109618
   5 C :   -0.270482
   6 C :   -0.142170
   7 C :    0.019029
   8 O :   -0.261076
   9 H :    0.147576
  10 H :    0.119252
  11 H :    0.121248
  12 H :    0.145787
  13 H :    0.120168
  14 H :    0.137546
  15 H :    0.134477
  16 H :    0.140272
  17 H :    0.139475
  18 H :    0.102220
Sum of atomic charges:    0.0000000

LOEWDIN ATOMIC CHARGES
----------------------
   0 C :   -0.344048
   1 O :    0.186213
   2 C :   -0.330408
   3 C :   -0.173369
   4 C :   -0.172894
   5 C :   -0.196064
   6 C :   -0.139836
   7 C :   -0.256443
   8 O :    0.145494
   9 H :    0.116230
  10 H :    0.104967
  11 H :    0.105931
  12 H :    0.145058
  13 H :    0.132805
  14 H :    0.137099
  15 H :    0.141881
  16 H :    0.136339
  17 H :    0.140029
  18 H :    0.121016

  Mayer bond orders larger than 0.1
B(  0-C ,  1-O ) :   0.8969 B(  0-C ,  9-H ) :   0.9397 B(  0-C , 10-H ) :   0.9315
B(  0-C , 11-H ) :   0.9296 B(  1-O ,  2-C ) :   0.9993 B(  2-C ,  3-C ) :   0.9389
B(  2-C ,  6-C ) :   0.8863 B(  2-C ,  7-C ) :   0.8140 B(  3-C ,  4-C ) :   0.9681
B(  3-C , 12-H ) :   0.9048 B(  3-C , 13-H ) :   0.9125 B(  4-C ,  5-C ) :   0.8916
B(  4-C ,  6-C ) :   0.8450 B(  4-C , 14-H ) :   0.9275 B(  5-C ,  6-C ) :   0.8778
B(  5-C , 15-H ) :   0.9321 B(  5-C , 16-H ) :   0.9182 B(  6-C , 17-H ) :   0.9166
B(  7-C ,  8-O ) :   1.9994 B(  7-C , 18-H ) :   0.9418

MP2 TOTAL ENERGY:     -422.279590766 Eh
FINAL SINGLE POINT ENERGY      -422.279590766190

DIPOLE MOMENT
-------------
                                X             Y             Z
Electronic contribution:     -2.76939      -0.41575       3.49157
Nuclear contribution   :      3.27210       0.36413      -3.83125
                        -----------------------------------------
Total Dipole Moment    :      0.50271      -0.05162      -0.33968
                        -----------------------------------------
Magnitude (a.u.)       :      0.60891
Magnitude (Debye)      :      1.54772

                             ****ORCA TERMINATED NORMALLY****
TOTAL RUN TIME: 0 days 0 hours 19 minutes 56 seconds 880 msec
