                         Program Version 3.0.3 - RELEASE   -
|  1> ! RI-MP2 RIJK def2-TZVP def2-TZVP/C def2-TZVP/JK TIGHTSCF
|  2> % maxcore 2000
|  3> % mp2 density relaxed end
|  4> *xyz 0 1
|  5>  C        0.2023066223     1.5924896389    -0.1349306308
|  6>  C        0.0981515882     0.0843145667    -0.0245859014
|  7>  O        0.7831547580    -0.5242981147    -1.1351095565
|  8>  C        1.1955420186    -1.8071720360    -0.7470468097
|  9>  C        2.5312419597    -1.8496104449    -0.0575529146
| 10>  C        1.2407801602    -1.8963984489     0.7526759812
| 11>  C        0.9017580116    -3.1482351166     1.5262115470
| 12>  C        0.7083819358    -0.5482794946     1.2606128892
| 13>  O        1.6529899922     0.2590871906     1.9420717071
| 14>  H        1.2427766137     1.9153822614    -0.0578410661
| 15>  H       -0.2016666367     1.9291702149    -1.0933535590
| 16>  H       -0.3619032165     2.0712136105     0.6705658341
| 17>  H       -0.9605686006    -0.2205568540    -0.0686884744
| 18>  H        0.8529273284    -2.6167711887    -1.3859715080
| 19>  H        3.1143739294    -2.7647078677    -0.0877941426
| 20>  H        3.1244441026    -0.9410384815    -0.1113346082
| 21>  H        1.2528554339    -4.0449989188     1.0057570633
| 22>  H        1.3683845080    -3.1357808154     2.5176108288
| 23>  H       -0.1806777302    -3.2469814142     1.6668994756
| 24>  H       -0.0873939629    -0.7164655950     1.9933552494
| 25>  H        2.4934308043     0.1958450781     1.4772566456
| 26> *
| 27>
| 28>                          ****END OF INPUT****

CARTESIAN COORDINATES (ANGSTROEM)
---------------------------------
  C      0.202307    1.592490   -0.134931
  C      0.098152    0.084315   -0.024586
  O      0.783155   -0.524298   -1.135110
  C      1.195542   -1.807172   -0.747047
  C      2.531242   -1.849610   -0.057553
  C      1.240780   -1.896398    0.752676
  C      0.901758   -3.148235    1.526212
  C      0.708382   -0.548279    1.260613
  O      1.652990    0.259087    1.942072
  H      1.242777    1.915382   -0.057841
  H     -0.201667    1.929170   -1.093354
  H     -0.361903    2.071214    0.670566
  H     -0.960569   -0.220557   -0.068688
  H      0.852927   -2.616771   -1.385972
  H      3.114374   -2.764708   -0.087794
  H      3.124444   -0.941038   -0.111335
  H      1.252855   -4.044999    1.005757
  H      1.368385   -3.135781    2.517611
  H     -0.180678   -3.246981    1.666899
  H     -0.087394   -0.716466    1.993355
  H      2.493431    0.195845    1.477257

 Total Charge           Charge          ....    0
 Multiplicity           Mult            ....    1
 Number of Electrons    NEL             ....   70
 Basis Dimension        Dim             ....  351

ORBITAL ENERGIES
----------------

  NO   OCC          E(Eh)            E(eV)
   0   2.0000     -20.556010      -559.3575
   1   2.0000     -20.555047      -559.3313
   2   2.0000     -11.285377      -307.0907
   3   2.0000     -11.282226      -307.0050
   4   2.0000     -11.279358      -306.9269
   5   2.0000     -11.244981      -305.9915
   6   2.0000     -11.234804      -305.7146
   7   2.0000     -11.228389      -305.5400
   8   2.0000     -11.211181      -305.0717
   9   2.0000      -1.390582       -37.8397
  10   2.0000      -1.359035       -36.9812
  11   2.0000      -1.146380       -31.1946
  12   2.0000      -1.040772       -28.3208
  13   2.0000      -0.972108       -26.4524
  14   2.0000      -0.936283       -25.4775
  15   2.0000      -0.835177       -22.7263
  16   2.0000      -0.791292       -21.5321
  17   2.0000      -0.774832       -21.0843
  18   2.0000      -0.704251       -19.1636
  19   2.0000      -0.683696       -18.6043
  20   2.0000      -0.633753       -17.2453
  21   2.0000      -0.608616       -16.5613
  22   2.0000      -0.601723       -16.3737
  23   2.0000      -0.598434       -16.2842
  24   2.0000      -0.568481       -15.4691
  25   2.0000      -0.567393       -15.4395
  26   2.0000      -0.544056       -14.8045
  27   2.0000      -0.534850       -14.5540
  28   2.0000      -0.525891       -14.3102
  29   2.0000      -0.513150       -13.9635
  30   2.0000      -0.488902       -13.3037
  31   2.0000      -0.469548       -12.7770
  32   2.0000      -0.424601       -11.5540
  33   2.0000      -0.403467       -10.9789
  34   2.0000      -0.387407       -10.5419
  35   0.0000       0.133388         3.6297
  36   0.0000       0.142485         3.8772
  37   0.0000       0.157936         4.2977
  38   0.0000       0.178234         4.8500
  39   0.0000       0.193592         5.2679

MULLIKEN ATOMIC CHARGES
-----------------------
   0 C :   -0.343516
   1 C :    0.071007
   2 O :   -0.314745
   3 C :    0.082528
   4 C :   -0.363941
   5 C :    0.074094
   6 C :   -0.430464
   7 C :    0.019747
   8 O :   -0.449676
   9 H :    0.108507
  10 H :    0.141200
  11 H :    0.126106
  12 H :    0.073921
  13 H :    0.116271
  14 H :    0.129438
  15 H :    0.128756
  16 H :    0.130404
  17 H :    0.146335
  18 H :    0.132659
  19 H :    0.103907
  20 H :    0.317459
Sum of atomic charges:    0.0000000

LOEWDIN ATOMIC CHARGES
----------------------
   0 C :   -0.291705
   1 C :   -0.301494
   2 O :    0.194995
   3 C :   -0.260821
   4 C :   -0.192459
   5 C :   -0.236456
   6 C :   -0.266697
   7 C :   -0.274698
   8 O :   -0.005987
   9 H :    0.123013
  10 H :    0.127400
  11 H :    0.130802
  12 H :    0.138309
  13 H :    0.135464
  14 H :    0.137833
  15 H :    0.131668
  16 H :    0.129062
  17 H :    0.131817
  18 H :    0.128052
  19 H :    0.150370
  20 H :    0.171531

  Mayer bond orders larger than 0.1
B(  0-C ,  1-C ) :   0.9338 B(  0-C ,  9-H ) :   0.9273 B(  0-C , 10-H ) :   0.9390
B(  0-C , 11-H ) :   0.9291 B(  1-C ,  2-O ) :   0.9300 B(  1-C ,  7-C ) :   0.9236
B(  1-C , 12-H ) :   0.9209 B(  2-O ,  3-C ) :   0.9879 B(  3-C ,  4-C ) :   0.8358
B(  3-C ,  5-C ) :   0.8627 B(  3-C , 13-H ) :   0.9359 B(  4-C ,  5-C ) :   0.8860
B(  4-C , 14-H ) :   0.9200 B(  4-C , 15-H ) :   0.9199 B(  5-C ,  6-C ) :   0.9001
B(  5-C ,  7-C ) :   0.9027 B(  6-C , 16-H ) :   0.9353 B(  6-C , 17-H ) :   0.9393
B(  6-C , 18-H ) :   0.9354 B(  7-C ,  8-O ) :   0.9951 B(  7-C , 19-H ) :   0.9290
B(  8-O , 20-H ) :   0.8339

MP2 TOTAL ENERGY:     -423.515260222 Eh
FINAL SINGLE POINT ENERGY      -423.515260222380

DIPOLE MOMENT
-------------
                                X             Y             Z
Electronic contribution:      0.77641       0.85748      -1.62445
Nuclear contribution   :     -0.77056      -1.45224       1.69435
                        -----------------------------------------
Total Dipole Moment    :      0.00585      -0.59476       0.06990
                        -----------------------------------------
Magnitude (a.u.)       :      0.59888
Magnitude (Debye)      :      1.52224

                             ****ORCA TERMINATED NORMALLY****
TOTAL RUN TIME: 0 days 0 hours 19 minutes 21 seconds 673 msec
