                         Program Version 3.0.3 - RELEASE   -
|  1> ! RI-MP2 RIJK def2-TZVP def2-TZVP/C def2-TZVP/JK TIGHTSCF
|  2> % maxcore 2000
|  3> % mp2 density relaxed end
|  4> *xyz 0 1
|  5>  C       -0.1456785510     1.5684186262     0.0609441278
|  6>  C        0.0291764882     0.0489610690    -0.0349087101
|  7>  C        0.7622429153    -0.5346953328     1.1700924777
|  8>  C       -0.0468537055    -0.6298601815     2.5069882601
|  9>  N        0.0693606952    -2.1246870115     2.4780718295
| 10>  C        0.9473290526    -2.0872355397     1.2546714756
| 11>  C       -0.0192403768    -3.0537528144     0.5314064165
| 12>  C       -0.9394010751    -2.8168167957     1.7526838675
| 13>  O       -2.0939501258    -2.9995401965     2.0068900179
| 14>  H        0.8239075902     2.0752831062     0.1162308801
| 15>  H       -0.6792929368     1.9600036435    -0.8099508943
| 16>  H       -0.7173913620     1.8485612307     0.9523191396
| 17>  H       -0.9568155663    -0.4215372247    -0.1366051073
| 18>  H        0.5861541077    -0.2019465196    -0.9470921690
| 19>  H        1.7166003324    -0.0140342310     1.2970157643
| 20>  H        0.4476000048    -0.2005408675     3.3812818627
| 21>  H       -1.0847408217    -0.2847662886     2.4773244269
| 22>  H        1.9750516842    -2.4323648478     1.3834100170
| 23>  H       -0.4544166616    -2.7384564645    -0.4183272590
| 24>  H        0.3596744520    -4.0736327500     0.4267343264
| 25> *
| 26>
| 27>                          ****END OF INPUT****

CARTESIAN COORDINATES (ANGSTROEM)
---------------------------------
  C     -0.145679    1.568419    0.060944
  C      0.029176    0.048961   -0.034909
  C      0.762243   -0.534695    1.170092
  C     -0.046854   -0.629860    2.506988
  N      0.069361   -2.124687    2.478072
  C      0.947329   -2.087236    1.254671
  C     -0.019240   -3.053753    0.531406
  C     -0.939401   -2.816817    1.752684
  O     -2.093950   -2.999540    2.006890
  H      0.823908    2.075283    0.116231
  H     -0.679293    1.960004   -0.809951
  H     -0.717391    1.848561    0.952319
  H     -0.956816   -0.421537   -0.136605
  H      0.586154   -0.201947   -0.947092
  H      1.716600   -0.014034    1.297016
  H      0.447600   -0.200541    3.381282
  H     -1.084741   -0.284766    2.477324
  H      1.975052   -2.432365    1.383410
  H     -0.454417   -2.738456   -0.418327
  H      0.359674   -4.073633    0.426734

 Total Charge           Charge          ....    0
 Multiplicity           Mult            ....    1
 Number of Electrons    NEL             ....   68
 Basis Dimension        Dim             ....  345

ORBITAL ENERGIES
----------------

  NO   OCC          E(Eh)            E(eV)
   0   2.0000     -20.542321      -558.9850
   1   2.0000     -15.567861      -423.6230
   2   2.0000     -11.351962      -308.9026
   3   2.0000     -11.275954      -306.8343
   4   2.0000     -11.271749      -306.7199
   5   2.0000     -11.250493      -306.1415
   6   2.0000     -11.249537      -306.1155
   7   2.0000     -11.237470      -305.7871
   8   2.0000     -11.226404      -305.4860
   9   2.0000      -1.399373       -38.0789
  10   2.0000      -1.285972       -34.9931
  11   2.0000      -1.080537       -29.4029
  12   2.0000      -1.031997       -28.0821
  13   2.0000      -0.975515       -26.5451
  14   2.0000      -0.883209       -24.0333
  15   2.0000      -0.864863       -23.5341
  16   2.0000      -0.777374       -21.1534
  17   2.0000      -0.703000       -19.1296
  18   2.0000      -0.699505       -19.0345
  19   2.0000      -0.669229       -18.2107
  20   2.0000      -0.657087       -17.8802
  21   2.0000      -0.627814       -17.0837
  22   2.0000      -0.594343       -16.1729
  23   2.0000      -0.583925       -15.8894
  24   2.0000      -0.561924       -15.2907
  25   2.0000      -0.550263       -14.9734
  26   2.0000      -0.527928       -14.3657
  27   2.0000      -0.512884       -13.9563
  28   2.0000      -0.504852       -13.7377
  29   2.0000      -0.493170       -13.4198
  30   2.0000      -0.471429       -12.8282
  31   2.0000      -0.451125       -12.2757
  32   2.0000      -0.420285       -11.4365
  33   2.0000      -0.379742       -10.3333
  34   0.0000       0.125155         3.4056
  35   0.0000       0.140875         3.8334
  36   0.0000       0.146918         3.9978
  37   0.0000       0.159342         4.3359
  38   0.0000       0.174014         4.7352

MULLIKEN ATOMIC CHARGES
-----------------------
   0 C :   -0.394295
   1 C :   -0.252890
   2 C :   -0.072699
   3 C :   -0.189026
   4 N :   -0.113085
   5 C :   -0.003992
   6 C :   -0.278847
   7 C :    0.159936
   8 O :   -0.273900
   9 H :    0.126152
  10 H :    0.140132
  11 H :    0.130275
  12 H :    0.122914
  13 H :    0.119594
  14 H :    0.109597
  15 H :    0.128133
  16 H :    0.131330
  17 H :    0.117240
  18 H :    0.144924
  19 H :    0.148509
Sum of atomic charges:    0.0000000

LOEWDIN ATOMIC CHARGES
----------------------
   0 C :   -0.312790
   1 C :   -0.277997
   2 C :   -0.216097
   3 C :   -0.204466
   4 N :    0.169884
   5 C :   -0.181063
   6 C :   -0.196836
   7 C :   -0.403501
   8 O :    0.142668
   9 H :    0.121985
  10 H :    0.123397
  11 H :    0.122532
  12 H :    0.141123
  13 H :    0.140402
  14 H :    0.148591
  15 H :    0.127526
  16 H :    0.131938
  17 H :    0.132969
  18 H :    0.143642
  19 H :    0.146092

  Mayer bond orders larger than 0.1
B(  0-C ,  1-C ) :   0.9195 B(  0-C ,  9-H ) :   0.9374 B(  0-C , 10-H ) :   0.9405
B(  0-C , 11-H ) :   0.9398 B(  1-C ,  2-C ) :   0.9283 B(  1-C , 12-H ) :   0.9256
B(  1-C , 13-H ) :   0.9276 B(  2-C ,  3-C ) :   0.9324 B(  2-C ,  5-C ) :   0.9184
B(  2-C , 14-H ) :   0.9173 B(  3-C ,  4-N ) :   0.8845 B(  3-C , 15-H ) :   0.9165
B(  3-C , 16-H ) :   0.9247 B(  4-N ,  5-C ) :   0.9169 B(  4-N ,  7-C ) :   1.0108
B(  5-C ,  6-C ) :   0.9329 B(  5-C , 17-H ) :   0.9000 B(  6-C ,  7-C ) :   0.9270
B(  6-C , 18-H ) :   0.8970 B(  6-C , 19-H ) :   0.9011 B(  7-C ,  8-O ) :   2.0328

MP2 TOTAL ENERGY:     -402.446083376 Eh
FINAL SINGLE POINT ENERGY      -402.446083376223

DIPOLE MOMENT
-------------
                                X             Y             Z
Electronic contribution:     -2.70911      -9.19133       5.25775
Nuclear contribution   :      3.79742       9.98043      -6.06010
                        -----------------------------------------
Total Dipole Moment    :      1.08831       0.78910      -0.80235
                        -----------------------------------------
Magnitude (a.u.)       :      1.56552
Magnitude (Debye)      :      3.97924

                             ****ORCA TERMINATED NORMALLY****
TOTAL RUN TIME: 0 days 0 hours 33 minutes 30 seconds 905 msec
