                         Program Version 3.0.3 - RELEASE   -
|  1> ! RI-MP2 RIJK def2-TZVP def2-TZVP/C def2-TZVP/JK TIGHTSCF
|  2> % maxcore 2000
|  3> % mp2 density relaxed end
|  4> *xyz 0 1
|  5>  C       -0.1464231592     1.5313834355    -0.0614743263
|  6>  C        0.1102404771     0.0295738214     0.0221406569
|  7>  C        0.8808200134    -0.5471813381    -1.2027247652
|  8>  N        1.9194814041    -1.3523132774    -0.5464281456
|  9>  C        1.8752782167    -1.0549135513     0.8140809351
| 10>  N        0.9284013894    -0.3062037049     1.2117574932
| 11>  C        2.9072131186    -2.0021606739    -1.2711465643
| 12>  N        3.8137459080    -2.7240512447    -0.5088574210
| 13>  O        2.9770133576    -1.9092853720    -2.4801208095
| 14>  H        0.7971316613     2.0782020392    -0.1576610219
| 15>  H       -0.7723436083     1.7705588030    -0.9275216190
| 16>  H       -0.6532666583     1.8813885521     0.8413602425
| 17>  H       -0.8525009350    -0.4850402903     0.1376870929
| 18>  H        0.2669975303    -1.1684981476    -1.8574605170
| 19>  H        1.3436376342     0.2340481966    -1.8154881839
| 20>  H        2.6441923005    -1.4509299112     1.4688108298
| 21>  H        3.4759047149    -3.1850394708     0.3222824975
| 22>  H        4.4103007745    -3.3013633054    -1.0828045041
| 23> *
| 24>
| 25>                          ****END OF INPUT****

CARTESIAN COORDINATES (ANGSTROEM)
---------------------------------
  C     -0.146423    1.531383   -0.061474
  C      0.110240    0.029574    0.022141
  C      0.880820   -0.547181   -1.202725
  N      1.919481   -1.352313   -0.546428
  C      1.875278   -1.054914    0.814081
  N      0.928401   -0.306204    1.211757
  C      2.907213   -2.002161   -1.271147
  N      3.813746   -2.724051   -0.508857
  O      2.977013   -1.909285   -2.480121
  H      0.797132    2.078202   -0.157661
  H     -0.772344    1.770559   -0.927522
  H     -0.653267    1.881389    0.841360
  H     -0.852501   -0.485040    0.137687
  H      0.266998   -1.168498   -1.857461
  H      1.343638    0.234048   -1.815488
  H      2.644192   -1.450930    1.468811
  H      3.475905   -3.185039    0.322282
  H      4.410301   -3.301363   -1.082805

 Total Charge           Charge          ....    0
 Multiplicity           Mult            ....    1
 Number of Electrons    NEL             ....   68
 Basis Dimension        Dim             ....  333

ORBITAL ENERGIES
----------------

  NO   OCC          E(Eh)            E(eV)
   0   2.0000     -20.527280      -558.5757
   1   2.0000     -15.607357      -424.6978
   2   2.0000     -15.594064      -424.3360
   3   2.0000     -15.553392      -423.2293
   4   2.0000     -11.393626      -310.0363
   5   2.0000     -11.323099      -308.1172
   6   2.0000     -11.270979      -306.6989
   7   2.0000     -11.268217      -306.6238
   8   2.0000     -11.219317      -305.2931
   9   2.0000      -1.411730       -38.4151
  10   2.0000      -1.319309       -35.9002
  11   2.0000      -1.228096       -33.4182
  12   2.0000      -1.176720       -32.0202
  13   2.0000      -1.050728       -28.5918
  14   2.0000      -0.949200       -25.8290
  15   2.0000      -0.880481       -23.9591
  16   2.0000      -0.813134       -22.1265
  17   2.0000      -0.783337       -21.3157
  18   2.0000      -0.759752       -20.6739
  19   2.0000      -0.695295       -18.9199
  20   2.0000      -0.677519       -18.4362
  21   2.0000      -0.640565       -17.4307
  22   2.0000      -0.617576       -16.8051
  23   2.0000      -0.608036       -16.5455
  24   2.0000      -0.580817       -15.8048
  25   2.0000      -0.566545       -15.4165
  26   2.0000      -0.537439       -14.6245
  27   2.0000      -0.521955       -14.2031
  28   2.0000      -0.504233       -13.7209
  29   2.0000      -0.490308       -13.3420
  30   2.0000      -0.467977       -12.7343
  31   2.0000      -0.439295       -11.9538
  32   2.0000      -0.426942       -11.6177
  33   2.0000      -0.359260        -9.7759
  34   0.0000       0.114100         3.1048
  35   0.0000       0.140229         3.8158
  36   0.0000       0.143746         3.9115
  37   0.0000       0.172231         4.6866
  38   0.0000       0.174080         4.7370

MULLIKEN ATOMIC CHARGES
-----------------------
   0 C :   -0.399591
   1 C :    0.086518
   2 C :   -0.199006
   3 N :   -0.117453
   4 C :   -0.009420
   5 N :   -0.265325
   6 C :    0.345153
   7 N :   -0.521114
   8 O :   -0.367494
   9 H :    0.127293
  10 H :    0.128249
  11 H :    0.142283
  12 H :    0.102519
  13 H :    0.140468
  14 H :    0.138675
  15 H :    0.144808
  16 H :    0.256716
  17 H :    0.266720
Sum of atomic charges:    0.0000000

LOEWDIN ATOMIC CHARGES
----------------------
   0 C :   -0.293805
   1 C :   -0.288392
   2 C :   -0.196114
   3 N :    0.199882
   4 C :   -0.283326
   5 N :    0.092866
   6 C :   -0.537416
   7 N :   -0.057823
   8 O :    0.078231
   9 H :    0.125211
  10 H :    0.125190
  11 H :    0.128617
  12 H :    0.147158
  13 H :    0.136471
  14 H :    0.138808
  15 H :    0.136655
  16 H :    0.168547
  17 H :    0.179239

  Mayer bond orders larger than 0.1
B(  0-C ,  1-C ) :   0.9212 B(  0-C ,  9-H ) :   0.9306 B(  0-C , 10-H ) :   0.9355
B(  0-C , 11-H ) :   0.9367 B(  1-C ,  2-C ) :   0.9022 B(  1-C ,  5-N ) :   0.8842
B(  1-C , 12-H ) :   0.9189 B(  2-C ,  3-N ) :   0.8666 B(  2-C , 13-H ) :   0.9270
B(  2-C , 14-H ) :   0.9358 B(  3-N ,  4-C ) :   1.0431 B(  3-N ,  6-C ) :   1.0608
B(  4-C ,  5-N ) :   1.8571 B(  4-C , 15-H ) :   0.9114 B(  6-C ,  7-N ) :   1.0909
B(  6-C ,  8-O ) :   1.9442 B(  7-N , 16-H ) :   0.8657 B(  7-N , 17-H ) :   0.8668

MP2 TOTAL ENERGY:     -434.605062080 Eh
FINAL SINGLE POINT ENERGY      -434.605062079998

DIPOLE MOMENT
-------------
                                X             Y             Z
Electronic contribution:      4.47298      -5.15291      -0.74331
Nuclear contribution   :     -4.53367       4.55242       1.14857
                        -----------------------------------------
Total Dipole Moment    :     -0.06069      -0.60048       0.40526
                        -----------------------------------------
Magnitude (a.u.)       :      0.72698
Magnitude (Debye)      :      1.84783

                             ****ORCA TERMINATED NORMALLY****
TOTAL RUN TIME: 0 days 0 hours 15 minutes 28 seconds 504 msec
