                         Program Version 3.0.3 - RELEASE   -
|  1> ! RI-MP2 RIJK def2-TZVP def2-TZVP/C def2-TZVP/JK TIGHTSCF
|  2> % maxcore 2000
|  3> % mp2 density relaxed end
|  4> *xyz 0 1
|  5>  C        0.0100442533     1.4846929290     0.3183000753
|  6>  O        1.4189766537     1.5426765846    -0.1112883804
|  7>  C        1.1658265047     0.3761128581    -0.8798738957
|  8>  C       -0.0304344653    -0.0212566049    -0.0703848233
|  9>  C       -0.7903489403    -0.9049966126    -1.0851315688
| 10>  C        0.3557673553    -1.0507636496    -2.1177062001
| 11>  C        0.8665590666     0.3656734759    -2.4297318592
| 12>  O        2.2184329326    -0.1225299170    -2.7338685540
| 13>  C        1.8464068998    -0.8456857017    -1.5236492711
| 14>  H       -0.0931974441     1.7403243394     1.3748781937
| 15>  H       -0.6099079048     2.1456998839    -0.2993644506
| 16>  H        0.2719058898    -0.6029365511     0.8054327981
| 17>  H       -1.1329681900    -1.8489214736    -0.6546988769
| 18>  H       -1.6537922616    -0.4189075672    -1.5528087070
| 19>  H        0.2800757936    -1.7524895833    -2.9465783881
| 20>  H        0.4391573055     1.1310852201    -3.0773160049
| 21>  H        2.5403540513    -1.5849333900    -1.1235108872
| 22> *
| 23>
| 24>                          ****END OF INPUT****

CARTESIAN COORDINATES (ANGSTROEM)
---------------------------------
  C      0.010044    1.484693    0.318300
  O      1.418977    1.542677   -0.111288
  C      1.165827    0.376113   -0.879874
  C     -0.030434   -0.021257   -0.070385
  C     -0.790349   -0.904997   -1.085132
  C      0.355767   -1.050764   -2.117706
  C      0.866559    0.365673   -2.429732
  O      2.218433   -0.122530   -2.733869
  C      1.846407   -0.845686   -1.523649
  H     -0.093197    1.740324    1.374878
  H     -0.609908    2.145700   -0.299364
  H      0.271906   -0.602937    0.805433
  H     -1.132968   -1.848921   -0.654699
  H     -1.653792   -0.418908   -1.552809
  H      0.280076   -1.752490   -2.946578
  H      0.439157    1.131085   -3.077316
  H      2.540354   -1.584933   -1.123511

 Total Charge           Charge          ....    0
 Multiplicity           Mult            ....    1
 Number of Electrons    NEL             ....   66
 Basis Dimension        Dim             ....  327

ORBITAL ENERGIES
----------------

  NO   OCC          E(Eh)            E(eV)
   0   2.0000     -20.566632      -559.6465
   1   2.0000     -20.551468      -559.2339
   2   2.0000     -11.308466      -307.7190
   3   2.0000     -11.298294      -307.4422
   4   2.0000     -11.298148      -307.4382
   5   2.0000     -11.295422      -307.3641
   6   2.0000     -11.255581      -306.2799
   7   2.0000     -11.247268      -306.0537
   8   2.0000     -11.238997      -305.8287
   9   2.0000      -1.413235       -38.4561
  10   2.0000      -1.381363       -37.5888
  11   2.0000      -1.145772       -31.1780
  12   2.0000      -1.004716       -27.3397
  13   2.0000      -0.951010       -25.8783
  14   2.0000      -0.907288       -24.6886
  15   2.0000      -0.887536       -24.1511
  16   2.0000      -0.789212       -21.4755
  17   2.0000      -0.721639       -19.6368
  18   2.0000      -0.712007       -19.3747
  19   2.0000      -0.665535       -18.1101
  20   2.0000      -0.643968       -17.5233
  21   2.0000      -0.630920       -17.1682
  22   2.0000      -0.605302       -16.4711
  23   2.0000      -0.573229       -15.5984
  24   2.0000      -0.553208       -15.0535
  25   2.0000      -0.519675       -14.1411
  26   2.0000      -0.510586       -13.8937
  27   2.0000      -0.500816       -13.6279
  28   2.0000      -0.486820       -13.2470
  29   2.0000      -0.452097       -12.3022
  30   2.0000      -0.440500       -11.9866
  31   2.0000      -0.399374       -10.8675
  32   2.0000      -0.391418       -10.6510
  33   0.0000       0.128035         3.4840
  34   0.0000       0.155591         4.2338
  35   0.0000       0.161477         4.3940
  36   0.0000       0.172793         4.7019
  37   0.0000       0.185516         5.0481

MULLIKEN ATOMIC CHARGES
-----------------------
   0 C :   -0.023047
   1 O :   -0.303210
   2 C :    0.202023
   3 C :   -0.146763
   4 C :   -0.224289
   5 C :   -0.055896
   6 C :   -0.070712
   7 O :   -0.315287
   8 C :   -0.030033
   9 H :    0.120827
  10 H :    0.091354
  11 H :    0.101385
  12 H :    0.128053
  13 H :    0.120015
  14 H :    0.134912
  15 H :    0.134860
  16 H :    0.135806
Sum of atomic charges:   -0.0000000

LOEWDIN ATOMIC CHARGES
----------------------
   0 C :   -0.217369
   1 O :    0.164260
   2 C :   -0.274423
   3 C :   -0.186169
   4 C :   -0.209533
   5 C :   -0.147363
   6 C :   -0.174457
   7 O :    0.137108
   8 C :   -0.168442
   9 H :    0.120725
  10 H :    0.121631
  11 H :    0.157630
  12 H :    0.135086
  13 H :    0.142270
  14 H :    0.143487
  15 H :    0.128337
  16 H :    0.127222

  Mayer bond orders larger than 0.1
B(  0-C ,  1-O ) :   0.9026 B(  0-C ,  3-C ) :   0.9729 B(  0-C ,  9-H ) :   0.9116
B(  0-C , 10-H ) :   0.8940 B(  1-O ,  2-C ) :   1.0054 B(  2-C ,  3-C ) :   0.8736
B(  2-C ,  6-C ) :   0.8790 B(  2-C ,  8-C ) :   0.9168 B(  3-C ,  4-C ) :   0.9224
B(  3-C , 11-H ) :   0.8982 B(  4-C ,  5-C ) :   0.8815 B(  4-C , 12-H ) :   0.9140
B(  4-C , 13-H ) :   0.9049 B(  5-C ,  6-C ) :   0.8989 B(  5-C ,  8-C ) :   0.8929
B(  5-C , 14-H ) :   0.9187 B(  6-C ,  7-O ) :   0.9221 B(  6-C , 15-H ) :   0.8863
B(  7-O ,  8-C ) :   0.9442 B(  8-C , 16-H ) :   0.8910

MP2 TOTAL ENERGY:     -421.002595697 Eh
FINAL SINGLE POINT ENERGY      -421.002595697416

DIPOLE MOMENT
-------------
                                X             Y             Z
Electronic contribution:      4.67290       1.43533      -1.39404
Nuclear contribution   :     -5.93813      -1.96801       1.84418
                        -----------------------------------------
Total Dipole Moment    :     -1.26523      -0.53268       0.45015
                        -----------------------------------------
Magnitude (a.u.)       :      1.44471
Magnitude (Debye)      :      3.67216

                             ****ORCA TERMINATED NORMALLY****
TOTAL RUN TIME: 0 days 0 hours 17 minutes 40 seconds 170 msec
