                         Program Version 3.0.3 - RELEASE   -
|  1> ! RI-MP2 RIJK def2-TZVP def2-TZVP/C def2-TZVP/JK TIGHTSCF
|  2> % maxcore 2000
|  3> % mp2 density relaxed end
|  4> *xyz 0 1
|  5>  C       -0.2753665252     1.5659892520    -0.0158588048
|  6>  C        0.0572557298     0.0644689658     0.0431973411
|  7>  C        0.7782826782    -0.4493098340    -1.1794446532
|  8>  C        2.0687644026    -0.7883456725    -1.1631415752
|  9>  C        2.8062472955    -1.3431173291    -2.3572914494
| 10>  C        3.5954488606    -2.6048859981    -2.0131912007
| 11>  O        1.9291335052    -1.6859577375    -3.4209828857
| 12>  C        0.9398392110    -0.7030078570    -3.6591810611
| 13>  C       -0.0075410413    -0.5769735331    -2.4658891623
| 14>  H        0.6381584323     2.1628443932    -0.1009377971
| 15>  H       -0.9135261177     1.8086314921    -0.8714078880
| 16>  H       -0.8044808918     1.8812572377     0.8888923308
| 17>  H        0.6675762175    -0.1331716646     0.9313814291
| 18>  H       -0.8768888625    -0.4998013450     0.1752446283
| 19>  H        2.6537015643    -0.6821997087    -0.2513194673
| 20>  H        3.5207059560    -0.5763041820    -2.7166420731
| 21>  H        2.9236839195    -3.3795036754    -1.6325068152
| 22>  H        4.0982112236    -2.9865512351    -2.9059389608
| 23>  H        4.3508900801    -2.3899445102    -1.2514222820
| 24>  H        1.4104236437     0.2733720850    -3.8639083661
| 25>  H        0.4074199310    -1.0150983135    -4.5624903796
| 26>  H       -0.6673176458    -1.4543984657    -2.4137723767
| 27>  H       -0.6635539366     0.2911102956    -2.6081154311
| 28> *
| 29>
| 30>                          ****END OF INPUT****

CARTESIAN COORDINATES (ANGSTROEM)
---------------------------------
  C     -0.275367    1.565989   -0.015859
  C      0.057256    0.064469    0.043197
  C      0.778283   -0.449310   -1.179445
  C      2.068764   -0.788346   -1.163142
  C      2.806247   -1.343117   -2.357291
  C      3.595449   -2.604886   -2.013191
  O      1.929134   -1.685958   -3.420983
  C      0.939839   -0.703008   -3.659181
  C     -0.007541   -0.576974   -2.465889
  H      0.638158    2.162844   -0.100938
  H     -0.913526    1.808631   -0.871408
  H     -0.804481    1.881257    0.888892
  H      0.667576   -0.133172    0.931381
  H     -0.876889   -0.499801    0.175245
  H      2.653702   -0.682200   -0.251319
  H      3.520706   -0.576304   -2.716642
  H      2.923684   -3.379504   -1.632507
  H      4.098211   -2.986551   -2.905939
  H      4.350890   -2.389945   -1.251422
  H      1.410424    0.273372   -3.863908
  H      0.407420   -1.015098   -4.562490
  H     -0.667318   -1.454398   -2.413772
  H     -0.663554    0.291110   -2.608115

 Total Charge           Charge          ....    0
 Multiplicity           Mult            ....    1
 Number of Electrons    NEL             ....   70
 Basis Dimension        Dim             ....  363

ORBITAL ENERGIES
----------------

  NO   OCC          E(Eh)            E(eV)
   0   2.0000     -20.546434      -559.0969
   1   2.0000     -11.277655      -306.8806
   2   2.0000     -11.269958      -306.6712
   3   2.0000     -11.231457      -305.6235
   4   2.0000     -11.226730      -305.4949
   5   2.0000     -11.224059      -305.4222
   6   2.0000     -11.217415      -305.2414
   7   2.0000     -11.215418      -305.1870
   8   2.0000     -11.209728      -305.0322
   9   2.0000      -1.371528       -37.3212
  10   2.0000      -1.105186       -30.0736
  11   2.0000      -1.048347       -28.5270
  12   2.0000      -1.012052       -27.5393
  13   2.0000      -0.947051       -25.7706
  14   2.0000      -0.873604       -23.7720
  15   2.0000      -0.850996       -23.1568
  16   2.0000      -0.801689       -21.8151
  17   2.0000      -0.709401       -19.3038
  18   2.0000      -0.668270       -18.1845
  19   2.0000      -0.653915       -17.7939
  20   2.0000      -0.619259       -16.8509
  21   2.0000      -0.617682       -16.8080
  22   2.0000      -0.597582       -16.2610
  23   2.0000      -0.561506       -15.2794
  24   2.0000      -0.556847       -15.1526
  25   2.0000      -0.540061       -14.6958
  26   2.0000      -0.532715       -14.4959
  27   2.0000      -0.515084       -14.0162
  28   2.0000      -0.508927       -13.8486
  29   2.0000      -0.500161       -13.6101
  30   2.0000      -0.492681       -13.4065
  31   2.0000      -0.471229       -12.8228
  32   2.0000      -0.446952       -12.1622
  33   2.0000      -0.405933       -11.0460
  34   2.0000      -0.338915        -9.2223
  35   0.0000       0.130689         3.5562
  36   0.0000       0.154243         4.1972
  37   0.0000       0.161580         4.3968
  38   0.0000       0.165119         4.4931
  39   0.0000       0.170483         4.6391

MULLIKEN ATOMIC CHARGES
-----------------------
   0 C :   -0.396868
   1 C :   -0.218904
   2 C :    0.024128
   3 C :   -0.230995
   4 C :    0.137012
   5 C :   -0.380436
   6 O :   -0.304328
   7 C :   -0.069774
   8 C :   -0.199245
   9 H :    0.129395
  10 H :    0.121191
  11 H :    0.131876
  12 H :    0.117393
  13 H :    0.114012
  14 H :    0.117103
  15 H :    0.074658
  16 H :    0.127456
  17 H :    0.138429
  18 H :    0.120184
  19 H :    0.091503
  20 H :    0.125709
  21 H :    0.116839
  22 H :    0.113661
Sum of atomic charges:   -0.0000000

LOEWDIN ATOMIC CHARGES
----------------------
   0 C :   -0.311748
   1 C :   -0.252492
   2 C :   -0.171573
   3 C :   -0.133691
   4 C :   -0.338110
   5 C :   -0.286621
   6 O :    0.180512
   7 C :   -0.308442
   8 C :   -0.229374
   9 H :    0.121999
  10 H :    0.117680
  11 H :    0.120915
  12 H :    0.141910
  13 H :    0.142615
  14 H :    0.147638
  15 H :    0.139925
  16 H :    0.126410
  17 H :    0.126246
  18 H :    0.124276
  19 H :    0.122912
  20 H :    0.128232
  21 H :    0.146512
  22 H :    0.144270

  Mayer bond orders larger than 0.1
B(  0-C ,  1-C ) :   0.9124 B(  0-C ,  9-H ) :   0.9385 B(  0-C , 10-H ) :   0.9389
B(  0-C , 11-H ) :   0.9366 B(  1-C ,  2-C ) :   0.8892 B(  1-C , 12-H ) :   0.9450
B(  1-C , 13-H ) :   0.9277 B(  2-C ,  3-C ) :   1.7707 B(  2-C ,  8-C ) :   0.9369
B(  3-C ,  4-C ) :   0.9173 B(  3-C , 14-H ) :   0.9148 B(  4-C ,  5-C ) :   0.9029
B(  4-C ,  6-O ) :   0.9607 B(  4-C , 15-H ) :   0.9370 B(  5-C , 16-H ) :   0.9346
B(  5-C , 17-H ) :   0.9367 B(  5-C , 18-H ) :   0.9343 B(  6-O ,  7-C ) :   0.9318
B(  7-C ,  8-C ) :   0.9515 B(  7-C , 19-H ) :   0.9374 B(  7-C , 20-H ) :   0.9299
B(  8-C , 21-H ) :   0.8986 B(  8-C , 22-H ) :   0.9205

MP2 TOTAL ENERGY:     -387.627826247 Eh
FINAL SINGLE POINT ENERGY      -387.627826246919

DIPOLE MOMENT
-------------
                                X             Y             Z
Electronic contribution:      1.52811      -2.83823      -3.72829
Nuclear contribution   :     -1.70471       3.25483       4.03617
                        -----------------------------------------
Total Dipole Moment    :     -0.17660       0.41659       0.30788
                        -----------------------------------------
Magnitude (a.u.)       :      0.54729
Magnitude (Debye)      :      1.39111

                             ****ORCA TERMINATED NORMALLY****
TOTAL RUN TIME: 0 days 0 hours 21 minutes 20 seconds 207 msec
