                         Program Version 3.0.3 - RELEASE   -
|  1> ! RI-MP2 RIJK def2-TZVP def2-TZVP/C def2-TZVP/JK TIGHTSCF
|  2> % maxcore 2000
|  3> % mp2 density relaxed end
|  4> *xyz 0 1
|  5>  C       -0.2156326697     1.4921955689     0.1116722962
|  6>  C        0.0541237296     0.0012006109    -0.0176186812
|  7>  C        1.2433787725    -0.4826311280    -0.8945189791
|  8>  C        1.5318535723    -1.5861435209     0.1607458876
|  9>  C        2.9796917483    -1.9295685685     0.4945115660
| 10>  C        3.1138710979    -2.9306784118     1.6240015733
| 11>  C        3.0538594698    -4.4120232331     1.3425031738
| 12>  C        4.3551990254    -3.7729217014     1.7646875394
| 13>  C        0.6922585174    -0.7605060401     1.1782826798
| 14>  H        0.6875966453     2.0285897473     0.4249962467
| 15>  H       -0.5444693332     1.9228592125    -0.8411093725
| 16>  H       -0.9962812722     1.6940670947     0.8541385497
| 17>  H       -0.8616317211    -0.5143206034    -0.3300487719
| 18>  H        1.0352813290    -0.7929262246    -1.9222115100
| 19>  H        2.0468299778     0.2637219592    -0.9135636737
| 20>  H        0.9919044151    -2.5033773828    -0.1022808396
| 21>  H        3.4753919178    -2.3294501921    -0.4014227394
| 22>  H        3.5167242970    -1.0057122336     0.7538403399
| 23>  H        2.6547669511    -2.6127217809     2.5572818257
| 24>  H        2.5434419249    -5.0582335412     2.0482437959
| 25>  H        2.9591289240    -4.7260418281     0.3076370368
| 26>  H        5.1305163920    -3.6601151020     1.0134363943
| 27>  H        4.7320935906    -3.9805375716     2.7602784618
| 28>  H        1.3337786235    -0.0955584519     1.7696963106
| 29>  H        0.0273658849    -1.2969976276     1.8603661200
| 30> *
| 31>
| 32>                          ****END OF INPUT****

CARTESIAN COORDINATES (ANGSTROEM)
---------------------------------
  C     -0.215633    1.492196    0.111672
  C      0.054124    0.001201   -0.017619
  C      1.243379   -0.482631   -0.894519
  C      1.531854   -1.586144    0.160746
  C      2.979692   -1.929569    0.494512
  C      3.113871   -2.930678    1.624002
  C      3.053859   -4.412023    1.342503
  C      4.355199   -3.772922    1.764688
  C      0.692259   -0.760506    1.178283
  H      0.687597    2.028590    0.424996
  H     -0.544469    1.922859   -0.841109
  H     -0.996281    1.694067    0.854139
  H     -0.861632   -0.514321   -0.330049
  H      1.035281   -0.792926   -1.922212
  H      2.046830    0.263722   -0.913564
  H      0.991904   -2.503377   -0.102281
  H      3.475392   -2.329450   -0.401423
  H      3.516724   -1.005712    0.753840
  H      2.654767   -2.612722    2.557282
  H      2.543442   -5.058234    2.048244
  H      2.959129   -4.726042    0.307637
  H      5.130516   -3.660115    1.013436
  H      4.732094   -3.980538    2.760278
  H      1.333779   -0.095558    1.769696
  H      0.027366   -1.296998    1.860366

 Total Charge           Charge          ....    0
 Multiplicity           Mult            ....    1
 Number of Electrons    NEL             ....   70
 Basis Dimension        Dim             ....  375

ORBITAL ENERGIES
----------------

  NO   OCC          E(Eh)            E(eV)
   0   2.0000     -11.224253      -305.4274
   1   2.0000     -11.221086      -305.3413
   2   2.0000     -11.218641      -305.2747
   3   2.0000     -11.218593      -305.2734
   4   2.0000     -11.217964      -305.2563
   5   2.0000     -11.215749      -305.1960
   6   2.0000     -11.211393      -305.0775
   7   2.0000     -11.211307      -305.0752
   8   2.0000     -11.208601      -305.0015
   9   2.0000      -1.144373       -31.1400
  10   2.0000      -1.124277       -30.5931
  11   2.0000      -1.004183       -27.3252
  12   2.0000      -0.942155       -25.6373
  13   2.0000      -0.891505       -24.2591
  14   2.0000      -0.820205       -22.3189
  15   2.0000      -0.810109       -22.0442
  16   2.0000      -0.763528       -20.7766
  17   2.0000      -0.738846       -20.1050
  18   2.0000      -0.664532       -18.0828
  19   2.0000      -0.647489       -17.6191
  20   2.0000      -0.616371       -16.7723
  21   2.0000      -0.591646       -16.0995
  22   2.0000      -0.576403       -15.6847
  23   2.0000      -0.564461       -15.3598
  24   2.0000      -0.532959       -14.5026
  25   2.0000      -0.530235       -14.4284
  26   2.0000      -0.509327       -13.8595
  27   2.0000      -0.505254       -13.7487
  28   2.0000      -0.493986       -13.4420
  29   2.0000      -0.450091       -12.2476
  30   2.0000      -0.444447       -12.0940
  31   2.0000      -0.427576       -11.6349
  32   2.0000      -0.421620       -11.4729
  33   2.0000      -0.405100       -11.0233
  34   2.0000      -0.391217       -10.6456
  35   0.0000       0.137274         3.7354
  36   0.0000       0.150565         4.0971
  37   0.0000       0.155796         4.2394
  38   0.0000       0.159896         4.3510
  39   0.0000       0.175562         4.7773

MULLIKEN ATOMIC CHARGES
-----------------------
   0 C :   -0.416842
   1 C :    0.030550
   2 C :   -0.260571
   3 C :   -0.008461
   4 C :   -0.279828
   5 C :   -0.066009
   6 C :   -0.278516
   7 C :   -0.255902
   8 C :   -0.308767
   9 H :    0.117432
  10 H :    0.128880
  11 H :    0.128447
  12 H :    0.091380
  13 H :    0.115992
  14 H :    0.102385
  15 H :    0.092571
  16 H :    0.115132
  17 H :    0.111064
  18 H :    0.117808
  19 H :    0.126561
  20 H :    0.123619
  21 H :    0.124247
  22 H :    0.126982
  23 H :    0.103209
  24 H :    0.118637
Sum of atomic charges:    0.0000000

LOEWDIN ATOMIC CHARGES
----------------------
   0 C :   -0.306340
   1 C :   -0.258997
   2 C :   -0.201868
   3 C :   -0.229143
   4 C :   -0.239704
   5 C :   -0.229970
   6 C :   -0.234200
   7 C :   -0.233293
   8 C :   -0.203614
   9 H :    0.120964
  10 H :    0.123174
  11 H :    0.123194
  12 H :    0.147909
  13 H :    0.122171
  14 H :    0.136086
  15 H :    0.151168
  16 H :    0.144357
  17 H :    0.141095
  18 H :    0.147866
  19 H :    0.128811
  20 H :    0.131207
  21 H :    0.131274
  22 H :    0.129236
  23 H :    0.136213
  24 H :    0.122405

  Mayer bond orders larger than 0.1
B(  0-C ,  1-C ) :   0.8759 B(  0-C ,  9-H ) :   0.9386 B(  0-C , 10-H ) :   0.9412
B(  0-C , 11-H ) :   0.9411 B(  1-C ,  2-C ) :   0.9381 B(  1-C ,  8-C ) :   0.9416
B(  1-C , 12-H ) :   0.9267 B(  2-C ,  3-C ) :   0.9353 B(  2-C , 13-H ) :   0.9289
B(  2-C , 14-H ) :   0.9126 B(  3-C ,  4-C ) :   0.8947 B(  3-C ,  8-C ) :   0.9409
B(  3-C , 15-H ) :   0.9246 B(  4-C ,  5-C ) :   0.9125 B(  4-C , 16-H ) :   0.9330
B(  4-C , 17-H ) :   0.9242 B(  5-C ,  6-C ) :   0.8901 B(  5-C ,  7-C ) :   0.8838
B(  5-C , 18-H ) :   0.9301 B(  6-C ,  7-C ) :   0.9071 B(  6-C , 19-H ) :   0.9298
B(  6-C , 20-H ) :   0.9285 B(  7-C , 21-H ) :   0.9286 B(  7-C , 22-H ) :   0.9322
B(  8-C , 23-H ) :   0.9111 B(  8-C , 24-H ) :   0.9279

MP2 TOTAL ENERGY:     -351.686667832 Eh
FINAL SINGLE POINT ENERGY      -351.686667831895

DIPOLE MOMENT
-------------
                                X             Y             Z
Electronic contribution:      0.87093      -2.36436       0.32739
Nuclear contribution   :     -0.93844       2.36717      -0.33333
                        -----------------------------------------
Total Dipole Moment    :     -0.06751       0.00280      -0.00595
                        -----------------------------------------
Magnitude (a.u.)       :      0.06783
Magnitude (Debye)      :      0.17240

                             ****ORCA TERMINATED NORMALLY****
TOTAL RUN TIME: 0 days 0 hours 19 minutes 11 seconds 259 msec
