                         Program Version 3.0.3 - RELEASE   -
|  1> ! RI-MP2 RIJK def2-TZVP def2-TZVP/C def2-TZVP/JK TIGHTSCF
|  2> % maxcore 2000
|  3> % mp2 density relaxed end
|  4> *xyz 0 1
|  5>  C       -0.0104774410     1.4977746824    -0.2679473399
|  6>  C        0.0516460790    -0.0105158106    -0.0521252609
|  7>  O        0.9156084574    -0.3738529342     1.0253763628
|  8>  C       -1.3318967041    -0.6113955829     0.1869682859
|  9>  O       -2.2316600853    -0.3912402995    -0.9271712523
| 10>  C       -2.4528090916    -1.8110173974    -1.1040591297
| 11>  C       -1.4958547980    -2.1232774025     0.0406361810
| 12>  C       -0.4495494432    -3.1917106438     0.1334858990
| 13>  C       -1.6090924841    -3.1664559210     1.1054916109
| 14>  H        0.9875645655     1.8991031488    -0.4636520024
| 15>  H       -0.6635692315     1.7317467605    -1.1129658673
| 16>  H       -0.4165471508     2.0006330413     0.6194881024
| 17>  H        0.4860307024    -0.4904823215    -0.9361405262
| 18>  H        0.6376158143     0.1230969251     1.8031666342
| 19>  H       -1.7511156499    -0.1959872274     1.1193725899
| 20>  H       -3.5037219790    -2.0819524491    -0.9372524132
| 21>  H       -2.1480663652    -2.1501422381    -2.1025985767
| 22>  H       -0.4414250489    -3.9622318251    -0.6313516342
| 23>  H        0.5267714408    -2.9018909712     0.5040159733
| 24>  H       -1.4069368731    -2.8709835747     2.1303488451
| 25>  H       -2.3854570436    -3.9183147592     1.0017911183
| 26> *
| 27>
| 28>                          ****END OF INPUT****

CARTESIAN COORDINATES (ANGSTROEM)
---------------------------------
  C     -0.010477    1.497775   -0.267947
  C      0.051646   -0.010516   -0.052125
  O      0.915608   -0.373853    1.025376
  C     -1.331897   -0.611396    0.186968
  O     -2.231660   -0.391240   -0.927171
  C     -2.452809   -1.811017   -1.104059
  C     -1.495855   -2.123277    0.040636
  C     -0.449549   -3.191711    0.133486
  C     -1.609092   -3.166456    1.105492
  H      0.987565    1.899103   -0.463652
  H     -0.663569    1.731747   -1.112966
  H     -0.416547    2.000633    0.619488
  H      0.486031   -0.490482   -0.936141
  H      0.637616    0.123097    1.803167
  H     -1.751116   -0.195987    1.119373
  H     -3.503722   -2.081952   -0.937252
  H     -2.148066   -2.150142   -2.102599
  H     -0.441425   -3.962232   -0.631352
  H      0.526771   -2.901891    0.504016
  H     -1.406937   -2.870984    2.130349
  H     -2.385457   -3.918315    1.001791

 Total Charge           Charge          ....    0
 Multiplicity           Mult            ....    1
 Number of Electrons    NEL             ....   70
 Basis Dimension        Dim             ....  351

ORBITAL ENERGIES
----------------

  NO   OCC          E(Eh)            E(eV)
   0   2.0000     -20.559922      -559.4639
   1   2.0000     -20.549836      -559.1895
   2   2.0000     -11.281868      -306.9952
   3   2.0000     -11.279453      -306.9295
   4   2.0000     -11.278732      -306.9099
   5   2.0000     -11.239599      -305.8450
   6   2.0000     -11.229129      -305.5601
   7   2.0000     -11.225765      -305.4686
   8   2.0000     -11.215948      -305.2015
   9   2.0000      -1.381802       -37.6007
  10   2.0000      -1.362146       -37.0659
  11   2.0000      -1.143219       -31.1086
  12   2.0000      -1.033533       -28.1239
  13   2.0000      -0.938064       -25.5260
  14   2.0000      -0.932290       -25.3689
  15   2.0000      -0.837029       -22.7767
  16   2.0000      -0.821211       -22.3463
  17   2.0000      -0.742415       -20.2021
  18   2.0000      -0.682802       -18.5800
  19   2.0000      -0.676425       -18.4065
  20   2.0000      -0.662200       -18.0194
  21   2.0000      -0.630871       -17.1669
  22   2.0000      -0.622929       -16.9508
  23   2.0000      -0.592291       -16.1171
  24   2.0000      -0.570447       -15.5226
  25   2.0000      -0.544988       -14.8299
  26   2.0000      -0.534206       -14.5365
  27   2.0000      -0.523718       -14.2511
  28   2.0000      -0.514825       -14.0091
  29   2.0000      -0.487114       -13.2550
  30   2.0000      -0.485849       -13.2206
  31   2.0000      -0.447856       -12.1868
  32   2.0000      -0.436381       -11.8745
  33   2.0000      -0.409870       -11.1531
  34   2.0000      -0.386580       -10.5194
  35   0.0000       0.130761         3.5582
  36   0.0000       0.154373         4.2007
  37   0.0000       0.155364         4.2277
  38   0.0000       0.168256         4.5785
  39   0.0000       0.185689         5.0529

MULLIKEN ATOMIC CHARGES
-----------------------
   0 C :   -0.392341
   1 C :    0.077854
   2 O :   -0.481172
   3 C :    0.063447
   4 O :   -0.339910
   5 C :   -0.003263
   6 C :    0.000072
   7 C :   -0.263476
   8 C :   -0.297190
   9 H :    0.146309
  10 H :    0.152805
  11 H :    0.108430
  12 H :    0.096447
  13 H :    0.312186
  14 H :    0.086559
  15 H :    0.096063
  16 H :    0.095701
  17 H :    0.127662
  18 H :    0.157320
  19 H :    0.128497
  20 H :    0.127996
Sum of atomic charges:    0.0000000

LOEWDIN ATOMIC CHARGES
----------------------
   0 C :   -0.300333
   1 C :   -0.352787
   2 O :   -0.019349
   3 C :   -0.236218
   4 O :    0.139774
   5 C :   -0.223363
   6 C :   -0.221547
   7 C :   -0.203939
   8 C :   -0.207126
   9 H :    0.126262
  10 H :    0.134937
  11 H :    0.121082
  12 H :    0.149566
  13 H :    0.173713
  14 H :    0.136686
  15 H :    0.119710
  16 H :    0.119555
  17 H :    0.132999
  18 H :    0.141408
  19 H :    0.135103
  20 H :    0.133866

  Mayer bond orders larger than 0.1
B(  0-C ,  1-C ) :   0.9421 B(  0-C ,  9-H ) :   0.9418 B(  0-C , 10-H ) :   0.9318
B(  0-C , 11-H ) :   0.9153 B(  1-C ,  2-O ) :   0.8717 B(  1-C ,  3-C ) :   0.9249
B(  1-C , 12-H ) :   0.9166 B(  2-O , 13-H ) :   0.8414 B(  3-C ,  4-O ) :   0.9483
B(  3-C ,  6-C ) :   0.9174 B(  3-C , 14-H ) :   0.8998 B(  4-O ,  5-C ) :   0.9513
B(  5-C ,  6-C ) :   0.9688 B(  5-C , 15-H ) :   0.9113 B(  5-C , 16-H ) :   0.9107
B(  6-C ,  7-C ) :   0.8529 B(  6-C ,  8-C ) :   0.8700 B(  7-C ,  8-C ) :   0.9319
B(  7-C , 17-H ) :   0.9233 B(  7-C , 18-H ) :   0.9107 B(  8-C , 19-H ) :   0.9222
B(  8-C , 20-H ) :   0.9230

MP2 TOTAL ENERGY:     -423.484295263 Eh
FINAL SINGLE POINT ENERGY      -423.484295262506

DIPOLE MOMENT
-------------
                                X             Y             Z
Electronic contribution:     -1.15021      -0.29284      -0.34627
Nuclear contribution   :      0.99352       0.14021       0.66268
                        -----------------------------------------
Total Dipole Moment    :     -0.15669      -0.15264       0.31641
                        -----------------------------------------
Magnitude (a.u.)       :      0.38466
Magnitude (Debye)      :      0.97773

                             ****ORCA TERMINATED NORMALLY****
TOTAL RUN TIME: 0 days 0 hours 19 minutes 3 seconds 497 msec
