                         Program Version 3.0.3 - RELEASE   -
|  1> ! RI-MP2 RIJK def2-TZVP def2-TZVP/C def2-TZVP/JK TIGHTSCF
|  2> % maxcore 2000
|  3> % mp2 density relaxed end
|  4> *xyz 0 1
|  5>  C        0.0370661153     1.4783371865    -0.0617153530
|  6>  C        0.0413837721    -0.0254570666    -0.0025358794
|  7>  N        0.0318277993    -0.6851645759    -1.1692236825
|  8>  C        0.0486607902    -2.0099498098    -1.1678504977
|  9>  O        0.0406744622    -2.6379811492    -2.3705803546
| 10>  C        0.0737305330    -2.7735920254    -0.0010591465
| 11>  C        0.0757544849    -2.0950306432     1.2058191146
| 12>  C        0.0598019628    -0.6962597848     1.2310867013
| 13>  N        0.1312821467     0.0169713897     2.4407631732
| 14>  H        0.8803244483     1.9007937440     0.4976734596
| 15>  H        0.0993101869     1.8041796058    -1.1005175478
| 16>  H       -0.8799059515     1.9011205185     0.3725331974
| 17>  H        0.0252676755    -1.9327264277    -3.0313599249
| 18>  H        0.0864185890    -3.8549060754    -0.0532815852
| 19>  H        0.0926264729    -2.6489944287     2.1405193720
| 20>  H       -0.1584809739    -0.5260628956     3.2429138414
| 21>  H       -0.3602072239     0.9002135678     2.4264584520
| 22> *
| 23>
| 24>                          ****END OF INPUT****

CARTESIAN COORDINATES (ANGSTROEM)
---------------------------------
  C      0.037066    1.478337   -0.061715
  C      0.041384   -0.025457   -0.002536
  N      0.031828   -0.685165   -1.169224
  C      0.048661   -2.009950   -1.167850
  O      0.040674   -2.637981   -2.370580
  C      0.073731   -2.773592   -0.001059
  C      0.075754   -2.095031    1.205819
  C      0.059802   -0.696260    1.231087
  N      0.131282    0.016971    2.440763
  H      0.880324    1.900794    0.497673
  H      0.099310    1.804180   -1.100518
  H     -0.879906    1.901121    0.372533
  H      0.025268   -1.932726   -3.031360
  H      0.086419   -3.854906   -0.053282
  H      0.092626   -2.648994    2.140519
  H     -0.158481   -0.526063    3.242914
  H     -0.360207    0.900214    2.426458

 Total Charge           Charge          ....    0
 Multiplicity           Mult            ....    1
 Number of Electrons    NEL             ....   66
 Basis Dimension        Dim             ....  327

ORBITAL ENERGIES
----------------

  NO   OCC          E(Eh)            E(eV)
   0   2.0000     -20.580348      -560.0197
   1   2.0000     -15.565065      -423.5469
   2   2.0000     -15.556103      -423.3031
   3   2.0000     -11.322634      -308.1045
   4   2.0000     -11.276103      -306.8384
   5   2.0000     -11.267786      -306.6120
   6   2.0000     -11.250880      -306.1520
   7   2.0000     -11.230273      -305.5913
   8   2.0000     -11.226315      -305.4836
   9   2.0000      -1.410124       -38.3714
  10   2.0000      -1.256570       -34.1930
  11   2.0000      -1.206914       -32.8418
  12   2.0000      -1.075660       -29.2702
  13   2.0000      -1.028728       -27.9931
  14   2.0000      -0.948518       -25.8105
  15   2.0000      -0.855735       -23.2857
  16   2.0000      -0.824183       -22.4272
  17   2.0000      -0.748469       -20.3669
  18   2.0000      -0.700464       -19.0606
  19   2.0000      -0.685246       -18.6465
  20   2.0000      -0.638232       -17.3672
  21   2.0000      -0.611322       -16.6349
  22   2.0000      -0.595335       -16.1999
  23   2.0000      -0.592545       -16.1240
  24   2.0000      -0.579344       -15.7648
  25   2.0000      -0.572036       -15.5659
  26   2.0000      -0.538778       -14.6609
  27   2.0000      -0.531659       -14.4672
  28   2.0000      -0.512956       -13.9583
  29   2.0000      -0.457768       -12.4565
  30   2.0000      -0.424846       -11.5606
  31   2.0000      -0.374263       -10.1842
  32   2.0000      -0.287243        -7.8163
  33   0.0000       0.109010         2.9663
  34   0.0000       0.126127         3.4321
  35   0.0000       0.151563         4.1242
  36   0.0000       0.158226         4.3056
  37   0.0000       0.166559         4.5323

MULLIKEN ATOMIC CHARGES
-----------------------
   0 C :   -0.482862
   1 C :    0.129305
   2 N :   -0.298657
   3 C :    0.278696
   4 O :   -0.425515
   5 C :   -0.189486
   6 C :   -0.193462
   7 C :    0.174377
   8 N :   -0.511444
   9 H :    0.157803
  10 H :    0.152634
  11 H :    0.132909
  12 H :    0.330922
  13 H :    0.136882
  14 H :    0.118164
  15 H :    0.238889
  16 H :    0.250845
Sum of atomic charges:    0.0000000

LOEWDIN ATOMIC CHARGES
----------------------
   0 C :   -0.276091
   1 C :   -0.233540
   2 N :    0.153502
   3 C :   -0.376533
   4 O :    0.065446
   5 C :   -0.129067
   6 C :   -0.125072
   7 C :   -0.223483
   8 N :   -0.076422
   9 H :    0.132896
  10 H :    0.134745
  11 H :    0.126705
  12 H :    0.192678
  13 H :    0.153240
  14 H :    0.147663
  15 H :    0.166196
  16 H :    0.167136

  Mayer bond orders larger than 0.1
B(  0-C ,  1-C ) :   0.8632 B(  0-C ,  9-H ) :   0.9346 B(  0-C , 10-H ) :   0.9417
B(  0-C , 11-H ) :   0.9302 B(  1-C ,  2-N ) :   1.4267 B(  1-C ,  7-C ) :   1.2829
B(  2-N ,  3-C ) :   1.3730 B(  3-C ,  4-O ) :   1.1060 B(  3-C ,  5-C ) :   1.3139
B(  4-O , 12-H ) :   0.8156 B(  5-C ,  6-C ) :   1.3917 B(  5-C , 13-H ) :   0.9216
B(  6-C ,  7-C ) :   1.2801 B(  6-C , 14-H ) :   0.9305 B(  7-C ,  8-N ) :   1.0099
B(  8-N , 15-H ) :   0.8817 B(  8-N , 16-H ) :   0.8714

MP2 TOTAL ENERGY:     -417.374096776 Eh
FINAL SINGLE POINT ENERGY      -417.374096776184

DIPOLE MOMENT
-------------
                                X             Y             Z
Electronic contribution:      0.20064      -5.01212      -3.37719
Nuclear contribution   :     -0.60995       5.39198       4.25738
                        -----------------------------------------
Total Dipole Moment    :     -0.40931       0.37986       0.88019
                        -----------------------------------------
Magnitude (a.u.)       :      1.04238
Magnitude (Debye)      :      2.64953

                             ****ORCA TERMINATED NORMALLY****
TOTAL RUN TIME: 0 days 0 hours 16 minutes 20 seconds 533 msec
