                         Program Version 3.0.3 - RELEASE   -
|  1> ! RI-MP2 RIJK def2-TZVP def2-TZVP/C def2-TZVP/JK TIGHTSCF
|  2> % maxcore 2000
|  3> % mp2 density relaxed end
|  4> *xyz 0 1
|  5>  N       -0.2508443377    -1.1408908791     0.0439260135
|  6>  C       -0.1096977770     0.0061853489     0.0464039999
|  7>  C        0.0165032702     1.4392833971     0.0453154447
|  8>  C        0.5255008550     2.2197707593     1.2295947336
|  9>  O        1.5057060089     1.4813108577     1.9525017204
| 10>  C        2.4118042292     1.5563773988     0.8176839057
| 11>  C        3.0160486195     0.2850378656     0.4211980443
| 12>  N        3.5535998406    -0.6825351574     0.0918050187
| 13>  C        1.3308815339     2.2096191752    -0.0456233770
| 14>  H       -0.7778162456     1.9498160348    -0.4933274093
| 15>  H       -0.0354969766     2.9813671133     1.7561211250
| 16>  H        3.2129871983     2.2691170877     1.0433150569
| 17>  H        1.5044454313     2.9588929482    -0.8043140264
| 18> *
| 19>
| 20>                          ****END OF INPUT****

CARTESIAN COORDINATES (ANGSTROEM)
---------------------------------
  N     -0.250844   -1.140891    0.043926
  C     -0.109698    0.006185    0.046404
  C      0.016503    1.439283    0.045315
  C      0.525501    2.219771    1.229595
  O      1.505706    1.481311    1.952502
  C      2.411804    1.556377    0.817684
  C      3.016049    0.285038    0.421198
  N      3.553600   -0.682535    0.091805
  C      1.330882    2.209619   -0.045623
  H     -0.777816    1.949816   -0.493327
  H     -0.035497    2.981367    1.756121
  H      3.212987    2.269117    1.043315
  H      1.504445    2.958893   -0.804314

 Total Charge           Charge          ....    0
 Multiplicity           Mult            ....    1
 Number of Electrons    NEL             ....   62
 Basis Dimension        Dim             ....  303

ORBITAL ENERGIES
----------------

  NO   OCC          E(Eh)            E(eV)
   0   2.0000     -20.617340      -561.0263
   1   2.0000     -15.591967      -424.2790
   2   2.0000     -15.581467      -423.9933
   3   2.0000     -11.374996      -309.5294
   4   2.0000     -11.353794      -308.9524
   5   2.0000     -11.319915      -308.0305
   6   2.0000     -11.309992      -307.7605
   7   2.0000     -11.287026      -307.1356
   8   2.0000     -11.284134      -307.0569
   9   2.0000      -1.460089       -39.7310
  10   2.0000      -1.234445       -33.5910
  11   2.0000      -1.231122       -33.5005
  12   2.0000      -1.182384       -32.1743
  13   2.0000      -1.047543       -28.5051
  14   2.0000      -0.944145       -25.6915
  15   2.0000      -0.842537       -22.9266
  16   2.0000      -0.780546       -21.2397
  17   2.0000      -0.766866       -20.8675
  18   2.0000      -0.737148       -20.0588
  19   2.0000      -0.643999       -17.5241
  20   2.0000      -0.639728       -17.4079
  21   2.0000      -0.597163       -16.2496
  22   2.0000      -0.580175       -15.7874
  23   2.0000      -0.567252       -15.4357
  24   2.0000      -0.558374       -15.1941
  25   2.0000      -0.516093       -14.0436
  26   2.0000      -0.496154       -13.5010
  27   2.0000      -0.483075       -13.1451
  28   2.0000      -0.471075       -12.8186
  29   2.0000      -0.453988       -12.3536
  30   2.0000      -0.428453       -11.6588
  31   0.0000       0.108908         2.9635
  32   0.0000       0.119341         3.2474
  33   0.0000       0.132494         3.6053
  34   0.0000       0.146271         3.9802
  35   0.0000       0.146963         3.9991

MULLIKEN ATOMIC CHARGES
-----------------------
   0 N :   -0.034899
   1 C :   -0.160043
   2 C :   -0.080007
   3 C :    0.089669
   4 O :   -0.294200
   5 C :    0.185860
   6 C :   -0.174686
   7 N :   -0.030417
   8 C :   -0.151393
   9 H :    0.169035
  10 H :    0.160598
  11 H :    0.150589
  12 H :    0.169893
Sum of atomic charges:    0.0000000

LOEWDIN ATOMIC CHARGES
----------------------
   0 N :    0.089173
   1 C :   -0.169553
   2 C :   -0.175403
   3 C :   -0.194680
   4 O :    0.207172
   5 C :   -0.233643
   6 C :   -0.156528
   7 N :    0.100681
   8 C :   -0.116488
   9 H :    0.185168
  10 H :    0.142179
  11 H :    0.172554
  12 H :    0.149370

  Mayer bond orders larger than 0.1
B(  0-N ,  1-C ) :   2.8202 B(  1-C ,  2-C ) :   0.9804 B(  2-C ,  3-C ) :   0.8485
B(  2-C ,  8-C ) :   0.8600 B(  2-C ,  9-H ) :   0.9024 B(  3-C ,  4-O ) :   0.9669
B(  3-C ,  8-C ) :   0.8798 B(  3-C , 10-H ) :   0.9188 B(  4-O ,  5-C ) :   0.9411
B(  5-C ,  6-C ) :   0.9478 B(  5-C ,  8-C ) :   0.9131 B(  5-C , 11-H ) :   0.8970
B(  6-C ,  7-N ) :   2.8147 B(  8-C , 12-H ) :   0.9068

MP2 TOTAL ENERGY:     -414.860913148 Eh
FINAL SINGLE POINT ENERGY      -414.860913148010

DIPOLE MOMENT
-------------
                                X             Y             Z
Electronic contribution:      0.92583      -3.48202       0.42096
Nuclear contribution   :     -1.35086       6.36318      -0.60169
                        -----------------------------------------
Total Dipole Moment    :     -0.42503       2.88116      -0.18072
                        -----------------------------------------
Magnitude (a.u.)       :      2.91795
Magnitude (Debye)      :      7.41683

                             ****ORCA TERMINATED NORMALLY****
TOTAL RUN TIME: 0 days 0 hours 13 minutes 54 seconds 351 msec
