                         Program Version 3.0.3 - RELEASE   -
|  1> ! RI-MP2 RIJK def2-TZVP def2-TZVP/C def2-TZVP/JK TIGHTSCF
|  2> % maxcore 2000
|  3> % mp2 density relaxed end
|  4> *xyz 0 1
|  5>  N        0.0512464377    -1.1097667920     0.5462493479
|  6>  C        0.0850777985     0.0264476020     0.3368905751
|  7>  C        0.0852795648     1.4390171523     0.0414972743
|  8>  N        0.7328906909     2.3309869684     1.0250451503
|  9>  C        1.3351449033     2.2008247528    -0.2974792289
| 10>  C        2.6944965159     1.5728175469    -0.3632019771
| 11>  C        3.7832120840     2.1393868950     0.4757647069
| 12>  N        3.2242023011     0.8125691230     0.7690091496
| 13>  H       -0.8341995120     1.7796961481    -0.4272666029
| 14>  H        0.2006599104     3.1906125415     1.1214629047
| 15>  H        1.1775141403     3.0106906379    -1.0094387940
| 16>  H        2.9414727989     1.1579505295    -1.3382788858
| 17>  H        4.8057307349     2.1423601707     0.1097543645
| 18>  H        3.5260742896     2.9643126605     1.1355907891
| 19>  H        2.5749784019     0.8888817233     1.5508246962
| 20> *
| 21>
| 22>                          ****END OF INPUT****

CARTESIAN COORDINATES (ANGSTROEM)
---------------------------------
  N      0.051246   -1.109767    0.546249
  C      0.085078    0.026448    0.336891
  C      0.085280    1.439017    0.041497
  N      0.732891    2.330987    1.025045
  C      1.335145    2.200825   -0.297479
  C      2.694497    1.572818   -0.363202
  C      3.783212    2.139387    0.475765
  N      3.224202    0.812569    0.769009
  H     -0.834200    1.779696   -0.427267
  H      0.200660    3.190613    1.121463
  H      1.177514    3.010691   -1.009439
  H      2.941473    1.157951   -1.338279
  H      4.805731    2.142360    0.109754
  H      3.526074    2.964313    1.135591
  H      2.574978    0.888882    1.550825

 Total Charge           Charge          ....    0
 Multiplicity           Mult            ....    1
 Number of Electrons    NEL             ....   58
 Basis Dimension        Dim             ....  290

ORBITAL ENERGIES
----------------

  NO   OCC          E(Eh)            E(eV)
   0   2.0000     -15.606375      -424.6711
   1   2.0000     -15.575544      -423.8321
   2   2.0000     -15.561359      -423.4461
   3   2.0000     -11.324874      -308.1655
   4   2.0000     -11.309126      -307.7370
   5   2.0000     -11.277212      -306.8685
   6   2.0000     -11.275043      -306.8095
   7   2.0000     -11.261923      -306.4525
   8   2.0000      -1.321268       -35.9535
   9   2.0000      -1.262850       -34.3639
  10   2.0000      -1.217954       -33.1422
  11   2.0000      -0.978752       -26.6332
  12   2.0000      -0.960609       -26.1395
  13   2.0000      -0.884184       -24.0599
  14   2.0000      -0.813887       -22.1470
  15   2.0000      -0.762410       -20.7462
  16   2.0000      -0.731206       -19.8971
  17   2.0000      -0.659409       -17.9434
  18   2.0000      -0.650535       -17.7019
  19   2.0000      -0.567490       -15.4422
  20   2.0000      -0.563984       -15.3468
  21   2.0000      -0.556304       -15.1378
  22   2.0000      -0.527192       -14.3456
  23   2.0000      -0.494661       -13.4604
  24   2.0000      -0.485311       -13.2060
  25   2.0000      -0.472007       -12.8440
  26   2.0000      -0.460311       -12.5257
  27   2.0000      -0.435052       -11.8384
  28   2.0000      -0.388819       -10.5803
  29   0.0000       0.104852         2.8532
  30   0.0000       0.137321         3.7367
  31   0.0000       0.153704         4.1825
  32   0.0000       0.170582         4.6418
  33   0.0000       0.175455         4.7744

MULLIKEN ATOMIC CHARGES
-----------------------
   0 N :   -0.047349
   1 C :   -0.175397
   2 C :    0.036870
   3 N :   -0.392955
   4 C :   -0.013750
   5 C :   -0.045423
   6 C :   -0.173385
   7 N :   -0.359785
   8 H :    0.162885
   9 H :    0.233434
  10 H :    0.140703
  11 H :    0.136462
  12 H :    0.126807
  13 H :    0.127149
  14 H :    0.243735
Sum of atomic charges:   -0.0000000

LOEWDIN ATOMIC CHARGES
----------------------
   0 N :    0.080575
   1 C :   -0.171932
   2 C :   -0.238219
   3 N :    0.032235
   4 C :   -0.233616
   5 C :   -0.271268
   6 C :   -0.257321
   7 N :    0.004780
   8 H :    0.160976
   9 H :    0.174817
  10 H :    0.148986
  11 H :    0.149051
  12 H :    0.125295
  13 H :    0.123919
  14 H :    0.171721

  Mayer bond orders larger than 0.1
B(  0-N ,  1-C ) :   2.8354 B(  1-C ,  2-C ) :   0.9425 B(  2-C ,  3-N ) :   0.9341
B(  2-C ,  4-C ) :   0.8729 B(  2-C ,  8-H ) :   0.9103 B(  3-N ,  4-C ) :   0.8528
B(  3-N ,  9-H ) :   0.8635 B(  4-C ,  5-C ) :   0.9598 B(  4-C , 10-H ) :   0.9159
B(  5-C ,  6-C ) :   0.9381 B(  5-C ,  7-N ) :   0.9561 B(  5-C , 11-H ) :   0.9120
B(  6-C ,  7-N ) :   0.9136 B(  6-C , 12-H ) :   0.9257 B(  6-C , 13-H ) :   0.9123
B(  7-N , 14-H ) :   0.8661

MP2 TOTAL ENERGY:     -358.175487935 Eh
FINAL SINGLE POINT ENERGY      -358.175487935147

DIPOLE MOMENT
-------------
                                X             Y             Z
Electronic contribution:     -3.89938      -3.97328       0.44895
Nuclear contribution   :      3.47753       6.22461      -1.10238
                        -----------------------------------------
Total Dipole Moment    :     -0.42186       2.25133      -0.65343
                        -----------------------------------------
Magnitude (a.u.)       :      2.38189
Magnitude (Debye)      :      6.05429

                             ****ORCA TERMINATED NORMALLY****
TOTAL RUN TIME: 0 days 0 hours 11 minutes 5 seconds 333 msec
