                         Program Version 3.0.3 - RELEASE   -
|  1> ! RI-MP2 RIJK def2-TZVP def2-TZVP/C def2-TZVP/JK TIGHTSCF
|  2> % maxcore 2000
|  3> % mp2 density relaxed end
|  4> *xyz 0 1
|  5>  C       -0.2258533857     1.5124406716     0.0538456257
|  6>  C       -0.0236731357     0.0340696195    -0.0284845494
|  7>  C       -0.0106099379    -0.8097057916    -1.1258664116
|  8>  C        0.2234398162    -2.0910887303    -0.5966028498
|  9>  N        0.3481393349    -2.0611287475     0.7271718865
| 10>  N        0.1952100647    -0.7601576211     1.0574068741
| 11>  C        0.2718458821    -0.3582132438     2.4339976540
| 12>  C       -0.2616697769    -1.2648285891     3.5088075683
| 13>  C        1.2277522260    -1.0531166010     3.3641298148
| 14>  H        0.6405219074     2.0263796767     0.4863132545
| 15>  H       -0.3812446946     1.9150716049    -0.9492470403
| 16>  H       -1.1018454153     1.7786484865     0.6567795229
| 17>  H       -0.1515673292    -0.5248519461    -2.1562548067
| 18>  H        0.3067314683    -3.0333565336    -1.1183441264
| 19>  H        0.1309322873     0.7089110299     2.5436686957
| 20>  H       -0.7808729790    -0.8115794248     4.3459182370
| 21>  H       -0.6526076033    -2.2179257122     3.1743684861
| 22>  H        1.7964100746    -1.8697342793     2.9365619835
| 23>  H        1.7496398763    -0.4517085587     4.1001407210
| 24> *
| 25>
| 26>                          ****END OF INPUT****

CARTESIAN COORDINATES (ANGSTROEM)
---------------------------------
  C     -0.225853    1.512441    0.053846
  C     -0.023673    0.034070   -0.028485
  C     -0.010610   -0.809706   -1.125866
  C      0.223440   -2.091089   -0.596603
  N      0.348139   -2.061129    0.727172
  N      0.195210   -0.760158    1.057407
  C      0.271846   -0.358213    2.433998
  C     -0.261670   -1.264829    3.508808
  C      1.227752   -1.053117    3.364130
  H      0.640522    2.026380    0.486313
  H     -0.381245    1.915072   -0.949247
  H     -1.101845    1.778648    0.656780
  H     -0.151567   -0.524852   -2.156255
  H      0.306731   -3.033357   -1.118344
  H      0.130932    0.708911    2.543669
  H     -0.780873   -0.811579    4.345918
  H     -0.652608   -2.217926    3.174368
  H      1.796410   -1.869734    2.936562
  H      1.749640   -0.451709    4.100141

 Total Charge           Charge          ....    0
 Multiplicity           Mult            ....    1
 Number of Electrons    NEL             ....   66
 Basis Dimension        Dim             ....  339

ORBITAL ENERGIES
----------------

  NO   OCC          E(Eh)            E(eV)
   0   2.0000     -15.630856      -425.3372
   1   2.0000     -15.570941      -423.7068
   2   2.0000     -11.276900      -306.8600
   3   2.0000     -11.274413      -306.7924
   4   2.0000     -11.243071      -305.9395
   5   2.0000     -11.242091      -305.9128
   6   2.0000     -11.228191      -305.5346
   7   2.0000     -11.227538      -305.5168
   8   2.0000     -11.206793      -304.9523
   9   2.0000      -1.370684       -37.2982
  10   2.0000      -1.164295       -31.6821
  11   2.0000      -1.097015       -29.8513
  12   2.0000      -1.048863       -28.5410
  13   2.0000      -0.959539       -26.1104
  14   2.0000      -0.861229       -23.4352
  15   2.0000      -0.828427       -22.5426
  16   2.0000      -0.798848       -21.7378
  17   2.0000      -0.737706       -20.0740
  18   2.0000      -0.692775       -18.8514
  19   2.0000      -0.657424       -17.8894
  20   2.0000      -0.628062       -17.0904
  21   2.0000      -0.616939       -16.7878
  22   2.0000      -0.593229       -16.1426
  23   2.0000      -0.567443       -15.4409
  24   2.0000      -0.564527       -15.3616
  25   2.0000      -0.547563       -14.8999
  26   2.0000      -0.528980       -14.3943
  27   2.0000      -0.517611       -14.0849
  28   2.0000      -0.452696       -12.3185
  29   2.0000      -0.448525       -12.2050
  30   2.0000      -0.432934       -11.7807
  31   2.0000      -0.331556        -9.0221
  32   2.0000      -0.327041        -8.8992
  33   0.0000       0.132720         3.6115
  34   0.0000       0.151846         4.1319
  35   0.0000       0.165793         4.5115
  36   0.0000       0.178769         4.8646
  37   0.0000       0.181233         4.9316

MULLIKEN ATOMIC CHARGES
-----------------------
   0 C :   -0.467128
   1 C :    0.033646
   2 C :   -0.189796
   3 C :   -0.114311
   4 N :   -0.278861
   5 N :    0.157408
   6 C :   -0.079319
   7 C :   -0.258163
   8 C :   -0.258146
   9 H :    0.152601
  10 H :    0.153310
  11 H :    0.152595
  12 H :    0.135569
  13 H :    0.132267
  14 H :    0.142881
  15 H :    0.133705
  16 H :    0.159019
  17 H :    0.159030
  18 H :    0.133692
Sum of atomic charges:   -0.0000000

LOEWDIN ATOMIC CHARGES
----------------------
   0 C :   -0.278506
   1 C :   -0.242390
   2 C :   -0.191171
   3 C :   -0.279177
   4 N :    0.047579
   5 N :    0.236104
   6 C :   -0.231524
   7 C :   -0.218555
   8 C :   -0.218550
   9 H :    0.131749
  10 H :    0.138771
  11 H :    0.131741
  12 H :    0.140447
  13 H :    0.132192
  14 H :    0.152006
  15 H :    0.131365
  16 H :    0.143277
  17 H :    0.143268
  18 H :    0.131374

  Mayer bond orders larger than 0.1
B(  0-C ,  1-C ) :   0.8504 B(  0-C ,  9-H ) :   0.9387 B(  0-C , 10-H ) :   0.9403
B(  0-C , 11-H ) :   0.9387 B(  1-C ,  2-C ) :   1.4118 B(  1-C ,  4-N ) :   0.1044
B(  1-C ,  5-N ) :   1.2288 B(  2-C ,  3-C ) :   1.3004 B(  2-C , 12-H ) :   0.9206
B(  3-C ,  4-N ) :   1.4700 B(  3-C , 13-H ) :   0.9377 B(  4-N ,  5-N ) :   0.9924
B(  5-N ,  6-C ) :   0.9078 B(  6-C ,  7-C ) :   0.8686 B(  6-C ,  8-C ) :   0.8686
B(  6-C , 14-H ) :   0.9234 B(  7-C ,  8-C ) :   0.9032 B(  7-C , 15-H ) :   0.9246
B(  7-C , 16-H ) :   0.9255 B(  8-C , 17-H ) :   0.9255 B(  8-C , 18-H ) :   0.9246

MP2 TOTAL ENERGY:     -381.399385826 Eh
FINAL SINGLE POINT ENERGY      -381.399385825655

DIPOLE MOMENT
-------------
                                X             Y             Z
Electronic contribution:      0.24036      -3.65204      -2.87476
Nuclear contribution   :     -0.35209       4.60991       3.12751
                        -----------------------------------------
Total Dipole Moment    :     -0.11173       0.95787       0.25276
                        -----------------------------------------
Magnitude (a.u.)       :      0.99693
Magnitude (Debye)      :      2.53400

                             ****ORCA TERMINATED NORMALLY****
TOTAL RUN TIME: 0 days 0 hours 18 minutes 39 seconds 145 msec
