                         Program Version 3.0.3 - RELEASE   -
|  1> ! RI-MP2 RIJK def2-TZVP def2-TZVP/C def2-TZVP/JK TIGHTSCF
|  2> % maxcore 2000
|  3> % mp2 density relaxed end
|  4> *xyz 0 1
|  5>  C       -0.0101491136     1.4449611982     0.0191188245
|  6>  N       -0.0044889119    -0.0003844423     0.0236999837
|  7>  C        0.0066031443    -0.7959261363    -1.0997370100
|  8>  N        0.0411093850    -0.2007977677    -2.3821719234
|  9>  C        0.0526283274    -2.1126609427    -0.6922409562
| 10>  C        0.0533753112    -2.1148844596     0.7322811165
| 11>  N        0.0472977311    -3.2459203285     1.5922597702
| 12>  C       -0.0050353787    -0.8032765289     1.1566999005
| 13>  C       -0.0767886073    -0.2591796935     2.5425952239
| 14>  H        0.7342614975     1.8334121285     0.7208341526
| 15>  H        0.2392636091     1.7818129256    -0.9880722523
| 16>  H       -0.9895612842     1.8543449804     0.2976813659
| 17>  H        0.5056913719    -0.8122618360    -3.0424869345
| 18>  H       -0.8884036451    -0.0109310354    -2.7477903971
| 19>  H        0.0737943359    -2.9754138951    -1.3425231738
| 20>  H       -0.0186191477    -4.1030902279     1.0569678928
| 21>  H        0.8927212980    -3.3042683286     2.1498703734
| 22>  H        0.8539690403     0.2212252218     2.8771522948
| 23>  H       -0.8775807100     0.4822512398     2.6582587068
| 24>  H       -0.2886949931    -1.0821665520     3.2309316419
| 25> *
| 26>
| 27>                          ****END OF INPUT****

CARTESIAN COORDINATES (ANGSTROEM)
---------------------------------
  C     -0.010149    1.444961    0.019119
  N     -0.004489   -0.000384    0.023700
  C      0.006603   -0.795926   -1.099737
  N      0.041109   -0.200798   -2.382172
  C      0.052628   -2.112661   -0.692241
  C      0.053375   -2.114884    0.732281
  N      0.047298   -3.245920    1.592260
  C     -0.005035   -0.803277    1.156700
  C     -0.076789   -0.259180    2.542595
  H      0.734261    1.833412    0.720834
  H      0.239264    1.781813   -0.988072
  H     -0.989561    1.854345    0.297681
  H      0.505691   -0.812262   -3.042487
  H     -0.888404   -0.010931   -2.747790
  H      0.073794   -2.975414   -1.342523
  H     -0.018619   -4.103090    1.056968
  H      0.892721   -3.304268    2.149870
  H      0.853969    0.221225    2.877152
  H     -0.877581    0.482251    2.658259
  H     -0.288695   -1.082167    3.230932

 Total Charge           Charge          ....    0
 Multiplicity           Mult            ....    1
 Number of Electrons    NEL             ....   68
 Basis Dimension        Dim             ....  345

ORBITAL ENERGIES
----------------

  NO   OCC          E(Eh)            E(eV)
   0   2.0000     -15.585373      -424.0996
   1   2.0000     -15.558804      -423.3766
   2   2.0000     -15.539401      -422.8486
   3   2.0000     -11.275231      -306.8146
   4   2.0000     -11.254969      -306.2633
   5   2.0000     -11.228695      -305.5483
   6   2.0000     -11.225838      -305.4706
   7   2.0000     -11.215857      -305.1990
   8   2.0000     -11.189801      -304.4900
   9   2.0000      -1.295329       -35.2477
  10   2.0000      -1.186715       -32.2922
  11   2.0000      -1.172326       -31.9006
  12   2.0000      -1.044290       -28.4166
  13   2.0000      -1.002494       -27.2792
  14   2.0000      -0.911421       -24.8010
  15   2.0000      -0.880398       -23.9568
  16   2.0000      -0.769961       -20.9517
  17   2.0000      -0.721658       -19.6373
  18   2.0000      -0.682040       -18.5592
  19   2.0000      -0.661428       -17.9984
  20   2.0000      -0.645032       -17.5522
  21   2.0000      -0.623019       -16.9532
  22   2.0000      -0.603526       -16.4228
  23   2.0000      -0.584837       -15.9142
  24   2.0000      -0.566926       -15.4268
  25   2.0000      -0.554685       -15.0937
  26   2.0000      -0.542061       -14.7502
  27   2.0000      -0.524116       -14.2619
  28   2.0000      -0.506863       -13.7924
  29   2.0000      -0.494205       -13.4480
  30   2.0000      -0.453868       -12.3504
  31   2.0000      -0.412970       -11.2375
  32   2.0000      -0.309325        -8.4172
  33   2.0000      -0.256798        -6.9878
  34   0.0000       0.128072         3.4850
  35   0.0000       0.144705         3.9376
  36   0.0000       0.153194         4.1686
  37   0.0000       0.176701         4.8083
  38   0.0000       0.187395         5.0993

MULLIKEN ATOMIC CHARGES
-----------------------
   0 C :   -0.357885
   1 N :   -0.005272
   2 C :    0.179987
   3 N :   -0.584034
   4 C :   -0.350058
   5 C :    0.203521
   6 N :   -0.561620
   7 C :   -0.047313
   8 C :   -0.477087
   9 H :    0.142296
  10 H :    0.180948
  11 H :    0.141472
  12 H :    0.251563
  13 H :    0.250483
  14 H :    0.110120
  15 H :    0.236817
  16 H :    0.249267
  17 H :    0.139942
  18 H :    0.134930
  19 H :    0.161923
Sum of atomic charges:   -0.0000000

LOEWDIN ATOMIC CHARGES
----------------------
   0 C :   -0.278801
   1 N :    0.256231
   2 C :   -0.322052
   3 N :   -0.118893
   4 C :   -0.193103
   5 C :   -0.266390
   6 N :   -0.117948
   7 C :   -0.227522
   8 C :   -0.286340
   9 H :    0.123059
  10 H :    0.132085
  11 H :    0.117707
  12 H :    0.167827
  13 H :    0.164159
  14 H :    0.133523
  15 H :    0.161709
  16 H :    0.162194
  17 H :    0.124493
  18 H :    0.128273
  19 H :    0.139790

  Mayer bond orders larger than 0.1
B(  0-C ,  1-N ) :   0.8632 B(  0-C ,  9-H ) :   0.9308 B(  0-C , 10-H ) :   0.9241
B(  0-C , 11-H ) :   0.9284 B(  1-N ,  2-C ) :   1.1299 B(  1-N ,  7-C ) :   1.1449
B(  2-C ,  3-N ) :   0.9752 B(  2-C ,  4-C ) :   1.4573 B(  3-N , 12-H ) :   0.8911
B(  3-N , 13-H ) :   0.8763 B(  4-C ,  5-C ) :   1.2825 B(  4-C , 14-H ) :   0.9157
B(  5-C ,  6-N ) :   0.8941 B(  5-C ,  7-C ) :   1.4704 B(  6-N , 15-H ) :   0.8955
B(  6-N , 16-H ) :   0.8761 B(  7-C ,  8-C ) :   0.8539 B(  8-C , 17-H ) :   0.9390
B(  8-C , 18-H ) :   0.9394 B(  8-C , 19-H ) :   0.9454

MP2 TOTAL ENERGY:     -398.666181986 Eh
FINAL SINGLE POINT ENERGY      -398.666181985961

DIPOLE MOMENT
-------------
                                X             Y             Z
Electronic contribution:      0.06243      -3.11934      -2.83002
Nuclear contribution   :      0.08542       3.34307       2.40930
                        -----------------------------------------
Total Dipole Moment    :      0.14785       0.22372      -0.42072
                        -----------------------------------------
Magnitude (a.u.)       :      0.49891
Magnitude (Debye)      :      1.26814

                             ****ORCA TERMINATED NORMALLY****
TOTAL RUN TIME: 0 days 0 hours 19 minutes 47 seconds 858 msec
