                         Program Version 3.0.3 - RELEASE   -
|  1> ! RI-MP2 RIJK def2-TZVP def2-TZVP/C def2-TZVP/JK TIGHTSCF
|  2> % maxcore 2000
|  3> % mp2 density relaxed end
|  4> *xyz 0 1
|  5>  O       -0.1413857389     1.5158158752    -0.3005753603
|  6>  C        0.0221406109     0.1663935029     0.1106158618
|  7>  C       -1.3517574833    -0.4766494874     0.0465301077
|  8>  C       -1.8643693519    -0.7697401770    -1.3779502504
|  9>  O       -1.7265789847    -2.1947580872    -1.1800393066
| 10>  C       -1.4508114964    -2.0155441864     0.2232463993
| 11>  C       -0.2342434625    -2.8181188294     0.6981888259
| 12>  C       -0.4850244402    -4.2538414856     0.7078935520
| 13>  C       -0.7100871121    -5.4339614542     0.7222617242
| 14>  H        0.7256844981     1.9305138084    -0.3322030000
| 15>  H        0.7224158569    -0.3657461952    -0.5519985437
| 16>  H        0.4240950752     0.1060465992     1.1349977800
| 17>  H       -2.0360966163     0.0963463270     0.6760577327
| 18>  H       -2.9065746417    -0.4822823495    -1.5636037251
| 19>  H       -1.2399198000    -0.4033226651    -2.2003092544
| 20>  H       -2.3196652994    -2.3084055778     0.8291405832
| 21>  H        0.6228510736    -2.5976668074     0.0521630712
| 22>  H        0.0299565400    -2.4844351866     1.7108853151
| 23>  H       -0.9036859973    -6.4777789341     0.7256609873
| 24> *
| 25>
| 26>                          ****END OF INPUT****

CARTESIAN COORDINATES (ANGSTROEM)
---------------------------------
  O     -0.141386    1.515816   -0.300575
  C      0.022141    0.166394    0.110616
  C     -1.351757   -0.476649    0.046530
  C     -1.864369   -0.769740   -1.377950
  O     -1.726579   -2.194758   -1.180039
  C     -1.450811   -2.015544    0.223246
  C     -0.234243   -2.818119    0.698189
  C     -0.485024   -4.253841    0.707894
  C     -0.710087   -5.433961    0.722262
  H      0.725684    1.930514   -0.332203
  H      0.722416   -0.365746   -0.551999
  H      0.424095    0.106047    1.134998
  H     -2.036097    0.096346    0.676058
  H     -2.906575   -0.482282   -1.563604
  H     -1.239920   -0.403323   -2.200309
  H     -2.319665   -2.308406    0.829141
  H      0.622851   -2.597667    0.052163
  H      0.029957   -2.484435    1.710885
  H     -0.903686   -6.477779    0.725661

 Total Charge           Charge          ....    0
 Multiplicity           Mult            ....    1
 Number of Electrons    NEL             ....   68
 Basis Dimension        Dim             ....  339

ORBITAL ENERGIES
----------------

  NO   OCC          E(Eh)            E(eV)
   0   2.0000     -20.568098      -559.6864
   1   2.0000     -20.548020      -559.1400
   2   2.0000     -11.293936      -307.3236
   3   2.0000     -11.289791      -307.2108
   4   2.0000     -11.276829      -306.8581
   5   2.0000     -11.257511      -306.3324
   6   2.0000     -11.238985      -305.8283
   7   2.0000     -11.231912      -305.6359
   8   2.0000     -11.218422      -305.2688
   9   2.0000      -1.382647       -37.6237
  10   2.0000      -1.371005       -37.3069
  11   2.0000      -1.082402       -29.4537
  12   2.0000      -1.047548       -28.5052
  13   2.0000      -0.985229       -26.8095
  14   2.0000      -0.908495       -24.7214
  15   2.0000      -0.886206       -24.1149
  16   2.0000      -0.752339       -20.4722
  17   2.0000      -0.725604       -19.7447
  18   2.0000      -0.713394       -19.4125
  19   2.0000      -0.693367       -18.8675
  20   2.0000      -0.653312       -17.7775
  21   2.0000      -0.640981       -17.4420
  22   2.0000      -0.626938       -17.0599
  23   2.0000      -0.613941       -16.7062
  24   2.0000      -0.570936       -15.5360
  25   2.0000      -0.561396       -15.2764
  26   2.0000      -0.545769       -14.8511
  27   2.0000      -0.503594       -13.7035
  28   2.0000      -0.479314       -13.0428
  29   2.0000      -0.468468       -12.7477
  30   2.0000      -0.445469       -12.1218
  31   2.0000      -0.418463       -11.3870
  32   2.0000      -0.384472       -10.4620
  33   2.0000      -0.380429       -10.3520
  34   0.0000       0.124930         3.3995
  35   0.0000       0.139837         3.8052
  36   0.0000       0.157458         4.2847
  37   0.0000       0.168960         4.5976
  38   0.0000       0.172033         4.6813

MULLIKEN ATOMIC CHARGES
-----------------------
   0 O :   -0.461730
   1 C :   -0.141214
   2 C :    0.019100
   3 C :   -0.043680
   4 O :   -0.314795
   5 C :    0.028844
   6 C :   -0.387981
   7 C :   -0.011580
   8 C :   -0.098210
   9 H :    0.319087
  10 H :    0.111206
  11 H :    0.100248
  12 H :    0.119189
  13 H :    0.096333
  14 H :    0.107372
  15 H :    0.089223
  16 H :    0.135610
  17 H :    0.142350
  18 H :    0.190628
Sum of atomic charges:   -0.0000000

LOEWDIN ATOMIC CHARGES
----------------------
   0 O :   -0.041497
   1 C :   -0.335517
   2 C :   -0.221946
   3 C :   -0.243673
   4 O :    0.141317
   5 C :   -0.250317
   6 C :   -0.233926
   7 C :   -0.107565
   8 C :   -0.099861
   9 H :    0.174055
  10 H :    0.120644
  11 H :    0.118133
  12 H :    0.149968
  13 H :    0.118773
  14 H :    0.121720
  15 H :    0.142504
  16 H :    0.158934
  17 H :    0.161950
  18 H :    0.126303

  Mayer bond orders larger than 0.1
B(  0-O ,  1-C ) :   1.0354 B(  0-O ,  9-H ) :   0.8467 B(  1-C ,  2-C ) :   0.9037
B(  1-C , 10-H ) :   0.9272 B(  1-C , 11-H ) :   0.9313 B(  2-C ,  3-C ) :   0.9567
B(  2-C ,  5-C ) :   0.9014 B(  2-C , 12-H ) :   0.9200 B(  3-C ,  4-O ) :   0.9415
B(  3-C , 13-H ) :   0.9161 B(  3-C , 14-H ) :   0.9076 B(  4-O ,  5-C ) :   0.9895
B(  5-C ,  6-C ) :   0.9079 B(  5-C , 15-H ) :   0.9243 B(  6-C ,  7-C ) :   1.1509
B(  6-C ,  8-C ) :  -0.1248 B(  6-C , 16-H ) :   0.9200 B(  6-C , 17-H ) :   0.9217
B(  7-C ,  8-C ) :   2.6063 B(  8-C , 18-H ) :   0.8942

MP2 TOTAL ENERGY:     -422.251256758 Eh
FINAL SINGLE POINT ENERGY      -422.251256758304

DIPOLE MOMENT
-------------
                                X             Y             Z
Electronic contribution:     -1.05426      -2.96407      -0.63468
Nuclear contribution   :      1.70645       3.57254       1.14697
                        -----------------------------------------
Total Dipole Moment    :      0.65219       0.60847       0.51230
                        -----------------------------------------
Magnitude (a.u.)       :      1.02861
Magnitude (Debye)      :      2.61451

                             ****ORCA TERMINATED NORMALLY****
TOTAL RUN TIME: 0 days 0 hours 17 minutes 5 seconds 2 msec
