                         Program Version 3.0.3 - RELEASE   -
|  1> ! RI-MP2 RIJK def2-TZVP def2-TZVP/C def2-TZVP/JK TIGHTSCF
|  2> % maxcore 2000
|  3> % mp2 density relaxed end
|  4> *xyz 0 1
|  5>  O       -0.0613272810    -0.0658303921     0.0039096572
|  6>  C        0.0065238906     1.1393527706     0.0090543146
|  7>  N       -1.1777639266     1.9104673923     0.0292184672
|  8>  N       -1.2789768539     3.2328881649     0.0373483373
|  9>  C       -0.1530152341     3.8834566961     0.0252374491
| 10>  C        1.1051385994     3.1793016628     0.0043860241
| 11>  N        1.1881599551     1.8754896186    -0.0033708073
| 12>  C        2.3062143020     3.9545380156    -0.0080560014
| 13>  C        3.2884000807     4.6489737338    -0.0179156643
| 14>  H       -2.0517231709     1.4004425508     0.0386060238
| 15>  H       -0.2009837591     4.9645172743     0.0314273436
| 16>  H        4.1697549579     5.2431462724    -0.0268832239
| 17> *
| 18>
| 19>                          ****END OF INPUT****

CARTESIAN COORDINATES (ANGSTROEM)
---------------------------------
  O     -0.061327   -0.065830    0.003910
  C      0.006524    1.139353    0.009054
  N     -1.177764    1.910467    0.029218
  N     -1.278977    3.232888    0.037348
  C     -0.153015    3.883457    0.025237
  C      1.105139    3.179302    0.004386
  N      1.188160    1.875490   -0.003371
  C      2.306214    3.954538   -0.008056
  C      3.288400    4.648974   -0.017916
  H     -2.051723    1.400443    0.038606
  H     -0.200984    4.964517    0.031427
  H      4.169755    5.243146   -0.026883

 Total Charge           Charge          ....    0
 Multiplicity           Mult            ....    1
 Number of Electrons    NEL             ....   62
 Basis Dimension        Dim             ....  297

ORBITAL ENERGIES
----------------

  NO   OCC          E(Eh)            E(eV)
   0   2.0000     -20.533201      -558.7368
   1   2.0000     -15.677843      -426.6158
   2   2.0000     -15.665724      -426.2860
   3   2.0000     -15.604019      -424.6069
   4   2.0000     -11.398480      -310.1684
   5   2.0000     -11.365943      -309.2830
   6   2.0000     -11.307681      -307.6976
   7   2.0000     -11.280162      -306.9488
   8   2.0000     -11.272939      -306.7523
   9   2.0000      -1.438974       -39.1565
  10   2.0000      -1.377098       -37.4727
  11   2.0000      -1.273460       -34.6526
  12   2.0000      -1.158859       -31.5341
  13   2.0000      -1.082286       -29.4505
  14   2.0000      -0.979109       -26.6429
  15   2.0000      -0.929484       -25.2926
  16   2.0000      -0.795769       -21.6540
  17   2.0000      -0.785026       -21.3617
  18   2.0000      -0.779673       -21.2160
  19   2.0000      -0.723047       -19.6751
  20   2.0000      -0.665529       -18.1100
  21   2.0000      -0.654515       -17.8103
  22   2.0000      -0.630002       -17.1432
  23   2.0000      -0.556279       -15.1371
  24   2.0000      -0.542237       -14.7550
  25   2.0000      -0.529895       -14.4192
  26   2.0000      -0.487270       -13.2593
  27   2.0000      -0.440281       -11.9807
  28   2.0000      -0.437135       -11.8951
  29   2.0000      -0.417423       -11.3587
  30   2.0000      -0.377155       -10.2629
  31   0.0000       0.019973         0.5435
  32   0.0000       0.112729         3.0675
  33   0.0000       0.133859         3.6425
  34   0.0000       0.144045         3.9197
  35   0.0000       0.153455         4.1757

MULLIKEN ATOMIC CHARGES
-----------------------
   0 O :   -0.312083
   1 C :    0.253941
   2 N :   -0.135725
   3 N :   -0.118743
   4 C :   -0.112693
   5 C :   -0.026020
   6 N :   -0.199276
   7 C :    0.059875
   8 C :   -0.053436
   9 H :    0.272419
  10 H :    0.162177
  11 H :    0.209565
Sum of atomic charges:   -0.0000000

LOEWDIN ATOMIC CHARGES
----------------------
   0 O :    0.105385
   1 C :   -0.517895
   2 N :    0.125448
   3 N :    0.084428
   4 C :   -0.202275
   5 C :   -0.221513
   6 N :    0.212248
   7 C :   -0.048891
   8 C :   -0.028001
   9 H :    0.202247
  10 H :    0.153935
  11 H :    0.134885

  Mayer bond orders larger than 0.1
B(  0-O ,  1-C ) :   1.9957 B(  1-C ,  2-N ) :   1.0342 B(  1-C ,  6-N ) :   1.1218
B(  2-N ,  3-N ) :   1.0411 B(  2-N ,  9-H ) :   0.8585 B(  3-N ,  4-C ) :   1.6150
B(  4-C ,  5-C ) :   1.1291 B(  4-C , 10-H ) :   0.9233 B(  5-C ,  6-N ) :   1.6261
B(  5-C ,  7-C ) :   1.1363 B(  5-C ,  8-C ) :  -0.1715 B(  7-C ,  8-C ) :   2.6001
B(  8-C , 11-H ) :   0.8689

MP2 TOTAL ENERGY:     -430.918215583 Eh
FINAL SINGLE POINT ENERGY      -430.918215582818

DIPOLE MOMENT
-------------
                                X             Y             Z
Electronic contribution:     -0.52633      -1.94225      -0.00284
Nuclear contribution   :      0.33614       3.62399       0.01401
                        -----------------------------------------
Total Dipole Moment    :     -0.19019       1.68174       0.01116
                        -----------------------------------------
Magnitude (a.u.)       :      1.69250
Magnitude (Debye)      :      4.30199

                             ****ORCA TERMINATED NORMALLY****
TOTAL RUN TIME: 0 days 0 hours 14 minutes 59 seconds 746 msec
