                         Program Version 3.0.3 - RELEASE   -
|  1> ! RI-MP2 RIJK def2-TZVP def2-TZVP/C def2-TZVP/JK TIGHTSCF
|  2> % maxcore 2000
|  3> % mp2 density relaxed end
|  4> *xyz 0 1
|  5>  N       -0.0302798242     1.4635595553    -0.0454289340
|  6>  C       -0.0128483123     0.0639436150    -0.0139634759
|  7>  C       -1.0394154560    -0.8294832070     0.0030012085
|  8>  O       -0.5650484868    -2.0879487748     0.1332963520
|  9>  N        0.8114966191    -2.0395401773     0.1906960180
| 10>  C        1.1445588422    -0.7701764476     0.1184729808
| 11>  C        2.5631578404    -0.3582646774     0.1787397161
| 12>  C        3.4214375442    -0.8359581892     1.3048702602
| 13>  N        3.6206527170    -1.3539273954    -0.0506595736
| 14>  H        0.7150583415     1.8538512815    -0.6084636817
| 15>  H       -0.9142949757     1.8394984793    -0.3625783422
| 16>  H       -2.1113857303    -0.7305863492    -0.0582548469
| 17>  H        2.7754243760     0.6202536923    -0.2458780936
| 18>  H        4.2180787195    -0.1987213236     1.6789256210
| 19>  H        2.9439866678    -1.4730826472     2.0434273931
| 20>  H        3.1812702976    -2.2691807947    -0.1339344118
| 21> *
| 22>
| 23>                          ****END OF INPUT****

CARTESIAN COORDINATES (ANGSTROEM)
---------------------------------
  N     -0.030280    1.463560   -0.045429
  C     -0.012848    0.063944   -0.013963
  C     -1.039415   -0.829483    0.003001
  O     -0.565048   -2.087949    0.133296
  N      0.811497   -2.039540    0.190696
  C      1.144559   -0.770176    0.118473
  C      2.563158   -0.358265    0.178740
  C      3.421438   -0.835958    1.304870
  N      3.620653   -1.353927   -0.050660
  H      0.715058    1.853851   -0.608464
  H     -0.914295    1.839498   -0.362578
  H     -2.111386   -0.730586   -0.058255
  H      2.775424    0.620254   -0.245878
  H      4.218079   -0.198721    1.678926
  H      2.943987   -1.473083    2.043427
  H      3.181270   -2.269181   -0.133934

 Total Charge           Charge          ....    0
 Multiplicity           Mult            ....    1
 Number of Electrons    NEL             ....   66
 Basis Dimension        Dim             ....  321

ORBITAL ENERGIES
----------------

  NO   OCC          E(Eh)            E(eV)
   0   2.0000     -20.640773      -561.6640
   1   2.0000     -15.620648      -425.0594
   2   2.0000     -15.583076      -424.0370
   3   2.0000     -15.565719      -423.5647
   4   2.0000     -11.301048      -307.5171
   5   2.0000     -11.288382      -307.1725
   6   2.0000     -11.282941      -307.0244
   7   2.0000     -11.279328      -306.9261
   8   2.0000     -11.265962      -306.5624
   9   2.0000      -1.492483       -40.6125
  10   2.0000      -1.277284       -34.7567
  11   2.0000      -1.232559       -33.5396
  12   2.0000      -1.157836       -31.5063
  13   2.0000      -1.045349       -28.4454
  14   2.0000      -0.928238       -25.2586
  15   2.0000      -0.877171       -23.8690
  16   2.0000      -0.829660       -22.5762
  17   2.0000      -0.782285       -21.2871
  18   2.0000      -0.740426       -20.1480
  19   2.0000      -0.692065       -18.8320
  20   2.0000      -0.672456       -18.2985
  21   2.0000      -0.658952       -17.9310
  22   2.0000      -0.647682       -17.6243
  23   2.0000      -0.623370       -16.9628
  24   2.0000      -0.572413       -15.5762
  25   2.0000      -0.540227       -14.7003
  26   2.0000      -0.518980       -14.1222
  27   2.0000      -0.498950       -13.5771
  28   2.0000      -0.490603       -13.3500
  29   2.0000      -0.476998       -12.9798
  30   2.0000      -0.437336       -11.9005
  31   2.0000      -0.371654       -10.1132
  32   2.0000      -0.333108        -9.0643
  33   0.0000       0.114025         3.1028
  34   0.0000       0.118626         3.2280
  35   0.0000       0.157313         4.2807
  36   0.0000       0.172292         4.6883
  37   0.0000       0.182765         4.9733

MULLIKEN ATOMIC CHARGES
-----------------------
   0 N :   -0.528108
   1 C :    0.032726
   2 C :   -0.055097
   3 O :   -0.115578
   4 N :   -0.160892
   5 C :    0.107257
   6 C :   -0.057106
   7 C :   -0.153219
   8 N :   -0.360962
   9 H :    0.253740
  10 H :    0.247636
  11 H :    0.156427
  12 H :    0.123786
  13 H :    0.125912
  14 H :    0.141927
  15 H :    0.241550
Sum of atomic charges:    0.0000000

LOEWDIN ATOMIC CHARGES
----------------------
   0 N :   -0.083448
   1 C :   -0.266872
   2 C :   -0.259819
   3 O :    0.269376
   4 N :    0.043008
   5 C :   -0.255622
   6 C :   -0.245767
   7 C :   -0.248197
   8 N :    0.000892
   9 H :    0.170191
  10 H :    0.170759
  11 H :    0.135782
  12 H :    0.145306
  13 H :    0.124504
  14 H :    0.127910
  15 H :    0.171997

  Mayer bond orders larger than 0.1
B(  0-N ,  1-C ) :   1.0168 B(  0-N ,  9-H ) :   0.8723 B(  0-N , 10-H ) :   0.8780
B(  1-C ,  2-C ) :   1.5122 B(  1-C ,  5-C ) :   1.1764 B(  2-C ,  3-O ) :   1.0821
B(  2-C ,  4-N ) :   0.1077 B(  2-C , 11-H ) :   0.9256 B(  3-O ,  4-N ) :   0.9029
B(  4-N ,  5-C ) :   1.4957 B(  5-C ,  6-C ) :   0.9505 B(  6-C ,  7-C ) :   0.9432
B(  6-C ,  8-N ) :   0.9748 B(  6-C , 12-H ) :   0.8897 B(  7-C ,  8-N ) :   0.9042
B(  7-C , 13-H ) :   0.9269 B(  7-C , 14-H ) :   0.9128 B(  8-N , 15-H ) :   0.8730

MP2 TOTAL ENERGY:     -433.297378555 Eh
FINAL SINGLE POINT ENERGY      -433.297378555325

DIPOLE MOMENT
-------------
                                X             Y             Z
Electronic contribution:     -3.72859      -3.33421      -1.01129
Nuclear contribution   :      2.95771       4.55781       0.85964
                        -----------------------------------------
Total Dipole Moment    :     -0.77088       1.22360      -0.15164
                        -----------------------------------------
Magnitude (a.u.)       :      1.45412
Magnitude (Debye)      :      3.69607

                             ****ORCA TERMINATED NORMALLY****
TOTAL RUN TIME: 0 days 0 hours 16 minutes 5 seconds 856 msec
