                         Program Version 3.0.3 - RELEASE   -
|  1> ! RI-MP2 RIJK def2-TZVP def2-TZVP/C def2-TZVP/JK TIGHTSCF
|  2> % maxcore 2000
|  3> % mp2 density relaxed end
|  4> *xyz 0 1
|  5>  C       -1.8427840665     0.2826435011     1.7617964235
|  6>  C       -0.9138298888    -0.6468140983     1.0125309705
|  7>  C       -0.0425299998    -0.1177110473    -0.0964285447
|  8>  C        0.5950867497    -0.6006941581     1.1893066918
|  9>  C        1.3084658720     0.3247802600     2.1570115808
| 10>  C        1.6789918163     1.7043504003     1.6360243057
| 11>  C        0.9750460472     0.2352032611     3.6373312802
| 12>  C        2.2972971687    -0.2889535597     3.1394069403
| 13>  C        2.6118332212    -1.7676034155     3.1918046886
| 14>  H       -1.3874537101     1.2634254999     1.9256405259
| 15>  H       -2.7718716873     0.4369519631     1.2014315681
| 16>  H       -2.1114706688    -0.1207962344     2.7441355992
| 17>  H       -1.3243553710    -1.6415504255     0.8546973249
| 18>  H        0.0965612506    -0.7112866551    -0.9938800706
| 19>  H       -0.0742472555     0.9510283337    -0.2802297352
| 20>  H        1.0708827458    -1.5718269935     1.0903457029
| 21>  H        0.7953654394     2.3040399963     1.3895139550
| 22>  H        2.2469038767     2.2623803621     2.3873562421
| 23>  H        2.2932182080     1.6358562949     0.7313120586
| 24>  H        0.9519444092     1.1516593442     4.2188135883
| 25>  H        0.2355584376    -0.5001576486     3.9380025457
| 26>  H        3.1589661133     0.3408008363     3.3497846456
| 27>  H        1.7144859913    -2.3821244131     3.0744602359
| 28>  H        3.3226033771    -2.0604271792     2.4098837874
| 29>  H        3.0583718335    -2.0286141549     4.1577428497
| 30> *
| 31>
| 32>                          ****END OF INPUT****

CARTESIAN COORDINATES (ANGSTROEM)
---------------------------------
  C     -1.842784    0.282644    1.761796
  C     -0.913830   -0.646814    1.012531
  C     -0.042530   -0.117711   -0.096429
  C      0.595087   -0.600694    1.189307
  C      1.308466    0.324780    2.157012
  C      1.678992    1.704350    1.636024
  C      0.975046    0.235203    3.637331
  C      2.297297   -0.288954    3.139407
  C      2.611833   -1.767603    3.191805
  H     -1.387454    1.263425    1.925641
  H     -2.771872    0.436952    1.201432
  H     -2.111471   -0.120796    2.744136
  H     -1.324355   -1.641550    0.854697
  H      0.096561   -0.711287   -0.993880
  H     -0.074247    0.951028   -0.280230
  H      1.070883   -1.571827    1.090346
  H      0.795365    2.304040    1.389514
  H      2.246904    2.262380    2.387356
  H      2.293218    1.635856    0.731312
  H      0.951944    1.151659    4.218814
  H      0.235558   -0.500158    3.938003
  H      3.158966    0.340801    3.349785
  H      1.714486   -2.382124    3.074460
  H      3.322603   -2.060427    2.409884
  H      3.058372   -2.028614    4.157743

 Total Charge           Charge          ....    0
 Multiplicity           Mult            ....    1
 Number of Electrons    NEL             ....   70
 Basis Dimension        Dim             ....  375

ORBITAL ENERGIES
----------------

  NO   OCC          E(Eh)            E(eV)
   0   2.0000     -11.232319      -305.6469
   1   2.0000     -11.223742      -305.4135
   2   2.0000     -11.223045      -305.3946
   3   2.0000     -11.222893      -305.3904
   4   2.0000     -11.215029      -305.1765
   5   2.0000     -11.213228      -305.1274
   6   2.0000     -11.212358      -305.1038
   7   2.0000     -11.211518      -305.0809
   8   2.0000     -11.211312      -305.0753
   9   2.0000      -1.164794       -31.6957
  10   2.0000      -1.118369       -30.4324
  11   2.0000      -0.983013       -26.7492
  12   2.0000      -0.957813       -26.0634
  13   2.0000      -0.930126       -25.3100
  14   2.0000      -0.844476       -22.9794
  15   2.0000      -0.787596       -21.4316
  16   2.0000      -0.779369       -21.2077
  17   2.0000      -0.702862       -19.1259
  18   2.0000      -0.667062       -18.1517
  19   2.0000      -0.638861       -17.3843
  20   2.0000      -0.616814       -16.7844
  21   2.0000      -0.569873       -15.5070
  22   2.0000      -0.564052       -15.3486
  23   2.0000      -0.559666       -15.2293
  24   2.0000      -0.552747       -15.0410
  25   2.0000      -0.536773       -14.6063
  26   2.0000      -0.533847       -14.5267
  27   2.0000      -0.529871       -14.4185
  28   2.0000      -0.494252       -13.4493
  29   2.0000      -0.487119       -13.2552
  30   2.0000      -0.468278       -12.7425
  31   2.0000      -0.424780       -11.5589
  32   2.0000      -0.417364       -11.3571
  33   2.0000      -0.378916       -10.3108
  34   2.0000      -0.358784        -9.7630
  35   0.0000       0.138728         3.7750
  36   0.0000       0.152955         4.1621
  37   0.0000       0.156797         4.2667
  38   0.0000       0.171124         4.6565
  39   0.0000       0.186731         5.0812

MULLIKEN ATOMIC CHARGES
-----------------------
   0 C :   -0.400307
   1 C :   -0.065185
   2 C :   -0.289400
   3 C :   -0.153776
   4 C :    0.152187
   5 C :   -0.428110
   6 C :   -0.320093
   7 C :   -0.100671
   8 C :   -0.432408
   9 H :    0.128113
  10 H :    0.135754
  11 H :    0.123826
  12 H :    0.108916
  13 H :    0.128152
  14 H :    0.126553
  15 H :    0.125261
  16 H :    0.124446
  17 H :    0.126887
  18 H :    0.142440
  19 H :    0.126299
  20 H :    0.125136
  21 H :    0.110693
  22 H :    0.134944
  23 H :    0.132600
  24 H :    0.137744
Sum of atomic charges:    0.0000000

LOEWDIN ATOMIC CHARGES
----------------------
   0 C :   -0.294071
   1 C :   -0.232040
   2 C :   -0.206524
   3 C :   -0.165860
   4 C :   -0.231592
   5 C :   -0.267625
   6 C :   -0.191115
   7 C :   -0.216955
   8 C :   -0.299166
   9 H :    0.127487
  10 H :    0.124871
  11 H :    0.123181
  12 H :    0.144252
  13 H :    0.128921
  14 H :    0.134989
  15 H :    0.154337
  16 H :    0.120217
  17 H :    0.127246
  18 H :    0.127966
  19 H :    0.130947
  20 H :    0.136387
  21 H :    0.147718
  22 H :    0.125610
  23 H :    0.124252
  24 H :    0.126565

  Mayer bond orders larger than 0.1
B(  0-C ,  1-C ) :   0.9113 B(  0-C ,  9-H ) :   0.9371 B(  0-C , 10-H ) :   0.9369
B(  0-C , 11-H ) :   0.9405 B(  1-C ,  2-C ) :   0.9076 B(  1-C ,  3-C ) :   0.8600
B(  1-C , 12-H ) :   0.9321 B(  2-C ,  3-C ) :   0.8887 B(  2-C , 13-H ) :   0.9291
B(  2-C , 14-H ) :   0.9244 B(  3-C ,  4-C ) :   0.8786 B(  3-C , 15-H ) :   0.9331
B(  4-C ,  5-C ) :   0.9058 B(  4-C ,  6-C ) :   0.8511 B(  4-C ,  7-C ) :   0.8608
B(  5-C , 16-H ) :   0.9375 B(  5-C , 17-H ) :   0.9281 B(  5-C , 18-H ) :   0.9435
B(  6-C ,  7-C ) :   0.9133 B(  6-C , 19-H ) :   0.9261 B(  6-C , 20-H ) :   0.9249
B(  7-C ,  8-C ) :   0.9043 B(  7-C , 21-H ) :   0.9308 B(  8-C , 22-H ) :   0.9385
B(  8-C , 23-H ) :   0.9405 B(  8-C , 24-H ) :   0.9365

MP2 TOTAL ENERGY:     -351.684163736 Eh
FINAL SINGLE POINT ENERGY      -351.684163735972

DIPOLE MOMENT
-------------
                                X             Y             Z
Electronic contribution:      0.49774      -0.76271      -0.69583
Nuclear contribution   :     -0.47187       0.72213       0.70123
                        -----------------------------------------
Total Dipole Moment    :      0.02587      -0.04058       0.00540
                        -----------------------------------------
Magnitude (a.u.)       :      0.04843
Magnitude (Debye)      :      0.12309

                             ****ORCA TERMINATED NORMALLY****
TOTAL RUN TIME: 0 days 0 hours 22 minutes 10 seconds 928 msec
