                         Program Version 3.0.3 - RELEASE   -
|  1> ! RI-MP2 RIJK def2-TZVP def2-TZVP/C def2-TZVP/JK TIGHTSCF
|  2> % maxcore 2000
|  3> % mp2 density relaxed end
|  4> *xyz 0 1
|  5>  C        0.0342001065     1.5749065963     0.0215420663
|  6>  C        0.0013405860     0.0465428928    -0.0141776044
|  7>  C        0.7126615575    -0.5170689086    -1.2442277030
|  8>  N        0.6924048830    -1.9650367544    -1.1786181144
|  9>  C        0.8771508139    -2.7022321739    -0.0254268177
| 10>  O        1.0938264327    -3.9041633592    -0.0743157761
| 11>  N        0.7479897353    -2.0058723140     1.1611837657
| 12>  C        1.0256821079    -2.7027230707     2.4015500632
| 13>  C        0.6458084892    -0.5571711614     1.2351201620
| 14>  H        1.0638937732     1.9493654082     0.0476156569
| 15>  H       -0.4536006194     1.9992391951    -0.8616018253
| 16>  H       -0.4832966219     1.9603413012     0.9056437775
| 17>  H       -1.0409213265    -0.2938480595    -0.0531236546
| 18>  H        0.2025116897    -0.1974770865    -2.1596338689
| 19>  H        1.7396189066    -0.1153821687    -1.2903227536
| 20>  H        0.9245337401    -2.4943366265    -2.0036105395
| 21>  H        1.0862892882    -3.7681824652     2.1865127362
| 22>  H        1.9755744619    -2.3721575477     2.8466726972
| 23>  H        0.2268447317    -2.5182711090     3.1303855501
| 24>  H        1.6404567830    -0.1036861476     1.3936777981
| 25>  H        0.0469701514    -0.3017343408     2.1187656642
| 26> *
| 27>
| 28>                          ****END OF INPUT****

CARTESIAN COORDINATES (ANGSTROEM)
---------------------------------
  C      0.034200    1.574907    0.021542
  C      0.001341    0.046543   -0.014178
  C      0.712662   -0.517069   -1.244228
  N      0.692405   -1.965037   -1.178618
  C      0.877151   -2.702232   -0.025427
  O      1.093826   -3.904163   -0.074316
  N      0.747990   -2.005872    1.161184
  C      1.025682   -2.702723    2.401550
  C      0.645808   -0.557171    1.235120
  H      1.063894    1.949365    0.047616
  H     -0.453601    1.999239   -0.861602
  H     -0.483297    1.960341    0.905644
  H     -1.040921   -0.293848   -0.053124
  H      0.202512   -0.197477   -2.159634
  H      1.739619   -0.115382   -1.290323
  H      0.924534   -2.494337   -2.003611
  H      1.086289   -3.768182    2.186513
  H      1.975574   -2.372158    2.846673
  H      0.226845   -2.518271    3.130386
  H      1.640457   -0.103686    1.393678
  H      0.046970   -0.301734    2.118766

 Total Charge           Charge          ....    0
 Multiplicity           Mult            ....    1
 Number of Electrons    NEL             ....   70
 Basis Dimension        Dim             ....  351

ORBITAL ENERGIES
----------------

  NO   OCC          E(Eh)            E(eV)
   0   2.0000     -20.491826      -557.6109
   1   2.0000     -15.574440      -423.8021
   2   2.0000     -15.569176      -423.6588
   3   2.0000     -11.362178      -309.1806
   4   2.0000     -11.272717      -306.7462
   5   2.0000     -11.271234      -306.7059
   6   2.0000     -11.247188      -306.0515
   7   2.0000     -11.245511      -306.0059
   8   2.0000     -11.231593      -305.6272
   9   2.0000      -1.378979       -37.5239
  10   2.0000      -1.253433       -34.1077
  11   2.0000      -1.207033       -32.8450
  12   2.0000      -1.087786       -29.6002
  13   2.0000      -0.962897       -26.2018
  14   2.0000      -0.943781       -25.6816
  15   2.0000      -0.914768       -24.8921
  16   2.0000      -0.822435       -22.3796
  17   2.0000      -0.741418       -20.1750
  18   2.0000      -0.698568       -19.0090
  19   2.0000      -0.684736       -18.6326
  20   2.0000      -0.659040       -17.9334
  21   2.0000      -0.627805       -17.0835
  22   2.0000      -0.609328       -16.5807
  23   2.0000      -0.604951       -16.4615
  24   2.0000      -0.588304       -16.0086
  25   2.0000      -0.568788       -15.4775
  26   2.0000      -0.550559       -14.9815
  27   2.0000      -0.547557       -14.8998
  28   2.0000      -0.535063       -14.5598
  29   2.0000      -0.500835       -13.6284
  30   2.0000      -0.487334       -13.2610
  31   2.0000      -0.480084       -13.0638
  32   2.0000      -0.423512       -11.5243
  33   2.0000      -0.387439       -10.5428
  34   2.0000      -0.367619       -10.0034
  35   0.0000       0.121626         3.3096
  36   0.0000       0.150461         4.0942
  37   0.0000       0.151962         4.1351
  38   0.0000       0.160393         4.3645
  39   0.0000       0.183081         4.9819

MULLIKEN ATOMIC CHARGES
-----------------------
   0 C :   -0.407230
   1 C :   -0.053366
   2 C :   -0.110096
   3 N :   -0.345976
   4 C :    0.299057
   5 O :   -0.418134
   6 N :   -0.114998
   7 C :   -0.322580
   8 C :   -0.180185
   9 H :    0.129726
  10 H :    0.140635
  11 H :    0.139488
  12 H :    0.097766
  13 H :    0.127170
  14 H :    0.106555
  15 H :    0.242864
  16 H :    0.186005
  17 H :    0.120953
  18 H :    0.127351
  19 H :    0.108193
  20 H :    0.126800
Sum of atomic charges:    0.0000000

LOEWDIN ATOMIC CHARGES
----------------------
   0 C :   -0.288010
   1 C :   -0.281943
   2 C :   -0.266972
   3 N :    0.088158
   4 C :   -0.530691
   5 O :    0.033996
   6 N :    0.152182
   7 C :   -0.294512
   8 C :   -0.241912
   9 H :    0.125508
  10 H :    0.127200
  11 H :    0.127410
  12 H :    0.158586
  13 H :    0.136375
  14 H :    0.128965
  15 H :    0.189566
  16 H :    0.136696
  17 H :    0.112757
  18 H :    0.114784
  19 H :    0.132367
  20 H :    0.139489

  Mayer bond orders larger than 0.1
B(  0-C ,  1-C ) :   0.9176 B(  0-C ,  9-H ) :   0.9264 B(  0-C , 10-H ) :   0.9399
B(  0-C , 11-H ) :   0.9397 B(  1-C ,  2-C ) :   0.9373 B(  1-C ,  8-C ) :   0.9389
B(  1-C , 12-H ) :   0.9234 B(  2-C ,  3-N ) :   0.9043 B(  2-C , 13-H ) :   0.9244
B(  2-C , 14-H ) :   0.9276 B(  3-N ,  4-C ) :   1.1217 B(  3-N , 15-H ) :   0.8682
B(  4-C ,  5-O ) :   1.9080 B(  4-C ,  6-N ) :   1.1254 B(  6-N ,  7-C ) :   0.8846
B(  6-N ,  8-C ) :   0.9111 B(  7-C , 16-H ) :   0.9206 B(  7-C , 17-H ) :   0.9307
B(  7-C , 18-H ) :   0.9356 B(  8-C , 19-H ) :   0.9159 B(  8-C , 20-H ) :   0.9250

MP2 TOTAL ENERGY:     -419.760212012 Eh
FINAL SINGLE POINT ENERGY      -419.760212011956

DIPOLE MOMENT
-------------
                                X             Y             Z
Electronic contribution:      0.77486      -8.43577      -2.87366
Nuclear contribution   :     -0.89310      10.13823       2.93263
                        -----------------------------------------
Total Dipole Moment    :     -0.11823       1.70247       0.05898
                        -----------------------------------------
Magnitude (a.u.)       :      1.70759
Magnitude (Debye)      :      4.34034

                             ****ORCA TERMINATED NORMALLY****
TOTAL RUN TIME: 0 days 0 hours 19 minutes 5 seconds 265 msec
