                         Program Version 3.0.3 - RELEASE   -
|  1> ! RI-MP2 RIJK def2-TZVP def2-TZVP/C def2-TZVP/JK TIGHTSCF
|  2> % maxcore 2000
|  3> % mp2 density relaxed end
|  4> *xyz 0 1
|  5>  N       -0.1258145125    -1.1262627351    -0.1900456441
|  6>  C       -0.0449697994     0.0107835477    -0.0041399192
|  7>  C        0.0707339089     1.4478895161     0.2595933234
|  8>  N        1.2732654216     2.0000397984    -0.3504587270
|  9>  C        1.4367416041     3.4220498231    -0.1217409592
| 10>  C        1.7049669577     4.0339804241     1.3155547005
| 11>  C        2.9658335160     4.6981642793     0.7535309540
| 12>  C        3.9068249187     3.6445149015     0.2533453620
| 13>  C        2.7400254797     4.0424335230    -0.6142161363
| 14>  H       -0.8048105135     1.9481582738    -0.1740466283
| 15>  H        0.0028687074     1.5959834484     1.3526523756
| 16>  H        2.0910679749     1.4894554323    -0.0346912437
| 17>  H        0.5749167091     3.9287045808    -0.5697618572
| 18>  H        0.9269018328     4.7343136943     1.6266054938
| 19>  H        1.8766393944     3.3163494589     2.1262861196
| 20>  H        3.2902825432     5.7085155493     0.9666500292
| 21>  H        4.8695189514     3.9974809660    -0.1015865702
| 22>  H        3.9535699754     2.6732989591     0.7425585672
| 23>  H        2.8931902003     4.4471402890    -1.6070696901
| 24> *
| 25>
| 26>                          ****END OF INPUT****

CARTESIAN COORDINATES (ANGSTROEM)
---------------------------------
  N     -0.125815   -1.126263   -0.190046
  C     -0.044970    0.010784   -0.004140
  C      0.070734    1.447890    0.259593
  N      1.273265    2.000040   -0.350459
  C      1.436742    3.422050   -0.121741
  C      1.704967    4.033980    1.315555
  C      2.965834    4.698164    0.753531
  C      3.906825    3.644515    0.253345
  C      2.740025    4.042434   -0.614216
  H     -0.804811    1.948158   -0.174047
  H      0.002869    1.595983    1.352652
  H      2.091068    1.489455   -0.034691
  H      0.574917    3.928705   -0.569762
  H      0.926902    4.734314    1.626605
  H      1.876639    3.316349    2.126286
  H      3.290283    5.708516    0.966650
  H      4.869519    3.997481   -0.101587
  H      3.953570    2.673299    0.742559
  H      2.893190    4.447140   -1.607070

 Total Charge           Charge          ....    0
 Multiplicity           Mult            ....    1
 Number of Electrons    NEL             ....   66
 Basis Dimension        Dim             ....  339

ORBITAL ENERGIES
----------------

  NO   OCC          E(Eh)            E(eV)
   0   2.0000     -15.570899      -423.7057
   1   2.0000     -15.569883      -423.6781
   2   2.0000     -11.311308      -307.7963
   3   2.0000     -11.277126      -306.8662
   4   2.0000     -11.273145      -306.7579
   5   2.0000     -11.245609      -306.0086
   6   2.0000     -11.243320      -305.9463
   7   2.0000     -11.240589      -305.8720
   8   2.0000     -11.238482      -305.8146
   9   2.0000      -1.253539       -34.1105
  10   2.0000      -1.216326       -33.0979
  11   2.0000      -1.182208       -32.1695
  12   2.0000      -1.011319       -27.5194
  13   2.0000      -0.969034       -26.3688
  14   2.0000      -0.888610       -24.1803
  15   2.0000      -0.809478       -22.0270
  16   2.0000      -0.765857       -20.8400
  17   2.0000      -0.718958       -19.5638
  18   2.0000      -0.697046       -18.9676
  19   2.0000      -0.666819       -18.1451
  20   2.0000      -0.642267       -17.4770
  21   2.0000      -0.621568       -16.9137
  22   2.0000      -0.593832       -16.1590
  23   2.0000      -0.557542       -15.1715
  24   2.0000      -0.554925       -15.1003
  25   2.0000      -0.541077       -14.7234
  26   2.0000      -0.513983       -13.9862
  27   2.0000      -0.490931       -13.3589
  28   2.0000      -0.463548       -12.6138
  29   2.0000      -0.460283       -12.5249
  30   2.0000      -0.424623       -11.5546
  31   2.0000      -0.403529       -10.9806
  32   2.0000      -0.382216       -10.4006
  33   0.0000       0.120906         3.2900
  34   0.0000       0.141248         3.8435
  35   0.0000       0.152474         4.1490
  36   0.0000       0.154643         4.2080
  37   0.0000       0.172988         4.7072

MULLIKEN ATOMIC CHARGES
-----------------------
   0 N :   -0.057841
   1 C :   -0.158458
   2 C :   -0.057648
   3 N :   -0.287409
   4 C :   -0.106799
   5 C :   -0.226968
   6 C :   -0.096318
   7 C :   -0.292674
   8 C :   -0.090853
   9 H :    0.149586
  10 H :    0.141923
  11 H :    0.206073
  12 H :    0.106712
  13 H :    0.125766
  14 H :    0.112826
  15 H :    0.136714
  16 H :    0.136412
  17 H :    0.124846
  18 H :    0.134111
Sum of atomic charges:   -0.0000000

LOEWDIN ATOMIC CHARGES
----------------------
   0 N :    0.061937
   1 C :   -0.188468
   2 C :   -0.290003
   3 N :    0.016650
   4 C :   -0.268230
   5 C :   -0.207005
   6 C :   -0.183537
   7 C :   -0.209903
   8 C :   -0.164326
   9 H :    0.158319
  10 H :    0.143626
  11 H :    0.177276
  12 H :    0.150329
  13 H :    0.133294
  14 H :    0.128187
  15 H :    0.135302
  16 H :    0.142322
  17 H :    0.127015
  18 H :    0.137216

  Mayer bond orders larger than 0.1
B(  0-N ,  1-C ) :   2.8686 B(  1-C ,  2-C ) :   0.9277 B(  2-C ,  3-N ) :   0.9705
B(  2-C ,  9-H ) :   0.8974 B(  2-C , 10-H ) :   0.9083 B(  3-N ,  4-C ) :   0.9922
B(  3-N , 11-H ) :   0.8696 B(  4-C ,  5-C ) :   0.9384 B(  4-C ,  8-C ) :   0.9179
B(  4-C , 12-H ) :   0.9202 B(  5-C ,  6-C ) :   0.9541 B(  5-C , 13-H ) :   0.9274
B(  5-C , 14-H ) :   0.9154 B(  6-C ,  7-C ) :   0.8935 B(  6-C ,  8-C ) :   0.8112
B(  6-C , 15-H ) :   0.9279 B(  7-C ,  8-C ) :   0.8763 B(  7-C , 16-H ) :   0.9331
B(  7-C , 17-H ) :   0.9214 B(  8-C , 18-H ) :   0.9320

MP2 TOTAL ENERGY:     -381.359025129 Eh
FINAL SINGLE POINT ENERGY      -381.359025129184

DIPOLE MOMENT
-------------
                                X             Y             Z
Electronic contribution:     -3.56273      -6.82644      -2.03379
Nuclear contribution   :      3.90216       8.51978       2.60286
                        -----------------------------------------
Total Dipole Moment    :      0.33942       1.69334       0.56907
                        -----------------------------------------
Magnitude (a.u.)       :      1.81836
Magnitude (Debye)      :      4.62191

                             ****ORCA TERMINATED NORMALLY****
TOTAL RUN TIME: 0 days 0 hours 17 minutes 6 seconds 513 msec
