                         Program Version 3.0.3 - RELEASE   -
|  1> ! RI-MP2 RIJK def2-TZVP def2-TZVP/C def2-TZVP/JK TIGHTSCF
|  2> % maxcore 2000
|  3> % mp2 density relaxed end
|  4> *xyz 0 1
|  5>  C        0.0837117240     1.5227285086    -0.2441968778
|  6>  C        0.0056636297     0.0138647375     0.0520843391
|  7>  C       -1.3961210991    -0.4977322360     0.1726488871
|  8>  C       -2.1760724858    -0.8075749396     1.2662109844
|  9>  C       -3.4303477917    -1.2077055098     0.7342579187
| 10>  N       -3.4290261655    -1.1502771122    -0.6046447429
| 11>  N       -2.1945876346    -0.7187521615    -0.9085055795
| 12>  C       -4.5750177749    -1.6280296324     1.4581411382
| 13>  C       -5.5259290834    -1.9792269905     2.1066530373
| 14>  H        1.1255474128     1.8482776305    -0.3185457259
| 15>  H       -0.4148986152     1.7692908966    -1.1869020138
| 16>  H       -0.4016035870     2.0996183154     0.5481435515
| 17>  H        0.5350442363    -0.5414688629    -0.7327698170
| 18>  H        0.5301394738    -0.2046083986     0.9870569617
| 19>  H       -1.8920119450    -0.7602333465     2.3045526009
| 20>  H       -1.9521835879    -0.6061375747    -1.8791312610
| 21>  H       -6.3713109665    -2.2910812740     2.6679510490
| 22> *
| 23>
| 24>                          ****END OF INPUT****

CARTESIAN COORDINATES (ANGSTROEM)
---------------------------------
  C      0.083712    1.522729   -0.244197
  C      0.005664    0.013865    0.052084
  C     -1.396121   -0.497732    0.172649
  C     -2.176072   -0.807575    1.266211
  C     -3.430348   -1.207706    0.734258
  N     -3.429026   -1.150277   -0.604645
  N     -2.194588   -0.718752   -0.908506
  C     -4.575018   -1.628030    1.458141
  C     -5.525929   -1.979227    2.106653
  H      1.125547    1.848278   -0.318546
  H     -0.414899    1.769291   -1.186902
  H     -0.401604    2.099618    0.548144
  H      0.535044   -0.541469   -0.732770
  H      0.530139   -0.204608    0.987057
  H     -1.892012   -0.760233    2.304553
  H     -1.952184   -0.606138   -1.879131
  H     -6.371311   -2.291081    2.667951

 Total Charge           Charge          ....    0
 Multiplicity           Mult            ....    1
 Number of Electrons    NEL             ....   64
 Basis Dimension        Dim             ....  327

ORBITAL ENERGIES
----------------

  NO   OCC          E(Eh)            E(eV)
   0   2.0000     -15.640340      -425.5953
   1   2.0000     -15.593002      -424.3072
   2   2.0000     -11.284620      -307.0701
   3   2.0000     -11.276752      -306.8560
   4   2.0000     -11.254664      -306.2550
   5   2.0000     -11.234928      -305.7179
   6   2.0000     -11.234465      -305.7053
   7   2.0000     -11.225873      -305.4715
   8   2.0000     -11.223547      -305.4082
   9   2.0000      -1.379966       -37.5508
  10   2.0000      -1.128249       -30.7012
  11   2.0000      -1.087809       -29.6008
  12   2.0000      -1.020868       -27.7792
  13   2.0000      -1.016348       -27.6562
  14   2.0000      -0.884699       -24.0739
  15   2.0000      -0.856755       -23.3135
  16   2.0000      -0.807768       -21.9805
  17   2.0000      -0.715516       -19.4702
  18   2.0000      -0.705176       -19.1888
  19   2.0000      -0.644619       -17.5410
  20   2.0000      -0.629369       -17.1260
  21   2.0000      -0.626208       -17.0400
  22   2.0000      -0.598463       -16.2850
  23   2.0000      -0.587934       -15.9985
  24   2.0000      -0.538930       -14.6650
  25   2.0000      -0.524918       -14.2838
  26   2.0000      -0.511323       -13.9138
  27   2.0000      -0.464686       -12.6448
  28   2.0000      -0.444548       -12.0968
  29   2.0000      -0.394201       -10.7268
  30   2.0000      -0.346373        -9.4253
  31   2.0000      -0.330135        -8.9834
  32   0.0000       0.114963         3.1283
  33   0.0000       0.126496         3.4421
  34   0.0000       0.153865         4.1869
  35   0.0000       0.165380         4.5002
  36   0.0000       0.166818         4.5394

MULLIKEN ATOMIC CHARGES
-----------------------
   0 C :   -0.372975
   1 C :   -0.291415
   2 C :    0.114285
   3 C :   -0.217831
   4 C :   -0.068251
   5 N :   -0.221802
   6 N :   -0.119234
   7 C :    0.043987
   8 C :   -0.124233
   9 H :    0.134825
  10 H :    0.120031
  11 H :    0.139512
  12 H :    0.131097
  13 H :    0.138494
  14 H :    0.147052
  15 H :    0.255429
  16 H :    0.191031
Sum of atomic charges:   -0.0000000

LOEWDIN ATOMIC CHARGES
----------------------
   0 C :   -0.306722
   1 C :   -0.258007
   2 C :   -0.234847
   3 C :   -0.129839
   4 C :   -0.273491
   5 N :    0.064748
   6 N :    0.156352
   7 C :   -0.069660
   8 C :   -0.079578
   9 H :    0.122337
  10 H :    0.119514
  11 H :    0.125985
  12 H :    0.145282
  13 H :    0.151776
  14 H :    0.147908
  15 H :    0.191427
  16 H :    0.126815

  Mayer bond orders larger than 0.1
B(  0-C ,  1-C ) :   0.9181 B(  0-C ,  9-H ) :   0.9349 B(  0-C , 10-H ) :   0.9372
B(  0-C , 11-H ) :   0.9357 B(  1-C ,  2-C ) :   0.8700 B(  1-C , 12-H ) :   0.9442
B(  1-C , 13-H ) :   0.9473 B(  2-C ,  3-C ) :   1.4305 B(  2-C ,  5-N ) :   0.1162
B(  2-C ,  6-N ) :   1.1959 B(  3-C ,  4-C ) :   1.2457 B(  3-C , 14-H ) :   0.9179
B(  4-C ,  5-N ) :   1.4938 B(  4-C ,  7-C ) :   1.1995 B(  4-C ,  8-C ) :  -0.1656
B(  5-N ,  6-N ) :   1.0910 B(  6-N , 15-H ) :   0.8696 B(  7-C ,  8-C ) :   2.6137
B(  8-C , 16-H ) :   0.8718

MP2 TOTAL ENERGY:     -380.180914382 Eh
FINAL SINGLE POINT ENERGY      -380.180914382028

DIPOLE MOMENT
-------------
                                X             Y             Z
Electronic contribution:     -8.67725      -5.74093       0.58533
Nuclear contribution   :      9.94313       6.22100      -0.75753
                        -----------------------------------------
Total Dipole Moment    :      1.26589       0.48007      -0.17220
                        -----------------------------------------
Magnitude (a.u.)       :      1.36477
Magnitude (Debye)      :      3.46896

                             ****ORCA TERMINATED NORMALLY****
TOTAL RUN TIME: 0 days 0 hours 17 minutes 13 seconds 574 msec
