                         Program Version 3.0.3 - RELEASE   -
|  1> ! RI-MP2 RIJK def2-TZVP def2-TZVP/C def2-TZVP/JK TIGHTSCF
|  2> % maxcore 2000
|  3> % mp2 density relaxed end
|  4> *xyz 0 1
|  5>  C        0.0397770730     1.5498436031    -0.0199987340
|  6>  C        0.1269921164     0.0242497255     0.0409056955
|  7>  C        0.7121739541    -0.5250744868     1.3498706008
|  8>  C        0.9382711318    -2.0792236944     1.3290395221
|  9>  N        2.3903448723    -2.2534660811     1.4230663408
| 10>  C        2.8795180456    -1.0933101849     1.5301575166
| 11>  O        2.0619981821    -0.0062062005     1.5272014708
| 12>  C       -0.0852830094    -0.1017214255     2.5106272807
| 13>  N       -0.7442702173     0.2033816311     3.4092668270
| 14>  H        1.0271623189     2.0009830629     0.1064950576
| 15>  H       -0.3610099418     1.8681233470    -0.9860846690
| 16>  H       -0.6166302231     1.9408482838     0.7631801806
| 17>  H       -0.8644808798    -0.4250272598    -0.0908732602
| 18>  H        0.7604493098    -0.3583806100    -0.7676755916
| 19>  H        0.4427011657    -2.5821750102     2.1634444301
| 20>  H        0.5598547952    -2.5163995473     0.3996799942
| 21>  H        3.9320493864    -0.8534099329     1.6272159480
| 22> *
| 23>
| 24>                          ****END OF INPUT****

CARTESIAN COORDINATES (ANGSTROEM)
---------------------------------
  C      0.039777    1.549844   -0.019999
  C      0.126992    0.024250    0.040906
  C      0.712174   -0.525074    1.349871
  C      0.938271   -2.079224    1.329040
  N      2.390345   -2.253466    1.423066
  C      2.879518   -1.093310    1.530158
  O      2.061998   -0.006206    1.527201
  C     -0.085283   -0.101721    2.510627
  N     -0.744270    0.203382    3.409267
  H      1.027162    2.000983    0.106495
  H     -0.361010    1.868123   -0.986085
  H     -0.616630    1.940848    0.763180
  H     -0.864481   -0.425027   -0.090873
  H      0.760449   -0.358381   -0.767676
  H      0.442701   -2.582175    2.163444
  H      0.559855   -2.516400    0.399680
  H      3.932049   -0.853410    1.627216

 Total Charge           Charge          ....    0
 Multiplicity           Mult            ....    1
 Number of Electrons    NEL             ....   66
 Basis Dimension        Dim             ....  327

ORBITAL ENERGIES
----------------

  NO   OCC          E(Eh)            E(eV)
   0   2.0000     -20.623619      -561.1972
   1   2.0000     -15.585499      -424.1030
   2   2.0000     -15.572290      -423.7435
   3   2.0000     -11.359977      -309.1207
   4   2.0000     -11.353268      -308.9381
   5   2.0000     -11.290346      -307.2259
   6   2.0000     -11.282854      -307.0221
   7   2.0000     -11.261283      -306.4351
   8   2.0000     -11.232689      -305.6570
   9   2.0000      -1.466511       -39.9058
  10   2.0000      -1.239773       -33.7359
  11   2.0000      -1.231510       -33.5111
  12   2.0000      -1.117027       -30.3959
  13   2.0000      -1.019473       -27.7413
  14   2.0000      -0.913632       -24.8612
  15   2.0000      -0.872611       -23.7449
  16   2.0000      -0.837712       -22.7953
  17   2.0000      -0.747073       -20.3289
  18   2.0000      -0.714380       -19.4393
  19   2.0000      -0.664288       -18.0762
  20   2.0000      -0.625506       -17.0209
  21   2.0000      -0.613464       -16.6932
  22   2.0000      -0.598431       -16.2841
  23   2.0000      -0.586433       -15.9577
  24   2.0000      -0.582332       -15.8461
  25   2.0000      -0.562806       -15.3147
  26   2.0000      -0.529462       -14.4074
  27   2.0000      -0.521946       -14.2029
  28   2.0000      -0.514335       -13.9958
  29   2.0000      -0.490208       -13.3392
  30   2.0000      -0.476547       -12.9675
  31   2.0000      -0.445202       -12.1146
  32   2.0000      -0.409820       -11.1518
  33   0.0000       0.125554         3.4165
  34   0.0000       0.140788         3.8310
  35   0.0000       0.152237         4.1426
  36   0.0000       0.153920         4.1884
  37   0.0000       0.169094         4.6013

MULLIKEN ATOMIC CHARGES
-----------------------
   0 C :   -0.421414
   1 C :   -0.243882
   2 C :    0.395360
   3 C :   -0.151954
   4 N :   -0.252254
   5 C :    0.091515
   6 O :   -0.280794
   7 C :   -0.256335
   8 N :   -0.041236
   9 H :    0.146858
  10 H :    0.142421
  11 H :    0.151180
  12 H :    0.133977
  13 H :    0.135575
  14 H :    0.153400
  15 H :    0.140749
  16 H :    0.156833
Sum of atomic charges:    0.0000000

LOEWDIN ATOMIC CHARGES
----------------------
   0 C :   -0.305054
   1 C :   -0.238719
   2 C :   -0.292876
   3 C :   -0.214968
   4 N :    0.074989
   5 C :   -0.334787
   6 O :    0.263392
   7 C :   -0.145960
   8 N :    0.082281
   9 H :    0.128719
  10 H :    0.126361
  11 H :    0.130626
  12 H :    0.151544
  13 H :    0.150118
  14 H :    0.144399
  15 H :    0.141231
  16 H :    0.138703

  Mayer bond orders larger than 0.1
B(  0-C ,  1-C ) :   0.9357 B(  0-C ,  9-H ) :   0.9342 B(  0-C , 10-H ) :   0.9351
B(  0-C , 11-H ) :   0.9312 B(  1-C ,  2-C ) :   0.8994 B(  1-C , 12-H ) :   0.9183
B(  1-C , 13-H ) :   0.9199 B(  2-C ,  3-C ) :   0.8548 B(  2-C ,  6-O ) :   0.7996
B(  2-C ,  7-C ) :   0.9038 B(  3-C ,  4-N ) :   0.9384 B(  3-C , 14-H ) :   0.9205
B(  3-C , 15-H ) :   0.9218 B(  4-N ,  5-C ) :   1.8262 B(  5-C ,  6-O ) :   1.0582
B(  5-C , 16-H ) :   0.9189 B(  7-C ,  8-N ) :   2.8580

MP2 TOTAL ENERGY:     -417.328753502 Eh
FINAL SINGLE POINT ENERGY      -417.328753502170

DIPOLE MOMENT
-------------
                                X             Y             Z
Electronic contribution:      2.66780      -2.54907       6.38386
Nuclear contribution   :     -2.44072       2.54649      -7.63093
                        -----------------------------------------
Total Dipole Moment    :      0.22708      -0.00258      -1.24708
                        -----------------------------------------
Magnitude (a.u.)       :      1.26759
Magnitude (Debye)      :      3.22195

                             ****ORCA TERMINATED NORMALLY****
TOTAL RUN TIME: 0 days 0 hours 16 minutes 58 seconds 878 msec
