                         Program Version 3.0.3 - RELEASE   -
|  1> ! RI-MP2 RIJK def2-TZVP def2-TZVP/C def2-TZVP/JK TIGHTSCF
|  2> % maxcore 2000
|  3> % mp2 density relaxed end
|  4> *xyz 0 1
|  5>  C       -0.3312024967     1.4551442934     0.0459528474
|  6>  C        0.0003954016    -0.0307439291     0.0543582038
|  7>  C        0.6397491565    -0.6082367443    -1.2184672128
|  8>  N        1.9522181440     0.0622835111    -1.3561419573
|  9>  C        1.8191209413    -1.1191043517    -0.4721126549
| 10>  C        1.2657062603    -0.6010004887     0.8516357751
| 11>  C        2.1986429075     0.2512970389     1.6990724461
| 12>  C        1.5790447899     1.0638971921     2.8235581781
| 13>  O        3.3935857546     0.2334239007     1.5144449221
| 14>  H        0.5444411527     2.0461651205    -0.2337249251
| 15>  H       -1.1214553504     1.6557876868    -0.6865796461
| 16>  H       -0.6961424428     1.7979381316     1.0190861152
| 17>  H       -0.8818908907    -0.6131320895     0.3356565080
| 18>  H        0.1258941513    -1.0181700879    -2.0794812298
| 19>  H        2.3737488264    -0.2603237177    -2.2260427242
| 20>  H        2.4195646306    -2.0043682656    -0.6343017803
| 21>  H        0.9215780364    -1.4208214098     1.4946282060
| 22>  H        0.7753657545     0.5145835070     3.3247784831
| 23>  H        2.3519753851     1.3428751718     3.5414872255
| 24>  H        1.1368582678     1.9772540804     2.4115560702
| 25> *
| 26>
| 27>                          ****END OF INPUT****

CARTESIAN COORDINATES (ANGSTROEM)
---------------------------------
  C     -0.331202    1.455144    0.045953
  C      0.000395   -0.030744    0.054358
  C      0.639749   -0.608237   -1.218467
  N      1.952218    0.062284   -1.356142
  C      1.819121   -1.119104   -0.472113
  C      1.265706   -0.601000    0.851636
  C      2.198643    0.251297    1.699072
  C      1.579045    1.063897    2.823558
  O      3.393586    0.233424    1.514445
  H      0.544441    2.046165   -0.233725
  H     -1.121455    1.655788   -0.686580
  H     -0.696142    1.797938    1.019086
  H     -0.881891   -0.613132    0.335657
  H      0.125894   -1.018170   -2.079481
  H      2.373749   -0.260324   -2.226043
  H      2.419565   -2.004368   -0.634302
  H      0.921578   -1.420821    1.494628
  H      0.775366    0.514584    3.324778
  H      2.351975    1.342875    3.541487
  H      1.136858    1.977254    2.411556

 Total Charge           Charge          ....    0
 Multiplicity           Mult            ....    1
 Number of Electrons    NEL             ....   68
 Basis Dimension        Dim             ....  345

ORBITAL ENERGIES
----------------

  NO   OCC          E(Eh)            E(eV)
   0   2.0000     -20.534224      -558.7647
   1   2.0000     -15.559628      -423.3990
   2   2.0000     -11.322145      -308.0912
   3   2.0000     -11.262656      -306.4725
   4   2.0000     -11.261669      -306.4456
   5   2.0000     -11.248634      -306.0909
   6   2.0000     -11.245369      -306.0020
   7   2.0000     -11.228696      -305.5484
   8   2.0000     -11.216756      -305.2234
   9   2.0000      -1.378693       -37.5161
  10   2.0000      -1.282739       -34.9051
  11   2.0000      -1.078089       -29.3363
  12   2.0000      -1.007327       -27.4108
  13   2.0000      -0.976059       -26.5599
  14   2.0000      -0.894267       -24.3342
  15   2.0000      -0.831318       -22.6213
  16   2.0000      -0.771394       -20.9907
  17   2.0000      -0.729433       -19.8489
  18   2.0000      -0.701381       -19.0855
  19   2.0000      -0.643960       -17.5230
  20   2.0000      -0.624182       -16.9849
  21   2.0000      -0.610026       -16.5997
  22   2.0000      -0.603285       -16.4162
  23   2.0000      -0.569780       -15.5045
  24   2.0000      -0.558814       -15.2061
  25   2.0000      -0.548833       -14.9345
  26   2.0000      -0.523252       -14.2384
  27   2.0000      -0.512758       -13.9529
  28   2.0000      -0.500730       -13.6255
  29   2.0000      -0.479625       -13.0512
  30   2.0000      -0.448534       -12.2052
  31   2.0000      -0.440132       -11.9766
  32   2.0000      -0.403299       -10.9743
  33   2.0000      -0.363065        -9.8795
  34   0.0000       0.124685         3.3929
  35   0.0000       0.145370         3.9557
  36   0.0000       0.148523         4.0415
  37   0.0000       0.163898         4.4599
  38   0.0000       0.173832         4.7302

MULLIKEN ATOMIC CHARGES
-----------------------
   0 C :   -0.473004
   1 C :    0.005539
   2 C :   -0.058211
   3 N :   -0.407026
   4 C :   -0.074148
   5 C :   -0.066481
   6 C :    0.163749
   7 C :   -0.415512
   8 O :   -0.277581
   9 H :    0.167537
  10 H :    0.132385
  11 H :    0.130843
  12 H :    0.102643
  13 H :    0.141378
  14 H :    0.213735
  15 H :    0.144955
  16 H :    0.125839
  17 H :    0.139659
  18 H :    0.152594
  19 H :    0.151107
Sum of atomic charges:   -0.0000000

LOEWDIN ATOMIC CHARGES
----------------------
   0 C :   -0.299760
   1 C :   -0.201652
   2 C :   -0.219604
   3 N :    0.010814
   4 C :   -0.209551
   5 C :   -0.162717
   6 C :   -0.330480
   7 C :   -0.278932
   8 O :    0.159434
   9 H :    0.132699
  10 H :    0.127202
  11 H :    0.120100
  12 H :    0.149500
  13 H :    0.128648
  14 H :    0.173013
  15 H :    0.131494
  16 H :    0.166022
  17 H :    0.131662
  18 H :    0.133353
  19 H :    0.138755

  Mayer bond orders larger than 0.1
B(  0-C ,  1-C ) :   0.8696 B(  0-C ,  9-H ) :   0.9401 B(  0-C , 10-H ) :   0.9322
B(  0-C , 11-H ) :   0.9401 B(  1-C ,  2-C ) :   0.9299 B(  1-C ,  5-C ) :   0.9773
B(  1-C , 12-H ) :   0.9240 B(  2-C ,  3-N ) :   0.9054 B(  2-C ,  4-C ) :   0.8659
B(  2-C , 13-H ) :   0.9180 B(  3-N ,  4-C ) :   0.9331 B(  3-N , 14-H ) :   0.8681
B(  4-C ,  5-C ) :   0.9169 B(  4-C , 15-H ) :   0.9181 B(  5-C ,  6-C ) :   0.8514
B(  5-C , 16-H ) :   0.8915 B(  6-C ,  7-C ) :   0.9115 B(  6-C ,  8-O ) :   2.0482
B(  7-C , 17-H ) :   0.9228 B(  7-C , 18-H ) :   0.9349 B(  7-C , 19-H ) :   0.9113

MP2 TOTAL ENERGY:     -402.425962567 Eh
FINAL SINGLE POINT ENERGY      -402.425962566823

DIPOLE MOMENT
-------------
                                X             Y             Z
Electronic contribution:      5.79826      -3.22189      -1.34611
Nuclear contribution   :     -7.00232       2.65000       1.18576
                        -----------------------------------------
Total Dipole Moment    :     -1.20406      -0.57188      -0.16035
                        -----------------------------------------
Magnitude (a.u.)       :      1.34258
Magnitude (Debye)      :      3.41258

                             ****ORCA TERMINATED NORMALLY****
TOTAL RUN TIME: 0 days 0 hours 19 minutes 13 seconds 231 msec
