                         Program Version 3.0.3 - RELEASE   -
|  1> ! RI-MP2 RIJK def2-TZVP def2-TZVP/C def2-TZVP/JK TIGHTSCF
|  2> % maxcore 2000
|  3> % mp2 density relaxed end
|  4> *xyz 0 1
|  5>  O        0.0804110033    -0.0020080229     0.0157631564
|  6>  C        0.0186553448     1.2076666473     0.0100547238
|  7>  C       -1.2283767145     2.1197273789     0.0727690932
|  8>  C       -0.6636471864     3.5238372247     0.0780314664
|  9>  C        0.6668253220     3.4257501435     0.0020213540
| 10>  C        1.8965429396     4.2856877422    -0.0340156985
| 11>  C        3.0125182583     3.3002220214     0.4130689350
| 12>  C        2.5211864574     1.9071433914    -0.0533734970
| 13>  N        1.0804612535     2.0819614490    -0.0506480527
| 14>  H       -1.8696389576     1.9062024687    -0.7911157897
| 15>  H       -1.8174871476     1.8724622133     0.9636507818
| 16>  H       -1.2446285590     4.4312838911     0.1360800095
| 17>  H        2.0810676620     4.6373751865    -1.0567319431
| 18>  H        1.8227659842     5.1679977565     0.6051004203
| 19>  H        3.9924734991     3.5547728293     0.0047480961
| 20>  H        3.0924437306     3.3097234908     1.5043208445
| 21>  H        2.8851949431     1.6626696494    -1.0597494261
| 22>  H        2.8173711573     1.0950497889     0.6152188160
| 23> *
| 24>
| 25>                          ****END OF INPUT****

CARTESIAN COORDINATES (ANGSTROEM)
---------------------------------
  O      0.080411   -0.002008    0.015763
  C      0.018655    1.207667    0.010055
  C     -1.228377    2.119727    0.072769
  C     -0.663647    3.523837    0.078031
  C      0.666825    3.425750    0.002021
  C      1.896543    4.285688   -0.034016
  C      3.012518    3.300222    0.413069
  C      2.521186    1.907143   -0.053373
  N      1.080461    2.081961   -0.050648
  H     -1.869639    1.906202   -0.791116
  H     -1.817487    1.872462    0.963651
  H     -1.244629    4.431284    0.136080
  H      2.081068    4.637375   -1.056732
  H      1.822766    5.167998    0.605100
  H      3.992473    3.554773    0.004748
  H      3.092444    3.309723    1.504321
  H      2.885195    1.662670   -1.059749
  H      2.817371    1.095050    0.615219

 Total Charge           Charge          ....    0
 Multiplicity           Mult            ....    1
 Number of Electrons    NEL             ....   66
 Basis Dimension        Dim             ....  333

ORBITAL ENERGIES
----------------

  NO   OCC          E(Eh)            E(eV)
   0   2.0000     -20.516817      -558.2910
   1   2.0000     -15.587398      -424.1547
   2   2.0000     -11.346772      -308.7614
   3   2.0000     -11.279934      -306.9426
   4   2.0000     -11.275337      -306.8175
   5   2.0000     -11.252092      -306.1850
   6   2.0000     -11.247651      -306.0641
   7   2.0000     -11.241333      -305.8922
   8   2.0000     -11.219792      -305.3061
   9   2.0000      -1.381362       -37.5888
  10   2.0000      -1.289305       -35.0838
  11   2.0000      -1.099960       -29.9314
  12   2.0000      -1.062313       -28.9070
  13   2.0000      -0.974250       -26.5107
  14   2.0000      -0.917976       -24.9794
  15   2.0000      -0.841465       -22.8974
  16   2.0000      -0.800128       -21.7726
  17   2.0000      -0.726543       -19.7702
  18   2.0000      -0.683943       -18.6110
  19   2.0000      -0.660717       -17.9790
  20   2.0000      -0.622013       -16.9258
  21   2.0000      -0.601919       -16.3791
  22   2.0000      -0.593454       -16.1487
  23   2.0000      -0.587512       -15.9870
  24   2.0000      -0.572656       -15.5828
  25   2.0000      -0.558351       -15.1935
  26   2.0000      -0.535111       -14.5611
  27   2.0000      -0.509930       -13.8759
  28   2.0000      -0.501985       -13.6597
  29   2.0000      -0.498699       -13.5703
  30   2.0000      -0.440380       -11.9833
  31   2.0000      -0.412200       -11.2165
  32   2.0000      -0.311617        -8.4795
  33   0.0000       0.125049         3.4028
  34   0.0000       0.139467         3.7951
  35   0.0000       0.154631         4.2077
  36   0.0000       0.160474         4.3667
  37   0.0000       0.175155         4.7662

MULLIKEN ATOMIC CHARGES
-----------------------
   0 O :   -0.346030
   1 C :    0.132012
   2 C :   -0.117979
   3 C :   -0.312045
   4 C :    0.061573
   5 C :   -0.211781
   6 C :   -0.223351
   7 C :   -0.174254
   8 N :   -0.035993
   9 H :    0.142052
  10 H :    0.141153
  11 H :    0.138190
  12 H :    0.132743
  13 H :    0.141977
  14 H :    0.134707
  15 H :    0.123606
  16 H :    0.126462
  17 H :    0.146956
Sum of atomic charges:    0.0000000

LOEWDIN ATOMIC CHARGES
----------------------
   0 O :    0.086142
   1 C :   -0.394743
   2 C :   -0.201103
   3 C :   -0.172229
   4 C :   -0.193665
   5 C :   -0.208806
   6 C :   -0.234632
   7 C :   -0.227803
   8 N :    0.250978
   9 H :    0.157070
  10 H :    0.155456
  11 H :    0.137743
  12 H :    0.149910
  13 H :    0.146077
  14 H :    0.135428
  15 H :    0.140623
  16 H :    0.133851
  17 H :    0.139705

  Mayer bond orders larger than 0.1
B(  0-O ,  1-C ) :   1.9897 B(  1-C ,  2-C ) :   0.9460 B(  1-C ,  8-N ) :   1.0891
B(  2-C ,  3-C ) :   0.9291 B(  2-C ,  9-H ) :   0.8931 B(  2-C , 10-H ) :   0.8965
B(  3-C ,  4-C ) :   1.6832 B(  3-C , 11-H ) :   0.9261 B(  4-C ,  5-C ) :   0.9072
B(  4-C ,  8-N ) :   0.9815 B(  5-C ,  6-C ) :   0.9371 B(  5-C , 12-H ) :   0.9131
B(  5-C , 13-H ) :   0.9276 B(  6-C ,  7-C ) :   0.9393 B(  6-C , 14-H ) :   0.9367
B(  6-C , 15-H ) :   0.9271 B(  7-C ,  8-N ) :   0.8657 B(  7-C , 16-H ) :   0.9257
B(  7-C , 17-H ) :   0.9282

MP2 TOTAL ENERGY:     -401.311423749 Eh
FINAL SINGLE POINT ENERGY      -401.311423748729

DIPOLE MOMENT
-------------
                                X             Y             Z
Electronic contribution:     -3.32178      -4.26662      -0.39843
Nuclear contribution   :      3.95910       5.70436       0.42880
                        -----------------------------------------
Total Dipole Moment    :      0.63732       1.43774       0.03038
                        -----------------------------------------
Magnitude (a.u.)       :      1.57295
Magnitude (Debye)      :      3.99813

                             ****ORCA TERMINATED NORMALLY****
TOTAL RUN TIME: 0 days 0 hours 18 minutes 23 seconds 641 msec
