                         Program Version 3.0.3 - RELEASE   -
|  1> ! RI-MP2 RIJK def2-TZVP def2-TZVP/C def2-TZVP/JK TIGHTSCF
|  2> % maxcore 2000
|  3> % mp2 density relaxed end
|  4> *xyz 0 1
|  5>  C       -0.1445596020     1.5686698686     0.0385640689
|  6>  C        0.0730410075     0.0604421145    -0.0006936094
|  7>  C        1.1814995618    -0.5288880707    -0.9367727743
|  8>  C        1.7982035350    -1.2629447010     0.2676718025
|  9>  C        2.1731237856    -0.2379255236     1.3195300893
| 10>  C        0.7314057391    -0.6340316495     1.2080123097
| 11>  C       -0.0228836605    -1.2748018732     2.3362712765
| 12>  C        2.3200209481    -2.5852037049     0.2563705397
| 13>  C        2.7436404165    -3.7128672149     0.2340995841
| 14>  H        0.7833548127     2.1069617336     0.2573498952
| 15>  H       -0.5189140812     1.9333906179    -0.9242722349
| 16>  H       -0.8779945228     1.8429828753     0.8048169687
| 17>  H       -0.8790696094    -0.4352603359    -0.2188424725
| 18>  H        0.7846937368    -1.2048171012    -1.6958169746
| 19>  H        1.8438685970     0.1965907100    -1.4213517747
| 20>  H        2.6960492174    -0.6398894816     2.1809989701
| 21>  H        2.5253244057     0.7411599419     1.0026103886
| 22>  H       -0.4192336997    -0.5212923126     3.0279622129
| 23>  H       -0.8687871440    -1.8635415737     1.9641391328
| 24>  H        0.6240951972    -1.9454653235     2.9105480920
| 25>  H        3.1257418192    -4.7029432454     0.2156633294
| 26> *
| 27>
| 28>                          ****END OF INPUT****

CARTESIAN COORDINATES (ANGSTROEM)
---------------------------------
  C     -0.144560    1.568670    0.038564
  C      0.073041    0.060442   -0.000694
  C      1.181500   -0.528888   -0.936773
  C      1.798204   -1.262945    0.267672
  C      2.173124   -0.237926    1.319530
  C      0.731406   -0.634032    1.208012
  C     -0.022884   -1.274802    2.336271
  C      2.320021   -2.585204    0.256371
  C      2.743640   -3.712867    0.234100
  H      0.783355    2.106962    0.257350
  H     -0.518914    1.933391   -0.924272
  H     -0.877995    1.842983    0.804817
  H     -0.879070   -0.435260   -0.218842
  H      0.784694   -1.204817   -1.695817
  H      1.843869    0.196591   -1.421352
  H      2.696049   -0.639889    2.180999
  H      2.525324    0.741160    1.002610
  H     -0.419234   -0.521292    3.027962
  H     -0.868787   -1.863542    1.964139
  H      0.624095   -1.945465    2.910548
  H      3.125742   -4.702943    0.215663

 Total Charge           Charge          ....    0
 Multiplicity           Mult            ....    1
 Number of Electrons    NEL             ....   66
 Basis Dimension        Dim             ....  351

ORBITAL ENERGIES
----------------

  NO   OCC          E(Eh)            E(eV)
   0   2.0000     -11.252343      -306.1918
   1   2.0000     -11.246164      -306.0237
   2   2.0000     -11.234532      -305.7072
   3   2.0000     -11.233006      -305.6656
   4   2.0000     -11.229771      -305.5776
   5   2.0000     -11.228627      -305.5465
   6   2.0000     -11.220739      -305.3318
   7   2.0000     -11.215615      -305.1924
   8   2.0000     -11.215447      -305.1878
   9   2.0000      -1.203849       -32.7584
  10   2.0000      -1.038004       -28.2455
  11   2.0000      -1.015207       -27.6252
  12   2.0000      -0.981596       -26.7106
  13   2.0000      -0.936509       -25.4837
  14   2.0000      -0.856323       -23.3017
  15   2.0000      -0.817314       -22.2403
  16   2.0000      -0.741540       -20.1783
  17   2.0000      -0.691772       -18.8241
  18   2.0000      -0.666156       -18.1270
  19   2.0000      -0.631611       -17.1870
  20   2.0000      -0.607750       -16.5377
  21   2.0000      -0.579674       -15.7737
  22   2.0000      -0.569266       -15.4905
  23   2.0000      -0.554367       -15.0851
  24   2.0000      -0.545710       -14.8495
  25   2.0000      -0.531016       -14.4497
  26   2.0000      -0.499970       -13.6049
  27   2.0000      -0.481043       -13.0899
  28   2.0000      -0.447348       -12.1730
  29   2.0000      -0.442473       -12.0403
  30   2.0000      -0.419653       -11.4193
  31   2.0000      -0.368435       -10.0256
  32   2.0000      -0.333347        -9.0708
  33   0.0000       0.132678         3.6104
  34   0.0000       0.157461         4.2847
  35   0.0000       0.162660         4.4262
  36   0.0000       0.167832         4.5669
  37   0.0000       0.171067         4.6550

MULLIKEN ATOMIC CHARGES
-----------------------
   0 C :   -0.409120
   1 C :   -0.055417
   2 C :   -0.208767
   3 C :   -0.123755
   4 C :   -0.283964
   5 C :    0.089282
   6 C :   -0.417817
   7 C :   -0.024180
   8 C :   -0.144359
   9 H :    0.118925
  10 H :    0.134503
  11 H :    0.130699
  12 H :    0.094587
  13 H :    0.122695
  14 H :    0.113753
  15 H :    0.138065
  16 H :    0.128562
  17 H :    0.138132
  18 H :    0.132115
  19 H :    0.139492
  20 H :    0.186570
Sum of atomic charges:    0.0000000

LOEWDIN ATOMIC CHARGES
----------------------
   0 C :   -0.296062
   1 C :   -0.205491
   2 C :   -0.150773
   3 C :   -0.174924
   4 C :   -0.144739
   5 C :   -0.178139
   6 C :   -0.268400
   7 C :   -0.077872
   8 C :   -0.099858
   9 H :    0.121883
  10 H :    0.125054
  11 H :    0.125104
  12 H :    0.153293
  13 H :    0.138689
  14 H :    0.132290
  15 H :    0.147204
  16 H :    0.133359
  17 H :    0.130208
  18 H :    0.129294
  19 H :    0.134502
  20 H :    0.125379

  Mayer bond orders larger than 0.1
B(  0-C ,  1-C ) :   0.9012 B(  0-C ,  9-H ) :   0.9357 B(  0-C , 10-H ) :   0.9396
B(  0-C , 11-H ) :   0.9383 B(  1-C ,  2-C ) :   0.9933 B(  1-C ,  5-C ) :   0.9304
B(  1-C , 12-H ) :   0.9098 B(  2-C ,  3-C ) :   0.9350 B(  2-C , 13-H ) :   0.9118
B(  2-C , 14-H ) :   0.9010 B(  3-C ,  4-C ) :   0.8258 B(  3-C ,  5-C ) :   0.7426
B(  3-C ,  7-C ) :   1.2723 B(  3-C ,  8-C ) :  -0.1457 B(  4-C ,  5-C ) :   0.9032
B(  4-C , 15-H ) :   0.9307 B(  4-C , 16-H ) :   0.9044 B(  5-C ,  6-C ) :   0.8848
B(  6-C , 17-H ) :   0.9380 B(  6-C , 18-H ) :   0.9403 B(  6-C , 19-H ) :   0.9322
B(  7-C ,  8-C ) :   2.5827 B(  8-C , 20-H ) :   0.8793

MP2 TOTAL ENERGY:     -349.249328444 Eh
FINAL SINGLE POINT ENERGY      -349.249328443989

DIPOLE MOMENT
-------------
                                X             Y             Z
Electronic contribution:      4.48498      -5.64837      -1.41382
Nuclear contribution   :     -4.76910       5.89335       1.52417
                        -----------------------------------------
Total Dipole Moment    :     -0.28413       0.24498       0.11035
                        -----------------------------------------
Magnitude (a.u.)       :      0.39105
Magnitude (Debye)      :      0.99397

                             ****ORCA TERMINATED NORMALLY****
TOTAL RUN TIME: 0 days 0 hours 22 minutes 8 seconds 319 msec
