                         Program Version 3.0.3 - RELEASE   -
|  1> ! RI-MP2 RIJK def2-TZVP def2-TZVP/C def2-TZVP/JK TIGHTSCF
|  2> % maxcore 2000
|  3> % mp2 density relaxed end
|  4> *xyz 0 1
|  5>  C       -0.0181552950     1.6176088445     0.0267647966
|  6>  C        0.1229782831     0.0937031644    -0.0174834516
|  7>  C        0.6083679516    -0.5076789536     1.3072445035
|  8>  C        0.7593313373    -2.0225051959     1.2699228047
|  9>  C        1.8962437169    -2.6548610342     0.4151714954
| 10>  C        2.1184976247    -3.7015447531     1.5420725113
| 11>  C        3.5398930370    -4.1261349897     1.8873322997
| 12>  C        3.6150121028    -5.0593983788     3.1003546649
| 13>  C        1.3502647992    -2.7532034790     2.5078951216
| 14>  H        0.9396254457     2.0973500780     0.2578203186
| 15>  H       -0.3668779271     2.0164101901    -0.9311682999
| 16>  H       -0.7342759681     1.9264663754     0.7965981282
| 17>  H       -0.8424330259    -0.3563792782    -0.2851157600
| 18>  H        0.8192300737    -0.1864079357    -0.8187255982
| 19>  H        1.5738566272    -0.0569329764     1.5792350589
| 20>  H       -0.0915066325    -0.2318355025     2.1092451350
| 21>  H       -0.2003372730    -2.4793456640     0.9973207680
| 22>  H        1.6517121219    -3.0220163378    -0.5850591509
| 23>  H        2.7530212677    -1.9745203544     0.3350214925
| 24>  H        1.5094963498    -4.5924751607     1.3429234853
| 25>  H        3.9914136127    -4.6190877896     1.0156054147
| 26>  H        4.1448464162    -3.2286216919     2.0761220856
| 27>  H        3.1961681133    -4.5827137949     3.9933598932
| 28>  H        3.0509800018    -5.9823743095     2.9244179133
| 29>  H        4.6485763401    -5.3393010542     3.3270533156
| 30>  H        2.0438149449    -2.1032214928     3.0554005989
| 31>  H        0.6523763338    -3.1948736252     3.2241196950
| 32> *
| 33>
| 34>                          ****END OF INPUT****

CARTESIAN COORDINATES (ANGSTROEM)
---------------------------------
  C     -0.018155    1.617609    0.026765
  C      0.122978    0.093703   -0.017483
  C      0.608368   -0.507679    1.307245
  C      0.759331   -2.022505    1.269923
  C      1.896244   -2.654861    0.415171
  C      2.118498   -3.701545    1.542073
  C      3.539893   -4.126135    1.887332
  C      3.615012   -5.059398    3.100355
  C      1.350265   -2.753203    2.507895
  H      0.939625    2.097350    0.257820
  H     -0.366878    2.016410   -0.931168
  H     -0.734276    1.926466    0.796598
  H     -0.842433   -0.356379   -0.285116
  H      0.819230   -0.186408   -0.818726
  H      1.573857   -0.056933    1.579235
  H     -0.091507   -0.231836    2.109245
  H     -0.200337   -2.479346    0.997321
  H      1.651712   -3.022016   -0.585059
  H      2.753021   -1.974520    0.335021
  H      1.509496   -4.592475    1.342923
  H      3.991414   -4.619088    1.015605
  H      4.144846   -3.228622    2.076122
  H      3.196168   -4.582714    3.993360
  H      3.050980   -5.982374    2.924418
  H      4.648576   -5.339301    3.327053
  H      2.043815   -2.103221    3.055401
  H      0.652376   -3.194874    3.224120

 Total Charge           Charge          ....    0
 Multiplicity           Mult            ....    1
 Number of Electrons    NEL             ....   72
 Basis Dimension        Dim             ....  387

ORBITAL ENERGIES
----------------

  NO   OCC          E(Eh)            E(eV)
   0   2.0000     -11.218472      -305.2702
   1   2.0000     -11.218393      -305.2680
   2   2.0000     -11.214647      -305.1661
   3   2.0000     -11.213648      -305.1389
   4   2.0000     -11.211338      -305.0760
   5   2.0000     -11.210809      -305.0616
   6   2.0000     -11.210761      -305.0603
   7   2.0000     -11.209168      -305.0170
   8   2.0000     -11.209028      -305.0132
   9   2.0000      -1.133892       -30.8548
  10   2.0000      -1.057530       -28.7768
  11   2.0000      -1.020510       -27.7695
  12   2.0000      -0.945682       -25.7333
  13   2.0000      -0.892499       -24.2861
  14   2.0000      -0.869989       -23.6736
  15   2.0000      -0.811532       -22.0829
  16   2.0000      -0.768752       -20.9188
  17   2.0000      -0.740399       -20.1473
  18   2.0000      -0.651687       -17.7333
  19   2.0000      -0.624573       -16.9955
  20   2.0000      -0.613580       -16.6964
  21   2.0000      -0.598950       -16.2983
  22   2.0000      -0.569449       -15.4955
  23   2.0000      -0.549861       -14.9625
  24   2.0000      -0.546825       -14.8799
  25   2.0000      -0.532046       -14.4777
  26   2.0000      -0.519138       -14.1265
  27   2.0000      -0.509628       -13.8677
  28   2.0000      -0.498592       -13.5674
  29   2.0000      -0.482257       -13.1229
  30   2.0000      -0.470806       -12.8113
  31   2.0000      -0.461521       -12.5586
  32   2.0000      -0.441811       -12.0223
  33   2.0000      -0.436771       -11.8851
  34   2.0000      -0.419338       -11.4108
  35   2.0000      -0.405042       -11.0218
  36   0.0000       0.134739         3.6664
  37   0.0000       0.143841         3.9141
  38   0.0000       0.151020         4.1095
  39   0.0000       0.164453         4.4750
  40   0.0000       0.167466         4.5570

MULLIKEN ATOMIC CHARGES
-----------------------
   0 C :   -0.383905
   1 C :   -0.190078
   2 C :   -0.281553
   3 C :    0.035349
   4 C :   -0.293365
   5 C :    0.004606
   6 C :   -0.219404
   7 C :   -0.394262
   8 C :   -0.290769
   9 H :    0.121180
  10 H :    0.131694
  11 H :    0.120818
  12 H :    0.103650
  13 H :    0.110629
  14 H :    0.102293
  15 H :    0.109443
  16 H :    0.090952
  17 H :    0.119125
  18 H :    0.102511
  19 H :    0.089631
  20 H :    0.109043
  21 H :    0.100225
  22 H :    0.126881
  23 H :    0.121058
  24 H :    0.132642
  25 H :    0.102736
  26 H :    0.118871
Sum of atomic charges:    0.0000000

LOEWDIN ATOMIC CHARGES
----------------------
   0 C :   -0.322591
   1 C :   -0.293530
   2 C :   -0.260596
   3 C :   -0.234519
   4 C :   -0.202424
   5 C :   -0.237003
   6 C :   -0.284315
   7 C :   -0.317971
   8 C :   -0.201767
   9 H :    0.119691
  10 H :    0.119572
  11 H :    0.119650
  12 H :    0.134094
  13 H :    0.135509
  14 H :    0.137004
  15 H :    0.139025
  16 H :    0.149744
  17 H :    0.122355
  18 H :    0.136634
  19 H :    0.149417
  20 H :    0.136898
  21 H :    0.134867
  22 H :    0.121121
  23 H :    0.120164
  24 H :    0.119718
  25 H :    0.136819
  26 H :    0.122433

  Mayer bond orders larger than 0.1
B(  0-C ,  1-C ) :   0.9205 B(  0-C ,  9-H ) :   0.9398 B(  0-C , 10-H ) :   0.9438
B(  0-C , 11-H ) :   0.9398 B(  1-C ,  2-C ) :   0.9323 B(  1-C , 12-H ) :   0.9335
B(  1-C , 13-H ) :   0.9341 B(  2-C ,  3-C ) :   0.8874 B(  2-C , 14-H ) :   0.9257
B(  2-C , 15-H ) :   0.9329 B(  3-C ,  4-C ) :   0.9343 B(  3-C ,  8-C ) :   0.9474
B(  3-C , 16-H ) :   0.9231 B(  4-C ,  5-C ) :   0.9449 B(  4-C , 17-H ) :   0.9283
B(  4-C , 18-H ) :   0.9096 B(  5-C ,  6-C ) :   0.8871 B(  5-C ,  8-C ) :   0.9378
B(  5-C , 19-H ) :   0.9237 B(  6-C ,  7-C ) :   0.9206 B(  6-C , 20-H ) :   0.9381
B(  6-C , 21-H ) :   0.9303 B(  7-C , 22-H ) :   0.9391 B(  7-C , 23-H ) :   0.9388
B(  7-C , 24-H ) :   0.9415 B(  8-C , 25-H ) :   0.9094 B(  8-C , 26-H ) :   0.9283

MP2 TOTAL ENERGY:     -352.910950465 Eh
FINAL SINGLE POINT ENERGY      -352.910950465006

DIPOLE MOMENT
-------------
                                X             Y             Z
Electronic contribution:     -0.63225      -1.89685      -0.30331
Nuclear contribution   :      0.60638       1.86226       0.26962
                        -----------------------------------------
Total Dipole Moment    :     -0.02587      -0.03459      -0.03369
                        -----------------------------------------
Magnitude (a.u.)       :      0.05478
Magnitude (Debye)      :      0.13924

                             ****ORCA TERMINATED NORMALLY****
TOTAL RUN TIME: 0 days 0 hours 18 minutes 5 seconds 940 msec
