                         Program Version 3.0.3 - RELEASE   -
|  1> ! RI-MP2 RIJK def2-TZVP def2-TZVP/C def2-TZVP/JK TIGHTSCF
|  2> % maxcore 2000
|  3> % mp2 density relaxed end
|  4> *xyz 0 1
|  5>  O       -0.1271852686     1.4711636755     0.2195990102
|  6>  C       -0.0230756598     0.0565950963     0.2605269782
|  7>  C       -1.3728156938    -0.5157309038    -0.1656618728
|  8>  C       -1.3934316741    -2.0062352988    -0.2065430058
|  9>  C       -2.4610764811    -3.0240299347    -0.0565547103
| 10>  C       -1.9569472861    -3.8333327522    -1.2481906149
| 11>  C       -0.5956147308    -3.1310730919    -1.0016552379
| 12>  C       -0.2114411416    -3.6521423818     0.3901489620
| 13>  N       -1.3703577194    -2.9092814843     0.9852062325
| 14>  H        0.6977048912     1.8435987159     0.5438888658
| 15>  H        0.7666869776    -0.3048763251    -0.4187362829
| 16>  H        0.2195940260    -0.3028831570     1.2718641407
| 17>  H       -2.1394713668    -0.1696917607     0.5369728038
| 18>  H       -1.6330285915    -0.1069498753    -1.1501055697
| 19>  H       -3.4729197253    -2.9040623556     0.3088483374
| 20>  H       -1.9776903540    -4.9278917904    -1.2013990333
| 21>  H       -2.4325482358    -3.4935452144    -2.1719551775
| 22>  H        0.1253782749    -3.0036239022    -1.8074526064
| 23>  H       -0.2134583220    -4.7366491714     0.5549063319
| 24>  H        0.7126394312    -3.2213544480     0.7847069190
| 25> *
| 26>
| 27>                          ****END OF INPUT****

CARTESIAN COORDINATES (ANGSTROEM)
---------------------------------
  O     -0.127185    1.471164    0.219599
  C     -0.023076    0.056595    0.260527
  C     -1.372816   -0.515731   -0.165662
  C     -1.393432   -2.006235   -0.206543
  C     -2.461076   -3.024030   -0.056555
  C     -1.956947   -3.833333   -1.248191
  C     -0.595615   -3.131073   -1.001655
  C     -0.211441   -3.652142    0.390149
  N     -1.370358   -2.909281    0.985206
  H      0.697705    1.843599    0.543889
  H      0.766687   -0.304876   -0.418736
  H      0.219594   -0.302883    1.271864
  H     -2.139471   -0.169692    0.536973
  H     -1.633029   -0.106950   -1.150106
  H     -3.472920   -2.904062    0.308848
  H     -1.977690   -4.927892   -1.201399
  H     -2.432548   -3.493545   -2.171955
  H      0.125378   -3.003624   -1.807453
  H     -0.213458   -4.736649    0.554906
  H      0.712639   -3.221354    0.784707

 Total Charge           Charge          ....    0
 Multiplicity           Mult            ....    1
 Number of Electrons    NEL             ....   68
 Basis Dimension        Dim             ....  345

ORBITAL ENERGIES
----------------

  NO   OCC          E(Eh)            E(eV)
   0   2.0000     -20.556206      -559.3628
   1   2.0000     -15.556410      -423.3114
   2   2.0000     -11.276384      -306.8460
   3   2.0000     -11.264389      -306.5196
   4   2.0000     -11.256228      -306.2975
   5   2.0000     -11.252256      -306.1895
   6   2.0000     -11.242549      -305.9253
   7   2.0000     -11.232473      -305.6511
   8   2.0000     -11.227487      -305.5154
   9   2.0000      -1.360396       -37.0183
  10   2.0000      -1.311643       -35.6916
  11   2.0000      -1.040174       -28.3046
  12   2.0000      -1.025742       -27.9118
  13   2.0000      -0.982538       -26.7362
  14   2.0000      -0.880795       -23.9677
  15   2.0000      -0.826429       -22.4883
  16   2.0000      -0.766083       -20.8462
  17   2.0000      -0.722030       -19.6474
  18   2.0000      -0.700157       -19.0522
  19   2.0000      -0.665814       -18.1177
  20   2.0000      -0.652536       -17.7564
  21   2.0000      -0.619270       -16.8512
  22   2.0000      -0.605936       -16.4884
  23   2.0000      -0.578142       -15.7320
  24   2.0000      -0.569076       -15.4853
  25   2.0000      -0.535864       -14.5816
  26   2.0000      -0.517075       -14.0703
  27   2.0000      -0.497788       -13.5455
  28   2.0000      -0.479291       -13.0422
  29   2.0000      -0.447851       -12.1867
  30   2.0000      -0.444619       -12.0987
  31   2.0000      -0.422377       -11.4935
  32   2.0000      -0.407429       -11.0867
  33   2.0000      -0.363059        -9.8793
  34   0.0000       0.134309         3.6547
  35   0.0000       0.148223         4.0334
  36   0.0000       0.161020         4.3816
  37   0.0000       0.165928         4.5151
  38   0.0000       0.180248         4.9048

MULLIKEN ATOMIC CHARGES
-----------------------
   0 O :   -0.459517
   1 C :   -0.094909
   2 C :   -0.142512
   3 C :    0.097743
   4 C :   -0.138989
   5 C :   -0.212619
   6 C :   -0.143525
   7 C :   -0.114323
   8 N :   -0.269186
   9 H :    0.316044
  10 H :    0.093175
  11 H :    0.112196
  12 H :    0.122757
  13 H :    0.115202
  14 H :    0.128073
  15 H :    0.111499
  16 H :    0.124465
  17 H :    0.130410
  18 H :    0.105078
  19 H :    0.118938
Sum of atomic charges:   -0.0000000

LOEWDIN ATOMIC CHARGES
----------------------
   0 O :   -0.049794
   1 C :   -0.343287
   2 C :   -0.235242
   3 C :   -0.193870
   4 C :   -0.191737
   5 C :   -0.210110
   6 C :   -0.167224
   7 C :   -0.237288
   8 N :    0.133002
   9 H :    0.172569
  10 H :    0.114210
  11 H :    0.119738
  12 H :    0.155260
  13 H :    0.149924
  14 H :    0.135187
  15 H :    0.124800
  16 H :    0.143283
  17 H :    0.130157
  18 H :    0.119825
  19 H :    0.130598

  Mayer bond orders larger than 0.1
B(  0-O ,  1-C ) :   1.0314 B(  0-O ,  2-C ) :  -0.1177 B(  0-O ,  9-H ) :   0.8480
B(  1-C ,  2-C ) :   0.9301 B(  1-C , 10-H ) :   0.9339 B(  1-C , 11-H ) :   0.9292
B(  2-C ,  3-C ) :   0.8239 B(  2-C , 12-H ) :   0.9237 B(  2-C , 13-H ) :   0.9177
B(  3-C ,  4-C ) :   0.8204 B(  3-C ,  6-C ) :   0.8552 B(  3-C ,  8-N ) :   0.7716
B(  4-C ,  5-C ) :   0.9408 B(  4-C ,  8-N ) :   0.9360 B(  4-C , 14-H ) :   0.9364
B(  5-C ,  6-C ) :   0.9424 B(  5-C , 15-H ) :   0.9198 B(  5-C , 16-H ) :   0.9165
B(  6-C ,  7-C ) :   0.9494 B(  6-C , 17-H ) :   0.9148 B(  7-C ,  8-N ) :   0.9218
B(  7-C , 18-H ) :   0.9157 B(  7-C , 19-H ) :   0.9325

MP2 TOTAL ENERGY:     -402.390718561 Eh
FINAL SINGLE POINT ENERGY      -402.390718560772

DIPOLE MOMENT
-------------
                                X             Y             Z
Electronic contribution:     -1.09923       0.59181       1.24496
Nuclear contribution   :      1.70542      -0.82512      -1.75908
                        -----------------------------------------
Total Dipole Moment    :      0.60619      -0.23331      -0.51412
                        -----------------------------------------
Magnitude (a.u.)       :      0.82838
Magnitude (Debye)      :      2.10558

                             ****ORCA TERMINATED NORMALLY****
TOTAL RUN TIME: 0 days 0 hours 18 minutes 57 seconds 175 msec
