                         Program Version 3.0.3 - RELEASE   -
|  1> ! RI-MP2 RIJK def2-TZVP def2-TZVP/C def2-TZVP/JK TIGHTSCF
|  2> % maxcore 2000
|  3> % mp2 density relaxed end
|  4> *xyz 0 1
|  5>  O        0.0631956506    -0.1017643329    -0.0699942752
|  6>  C        0.0401063515     1.1197045683     0.0064690840
|  7>  C       -1.2101233219     1.8395849957     0.2115173490
|  8>  C       -1.4832431109     3.1662705484     0.1545629737
|  9>  N       -0.7031963812     4.2087599609    -0.2331257727
| 10>  C        0.4722101935     4.1106230942    -1.0770527960
| 11>  C        1.5853369763     3.2317228316    -0.5346140789
| 12>  N        1.6167463368     2.9589788467     0.8925014921
| 13>  C        1.3650066968     1.8396232762    -0.0516305081
| 14>  H       -2.0367403383     1.1875619546     0.4702444531
| 15>  H       -2.4807425374     3.4826962245     0.4524556975
| 16>  H       -1.1462248683     5.1105690404    -0.2251694734
| 17>  H        0.2036882126     3.7377628785    -2.0795383581
| 18>  H        0.8552004338     5.1285167125    -1.2025229940
| 19>  H        2.5282924045     3.3939753662    -1.0569903542
| 20>  H        2.5703874505     2.9102134705     1.2397091896
| 21>  H        2.1735691111     1.1329259337    -0.2203453686
| 22> *
| 23>
| 24>                          ****END OF INPUT****

CARTESIAN COORDINATES (ANGSTROEM)
---------------------------------
  O      0.063196   -0.101764   -0.069994
  C      0.040106    1.119705    0.006469
  C     -1.210123    1.839585    0.211517
  C     -1.483243    3.166271    0.154563
  N     -0.703196    4.208760   -0.233126
  C      0.472210    4.110623   -1.077053
  C      1.585337    3.231723   -0.534614
  N      1.616746    2.958979    0.892501
  C      1.365007    1.839623   -0.051631
  H     -2.036740    1.187562    0.470244
  H     -2.480743    3.482696    0.452456
  H     -1.146225    5.110569   -0.225169
  H      0.203688    3.737763   -2.079538
  H      0.855200    5.128517   -1.202523
  H      2.528292    3.393975   -1.056990
  H      2.570387    2.910213    1.239709
  H      2.173569    1.132926   -0.220345

 Total Charge           Charge          ....    0
 Multiplicity           Mult            ....    1
 Number of Electrons    NEL             ....   66
 Basis Dimension        Dim             ....  327

ORBITAL ENERGIES
----------------

  NO   OCC          E(Eh)            E(eV)
   0   2.0000     -20.517369      -558.3060
   1   2.0000     -15.591279      -424.2603
   2   2.0000     -15.573476      -423.7758
   3   2.0000     -11.315653      -307.9146
   4   2.0000     -11.300048      -307.4899
   5   2.0000     -11.285872      -307.1042
   6   2.0000     -11.281597      -306.9879
   7   2.0000     -11.266742      -306.5836
   8   2.0000     -11.207419      -304.9694
   9   2.0000      -1.360119       -37.0107
  10   2.0000      -1.288198       -35.0537
  11   2.0000      -1.253525       -34.1101
  12   2.0000      -1.053239       -28.6601
  13   2.0000      -0.994041       -27.0492
  14   2.0000      -0.921962       -25.0879
  15   2.0000      -0.872143       -23.7322
  16   2.0000      -0.789483       -21.4829
  17   2.0000      -0.753805       -20.5121
  18   2.0000      -0.729966       -19.8634
  19   2.0000      -0.697976       -18.9929
  20   2.0000      -0.662793       -18.0355
  21   2.0000      -0.621890       -16.9225
  22   2.0000      -0.604175       -16.4404
  23   2.0000      -0.591981       -16.1086
  24   2.0000      -0.559690       -15.2299
  25   2.0000      -0.541812       -14.7434
  26   2.0000      -0.530819       -14.4443
  27   2.0000      -0.492049       -13.3893
  28   2.0000      -0.480591       -13.0775
  29   2.0000      -0.461114       -12.5476
  30   2.0000      -0.421620       -11.4729
  31   2.0000      -0.389385       -10.5957
  32   2.0000      -0.318559        -8.6684
  33   0.0000       0.110299         3.0014
  34   0.0000       0.113822         3.0973
  35   0.0000       0.136312         3.7093
  36   0.0000       0.157743         4.2924
  37   0.0000       0.174984         4.7615

MULLIKEN ATOMIC CHARGES
-----------------------
   0 O :   -0.322305
   1 C :    0.159281
   2 C :   -0.249056
   3 C :    0.022949
   4 N :   -0.294513
   5 C :   -0.124997
   6 C :   -0.020953
   7 N :   -0.386976
   8 C :   -0.027638
   9 H :    0.131952
  10 H :    0.130441
  11 H :    0.239047
  12 H :    0.126705
  13 H :    0.127448
  14 H :    0.128506
  15 H :    0.225349
  16 H :    0.134761
Sum of atomic charges:   -0.0000000

LOEWDIN ATOMIC CHARGES
----------------------
   0 O :    0.120295
   1 C :   -0.336512
   2 C :   -0.194230
   3 C :   -0.215569
   4 N :    0.097745
   5 C :   -0.261936
   6 C :   -0.266461
   7 N :    0.025954
   8 C :   -0.207642
   9 H :    0.158816
  10 H :    0.147706
  11 H :    0.188669
  12 H :    0.139821
  13 H :    0.140928
  14 H :    0.143716
  15 H :    0.170473
  16 H :    0.148228

  Mayer bond orders larger than 0.1
B(  0-O ,  1-C ) :   1.8800 B(  1-C ,  2-C ) :   1.1175 B(  1-C ,  8-C ) :   0.9348
B(  2-C ,  3-C ) :   1.5587 B(  2-C ,  9-H ) :   0.9096 B(  3-C ,  4-N ) :   1.1804
B(  3-C , 10-H ) :   0.9065 B(  4-N ,  5-C ) :   0.9457 B(  4-N , 11-H ) :   0.8804
B(  5-C ,  6-C ) :   0.9073 B(  5-C , 12-H ) :   0.9410 B(  5-C , 13-H ) :   0.9226
B(  6-C ,  7-N ) :   0.9723 B(  6-C ,  8-C ) :   0.8534 B(  6-C , 14-H ) :   0.9213
B(  7-N ,  8-C ) :   0.8150 B(  7-N , 15-H ) :   0.8635 B(  8-C , 16-H ) :   0.9324

MP2 TOTAL ENERGY:     -417.289891815 Eh
FINAL SINGLE POINT ENERGY      -417.289891814803

DIPOLE MOMENT
-------------
                                X             Y             Z
Electronic contribution:     -0.60634      -3.69346       1.33118
Nuclear contribution   :      0.94720       5.76862      -1.84896
                        -----------------------------------------
Total Dipole Moment    :      0.34086       2.07516      -0.51778
                        -----------------------------------------
Magnitude (a.u.)       :      2.16577
Magnitude (Debye)      :      5.50495

                             ****ORCA TERMINATED NORMALLY****
TOTAL RUN TIME: 0 days 0 hours 16 minutes 28 seconds 729 msec
