                         Program Version 3.0.3 - RELEASE   -
|  1> ! RI-MP2 RIJK def2-TZVP def2-TZVP/C def2-TZVP/JK TIGHTSCF
|  2> % maxcore 2000
|  3> % mp2 density relaxed end
|  4> *xyz 0 1
|  5>  O       -0.1493681633    -0.1166812431    -0.2892507661
|  6>  C        0.0450772598     1.0339655679     0.0040397356
|  7>  C        1.3499292528     1.7717396196    -0.1957520536
|  8>  C        1.1633923354     3.0420624704    -1.0483691057
|  9>  C        2.4500037712     3.8378644841    -1.1533191327
| 10>  C        3.4478576898     3.5830154068    -2.2322127348
| 11>  C        2.6881631461     4.9063842488    -2.2231286349
| 12>  C        1.6999965938     5.1690693081    -3.2932993122
| 13>  O        1.4481283482     6.2653619919    -3.7297359773
| 14>  H       -0.7653979904     1.6544162273     0.4557121910
| 15>  H        1.7220547223     2.0602211473     0.7984130421
| 16>  H        2.0761756073     1.0893739303    -0.6457956929
| 17>  H        0.8083448317     2.7532700637    -2.0430693487
| 18>  H        0.3765834435     3.6670052791    -0.6064076443
| 19>  H        2.8644629813     4.1162880543    -0.1870037482
| 20>  H        4.5078121336     3.6176624818    -2.0094223815
| 21>  H        3.1760552042     2.8747114890    -3.0099473750
| 22>  H        3.2241743674     5.7945650537    -1.9066834836
| 23>  H        1.1953194752     4.2633165491    -3.7017973270
| 24> *
| 25>
| 26>                          ****END OF INPUT****

CARTESIAN COORDINATES (ANGSTROEM)
---------------------------------
  O     -0.149368   -0.116681   -0.289251
  C      0.045077    1.033966    0.004040
  C      1.349929    1.771740   -0.195752
  C      1.163392    3.042062   -1.048369
  C      2.450004    3.837864   -1.153319
  C      3.447858    3.583015   -2.232213
  C      2.688163    4.906384   -2.223129
  C      1.699997    5.169069   -3.293299
  O      1.448128    6.265362   -3.729736
  H     -0.765398    1.654416    0.455712
  H      1.722055    2.060221    0.798413
  H      2.076176    1.089374   -0.645796
  H      0.808345    2.753270   -2.043069
  H      0.376583    3.667005   -0.606408
  H      2.864463    4.116288   -0.187004
  H      4.507812    3.617662   -2.009422
  H      3.176055    2.874711   -3.009947
  H      3.224174    5.794565   -1.906683
  H      1.195319    4.263317   -3.701797

 Total Charge           Charge          ....    0
 Multiplicity           Mult            ....    1
 Number of Electrons    NEL             ....   68
 Basis Dimension        Dim             ....  339

ORBITAL ENERGIES
----------------

  NO   OCC          E(Eh)            E(eV)
   0   2.0000     -20.565686      -559.6208
   1   2.0000     -20.555559      -559.3452
   2   2.0000     -11.340445      -308.5892
   3   2.0000     -11.336806      -308.4902
   4   2.0000     -11.270518      -306.6864
   5   2.0000     -11.262090      -306.4570
   6   2.0000     -11.259595      -306.3892
   7   2.0000     -11.257656      -306.3364
   8   2.0000     -11.254716      -306.2564
   9   2.0000      -1.404459       -38.2173
  10   2.0000      -1.395119       -37.9631
  11   2.0000      -1.184955       -32.2443
  12   2.0000      -1.080520       -29.4024
  13   2.0000      -0.946224       -25.7481
  14   2.0000      -0.915667       -24.9166
  15   2.0000      -0.828727       -22.5508
  16   2.0000      -0.803604       -21.8672
  17   2.0000      -0.774422       -21.0731
  18   2.0000      -0.706266       -19.2185
  19   2.0000      -0.676389       -18.4055
  20   2.0000      -0.675894       -18.3920
  21   2.0000      -0.641665       -17.4606
  22   2.0000      -0.636315       -17.3150
  23   2.0000      -0.615598       -16.7513
  24   2.0000      -0.578959       -15.7543
  25   2.0000      -0.569658       -15.5012
  26   2.0000      -0.548620       -14.9287
  27   2.0000      -0.537693       -14.6314
  28   2.0000      -0.526788       -14.3346
  29   2.0000      -0.507797       -13.8179
  30   2.0000      -0.458848       -12.4859
  31   2.0000      -0.439745       -11.9661
  32   2.0000      -0.422694       -11.5021
  33   2.0000      -0.415574       -11.3083
  34   0.0000       0.117113         3.1868
  35   0.0000       0.123404         3.3580
  36   0.0000       0.132249         3.5987
  37   0.0000       0.138180         3.7601
  38   0.0000       0.153834         4.1860

MULLIKEN ATOMIC CHARGES
-----------------------
   0 O :   -0.258986
   1 C :    0.094406
   2 C :   -0.141548
   3 C :   -0.296654
   4 C :   -0.087692
   5 C :   -0.298642
   6 C :   -0.027218
   7 C :    0.056750
   8 O :   -0.268646
   9 H :    0.072384
  10 H :    0.126158
  11 H :    0.128289
  12 H :    0.127222
  13 H :    0.136647
  14 H :    0.132849
  15 H :    0.149634
  16 H :    0.143027
  17 H :    0.139196
  18 H :    0.072822
Sum of atomic charges:   -0.0000000

LOEWDIN ATOMIC CHARGES
----------------------
   0 O :    0.134791
   1 C :   -0.297059
   2 C :   -0.255235
   3 C :   -0.241471
   4 C :   -0.199931
   5 C :   -0.188823
   6 C :   -0.192550
   7 C :   -0.293676
   8 O :    0.128079
   9 H :    0.110005
  10 H :    0.152169
  11 H :    0.146995
  12 H :    0.144202
  13 H :    0.146078
  14 H :    0.156595
  15 H :    0.138326
  16 H :    0.141761
  17 H :    0.156737
  18 H :    0.113005

  Mayer bond orders larger than 0.1
B(  0-O ,  1-C ) :   2.0090 B(  1-C ,  2-C ) :   0.8752 B(  1-C ,  9-H ) :   0.9381
B(  2-C ,  3-C ) :   0.9024 B(  2-C , 10-H ) :   0.9123 B(  2-C , 11-H ) :   0.9056
B(  3-C ,  4-C ) :   0.9222 B(  3-C , 12-H ) :   0.9276 B(  3-C , 13-H ) :   0.9301
B(  4-C ,  5-C ) :   0.9016 B(  4-C ,  6-C ) :   0.8075 B(  4-C , 14-H ) :   0.9178
B(  5-C ,  6-C ) :   0.8312 B(  5-C , 15-H ) :   0.9239 B(  5-C , 16-H ) :   0.9223
B(  6-C ,  7-C ) :   0.8989 B(  6-C , 17-H ) :   0.9173 B(  7-C ,  8-O ) :   1.9867
B(  7-C , 18-H ) :   0.9518

MP2 TOTAL ENERGY:     -422.315843881 Eh
FINAL SINGLE POINT ENERGY      -422.315843881188

DIPOLE MOMENT
-------------
                                X             Y             Z
Electronic contribution:     -2.75745       0.62265      -1.93860
Nuclear contribution   :      3.51673      -0.64392       2.73062
                        -----------------------------------------
Total Dipole Moment    :      0.75928      -0.02127       0.79202
                        -----------------------------------------
Magnitude (a.u.)       :      1.09739
Magnitude (Debye)      :      2.78933

                             ****ORCA TERMINATED NORMALLY****
TOTAL RUN TIME: 0 days 0 hours 15 minutes 28 seconds 217 msec
