                         Program Version 3.0.3 - RELEASE   -
|  1> ! RI-MP2 RIJK def2-TZVP def2-TZVP/C def2-TZVP/JK TIGHTSCF
|  2> % maxcore 2000
|  3> % mp2 density relaxed end
|  4> *xyz 0 1
|  5>  C       -0.2348009201     1.2652750067    -0.2644520657
|  6>  C        1.1962659283     1.3038522587     0.2120488359
|  7>  C        0.4779613812    -0.0184970070     0.0875873673
|  8>  C        0.0879065832    -0.7733231953     1.3203492358
|  9>  C       -0.6968107234    -2.0602568791     1.3463664978
| 10>  C       -0.3012056158    -2.9879785481     0.1893864408
| 11>  C        1.1824924243    -2.9484055821     0.6830775281
| 12>  C        0.7614984679    -2.0213521796     1.8315771212
| 13>  H       -1.0048244946     1.6165160435     0.4151229483
| 14>  H       -0.4383914676     1.4757326722    -1.3087388084
| 15>  H        1.9744595160     1.5410137044    -0.5051996657
| 16>  H        1.3873297971     1.6809148457     1.2117782801
| 17>  H        0.7754751943    -0.6315341189    -0.7565408735
| 18>  H       -0.2015752418    -0.1126540181     2.1373996892
| 19>  H       -1.6065681654    -2.1535101431     1.9285737914
| 20>  H       -0.7344059008    -3.9859162335     0.2848495926
| 21>  H       -0.5057389135    -2.6218190366    -0.8220595302
| 22>  H        1.5195416509    -3.9257933761     1.0348849812
| 23>  H        1.9340730057    -2.5567846753    -0.0102362791
| 24>  H        1.1446956042    -2.0800467183     2.8440206029
| 25> *
| 26>
| 27>                          ****END OF INPUT****

CARTESIAN COORDINATES (ANGSTROEM)
---------------------------------
  C     -0.234801    1.265275   -0.264452
  C      1.196266    1.303852    0.212049
  C      0.477961   -0.018497    0.087587
  C      0.087907   -0.773323    1.320349
  C     -0.696811   -2.060257    1.346366
  C     -0.301206   -2.987979    0.189386
  C      1.182492   -2.948406    0.683078
  C      0.761498   -2.021352    1.831577
  H     -1.004824    1.616516    0.415123
  H     -0.438391    1.475733   -1.308739
  H      1.974460    1.541014   -0.505200
  H      1.387330    1.680915    1.211778
  H      0.775475   -0.631534   -0.756541
  H     -0.201575   -0.112654    2.137400
  H     -1.606568   -2.153510    1.928574
  H     -0.734406   -3.985916    0.284850
  H     -0.505739   -2.621819   -0.822060
  H      1.519542   -3.925793    1.034885
  H      1.934073   -2.556785   -0.010236
  H      1.144696   -2.080047    2.844021

 Total Charge           Charge          ....    0
 Multiplicity           Mult            ....    1
 Number of Electrons    NEL             ....   60
 Basis Dimension        Dim             ....  320

ORBITAL ENERGIES
----------------

  NO   OCC          E(Eh)            E(eV)
   0   2.0000     -11.229097      -305.5593
   1   2.0000     -11.225874      -305.4716
   2   2.0000     -11.224590      -305.4366
   3   2.0000     -11.224057      -305.4221
   4   2.0000     -11.220703      -305.3308
   5   2.0000     -11.220181      -305.3167
   6   2.0000     -11.219307      -305.2929
   7   2.0000     -11.218676      -305.2757
   8   2.0000      -1.186365       -32.2826
   9   2.0000      -1.128063       -30.6962
  10   2.0000      -0.981773       -26.7154
  11   2.0000      -0.885894       -24.1064
  12   2.0000      -0.853335       -23.2204
  13   2.0000      -0.816353       -22.2141
  14   2.0000      -0.744686       -20.2639
  15   2.0000      -0.725713       -19.7477
  16   2.0000      -0.686945       -18.6927
  17   2.0000      -0.654546       -17.8111
  18   2.0000      -0.617915       -16.8143
  19   2.0000      -0.601818       -16.3763
  20   2.0000      -0.548061       -14.9135
  21   2.0000      -0.526347       -14.3226
  22   2.0000      -0.513603       -13.9759
  23   2.0000      -0.509288       -13.8584
  24   2.0000      -0.460043       -12.5184
  25   2.0000      -0.456402       -12.4193
  26   2.0000      -0.450362       -12.2550
  27   2.0000      -0.422852       -11.5064
  28   2.0000      -0.366144        -9.9633
  29   2.0000      -0.363828        -9.9003
  30   0.0000       0.150512         4.0956
  31   0.0000       0.153196         4.1687
  32   0.0000       0.163593         4.4516
  33   0.0000       0.167503         4.5580
  34   0.0000       0.192393         5.2353

MULLIKEN ATOMIC CHARGES
-----------------------
   0 C :   -0.265394
   1 C :   -0.265411
   2 C :   -0.069270
   3 C :   -0.149503
   4 C :   -0.101090
   5 C :   -0.255338
   6 C :   -0.255345
   7 C :   -0.101059
   8 H :    0.123450
   9 H :    0.126126
  10 H :    0.126143
  11 H :    0.123437
  12 H :    0.126857
  13 H :    0.112927
  14 H :    0.125662
  15 H :    0.119709
  16 H :    0.116369
  17 H :    0.119709
  18 H :    0.116363
  19 H :    0.125660
Sum of atomic charges:    0.0000000

LOEWDIN ATOMIC CHARGES
----------------------
   0 C :   -0.227556
   1 C :   -0.227554
   2 C :   -0.207814
   3 C :   -0.183551
   4 C :   -0.164381
   5 C :   -0.220101
   6 C :   -0.220108
   7 C :   -0.164386
   8 H :    0.131906
   9 H :    0.129258
  10 H :    0.129250
  11 H :    0.131913
  12 H :    0.151990
  13 H :    0.162752
  14 H :    0.131767
  15 H :    0.133092
  16 H :    0.124331
  17 H :    0.133096
  18 H :    0.124328
  19 H :    0.131769

  Mayer bond orders larger than 0.1
B(  0-C ,  1-C ) :   0.9139 B(  0-C ,  2-C ) :   0.8793 B(  0-C ,  8-H ) :   0.9285
B(  0-C ,  9-H ) :   0.9270 B(  1-C ,  2-C ) :   0.8794 B(  1-C , 10-H ) :   0.9270
B(  1-C , 11-H ) :   0.9285 B(  2-C ,  3-C ) :   0.9282 B(  2-C , 12-H ) :   0.9166
B(  3-C ,  4-C ) :   0.8840 B(  3-C ,  7-C ) :   0.8840 B(  3-C , 13-H ) :   0.9165
B(  4-C ,  5-C ) :   0.9286 B(  4-C ,  7-C ) :   0.8430 B(  4-C , 14-H ) :   0.9222
B(  5-C ,  6-C ) :   0.9606 B(  5-C , 15-H ) :   0.9273 B(  5-C , 16-H ) :   0.9313
B(  6-C ,  7-C ) :   0.9286 B(  6-C , 17-H ) :   0.9273 B(  6-C , 18-H ) :   0.9313
B(  7-C , 19-H ) :   0.9222

MP2 TOTAL ENERGY:     -311.239251558 Eh
FINAL SINGLE POINT ENERGY      -311.239251558471

DIPOLE MOMENT
-------------
                                X             Y             Z
Electronic contribution:     -0.45711      -0.58993       1.42204
Nuclear contribution   :      0.44506       0.50592      -1.37912
                        -----------------------------------------
Total Dipole Moment    :     -0.01205      -0.08401       0.04292
                        -----------------------------------------
Magnitude (a.u.)       :      0.09510
Magnitude (Debye)      :      0.24173

                             ****ORCA TERMINATED NORMALLY****
TOTAL RUN TIME: 0 days 0 hours 13 minutes 20 seconds 589 msec
