                         Program Version 3.0.3 - RELEASE   -
|  1> ! RI-MP2 RIJK def2-TZVP def2-TZVP/C def2-TZVP/JK TIGHTSCF
|  2> % maxcore 2000
|  3> % mp2 density relaxed end
|  4> *xyz 0 1
|  5>  O        0.0214005177     1.5007131061     0.0364268846
|  6>  C        0.0297358767     0.1035382272    -0.0112668971
|  7>  C       -1.3337132149    -0.5763613117    -0.1108533467
|  8>  C       -2.0095881337    -0.2581042428    -1.5026757089
|  9>  C       -1.8680826848    -1.7786496666    -1.7598673850
| 10>  N       -0.6670272525    -1.7461877425    -0.8380784319
| 11>  C        0.2516124833    -0.6301355513    -1.3700764052
| 12>  C       -0.7340080009     0.1651427417    -2.2344273510
| 13>  O       -0.5613945687     0.8536151142    -3.1984890921
| 14>  H        0.9249237188     1.8247460940    -0.0391916291
| 15>  H        0.6257096355    -0.3552846601     0.7869722359
| 16>  H       -1.9750856224    -0.7870619458     0.7449432160
| 17>  H       -2.9154866777     0.3232493285    -1.6563265610
| 18>  H       -2.6451091171    -2.3883001432    -1.2920663405
| 19>  H       -1.6865390915    -2.1254656500    -2.7821543373
| 20>  H        1.2255815521    -0.9032626879    -1.7696043206
| 21> *
| 22>
| 23>                          ****END OF INPUT****

CARTESIAN COORDINATES (ANGSTROEM)
---------------------------------
  O      0.021401    1.500713    0.036427
  C      0.029736    0.103538   -0.011267
  C     -1.333713   -0.576361   -0.110853
  C     -2.009588   -0.258104   -1.502676
  C     -1.868083   -1.778650   -1.759867
  N     -0.667027   -1.746188   -0.838078
  C      0.251612   -0.630136   -1.370076
  C     -0.734008    0.165143   -2.234427
  O     -0.561395    0.853615   -3.198489
  H      0.924924    1.824746   -0.039192
  H      0.625710   -0.355285    0.786972
  H     -1.975086   -0.787062    0.744943
  H     -2.915487    0.323249   -1.656327
  H     -2.645109   -2.388300   -1.292066
  H     -1.686539   -2.125466   -2.782154
  H      1.225582   -0.903263   -1.769604

 Total Charge           Charge          ....    0
 Multiplicity           Mult            ....    1
 Number of Electrons    NEL             ....   66
 Basis Dimension        Dim             ....  321

ORBITAL ENERGIES
----------------

  NO   OCC          E(Eh)            E(eV)
   0   2.0000     -20.580676      -560.0287
   1   2.0000     -20.553979      -559.3022
   2   2.0000     -15.580475      -423.9663
   3   2.0000     -11.336906      -308.4929
   4   2.0000     -11.310273      -307.7682
   5   2.0000     -11.286424      -307.1192
   6   2.0000     -11.278988      -306.9169
   7   2.0000     -11.277657      -306.8806
   8   2.0000     -11.257392      -306.3292
   9   2.0000      -1.404552       -38.2198
  10   2.0000      -1.390203       -37.8293
  11   2.0000      -1.309308       -35.6281
  12   2.0000      -1.047983       -28.5171
  13   2.0000      -1.000903       -27.2360
  14   2.0000      -0.952544       -25.9200
  15   2.0000      -0.861687       -23.4477
  16   2.0000      -0.764232       -20.7958
  17   2.0000      -0.752169       -20.4676
  18   2.0000      -0.708903       -19.2902
  19   2.0000      -0.700192       -19.0532
  20   2.0000      -0.668893       -18.2015
  21   2.0000      -0.658556       -17.9202
  22   2.0000      -0.606046       -16.4914
  23   2.0000      -0.592623       -16.1261
  24   2.0000      -0.576875       -15.6976
  25   2.0000      -0.542413       -14.7598
  26   2.0000      -0.532635       -14.4937
  27   2.0000      -0.505411       -13.7529
  28   2.0000      -0.488381       -13.2895
  29   2.0000      -0.464072       -12.6281
  30   2.0000      -0.457845       -12.4586
  31   2.0000      -0.423788       -11.5319
  32   2.0000      -0.371089       -10.0979
  33   0.0000       0.120727         3.2851
  34   0.0000       0.141046         3.8381
  35   0.0000       0.155188         4.2229
  36   0.0000       0.171094         4.6557
  37   0.0000       0.176093         4.7917

MULLIKEN ATOMIC CHARGES
-----------------------
   0 O :   -0.451652
   1 C :   -0.020063
   2 C :   -0.076737
   3 C :   -0.039620
   4 C :   -0.198830
   5 N :   -0.204729
   6 C :   -0.019622
   7 C :    0.111833
   8 O :   -0.249634
   9 H :    0.328442
  10 H :    0.112422
  11 H :    0.137768
  12 H :    0.147688
  13 H :    0.133036
  14 H :    0.134757
  15 H :    0.154942
Sum of atomic charges:    0.0000000

LOEWDIN ATOMIC CHARGES
----------------------
   0 O :    0.009219
   1 C :   -0.307391
   2 C :   -0.155168
   3 C :   -0.160872
   4 C :   -0.222444
   5 N :    0.132244
   6 C :   -0.175438
   7 C :   -0.295265
   8 O :    0.170097
   9 H :    0.184959
  10 H :    0.142637
  11 H :    0.136585
  12 H :    0.140293
  13 H :    0.135908
  14 H :    0.127841
  15 H :    0.136794

  Mayer bond orders larger than 0.1
B(  0-O ,  1-C ) :   1.1534 B(  0-O ,  2-C ) :  -0.1018 B(  0-O ,  9-H ) :   0.8364
B(  1-C ,  2-C ) :   0.9162 B(  1-C ,  6-C ) :   0.8821 B(  1-C , 10-H ) :   0.9416
B(  2-C ,  3-C ) :   0.8772 B(  2-C ,  5-N ) :   0.9153 B(  2-C , 11-H ) :   0.8911
B(  3-C ,  4-C ) :   0.8892 B(  3-C ,  6-C ) :  -0.1292 B(  3-C ,  7-C ) :   0.8748
B(  3-C , 12-H ) :   0.8936 B(  4-C ,  5-N ) :   0.9038 B(  4-C , 13-H ) :   0.9218
B(  4-C , 14-H ) :   0.9238 B(  5-N ,  6-C ) :   0.9177 B(  6-C ,  7-C ) :   0.8706
B(  6-C , 15-H ) :   0.8896 B(  7-C ,  8-O ) :   2.0655

MP2 TOTAL ENERGY:     -437.121508404 Eh
FINAL SINGLE POINT ENERGY      -437.121508404264

DIPOLE MOMENT
-------------
                                X             Y             Z
Electronic contribution:      1.25728       2.35451      -1.69957
Nuclear contribution   :     -1.17782      -2.69058       2.35034
                        -----------------------------------------
Total Dipole Moment    :      0.07946      -0.33607       0.65077
                        -----------------------------------------
Magnitude (a.u.)       :      0.73672
Magnitude (Debye)      :      1.87260

                             ****ORCA TERMINATED NORMALLY****
TOTAL RUN TIME: 0 days 0 hours 18 minutes 11 seconds 276 msec
