                         Program Version 3.0.3 - RELEASE   -
|  1> ! RI-MP2 RIJK def2-TZVP def2-TZVP/C def2-TZVP/JK TIGHTSCF
|  2> % maxcore 2000
|  3> % mp2 density relaxed end
|  4> *xyz 0 1
|  5>  O        0.3670907101     0.0239638452     0.5684637699
|  6>  C        0.1013777908     1.1542922608     0.2709562692
|  7>  N       -0.9706949836     1.9415187278     0.6286408339
|  8>  C       -0.8818534965     3.2047187445     0.0265874422
|  9>  C        0.2587321952     3.1783356070    -0.6808612383
| 10>  O        0.8748052475     1.9543941128    -0.5572549777
| 11>  C       -1.8948241410     4.2518548300     0.2268863628
| 12>  C       -2.1045992730     5.2944770521    -0.8075322235
| 13>  N       -3.1332594527     4.2666830019    -0.5932966262
| 14>  H       -1.7236720582     1.5972867384     1.1985814424
| 15>  H        0.7596427370     3.9201458473    -1.2771387829
| 16>  H       -2.0848659567     4.5151891613     1.2658001195
| 17>  H       -2.3842741238     6.2976298917    -0.5012298154
| 18>  H       -1.5022482743     5.2456152901    -1.7099923620
| 19>  H       -3.0553842908     3.5620509090    -1.3241902938
| 20> *
| 21>
| 22>                          ****END OF INPUT****

CARTESIAN COORDINATES (ANGSTROEM)
---------------------------------
  O      0.367091    0.023964    0.568464
  C      0.101378    1.154292    0.270956
  N     -0.970695    1.941519    0.628641
  C     -0.881853    3.204719    0.026587
  C      0.258732    3.178336   -0.680861
  O      0.874805    1.954394   -0.557255
  C     -1.894824    4.251855    0.226886
  C     -2.104599    5.294477   -0.807532
  N     -3.133259    4.266683   -0.593297
  H     -1.723672    1.597287    1.198581
  H      0.759643    3.920146   -1.277139
  H     -2.084866    4.515189    1.265800
  H     -2.384274    6.297630   -0.501230
  H     -1.502248    5.245615   -1.709992
  H     -3.055384    3.562051   -1.324190

 Total Charge           Charge          ....    0
 Multiplicity           Mult            ....    1
 Number of Electrons    NEL             ....   66
 Basis Dimension        Dim             ....  315

ORBITAL ENERGIES
----------------

  NO   OCC          E(Eh)            E(eV)
   0   2.0000     -20.631370      -561.4081
   1   2.0000     -20.535744      -558.8060
   2   2.0000     -15.624717      -425.1702
   3   2.0000     -15.585457      -424.1018
   4   2.0000     -11.415794      -310.6396
   5   2.0000     -11.309613      -307.7502
   6   2.0000     -11.304329      -307.6064
   7   2.0000     -11.298250      -307.4410
   8   2.0000     -11.283599      -307.0424
   9   2.0000      -1.495684       -40.6996
  10   2.0000      -1.381835       -37.6016
  11   2.0000      -1.295224       -35.2448
  12   2.0000      -1.267106       -34.4797
  13   2.0000      -1.056116       -28.7384
  14   2.0000      -0.933247       -25.3949
  15   2.0000      -0.900464       -24.5029
  16   2.0000      -0.879527       -23.9332
  17   2.0000      -0.812664       -22.1137
  18   2.0000      -0.758829       -20.6488
  19   2.0000      -0.704542       -19.1715
  20   2.0000      -0.691908       -18.8278
  21   2.0000      -0.670299       -18.2398
  22   2.0000      -0.649456       -17.6726
  23   2.0000      -0.640877       -17.4391
  24   2.0000      -0.604861       -16.4591
  25   2.0000      -0.564719       -15.3668
  26   2.0000      -0.535364       -14.5680
  27   2.0000      -0.528245       -14.3743
  28   2.0000      -0.513894       -13.9838
  29   2.0000      -0.484195       -13.1756
  30   2.0000      -0.465586       -12.6692
  31   2.0000      -0.423345       -11.5198
  32   2.0000      -0.336954        -9.1690
  33   0.0000       0.126358         3.4384
  34   0.0000       0.136532         3.7152
  35   0.0000       0.145024         3.9463
  36   0.0000       0.150140         4.0855
  37   0.0000       0.163723         4.4551

MULLIKEN ATOMIC CHARGES
-----------------------
   0 O :   -0.322118
   1 C :    0.331891
   2 N :   -0.301012
   3 C :    0.032851
   4 C :   -0.007479
   5 O :   -0.208059
   6 C :   -0.112122
   7 C :   -0.153869
   8 N :   -0.333007
   9 H :    0.266749
  10 H :    0.166931
  11 H :    0.143424
  12 H :    0.133295
  13 H :    0.133843
  14 H :    0.228682
Sum of atomic charges:    0.0000000

LOEWDIN ATOMIC CHARGES
----------------------
   0 O :    0.097613
   1 C :   -0.532199
   2 N :    0.177551
   3 C :   -0.241877
   4 C :   -0.219013
   5 O :    0.303430
   6 C :   -0.247747
   7 C :   -0.248413
   8 N :   -0.008443
   9 H :    0.201812
  10 H :    0.140639
  11 H :    0.152856
  12 H :    0.128940
  13 H :    0.125576
  14 H :    0.169274

  Mayer bond orders larger than 0.1
B(  0-O ,  1-C ) :   2.0176 B(  1-C ,  2-N ) :   1.1248 B(  1-C ,  5-O ) :   1.0296
B(  2-N ,  3-C ) :   1.0217 B(  2-N ,  9-H ) :   0.8614 B(  3-C ,  4-C ) :   1.6297
B(  3-C ,  6-C ) :   0.9520 B(  4-C ,  5-O ) :   1.0012 B(  4-C , 10-H ) :   0.9317
B(  6-C ,  7-C ) :   0.9578 B(  6-C ,  8-N ) :   0.9074 B(  6-C , 11-H ) :   0.9101
B(  7-C ,  8-N ) :   0.9255 B(  7-C , 12-H ) :   0.9158 B(  7-C , 13-H ) :   0.9202
B(  8-N , 14-H ) :   0.8704

MP2 TOTAL ENERGY:     -453.225177988 Eh
FINAL SINGLE POINT ENERGY      -453.225177987951

DIPOLE MOMENT
-------------
                                X             Y             Z
Electronic contribution:      4.21055      -6.46512       1.38723
Nuclear contribution   :     -4.79231       7.95119      -1.60604
                        -----------------------------------------
Total Dipole Moment    :     -0.58176       1.48607      -0.21880
                        -----------------------------------------
Magnitude (a.u.)       :      1.61082
Magnitude (Debye)      :      4.09437

                             ****ORCA TERMINATED NORMALLY****
TOTAL RUN TIME: 0 days 0 hours 13 minutes 50 seconds 852 msec
