                         Program Version 3.0.3 - RELEASE   -
|  1> ! RI-MP2 RIJK def2-TZVP def2-TZVP/C def2-TZVP/JK TIGHTSCF
|  2> % maxcore 2000
|  3> % mp2 density relaxed end
|  4> *xyz 0 1
|  5>  C        0.0878209684     1.5243508011    -0.1647279115
|  6>  C       -0.0480619213     0.0065782264    -0.0368192138
|  7>  C        0.3812091633    -0.8093464669    -1.2908360330
|  8>  C        1.7359132533    -1.3998149127    -0.8801064424
|  9>  O        2.7417169536    -0.3812553800    -1.0220330446
| 10>  C        3.0543434521     0.1988686236     0.2383892761
| 11>  C        2.1594119207    -0.4610205172     1.2637214157
| 12>  C        1.5671358171    -1.6569174873     0.6216380678
| 13>  N        0.6946963871    -0.5850821487     1.1143259384
| 14>  H        1.0477945180     1.8195187021    -0.5928359833
| 15>  H       -0.6968179537     1.9111725629    -0.8228206071
| 16>  H       -0.0264231037     2.0046388715     0.8117721424
| 17>  H       -1.0992900818    -0.2079338960     0.1845473214
| 18>  H       -0.3355692593    -1.6151210331    -1.4841940820
| 19>  H        0.4687998713    -0.2055468595    -2.1974203961
| 20>  H        2.0418861508    -2.2712745570    -1.4650241899
| 21>  H        4.1024680843    -0.0122661560     0.5005864233
| 22>  H        2.9416546108     1.2876309193     0.1822032286
| 23>  H        2.4900957977    -0.4484004196     2.2988112545
| 24>  H        1.5014413813    -2.6544078630     1.0436826856
| 25> *
| 26>
| 27>                          ****END OF INPUT****

CARTESIAN COORDINATES (ANGSTROEM)
---------------------------------
  C      0.087821    1.524351   -0.164728
  C     -0.048062    0.006578   -0.036819
  C      0.381209   -0.809346   -1.290836
  C      1.735913   -1.399815   -0.880106
  O      2.741717   -0.381255   -1.022033
  C      3.054343    0.198869    0.238389
  C      2.159412   -0.461021    1.263721
  C      1.567136   -1.656917    0.621638
  N      0.694696   -0.585082    1.114326
  H      1.047795    1.819519   -0.592836
  H     -0.696818    1.911173   -0.822821
  H     -0.026423    2.004639    0.811772
  H     -1.099290   -0.207934    0.184547
  H     -0.335569   -1.615121   -1.484194
  H      0.468800   -0.205547   -2.197420
  H      2.041886   -2.271275   -1.465024
  H      4.102468   -0.012266    0.500586
  H      2.941655    1.287631    0.182203
  H      2.490096   -0.448400    2.298811
  H      1.501441   -2.654408    1.043683

 Total Charge           Charge          ....    0
 Multiplicity           Mult            ....    1
 Number of Electrons    NEL             ....   68
 Basis Dimension        Dim             ....  345

ORBITAL ENERGIES
----------------

  NO   OCC          E(Eh)            E(eV)
   0   2.0000     -20.551480      -559.2342
   1   2.0000     -15.557524      -423.3417
   2   2.0000     -11.283208      -307.0317
   3   2.0000     -11.278907      -306.9147
   4   2.0000     -11.264073      -306.5110
   5   2.0000     -11.256529      -306.3057
   6   2.0000     -11.255268      -306.2714
   7   2.0000     -11.219731      -305.3044
   8   2.0000     -11.212820      -305.1164
   9   2.0000      -1.382589       -37.6222
  10   2.0000      -1.270313       -34.5670
  11   2.0000      -1.072698       -29.1896
  12   2.0000      -1.014050       -27.5937
  13   2.0000      -0.953153       -25.9366
  14   2.0000      -0.909703       -24.7543
  15   2.0000      -0.819250       -22.2929
  16   2.0000      -0.786064       -21.3899
  17   2.0000      -0.755859       -20.5680
  18   2.0000      -0.719676       -19.5834
  19   2.0000      -0.649678       -17.6786
  20   2.0000      -0.613462       -16.6932
  21   2.0000      -0.607573       -16.5329
  22   2.0000      -0.596280       -16.2256
  23   2.0000      -0.590118       -16.0579
  24   2.0000      -0.559731       -15.2311
  25   2.0000      -0.551330       -15.0025
  26   2.0000      -0.518414       -14.1068
  27   2.0000      -0.503483       -13.7005
  28   2.0000      -0.493046       -13.4165
  29   2.0000      -0.477380       -12.9902
  30   2.0000      -0.437684       -11.9100
  31   2.0000      -0.433086       -11.7849
  32   2.0000      -0.409368       -11.1395
  33   2.0000      -0.370773       -10.0892
  34   0.0000       0.142042         3.8652
  35   0.0000       0.160089         4.3562
  36   0.0000       0.162670         4.4265
  37   0.0000       0.180294         4.9061
  38   0.0000       0.195806         5.3281

MULLIKEN ATOMIC CHARGES
-----------------------
   0 C :   -0.448886
   1 C :    0.041629
   2 C :   -0.227802
   3 C :    0.081808
   4 O :   -0.338559
   5 C :   -0.025719
   6 C :   -0.136617
   7 C :   -0.072769
   8 N :   -0.225664
   9 H :    0.137496
  10 H :    0.135228
  11 H :    0.141169
  12 H :    0.099776
  13 H :    0.115700
  14 H :    0.120336
  15 H :    0.114529
  16 H :    0.109413
  17 H :    0.108568
  18 H :    0.129165
  19 H :    0.141202
Sum of atomic charges:    0.0000000

LOEWDIN ATOMIC CHARGES
----------------------
   0 C :   -0.295053
   1 C :   -0.283494
   2 C :   -0.216438
   3 C :   -0.271388
   4 O :    0.164687
   5 C :   -0.294585
   6 C :   -0.235460
   7 C :   -0.201345
   8 N :    0.152975
   9 H :    0.124120
  10 H :    0.126403
  11 H :    0.127758
  12 H :    0.147621
  13 H :    0.139256
  14 H :    0.142030
  15 H :    0.139930
  16 H :    0.129784
  17 H :    0.122607
  18 H :    0.144587
  19 H :    0.136006

  Mayer bond orders larger than 0.1
B(  0-C ,  1-C ) :   0.9063 B(  0-C ,  9-H ) :   0.9327 B(  0-C , 10-H ) :   0.9357
B(  0-C , 11-H ) :   0.9397 B(  1-C ,  2-C ) :   0.9133 B(  1-C ,  8-N ) :   0.9012
B(  1-C , 12-H ) :   0.9307 B(  2-C ,  3-C ) :   0.9340 B(  2-C , 13-H ) :   0.9120
B(  2-C , 14-H ) :   0.9165 B(  3-C ,  4-O ) :   0.9213 B(  3-C ,  7-C ) :   0.9271
B(  3-C , 15-H ) :   0.9274 B(  4-O ,  5-C ) :   0.9405 B(  5-C ,  6-C ) :   0.9485
B(  5-C , 16-H ) :   0.9143 B(  5-C , 17-H ) :   0.9246 B(  6-C ,  7-C ) :   0.8850
B(  6-C ,  8-N ) :   0.9193 B(  6-C , 18-H ) :   0.9255 B(  7-C ,  8-N ) :   0.9270
B(  7-C , 19-H ) :   0.9000

MP2 TOTAL ENERGY:     -402.443074006 Eh
FINAL SINGLE POINT ENERGY      -402.443074005596

DIPOLE MOMENT
-------------
                                X             Y             Z
Electronic contribution:      2.61426      -3.53181       1.03211
Nuclear contribution   :     -2.61962       3.41400      -1.01793
                        -----------------------------------------
Total Dipole Moment    :     -0.00536      -0.11781       0.01418
                        -----------------------------------------
Magnitude (a.u.)       :      0.11878
Magnitude (Debye)      :      0.30192

                             ****ORCA TERMINATED NORMALLY****
TOTAL RUN TIME: 0 days 0 hours 19 minutes 29 seconds 999 msec
