                         Program Version 3.0.3 - RELEASE   -
|  1> ! RI-MP2 RIJK def2-TZVP def2-TZVP/C def2-TZVP/JK TIGHTSCF
|  2> % maxcore 2000
|  3> % mp2 density relaxed end
|  4> *xyz 0 1
|  5>  C        0.2753141641     1.5312830744     0.1682561075
|  6>  C        0.0472126630     0.0178953105     0.0314903302
|  7>  C        0.4683562453    -0.6959499857     1.3242671154
|  8>  O       -1.3328167385    -0.2567254253    -0.2279327973
|  9>  C        0.7653139849    -0.5091972915    -1.2254790521
| 10>  C        2.2057264745    -1.0012217257    -1.1966478202
| 11>  C        1.0937910886    -1.9834131904    -1.4070158085
| 12>  C        0.3738017287     0.1762122333    -2.4370217333
| 13>  N        0.0879368363     0.7243037925    -3.4148512016
| 14>  H        1.3348585272     1.7589040925     0.3197245016
| 15>  H       -0.0695263558     2.0567627120    -0.7251648574
| 16>  H       -0.2746247749     1.9180578026     1.0338782989
| 17>  H       -0.1188948401    -0.2888729972     2.1537543638
| 18>  H        0.2630567360    -1.7673919882     1.2759334009
| 19>  H        1.5230144208    -0.5404358782     1.5682213455
| 20>  H       -1.8611815696     0.2685049579     0.3823070723
| 21>  H        2.8331030684    -0.7394061563    -2.0399934945
| 22>  H        2.7125419075    -0.9949733447    -0.2394995875
| 23>  H        0.8321448956    -2.6523815875    -0.5974250845
| 24>  H        0.9517776178    -2.3983142848    -2.3972602590
| 25> *
| 26>
| 27>                          ****END OF INPUT****

CARTESIAN COORDINATES (ANGSTROEM)
---------------------------------
  C      0.275314    1.531283    0.168256
  C      0.047213    0.017895    0.031490
  C      0.468356   -0.695950    1.324267
  O     -1.332817   -0.256725   -0.227933
  C      0.765314   -0.509197   -1.225479
  C      2.205726   -1.001222   -1.196648
  C      1.093791   -1.983413   -1.407016
  C      0.373802    0.176212   -2.437022
  N      0.087937    0.724304   -3.414851
  H      1.334859    1.758904    0.319725
  H     -0.069526    2.056763   -0.725165
  H     -0.274625    1.918058    1.033878
  H     -0.118895   -0.288873    2.153754
  H      0.263057   -1.767392    1.275933
  H      1.523014   -0.540436    1.568221
  H     -1.861182    0.268505    0.382307
  H      2.833103   -0.739406   -2.039993
  H      2.712542   -0.994973   -0.239500
  H      0.832145   -2.652382   -0.597425
  H      0.951778   -2.398314   -2.397260

 Total Charge           Charge          ....    0
 Multiplicity           Mult            ....    1
 Number of Electrons    NEL             ....   68
 Basis Dimension        Dim             ....  345

ORBITAL ENERGIES
----------------

  NO   OCC          E(Eh)            E(eV)
   0   2.0000     -20.565311      -559.6106
   1   2.0000     -15.556922      -423.3254
   2   2.0000     -11.316572      -307.9396
   3   2.0000     -11.286139      -307.1115
   4   2.0000     -11.263737      -306.5019
   5   2.0000     -11.258295      -306.3538
   6   2.0000     -11.255220      -306.2701
   7   2.0000     -11.235181      -305.7248
   8   2.0000     -11.230616      -305.6006
   9   2.0000      -1.376935       -37.4683
  10   2.0000      -1.216568       -33.1045
  11   2.0000      -1.172668       -31.9099
  12   2.0000      -1.058812       -28.8117
  13   2.0000      -0.961958       -26.1762
  14   2.0000      -0.918553       -24.9951
  15   2.0000      -0.853016       -23.2117
  16   2.0000      -0.811339       -22.0776
  17   2.0000      -0.713197       -19.4071
  18   2.0000      -0.690333       -18.7849
  19   2.0000      -0.672814       -18.3082
  20   2.0000      -0.622214       -16.9313
  21   2.0000      -0.614862       -16.7313
  22   2.0000      -0.594749       -16.1840
  23   2.0000      -0.560727       -15.2581
  24   2.0000      -0.555703       -15.1215
  25   2.0000      -0.545374       -14.8404
  26   2.0000      -0.533828       -14.5262
  27   2.0000      -0.526204       -14.3188
  28   2.0000      -0.508967       -13.8497
  29   2.0000      -0.499343       -13.5878
  30   2.0000      -0.480882       -13.0855
  31   2.0000      -0.454504       -12.3677
  32   2.0000      -0.432549       -11.7703
  33   2.0000      -0.408752       -11.1227
  34   0.0000       0.118790         3.2324
  35   0.0000       0.148200         4.0327
  36   0.0000       0.156509         4.2588
  37   0.0000       0.159194         4.3319
  38   0.0000       0.181826         4.9477

MULLIKEN ATOMIC CHARGES
-----------------------
   0 C :   -0.456581
   1 C :    0.164568
   2 C :   -0.428322
   3 O :   -0.454497
   4 C :    0.262132
   5 C :   -0.285911
   6 C :   -0.271412
   7 C :   -0.241316
   8 N :   -0.050759
   9 H :    0.134761
  10 H :    0.178806
  11 H :    0.130253
  12 H :    0.136144
  13 H :    0.144970
  14 H :    0.126938
  15 H :    0.315206
  16 H :    0.155333
  17 H :    0.142398
  18 H :    0.141182
  19 H :    0.156107
Sum of atomic charges:    0.0000000

LOEWDIN ATOMIC CHARGES
----------------------
   0 C :   -0.266403
   1 C :   -0.378372
   2 C :   -0.268876
   3 O :    0.022964
   4 C :   -0.197872
   5 C :   -0.173610
   6 C :   -0.167948
   7 C :   -0.152612
   8 N :    0.060780
   9 H :    0.132709
  10 H :    0.138070
  11 H :    0.124830
  12 H :    0.129678
  13 H :    0.128126
  14 H :    0.126666
  15 H :    0.176488
  16 H :    0.143619
  17 H :    0.137914
  18 H :    0.139167
  19 H :    0.144681

  Mayer bond orders larger than 0.1
B(  0-C ,  1-C ) :   0.9300 B(  0-C ,  9-H ) :   0.9268 B(  0-C , 10-H ) :   0.9330
B(  0-C , 11-H ) :   0.9262 B(  1-C ,  2-C ) :   0.8886 B(  1-C ,  3-O ) :   1.0011
B(  1-C ,  4-C ) :   0.8781 B(  2-C , 12-H ) :   0.9257 B(  2-C , 13-H ) :   0.9470
B(  2-C , 14-H ) :   0.9310 B(  3-O , 15-H ) :   0.8404 B(  4-C ,  5-C ) :   0.8216
B(  4-C ,  6-C ) :   0.8062 B(  4-C ,  7-C ) :   0.9211 B(  5-C ,  6-C ) :   0.9257
B(  5-C , 16-H ) :   0.9202 B(  5-C , 17-H ) :   0.9247 B(  6-C , 18-H ) :   0.9271
B(  6-C , 19-H ) :   0.9234 B(  7-C ,  8-N ) :   2.8802

MP2 TOTAL ENERGY:     -402.470292002 Eh
FINAL SINGLE POINT ENERGY      -402.470292002049

DIPOLE MOMENT
-------------
                                X             Y             Z
Electronic contribution:     -2.76695       0.56797      -7.77727
Nuclear contribution   :      3.39895      -0.94259       9.56355
                        -----------------------------------------
Total Dipole Moment    :      0.63200      -0.37462       1.78628
                        -----------------------------------------
Magnitude (a.u.)       :      1.93146
Magnitude (Debye)      :      4.90938

                             ****ORCA TERMINATED NORMALLY****
TOTAL RUN TIME: 0 days 0 hours 23 minutes 4 seconds 178 msec
