                         Program Version 3.0.3 - RELEASE   -
|  1> ! RI-MP2 RIJK def2-TZVP def2-TZVP/C def2-TZVP/JK TIGHTSCF
|  2> % maxcore 2000
|  3> % mp2 density relaxed end
|  4> *xyz 0 1
|  5>  C        0.0111391137     1.5629651385     0.0977746441
|  6>  C       -0.0447626223     0.0464757132    -0.1040192758
|  7>  C        0.7732570019    -0.4859518283    -1.2993095879
|  8>  C        2.2637153654    -0.1384298906    -1.1802083603
|  9>  C        0.5569520702    -2.0214833823    -1.4801192522
| 10>  O        0.0170782867    -2.1613018469    -2.8092681167
| 11>  C       -0.1229222733    -0.8927216475    -3.2897229305
| 12>  C       -0.7082287184    -0.8071785739    -4.6581997598
| 13>  N        0.2449280641     0.0792358455    -2.5606041841
| 14>  H        1.0123146360     1.8999624493     0.3827939598
| 15>  H       -0.2720510841     2.0819533612    -0.8214673064
| 16>  H       -0.6757880055     1.8693087407     0.8927865858
| 17>  H        0.2993847699    -0.4663261298     0.8047030392
| 18>  H       -1.0876365918    -0.2585158273    -0.2553546176
| 19>  H        2.6792556274    -0.5166043240    -0.2392455554
| 20>  H        2.8260178884    -0.5833595404    -2.0069118911
| 21>  H        2.4158976984     0.9423034283    -1.2185612491
| 22>  H        1.4840357706    -2.5993870512    -1.4224345089
| 23>  H       -0.1651178630    -2.4379736172    -0.7699884532
| 24>  H       -0.0838025039    -1.3542709805    -5.3715695411
| 25>  H       -1.7006626521    -1.2684477429    -4.6758828236
| 26>  H       -0.7827859083     0.2363202864    -4.9616922853
| 27> *
| 28>
| 29>                          ****END OF INPUT****

CARTESIAN COORDINATES (ANGSTROEM)
---------------------------------
  C      0.011139    1.562965    0.097775
  C     -0.044763    0.046476   -0.104019
  C      0.773257   -0.485952   -1.299310
  C      2.263715   -0.138430   -1.180208
  C      0.556952   -2.021483   -1.480119
  O      0.017078   -2.161302   -2.809268
  C     -0.122922   -0.892722   -3.289723
  C     -0.708229   -0.807179   -4.658200
  N      0.244928    0.079236   -2.560604
  H      1.012315    1.899962    0.382794
  H     -0.272051    2.081953   -0.821467
  H     -0.675788    1.869309    0.892787
  H      0.299385   -0.466326    0.804703
  H     -1.087637   -0.258516   -0.255355
  H      2.679256   -0.516604   -0.239246
  H      2.826018   -0.583360   -2.006912
  H      2.415898    0.942303   -1.218561
  H      1.484036   -2.599387   -1.422435
  H     -0.165118   -2.437974   -0.769988
  H     -0.083803   -1.354271   -5.371570
  H     -1.700663   -1.268448   -4.675883
  H     -0.782786    0.236320   -4.961692

 Total Charge           Charge          ....    0
 Multiplicity           Mult            ....    1
 Number of Electrons    NEL             ....   70
 Basis Dimension        Dim             ....  357

ORBITAL ENERGIES
----------------

  NO   OCC          E(Eh)            E(eV)
   0   2.0000     -20.586108      -560.1765
   1   2.0000     -15.531622      -422.6369
   2   2.0000     -11.327887      -308.2475
   3   2.0000     -11.281948      -306.9974
   4   2.0000     -11.264985      -306.5358
   5   2.0000     -11.233032      -305.6664
   6   2.0000     -11.220389      -305.3223
   7   2.0000     -11.213304      -305.1295
   8   2.0000     -11.205975      -304.9301
   9   2.0000      -1.429299       -38.8932
  10   2.0000      -1.208726       -32.8911
  11   2.0000      -1.084199       -29.5025
  12   2.0000      -1.010873       -27.5072
  13   2.0000      -0.973129       -26.4802
  14   2.0000      -0.928040       -25.2532
  15   2.0000      -0.859871       -23.3983
  16   2.0000      -0.776235       -21.1224
  17   2.0000      -0.753596       -20.5064
  18   2.0000      -0.672852       -18.3092
  19   2.0000      -0.669185       -18.2094
  20   2.0000      -0.629611       -17.1326
  21   2.0000      -0.594656       -16.1814
  22   2.0000      -0.591413       -16.0932
  23   2.0000      -0.581681       -15.8283
  24   2.0000      -0.569425       -15.4948
  25   2.0000      -0.548652       -14.9296
  26   2.0000      -0.534181       -14.5358
  27   2.0000      -0.531822       -14.4716
  28   2.0000      -0.519095       -14.1253
  29   2.0000      -0.497227       -13.5302
  30   2.0000      -0.487977       -13.2785
  31   2.0000      -0.470753       -12.8098
  32   2.0000      -0.458818       -12.4851
  33   2.0000      -0.418548       -11.3893
  34   2.0000      -0.370658       -10.0861
  35   0.0000       0.133203         3.6246
  36   0.0000       0.151993         4.1359
  37   0.0000       0.168215         4.5774
  38   0.0000       0.173868         4.7312
  39   0.0000       0.182917         4.9774

MULLIKEN ATOMIC CHARGES
-----------------------
   0 C :   -0.428436
   1 C :   -0.212478
   2 C :    0.290774
   3 C :   -0.463544
   4 C :   -0.093420
   5 O :   -0.274895
   6 C :    0.205425
   7 C :   -0.420109
   8 N :   -0.327192
   9 H :    0.125638
  10 H :    0.150710
  11 H :    0.132515
  12 H :    0.109398
  13 H :    0.110228
  14 H :    0.127179
  15 H :    0.135508
  16 H :    0.148078
  17 H :    0.117331
  18 H :    0.114289
  19 H :    0.147788
  20 H :    0.147589
  21 H :    0.157624
Sum of atomic charges:   -0.0000000

LOEWDIN ATOMIC CHARGES
----------------------
   0 C :   -0.316055
   1 C :   -0.256313
   2 C :   -0.332288
   3 C :   -0.270191
   4 C :   -0.221274
   5 O :    0.228022
   6 C :   -0.395862
   7 C :   -0.263053
   8 N :    0.126423
   9 H :    0.119299
  10 H :    0.128371
  11 H :    0.120869
  12 H :    0.138713
  13 H :    0.141114
  14 H :    0.126112
  15 H :    0.127090
  16 H :    0.129390
  17 H :    0.127422
  18 H :    0.127263
  19 H :    0.138001
  20 H :    0.137765
  21 H :    0.139182

  Mayer bond orders larger than 0.1
B(  0-C ,  1-C ) :   0.9208 B(  0-C ,  9-H ) :   0.9399 B(  0-C , 10-H ) :   0.9356
B(  0-C , 11-H ) :   0.9376 B(  1-C ,  2-C ) :   0.8990 B(  1-C , 12-H ) :   0.9289
B(  1-C , 13-H ) :   0.9246 B(  2-C ,  3-C ) :   0.8831 B(  2-C ,  4-C ) :   0.8659
B(  2-C ,  8-N ) :   0.8275 B(  3-C , 14-H ) :   0.9332 B(  3-C , 15-H ) :   0.9316
B(  3-C , 16-H ) :   0.9425 B(  4-C ,  5-O ) :   0.8934 B(  4-C , 17-H ) :   0.9206
B(  4-C , 18-H ) :   0.9232 B(  5-O ,  6-C ) :   1.0622 B(  6-C ,  7-C ) :   0.8806
B(  6-C ,  8-N ) :   1.8684 B(  7-C , 19-H ) :   0.9261 B(  7-C , 20-H ) :   0.9268
B(  7-C , 21-H ) :   0.9506

MP2 TOTAL ENERGY:     -403.695362429 Eh
FINAL SINGLE POINT ENERGY      -403.695362428732

DIPOLE MOMENT
-------------
                                X             Y             Z
Electronic contribution:     -1.44429      -4.61174      -4.68646
Nuclear contribution   :      1.50253       4.27452       4.90783
                        -----------------------------------------
Total Dipole Moment    :      0.05825      -0.33723       0.22137
                        -----------------------------------------
Magnitude (a.u.)       :      0.40758
Magnitude (Debye)      :      1.03597

                             ****ORCA TERMINATED NORMALLY****
TOTAL RUN TIME: 0 days 0 hours 20 minutes 51 seconds 538 msec
