                         Program Version 3.0.3 - RELEASE   -
|  1> ! RI-MP2 RIJK def2-TZVP def2-TZVP/C def2-TZVP/JK TIGHTSCF
|  2> % maxcore 2000
|  3> % mp2 density relaxed end
|  4> *xyz 0 1
|  5>  C       -0.0006817690     1.4941535144    -0.0124491352
|  6>  C       -0.0432404907     0.0391157265    -0.0108352860
|  7>  C       -0.0838363820    -1.1659880003    -0.0231939986
|  8>  C       -0.0843895312    -2.6077073160    -0.0325273526
|  9>  O        0.8693063109    -3.1973072404    -0.8858161354
| 10>  C       -0.3816672274    -3.4369702607     1.2078212930
| 11>  C       -1.4499301562    -2.7693056073     2.0776763285
| 12>  C       -2.4254964882    -2.7780393633     0.8508791715
| 13>  C       -1.3359188903    -3.4466826121     0.0092874152
| 14>  H        0.6607697651     1.8806905193     0.7710189754
| 15>  H        0.3616652316     1.8770273743    -0.9729704185
| 16>  H       -0.9968285654     1.9182492373     0.1557222513
| 17>  H        1.7385050223    -2.9063840563    -0.5883482402
| 18>  H        0.3392742774    -4.1856697149     1.5146462010
| 19>  H       -1.7985466633    -3.4135890730     2.8875913190
| 20>  H       -1.1877622019    -1.7904739308     2.4892754988
| 21>  H       -3.2866814419    -3.4292063744     1.0131934119
| 22>  H       -2.7761238209    -1.8057094951     0.4940167499
| 23>  H       -1.4717659791    -4.2014926572    -0.7557257388
| 24> *
| 25>
| 26>                          ****END OF INPUT****

CARTESIAN COORDINATES (ANGSTROEM)
---------------------------------
  C     -0.000682    1.494154   -0.012449
  C     -0.043240    0.039116   -0.010835
  C     -0.083836   -1.165988   -0.023194
  C     -0.084390   -2.607707   -0.032527
  O      0.869306   -3.197307   -0.885816
  C     -0.381667   -3.436970    1.207821
  C     -1.449930   -2.769306    2.077676
  C     -2.425496   -2.778039    0.850879
  C     -1.335919   -3.446683    0.009287
  H      0.660770    1.880691    0.771019
  H      0.361665    1.877027   -0.972970
  H     -0.996829    1.918249    0.155722
  H      1.738505   -2.906384   -0.588348
  H      0.339274   -4.185670    1.514646
  H     -1.798547   -3.413589    2.887591
  H     -1.187762   -1.790474    2.489275
  H     -3.286681   -3.429206    1.013193
  H     -2.776124   -1.805709    0.494017
  H     -1.471766   -4.201493   -0.755726

 Total Charge           Charge          ....    0
 Multiplicity           Mult            ....    1
 Number of Electrons    NEL             ....   66
 Basis Dimension        Dim             ....  339

ORBITAL ENERGIES
----------------

  NO   OCC          E(Eh)            E(eV)
   0   2.0000     -20.564106      -559.5778
   1   2.0000     -11.305877      -307.6485
   2   2.0000     -11.248578      -306.0894
   3   2.0000     -11.235105      -305.7227
   4   2.0000     -11.234383      -305.7031
   5   2.0000     -11.227792      -305.5238
   6   2.0000     -11.225574      -305.4634
   7   2.0000     -11.224871      -305.4443
   8   2.0000     -11.217789      -305.2516
   9   2.0000      -1.376086       -37.4452
  10   2.0000      -1.184439       -32.2302
  11   2.0000      -1.058337       -28.7988
  12   2.0000      -0.988887       -26.9090
  13   2.0000      -0.953181       -25.9374
  14   2.0000      -0.895053       -24.3556
  15   2.0000      -0.828766       -22.5519
  16   2.0000      -0.748904       -20.3787
  17   2.0000      -0.717379       -19.5209
  18   2.0000      -0.674287       -18.3483
  19   2.0000      -0.634004       -17.2521
  20   2.0000      -0.629635       -17.1332
  21   2.0000      -0.604123       -16.4390
  22   2.0000      -0.588417       -16.0116
  23   2.0000      -0.587107       -15.9760
  24   2.0000      -0.568317       -15.4647
  25   2.0000      -0.530220       -14.4280
  26   2.0000      -0.505080       -13.7439
  27   2.0000      -0.480402       -13.0724
  28   2.0000      -0.468144       -12.7389
  29   2.0000      -0.429047       -11.6750
  30   2.0000      -0.393878       -10.7180
  31   2.0000      -0.372105       -10.1255
  32   2.0000      -0.343807        -9.3555
  33   0.0000       0.130959         3.5636
  34   0.0000       0.148594         4.0434
  35   0.0000       0.158549         4.3143
  36   0.0000       0.170900         4.6504
  37   0.0000       0.181755         4.9458

MULLIKEN ATOMIC CHARGES
-----------------------
   0 C :   -0.484616
   1 C :    0.022964
   2 C :   -0.025383
   3 C :    0.131833
   4 O :   -0.462727
   5 C :   -0.158483
   6 C :   -0.221496
   7 C :   -0.225187
   8 C :   -0.134774
   9 H :    0.161919
  10 H :    0.165825
  11 H :    0.163832
  12 H :    0.324275
  13 H :    0.127172
  14 H :    0.119982
  15 H :    0.116884
  16 H :    0.121243
  17 H :    0.119869
  18 H :    0.136869
Sum of atomic charges:   -0.0000000

LOEWDIN ATOMIC CHARGES
----------------------
   0 C :   -0.294627
   1 C :   -0.090718
   2 C :   -0.046942
   3 C :   -0.324356
   4 O :    0.037808
   5 C :   -0.144357
   6 C :   -0.211231
   7 C :   -0.208047
   8 C :   -0.133698
   9 H :    0.139988
  10 H :    0.142699
  11 H :    0.142048
  12 H :    0.183791
  13 H :    0.136849
  14 H :    0.133636
  15 H :    0.129865
  16 H :    0.134327
  17 H :    0.130881
  18 H :    0.142084

  Mayer bond orders larger than 0.1
B(  0-C ,  1-C ) :   0.8553 B(  0-C ,  9-H ) :   0.9473 B(  0-C , 10-H ) :   0.9471
B(  0-C , 11-H ) :   0.9485 B(  1-C ,  2-C ) :   2.6920 B(  2-C ,  3-C ) :   1.0334
B(  3-C ,  4-O ) :   0.9010 B(  3-C ,  5-C ) :   0.8852 B(  3-C ,  8-C ) :   0.9049
B(  4-O , 12-H ) :   0.8388 B(  5-C ,  6-C ) :   0.9241 B(  5-C ,  8-C ) :   0.8375
B(  5-C , 13-H ) :   0.9198 B(  6-C ,  7-C ) :   0.9683 B(  6-C , 14-H ) :   0.9154
B(  6-C , 15-H ) :   0.9176 B(  7-C ,  8-C ) :   0.9473 B(  7-C , 16-H ) :   0.9249
B(  7-C , 17-H ) :   0.9174 B(  8-C , 18-H ) :   0.9208

MP2 TOTAL ENERGY:     -385.143598953 Eh
FINAL SINGLE POINT ENERGY      -385.143598953436

DIPOLE MOMENT
-------------
                                X             Y             Z
Electronic contribution:      3.01607      -3.14719      -2.83643
Nuclear contribution   :     -2.93836       3.62219       3.35181
                        -----------------------------------------
Total Dipole Moment    :      0.07771       0.47500       0.51538
                        -----------------------------------------
Magnitude (a.u.)       :      0.70518
Magnitude (Debye)      :      1.79243

                             ****ORCA TERMINATED NORMALLY****
TOTAL RUN TIME: 0 days 0 hours 17 minutes 51 seconds 546 msec
