                         Program Version 3.0.3 - RELEASE   -
|  1> ! RI-MP2 RIJK def2-TZVP def2-TZVP/C def2-TZVP/JK TIGHTSCF
|  2> % maxcore 2000
|  3> % mp2 density relaxed end
|  4> *xyz 0 1
|  5>  O       -0.0739502648     0.1217980200     0.5559828125
|  6>  C        0.0217073406     1.2233472590     0.1307482062
|  7>  O       -1.0004299057     2.0474147586    -0.3090020310
|  8>  C       -0.0715701612     3.1174626989    -0.6980114296
|  9>  C        0.1996128712     4.1100526076     0.4621032757
| 10>  N        1.2064932573     3.1788813319     1.0471267941
| 11>  C        1.1114887128     2.2751207875    -0.1247673538
| 12>  C       -0.2576460466     3.5778944530    -2.0421195995
| 13>  C       -0.3880654364     3.9897274490    -3.1636630284
| 14>  H        0.6186732453     5.0522171806     0.0957993636
| 15>  H       -0.6590397578     4.3114138192     1.1082459625
| 16>  H        2.1241620129     3.5921607119     1.1523986794
| 17>  H        2.0219689845     1.9915574905    -0.6501142908
| 18>  H       -0.5130259723     4.3460781025    -4.1569201609
| 19> *
| 20>
| 21>                          ****END OF INPUT****

CARTESIAN COORDINATES (ANGSTROEM)
---------------------------------
  O     -0.073950    0.121798    0.555983
  C      0.021707    1.223347    0.130748
  O     -1.000430    2.047415   -0.309002
  C     -0.071570    3.117463   -0.698011
  C      0.199613    4.110053    0.462103
  N      1.206493    3.178881    1.047127
  C      1.111489    2.275121   -0.124767
  C     -0.257646    3.577894   -2.042120
  C     -0.388065    3.989727   -3.163663
  H      0.618673    5.052217    0.095799
  H     -0.659040    4.311414    1.108246
  H      2.124162    3.592161    1.152399
  H      2.021969    1.991557   -0.650114
  H     -0.513026    4.346078   -4.156920

 Total Charge           Charge          ....    0
 Multiplicity           Mult            ....    1
 Number of Electrons    NEL             ....   64
 Basis Dimension        Dim             ....  309

ORBITAL ENERGIES
----------------

  NO   OCC          E(Eh)            E(eV)
   0   2.0000     -20.612600      -560.8974
   1   2.0000     -20.561182      -559.4982
   2   2.0000     -15.583770      -424.0559
   3   2.0000     -11.389812      -309.9325
   4   2.0000     -11.347941      -308.7932
   5   2.0000     -11.310545      -307.7756
   6   2.0000     -11.291062      -307.2454
   7   2.0000     -11.261610      -306.4440
   8   2.0000     -11.257678      -306.3370
   9   2.0000      -1.474406       -40.1206
  10   2.0000      -1.391225       -37.8572
  11   2.0000      -1.261547       -34.3284
  12   2.0000      -1.080377       -29.3986
  13   2.0000      -0.998073       -27.1590
  14   2.0000      -0.989190       -26.9172
  15   2.0000      -0.877955       -23.8904
  16   2.0000      -0.776753       -21.1365
  17   2.0000      -0.751417       -20.4471
  18   2.0000      -0.726037       -19.7565
  19   2.0000      -0.717896       -19.5349
  20   2.0000      -0.689523       -18.7629
  21   2.0000      -0.638337       -17.3700
  22   2.0000      -0.631940       -17.1960
  23   2.0000      -0.606401       -16.5010
  24   2.0000      -0.566434       -15.4134
  25   2.0000      -0.551419       -15.0049
  26   2.0000      -0.512323       -13.9410
  27   2.0000      -0.475444       -12.9375
  28   2.0000      -0.463728       -12.6187
  29   2.0000      -0.435286       -11.8447
  30   2.0000      -0.414453       -11.2778
  31   2.0000      -0.392842       -10.6898
  32   0.0000       0.113195         3.0802
  33   0.0000       0.130719         3.5570
  34   0.0000       0.140347         3.8190
  35   0.0000       0.144882         3.9424
  36   0.0000       0.153111         4.1664

MULLIKEN ATOMIC CHARGES
-----------------------
   0 O :   -0.240341
   1 C :    0.261876
   2 O :   -0.228683
   3 C :   -0.035190
   4 C :   -0.131681
   5 N :   -0.351849
   6 C :   -0.042609
   7 C :    0.000149
   8 C :   -0.069056
   9 H :    0.137392
  10 H :    0.124470
  11 H :    0.220149
  12 H :    0.149556
  13 H :    0.205818
Sum of atomic charges:    0.0000000

LOEWDIN ATOMIC CHARGES
----------------------
   0 O :    0.175067
   1 C :   -0.420625
   2 O :    0.277581
   3 C :   -0.254588
   4 C :   -0.200255
   5 N :    0.002105
   6 C :   -0.167044
   7 C :   -0.069653
   8 C :   -0.051347
   9 H :    0.133813
  10 H :    0.133819
  11 H :    0.165913
  12 H :    0.142762
  13 H :    0.132452

  Mayer bond orders larger than 0.1
B(  0-O ,  1-C ) :   2.0748 B(  1-C ,  2-O ) :   1.0571 B(  1-C ,  6-C ) :   0.9030
B(  2-O ,  3-C ) :   0.9560 B(  3-C ,  4-C ) :   0.9230 B(  3-C ,  6-C ) :   0.8933
B(  3-C ,  7-C ) :   1.1759 B(  3-C ,  8-C ) :  -0.1531 B(  4-C ,  5-N ) :   0.9505
B(  4-C ,  9-H ) :   0.9130 B(  4-C , 10-H ) :   0.8997 B(  5-N ,  6-C ) :   0.9674
B(  5-N , 11-H ) :   0.8716 B(  6-C , 12-H ) :   0.8853 B(  7-C ,  8-C ) :   2.6065
B(  8-C , 13-H ) :   0.8745

MP2 TOTAL ENERGY:     -435.901941277 Eh
FINAL SINGLE POINT ENERGY      -435.901941276667

DIPOLE MOMENT
-------------
                                X             Y             Z
Electronic contribution:     -1.95668      -4.31572      -0.39914
Nuclear contribution   :      2.94967       5.92737      -0.40329
                        -----------------------------------------
Total Dipole Moment    :      0.99299       1.61165      -0.80243
                        -----------------------------------------
Magnitude (a.u.)       :      2.05605
Magnitude (Debye)      :      5.22607

                             ****ORCA TERMINATED NORMALLY****
TOTAL RUN TIME: 0 days 0 hours 15 minutes 12 seconds 892 msec
