                         Program Version 3.0.3 - RELEASE   -
|  1> ! RI-MP2 RIJK def2-TZVP def2-TZVP/C def2-TZVP/JK TIGHTSCF
|  2> % maxcore 2000
|  3> % mp2 density relaxed end
|  4> *xyz 0 1
|  5>  C        0.0575930863     1.5438573495    -0.0791456005
|  6>  O        1.4708741273     1.5550305501     0.2007734160
|  7>  C        1.4729701163     0.1364909423     0.4661589686
|  8>  C        0.0041208470     0.0018171784    -0.0081887412
|  9>  C       -0.9875982821    -0.6382490086     0.9633470220
| 10>  C       -0.8259459620    -2.1663343474     0.9593824198
| 11>  C       -0.8791760067    -2.6981427203    -0.4742120737
| 12>  O        0.0809466318    -2.0632412500    -1.3042669875
| 13>  C       -0.1230881263    -0.6641886098    -1.3791785740
| 14>  H       -0.5223382277     2.0574097201     0.7007058289
| 15>  H       -0.1757204370     1.9986423349    -1.0511132082
| 16>  H        2.2275401904    -0.3972000209    -0.1226482882
| 17>  H        1.6322156795    -0.0779878353     1.5322280039
| 18>  H       -0.8529454904    -0.2323070280     1.9723171604
| 19>  H       -2.0096457758    -0.3781487097     0.6522941628
| 20>  H        0.1397796781    -2.4391213015     1.4023265562
| 21>  H       -1.6059510476    -2.6434673875     1.5630959358
| 22>  H       -0.6548067361    -3.7678611324    -0.5119141223
| 23>  H       -1.8910357125    -2.5490462173    -0.8910243095
| 24>  H       -1.1194829112    -0.4441632995    -1.8038679133
| 25>  H        0.6315296989    -0.2772077575    -2.0712165862
| 26> *
| 27>
| 28>                          ****END OF INPUT****

CARTESIAN COORDINATES (ANGSTROEM)
---------------------------------
  C      0.057593    1.543857   -0.079146
  O      1.470874    1.555031    0.200773
  C      1.472970    0.136491    0.466159
  C      0.004121    0.001817   -0.008189
  C     -0.987598   -0.638249    0.963347
  C     -0.825946   -2.166334    0.959382
  C     -0.879176   -2.698143   -0.474212
  O      0.080947   -2.063241   -1.304267
  C     -0.123088   -0.664189   -1.379179
  H     -0.522338    2.057410    0.700706
  H     -0.175720    1.998642   -1.051113
  H      2.227540   -0.397200   -0.122648
  H      1.632216   -0.077988    1.532228
  H     -0.852945   -0.232307    1.972317
  H     -2.009646   -0.378149    0.652294
  H      0.139780   -2.439121    1.402327
  H     -1.605951   -2.643467    1.563096
  H     -0.654807   -3.767861   -0.511914
  H     -1.891036   -2.549046   -0.891024
  H     -1.119483   -0.444163   -1.803868
  H      0.631530   -0.277208   -2.071217

 Total Charge           Charge          ....    0
 Multiplicity           Mult            ....    1
 Number of Electrons    NEL             ....   70
 Basis Dimension        Dim             ....  351

ORBITAL ENERGIES
----------------

  NO   OCC          E(Eh)            E(eV)
   0   2.0000     -20.557216      -559.3903
   1   2.0000     -20.546951      -559.1110
   2   2.0000     -11.278531      -306.9044
   3   2.0000     -11.277784      -306.8841
   4   2.0000     -11.277425      -306.8743
   5   2.0000     -11.274254      -306.7881
   6   2.0000     -11.239874      -305.8525
   7   2.0000     -11.232818      -305.6605
   8   2.0000     -11.229774      -305.5777
   9   2.0000      -1.382338       -37.6153
  10   2.0000      -1.374015       -37.3889
  11   2.0000      -1.093663       -29.7601
  12   2.0000      -1.041565       -28.3424
  13   2.0000      -0.935220       -25.4486
  14   2.0000      -0.914697       -24.8902
  15   2.0000      -0.889785       -24.2123
  16   2.0000      -0.816068       -22.2063
  17   2.0000      -0.740400       -20.1473
  18   2.0000      -0.688609       -18.7380
  19   2.0000      -0.677950       -18.4479
  20   2.0000      -0.656486       -17.8639
  21   2.0000      -0.640759       -17.4359
  22   2.0000      -0.616251       -16.7690
  23   2.0000      -0.590761       -16.0754
  24   2.0000      -0.576492       -15.6872
  25   2.0000      -0.560492       -15.2518
  26   2.0000      -0.554712       -15.0945
  27   2.0000      -0.547815       -14.9068
  28   2.0000      -0.512461       -13.9448
  29   2.0000      -0.496715       -13.5163
  30   2.0000      -0.469187       -12.7672
  31   2.0000      -0.441892       -12.0245
  32   2.0000      -0.439139       -11.9496
  33   2.0000      -0.422880       -11.5071
  34   2.0000      -0.401947       -10.9375
  35   0.0000       0.130020         3.5380
  36   0.0000       0.153359         4.1731
  37   0.0000       0.159430         4.3383
  38   0.0000       0.174087         4.7372
  39   0.0000       0.184661         5.0249

MULLIKEN ATOMIC CHARGES
-----------------------
   0 C :   -0.040581
   1 O :   -0.326947
   2 C :   -0.068795
   3 C :    0.095911
   4 C :   -0.267554
   5 C :   -0.205839
   6 C :   -0.083515
   7 O :   -0.311280
   8 C :   -0.119767
   9 H :    0.091500
  10 H :    0.097247
  11 H :    0.111137
  12 H :    0.087869
  13 H :    0.130140
  14 H :    0.114278
  15 H :    0.110510
  16 H :    0.124712
  17 H :    0.131835
  18 H :    0.091834
  19 H :    0.097775
  20 H :    0.139531
Sum of atomic charges:    0.0000000

LOEWDIN ATOMIC CHARGES
----------------------
   0 C :   -0.231626
   1 O :    0.113206
   2 C :   -0.230619
   3 C :   -0.277111
   4 C :   -0.229250
   5 C :   -0.265243
   6 C :   -0.316816
   7 O :    0.158006
   8 C :   -0.280529
   9 H :    0.119424
  10 H :    0.119666
  11 H :    0.122108
  12 H :    0.118516
  13 H :    0.141696
  14 H :    0.143210
  15 H :    0.140735
  16 H :    0.139699
  17 H :    0.129951
  18 H :    0.120618
  19 H :    0.125230
  20 H :    0.139131

  Mayer bond orders larger than 0.1
B(  0-C ,  1-O ) :   0.9668 B(  0-C ,  3-C ) :   0.9470 B(  0-C ,  9-H ) :   0.8988
B(  0-C , 10-H ) :   0.9075 B(  1-O ,  2-C ) :   0.9536 B(  2-C ,  3-C ) :   0.9439
B(  2-C , 11-H ) :   0.9081 B(  2-C , 12-H ) :   0.9022 B(  3-C ,  4-C ) :   0.9018
B(  3-C ,  8-C ) :   0.9066 B(  4-C ,  5-C ) :   0.9290 B(  4-C , 13-H ) :   0.9270
B(  4-C , 14-H ) :   0.9297 B(  5-C ,  6-C ) :   0.9384 B(  5-C , 15-H ) :   0.9220
B(  5-C , 16-H ) :   0.9248 B(  6-C ,  7-O ) :   0.9364 B(  6-C , 17-H ) :   0.9290
B(  6-C , 18-H ) :   0.9373 B(  7-O ,  8-C ) :   0.9328 B(  8-C , 19-H ) :   0.9324
B(  8-C , 20-H ) :   0.9231

MP2 TOTAL ENERGY:     -423.508825504 Eh
FINAL SINGLE POINT ENERGY      -423.508825504323

DIPOLE MOMENT
-------------
                                X             Y             Z
Electronic contribution:      3.47375       1.95874      -1.90543
Nuclear contribution   :     -4.37664      -2.32002       2.22912
                        -----------------------------------------
Total Dipole Moment    :     -0.90289      -0.36128       0.32369
                        -----------------------------------------
Magnitude (a.u.)       :      1.02494
Magnitude (Debye)      :      2.60520

                             ****ORCA TERMINATED NORMALLY****
TOTAL RUN TIME: 0 days 0 hours 18 minutes 51 seconds 228 msec
