                         Program Version 3.0.3 - RELEASE   -
|  1> ! RI-MP2 RIJK def2-TZVP def2-TZVP/C def2-TZVP/JK TIGHTSCF
|  2> % maxcore 2000
|  3> % mp2 density relaxed end
|  4> *xyz 0 1
|  5>  C       -0.1600863906     1.5032617498    -0.0365656691
|  6>  C       -0.0197174688    -0.0102563053    -0.0295204894
|  7>  C        1.2944778514    -0.5960878611    -0.6444033538
|  8>  O        1.9836681617    -0.2197141357     0.5941681761
|  9>  C        0.7177208217    -0.6439928951     1.2147488067
| 10>  C        0.5249320367    -0.2080205438     2.6399199876
| 11>  C        0.6873634272    -2.1497637707     0.8325691385
| 12>  C        0.2912799797    -3.2762815025     1.7204921031
| 13>  C        1.0869045748    -2.1012810703    -0.4420895110
| 14>  H        0.7781365701     1.9818462684     0.2536638136
| 15>  H       -0.4369659440     1.8608920521    -1.0344759548
| 16>  H       -0.9460937388     1.8286356242     0.6544076233
| 17>  H       -0.9457385472    -0.5073008085    -0.3331513513
| 18>  H        1.7593428852    -0.2162353101    -1.5539665384
| 19>  H        0.5503293095     0.8815598365     2.7236004600
| 20>  H       -0.4373558573    -0.5613603515     3.0249061754
| 21>  H        1.3174500263    -0.6163927246     3.2754259711
| 22>  H       -0.7375914720    -3.1596132775     2.0853866650
| 23>  H        0.3552055880    -4.2351404617     1.1985562933
| 24>  H        0.9314030050    -3.3317796057     2.6102232557
| 25>  H        1.2201847715    -2.8907165070    -1.1678578618
| 26> *
| 27>
| 28>                          ****END OF INPUT****

CARTESIAN COORDINATES (ANGSTROEM)
---------------------------------
  C     -0.160086    1.503262   -0.036566
  C     -0.019717   -0.010256   -0.029520
  C      1.294478   -0.596088   -0.644403
  O      1.983668   -0.219714    0.594168
  C      0.717721   -0.643993    1.214749
  C      0.524932   -0.208021    2.639920
  C      0.687363   -2.149764    0.832569
  C      0.291280   -3.276282    1.720492
  C      1.086905   -2.101281   -0.442090
  H      0.778137    1.981846    0.253664
  H     -0.436966    1.860892   -1.034476
  H     -0.946094    1.828636    0.654408
  H     -0.945739   -0.507301   -0.333151
  H      1.759343   -0.216235   -1.553967
  H      0.550329    0.881560    2.723600
  H     -0.437356   -0.561360    3.024906
  H      1.317450   -0.616393    3.275426
  H     -0.737591   -3.159613    2.085387
  H      0.355206   -4.235140    1.198556
  H      0.931403   -3.331780    2.610223
  H      1.220185   -2.890717   -1.167858

 Total Charge           Charge          ....    0
 Multiplicity           Mult            ....    1
 Number of Electrons    NEL             ....   68
 Basis Dimension        Dim             ....  351

ORBITAL ENERGIES
----------------

  NO   OCC          E(Eh)            E(eV)
   0   2.0000     -20.536027      -558.8137
   1   2.0000     -11.290987      -307.2434
   2   2.0000     -11.283669      -307.0442
   3   2.0000     -11.235073      -305.7219
   4   2.0000     -11.233320      -305.6742
   5   2.0000     -11.229340      -305.5659
   6   2.0000     -11.220636      -305.3290
   7   2.0000     -11.217271      -305.2375
   8   2.0000     -11.211531      -305.0813
   9   2.0000      -1.379245       -37.5312
  10   2.0000      -1.100908       -29.9572
  11   2.0000      -1.029752       -28.0210
  12   2.0000      -1.013814       -27.5873
  13   2.0000      -0.963631       -26.2217
  14   2.0000      -0.873157       -23.7598
  15   2.0000      -0.866981       -23.5918
  16   2.0000      -0.737357       -20.0645
  17   2.0000      -0.695328       -18.9208
  18   2.0000      -0.667205       -18.1556
  19   2.0000      -0.657611       -17.8945
  20   2.0000      -0.605190       -16.4681
  21   2.0000      -0.588378       -16.0106
  22   2.0000      -0.575210       -15.6523
  23   2.0000      -0.561281       -15.2732
  24   2.0000      -0.552325       -15.0295
  25   2.0000      -0.543788       -14.7972
  26   2.0000      -0.533618       -14.5205
  27   2.0000      -0.519092       -14.1252
  28   2.0000      -0.510082       -13.8800
  29   2.0000      -0.484016       -13.1708
  30   2.0000      -0.457841       -12.4585
  31   2.0000      -0.424221       -11.5436
  32   2.0000      -0.405156       -11.0249
  33   2.0000      -0.333751        -9.0818
  34   0.0000       0.129904         3.5349
  35   0.0000       0.147556         4.0152
  36   0.0000       0.155247         4.2245
  37   0.0000       0.170850         4.6491
  38   0.0000       0.184750         5.0273

MULLIKEN ATOMIC CHARGES
-----------------------
   0 C :   -0.470605
   1 C :    0.029298
   2 C :    0.052163
   3 O :   -0.305815
   4 C :    0.139034
   5 C :   -0.439261
   6 C :    0.031535
   7 C :   -0.451423
   8 C :   -0.243958
   9 H :    0.158033
  10 H :    0.135105
  11 H :    0.132306
  12 H :    0.103902
  13 H :    0.132958
  14 H :    0.151763
  15 H :    0.134755
  16 H :    0.146913
  17 H :    0.141371
  18 H :    0.145825
  19 H :    0.147811
  20 H :    0.128289
Sum of atomic charges:   -0.0000000

LOEWDIN ATOMIC CHARGES
----------------------
   0 C :   -0.299881
   1 C :   -0.184835
   2 C :   -0.217645
   3 O :    0.166053
   4 C :   -0.260099
   5 C :   -0.265594
   6 C :   -0.138793
   7 C :   -0.276184
   8 C :   -0.115835
   9 H :    0.131712
  10 H :    0.125835
  11 H :    0.124840
  12 H :    0.143259
  13 H :    0.130665
  14 H :    0.133080
  15 H :    0.133499
  16 H :    0.135950
  17 H :    0.132438
  18 H :    0.133386
  19 H :    0.134368
  20 H :    0.133777

  Mayer bond orders larger than 0.1
B(  0-C ,  1-C ) :   0.8835 B(  0-C ,  9-H ) :   0.9399 B(  0-C , 10-H ) :   0.9349
B(  0-C , 11-H ) :   0.9349 B(  1-C ,  2-C ) :   0.9239 B(  1-C ,  4-C ) :   0.8941
B(  1-C , 12-H ) :   0.9073 B(  2-C ,  3-O ) :   0.8802 B(  2-C ,  8-C ) :   0.9442
B(  2-C , 13-H ) :   0.9045 B(  3-O ,  4-C ) :   0.9344 B(  4-C ,  5-C ) :   0.8209
B(  4-C ,  6-C ) :   0.9475 B(  5-C , 14-H ) :   0.9462 B(  5-C , 15-H ) :   0.9383
B(  5-C , 16-H ) :   0.9460 B(  6-C ,  7-C ) :   0.8520 B(  6-C ,  8-C ) :   1.7528
B(  7-C , 17-H ) :   0.9375 B(  7-C , 18-H ) :   0.9471 B(  7-C , 19-H ) :   0.9421
B(  8-C , 20-H ) :   0.9355

MP2 TOTAL ENERGY:     -386.383593314 Eh
FINAL SINGLE POINT ENERGY      -386.383593314474

DIPOLE MOMENT
-------------
                                X             Y             Z
Electronic contribution:      4.05575      -1.13748      -3.35656
Nuclear contribution   :     -4.78823       0.88312       3.35324
                        -----------------------------------------
Total Dipole Moment    :     -0.73248      -0.25436      -0.00332
                        -----------------------------------------
Magnitude (a.u.)       :      0.77539
Magnitude (Debye)      :      1.97089

                             ****ORCA TERMINATED NORMALLY****
TOTAL RUN TIME: 0 days 0 hours 21 minutes 55 seconds 918 msec
