                         Program Version 3.0.3 - RELEASE   -
|  1> ! RI-MP2 RIJK def2-TZVP def2-TZVP/C def2-TZVP/JK TIGHTSCF
|  2> % maxcore 2000
|  3> % mp2 density relaxed end
|  4> *xyz 0 1
|  5>  N        0.0062916215     1.3480462833     0.0566094204
|  6>  C       -0.0201841707    -0.0215899638    -0.0139116334
|  7>  N       -1.0885189493    -0.7201773936    -0.1259535994
|  8>  C       -0.7485608697    -2.1377734345     0.0090244014
|  9>  C        0.7795069301    -2.2241503876     0.1185645538
| 10>  O        1.4359336735    -1.6655208320    -1.0380027267
| 11>  C        1.2491163797    -0.8205898281     0.1049605008
| 12>  C        1.4303046037    -3.3092884236     0.7875392888
| 13>  C        1.9233696475    -4.2487997459     1.3525042951
| 14>  H        0.8172952080     1.8072308515    -0.3287717584
| 15>  H       -0.8701254691     1.7942816460    -0.1759047219
| 16>  H       -1.2180533071    -2.5597379722     0.9057185409
| 17>  H       -1.1143428540    -2.7059800034    -0.8533833687
| 18>  H        2.1484335149    -0.4617545231     0.5973165482
| 19>  H        2.3717829109    -5.0740604131     1.8483208491
| 20> *
| 21>
| 22>                          ****END OF INPUT****

CARTESIAN COORDINATES (ANGSTROEM)
---------------------------------
  N      0.006292    1.348046    0.056609
  C     -0.020184   -0.021590   -0.013912
  N     -1.088519   -0.720177   -0.125954
  C     -0.748561   -2.137773    0.009024
  C      0.779507   -2.224150    0.118565
  O      1.435934   -1.665521   -1.038003
  C      1.249116   -0.820590    0.104961
  C      1.430305   -3.309288    0.787539
  C      1.923370   -4.248800    1.352504
  H      0.817295    1.807231   -0.328772
  H     -0.870125    1.794282   -0.175905
  H     -1.218053   -2.559738    0.905719
  H     -1.114343   -2.705980   -0.853383
  H      2.148434   -0.461755    0.597317
  H      2.371783   -5.074060    1.848321

 Total Charge           Charge          ....    0
 Multiplicity           Mult            ....    1
 Number of Electrons    NEL             ....   64
 Basis Dimension        Dim             ....  315

ORBITAL ENERGIES
----------------

  NO   OCC          E(Eh)            E(eV)
   0   2.0000     -20.591853      -560.3328
   1   2.0000     -15.585347      -424.0989
   2   2.0000     -15.540510      -422.8788
   3   2.0000     -11.326360      -308.2059
   4   2.0000     -11.322305      -308.0956
   5   2.0000     -11.312752      -307.8356
   6   2.0000     -11.263579      -306.4976
   7   2.0000     -11.250333      -306.1371
   8   2.0000     -11.244384      -305.9753
   9   2.0000      -1.439699       -39.1762
  10   2.0000      -1.277450       -34.7612
  11   2.0000      -1.185579       -32.2612
  12   2.0000      -1.065093       -28.9826
  13   2.0000      -0.981338       -26.7036
  14   2.0000      -0.964391       -26.2424
  15   2.0000      -0.865203       -23.5434
  16   2.0000      -0.785977       -21.3875
  17   2.0000      -0.761642       -20.7253
  18   2.0000      -0.724229       -19.7073
  19   2.0000      -0.703562       -19.1449
  20   2.0000      -0.662443       -18.0260
  21   2.0000      -0.620874       -16.8948
  22   2.0000      -0.604750       -16.4561
  23   2.0000      -0.589452       -16.0398
  24   2.0000      -0.557432       -15.1685
  25   2.0000      -0.513895       -13.9838
  26   2.0000      -0.505807       -13.7637
  27   2.0000      -0.483338       -13.1523
  28   2.0000      -0.427262       -11.6264
  29   2.0000      -0.403286       -10.9740
  30   2.0000      -0.384758       -10.4698
  31   2.0000      -0.364147        -9.9089
  32   0.0000       0.125270         3.4088
  33   0.0000       0.141082         3.8390
  34   0.0000       0.151864         4.1324
  35   0.0000       0.155219         4.2237
  36   0.0000       0.166287         4.5249

MULLIKEN ATOMIC CHARGES
-----------------------
   0 N :   -0.507003
   1 C :    0.158767
   2 N :   -0.259768
   3 C :   -0.109554
   4 C :   -0.077861
   5 O :   -0.303747
   6 C :    0.021016
   7 C :    0.024389
   8 C :   -0.080794
   9 H :    0.259275
  10 H :    0.262631
  11 H :    0.126303
  12 H :    0.133053
  13 H :    0.153089
  14 H :    0.200205
Sum of atomic charges:   -0.0000000

LOEWDIN ATOMIC CHARGES
----------------------
   0 N :   -0.039323
   1 C :   -0.359287
   2 N :    0.092202
   3 C :   -0.221464
   4 C :   -0.275440
   5 O :    0.209557
   6 C :   -0.189657
   7 C :   -0.064087
   8 C :   -0.063230
   9 H :    0.172961
  10 H :    0.176961
  11 H :    0.142922
  12 H :    0.143903
  13 H :    0.143759
  14 H :    0.130224

  Mayer bond orders larger than 0.1
B(  0-N ,  1-C ) :   1.0971 B(  0-N ,  9-H ) :   0.8705 B(  0-N , 10-H ) :   0.8632
B(  1-C ,  2-N ) :   1.8080 B(  1-C ,  6-C ) :   0.9324 B(  2-N ,  3-C ) :   0.9638
B(  3-C ,  4-C ) :   0.9849 B(  3-C , 11-H ) :   0.9226 B(  3-C , 12-H ) :   0.9060
B(  4-C ,  5-O ) :   0.8538 B(  4-C ,  6-C ) :   0.9413 B(  4-C ,  7-C ) :   1.1746
B(  4-C ,  8-C ) :  -0.1773 B(  5-O ,  6-C ) :   0.8885 B(  6-C , 13-H ) :   0.8888
B(  7-C ,  8-C ) :   2.6102 B(  8-C , 14-H ) :   0.8713

MP2 TOTAL ENERGY:     -416.050133083 Eh
FINAL SINGLE POINT ENERGY      -416.050133083432

DIPOLE MOMENT
-------------
                                X             Y             Z
Electronic contribution:      1.48566      -1.02704      -0.85988
Nuclear contribution   :     -1.00903       1.48425       1.26345
                        -----------------------------------------
Total Dipole Moment    :      0.47663       0.45721       0.40357
                        -----------------------------------------
Magnitude (a.u.)       :      0.77401
Magnitude (Debye)      :      1.96737

                             ****ORCA TERMINATED NORMALLY****
TOTAL RUN TIME: 0 days 0 hours 14 minutes 30 seconds 52 msec
