                         Program Version 3.0.3 - RELEASE   -
|  1> ! RI-MP2 RIJK def2-TZVP def2-TZVP/C def2-TZVP/JK TIGHTSCF
|  2> % maxcore 2000
|  3> % mp2 density relaxed end
|  4> *xyz 0 1
|  5>  C       -0.0119321822     1.5392146818    -0.0497047155
|  6>  C        1.4912612348     1.9505284235     0.0029882678
|  7>  C        2.1268456771     0.8398771233     0.8054586745
|  8>  N        1.4127129461     0.4368359415     2.0195316378
|  9>  C        1.1956856207    -0.3582304765     0.8082634691
| 10>  C       -0.0393122224    -0.0188329241     0.0075996351
| 11>  C        2.3839895029    -1.2577520087     0.4955803297
| 12>  O        2.9943489869    -0.7988135572    -0.7215749358
| 13>  C        3.2911648871    -0.0905056238     0.4928503935
| 14>  H       -0.5259491642     1.9407563677     0.8264194316
| 15>  H       -0.5177887814     1.9302853278    -0.9368083155
| 16>  H        1.9302391451     1.9426403618    -1.0004885482
| 17>  H        1.6275083919     2.9507030146     0.4245525502
| 18>  H        2.0260082242    -0.0382744026     2.6764766354
| 19>  H       -0.9739380033    -0.3965319838     0.4323902453
| 20>  H        0.0744223332    -0.4452056816    -0.9948973403
| 21>  H        2.5713832544    -2.2885291844     0.7743910731
| 22>  H        4.3369294991    -0.0168307493     0.7690782924
| 23> *
| 24>
| 25>                          ****END OF INPUT****

CARTESIAN COORDINATES (ANGSTROEM)
---------------------------------
  C     -0.011932    1.539215   -0.049705
  C      1.491261    1.950528    0.002988
  C      2.126846    0.839877    0.805459
  N      1.412713    0.436836    2.019532
  C      1.195686   -0.358230    0.808263
  C     -0.039312   -0.018833    0.007600
  C      2.383990   -1.257752    0.495580
  O      2.994349   -0.798814   -0.721575
  C      3.291165   -0.090506    0.492850
  H     -0.525949    1.940756    0.826419
  H     -0.517789    1.930285   -0.936808
  H      1.930239    1.942640   -1.000489
  H      1.627508    2.950703    0.424553
  H      2.026008   -0.038274    2.676477
  H     -0.973938   -0.396532    0.432390
  H      0.074422   -0.445206   -0.994897
  H      2.571383   -2.288529    0.774391
  H      4.336929   -0.016831    0.769078

 Total Charge           Charge          ....    0
 Multiplicity           Mult            ....    1
 Number of Electrons    NEL             ....   66
 Basis Dimension        Dim             ....  333

ORBITAL ENERGIES
----------------

  NO   OCC          E(Eh)            E(eV)
   0   2.0000     -20.577716      -559.9481
   1   2.0000     -15.574700      -423.8091
   2   2.0000     -11.301697      -307.5348
   3   2.0000     -11.300938      -307.5142
   4   2.0000     -11.264619      -306.5259
   5   2.0000     -11.263928      -306.5071
   6   2.0000     -11.227812      -305.5243
   7   2.0000     -11.227800      -305.5240
   8   2.0000     -11.221854      -305.3622
   9   2.0000      -1.428925       -38.8830
  10   2.0000      -1.289631       -35.0926
  11   2.0000      -1.069437       -29.1009
  12   2.0000      -0.990143       -26.9432
  13   2.0000      -0.977998       -26.6127
  14   2.0000      -0.868929       -23.6448
  15   2.0000      -0.868209       -23.6252
  16   2.0000      -0.788425       -21.4541
  17   2.0000      -0.729688       -19.8558
  18   2.0000      -0.709308       -19.3012
  19   2.0000      -0.667325       -18.1588
  20   2.0000      -0.628837       -17.1115
  21   2.0000      -0.615948       -16.7608
  22   2.0000      -0.584620       -15.9083
  23   2.0000      -0.550811       -14.9883
  24   2.0000      -0.541219       -14.7273
  25   2.0000      -0.505779       -13.7629
  26   2.0000      -0.504508       -13.7284
  27   2.0000      -0.479675       -13.0526
  28   2.0000      -0.475996       -12.9525
  29   2.0000      -0.467352       -12.7173
  30   2.0000      -0.434629       -11.8269
  31   2.0000      -0.405161       -11.0250
  32   2.0000      -0.370784       -10.0895
  33   0.0000       0.141186         3.8419
  34   0.0000       0.157197         4.2775
  35   0.0000       0.160912         4.3786
  36   0.0000       0.180612         4.9147
  37   0.0000       0.187435         5.1004

MULLIKEN ATOMIC CHARGES
-----------------------
   0 C :   -0.192183
   1 C :   -0.310974
   2 C :    0.201416
   3 N :   -0.366755
   4 C :    0.201417
   5 C :   -0.310973
   6 C :   -0.074878
   7 O :   -0.313678
   8 C :   -0.074877
   9 H :    0.121649
  10 H :    0.120579
  11 H :    0.129333
  12 H :    0.123520
  13 H :    0.224341
  14 H :    0.123520
  15 H :    0.129333
  16 H :    0.134606
  17 H :    0.134606
Sum of atomic charges:    0.0000000

LOEWDIN ATOMIC CHARGES
----------------------
   0 C :   -0.232575
   1 C :   -0.213509
   2 C :   -0.222916
   3 N :    0.081166
   4 C :   -0.222916
   5 C :   -0.213509
   6 C :   -0.217990
   7 O :    0.175055
   8 C :   -0.217991
   9 H :    0.139834
  10 H :    0.131455
  11 H :    0.148410
  12 H :    0.138668
  13 H :    0.173395
  14 H :    0.138668
  15 H :    0.148410
  16 H :    0.133172
  17 H :    0.133172

  Mayer bond orders larger than 0.1
B(  0-C ,  1-C ) :   0.9508 B(  0-C ,  5-C ) :   0.9508 B(  0-C ,  9-H ) :   0.9219
B(  0-C , 10-H ) :   0.9239 B(  1-C ,  2-C ) :   0.9503 B(  1-C , 11-H ) :   0.9256
B(  1-C , 12-H ) :   0.9190 B(  2-C ,  3-N ) :   0.9577 B(  2-C ,  4-C ) :   0.7801
B(  2-C ,  8-C ) :   0.8836 B(  3-N ,  4-C ) :   0.9577 B(  3-N , 13-H ) :   0.8627
B(  4-C ,  5-C ) :   0.9503 B(  4-C ,  6-C ) :   0.8836 B(  5-C , 14-H ) :   0.9190
B(  5-C , 15-H ) :   0.9256 B(  6-C ,  7-O ) :   0.9336 B(  6-C ,  8-C ) :   0.9312
B(  6-C , 16-H ) :   0.9393 B(  7-O ,  8-C ) :   0.9336 B(  8-C , 17-H ) :   0.9393

MP2 TOTAL ENERGY:     -401.193282400 Eh
FINAL SINGLE POINT ENERGY      -401.193282400083

DIPOLE MOMENT
-------------
                                X             Y             Z
Electronic contribution:      4.21066      -3.27017       0.98997
Nuclear contribution   :     -4.05031       3.14627      -0.68431
                        -----------------------------------------
Total Dipole Moment    :      0.16034      -0.12390       0.30566
                        -----------------------------------------
Magnitude (a.u.)       :      0.36673
Magnitude (Debye)      :      0.93215

                             ****ORCA TERMINATED NORMALLY****
TOTAL RUN TIME: 0 days 0 hours 19 minutes 19 seconds 235 msec
