                         Program Version 3.0.3 - RELEASE   -
|  1> ! RI-MP2 RIJK def2-TZVP def2-TZVP/C def2-TZVP/JK TIGHTSCF
|  2> % maxcore 2000
|  3> % mp2 density relaxed end
|  4> *xyz 0 1
|  5>  O        0.7801497868    -1.3037179057    -0.8880803510
|  6>  C        0.2012257560    -0.3700642476     0.0104464701
|  7>  C       -1.3120098308    -0.3847841893    -0.1116673394
|  8>  C       -2.2532817064     0.5933215883     0.6406005304
|  9>  C       -2.8726115738     0.8765862282    -0.7276921202
| 10>  C       -1.8841917657     1.4773587069    -1.6539362583
| 11>  C       -0.8638174829     2.4032703983    -1.2463721303
| 12>  C       -0.0534709078     3.2467311589    -0.9629046358
| 13>  N       -1.8910184450    -0.0102640594    -1.4669314073
| 14>  H        0.4297064232    -1.1029169288    -1.7634594743
| 15>  H        0.4816136288    -0.6939485665     1.0199230277
| 16>  H        0.6045362214     0.6375011025    -0.1399851225
| 17>  H       -1.6430612601    -1.4155853821     0.0469390004
| 18>  H       -2.9200615296     0.1006760393     1.3487582260
| 19>  H       -1.7929840733     1.4605666309     1.1217294849
| 20>  H       -3.9334112827     0.8724973074    -0.9584417175
| 21>  H       -2.2734344923     1.6910648083    -2.6473449187
| 22>  H        0.6768489042     3.9739310105    -0.7059314043
| 23> *
| 24>
| 25>                          ****END OF INPUT****

CARTESIAN COORDINATES (ANGSTROEM)
---------------------------------
  O      0.780150   -1.303718   -0.888080
  C      0.201226   -0.370064    0.010446
  C     -1.312010   -0.384784   -0.111667
  C     -2.253282    0.593322    0.640601
  C     -2.872612    0.876586   -0.727692
  C     -1.884192    1.477359   -1.653936
  C     -0.863817    2.403270   -1.246372
  C     -0.053471    3.246731   -0.962905
  N     -1.891018   -0.010264   -1.466931
  H      0.429706   -1.102917   -1.763459
  H      0.481614   -0.693949    1.019923
  H      0.604536    0.637501   -0.139985
  H     -1.643061   -1.415585    0.046939
  H     -2.920062    0.100676    1.348758
  H     -1.792984    1.460567    1.121729
  H     -3.933411    0.872497   -0.958442
  H     -2.273434    1.691065   -2.647345
  H      0.676849    3.973931   -0.705931

 Total Charge           Charge          ....    0
 Multiplicity           Mult            ....    1
 Number of Electrons    NEL             ....   66
 Basis Dimension        Dim             ....  333

ORBITAL ENERGIES
----------------

  NO   OCC          E(Eh)            E(eV)
   0   2.0000     -20.548913      -559.1644
   1   2.0000     -15.577809      -423.8937
   2   2.0000     -11.294171      -307.3300
   3   2.0000     -11.282989      -307.0257
   4   2.0000     -11.270282      -306.6800
   5   2.0000     -11.268419      -306.6293
   6   2.0000     -11.248271      -306.0810
   7   2.0000     -11.243095      -305.9402
   8   2.0000     -11.238185      -305.8066
   9   2.0000      -1.355240       -36.8779
  10   2.0000      -1.301832       -35.4247
  11   2.0000      -1.064245       -28.9596
  12   2.0000      -1.028325       -27.9821
  13   2.0000      -0.967435       -26.3252
  14   2.0000      -0.919339       -25.0165
  15   2.0000      -0.847721       -23.0677
  16   2.0000      -0.759830       -20.6760
  17   2.0000      -0.731308       -19.8999
  18   2.0000      -0.705582       -19.1999
  19   2.0000      -0.687110       -18.6972
  20   2.0000      -0.659446       -17.9444
  21   2.0000      -0.626065       -17.0361
  22   2.0000      -0.592919       -16.1341
  23   2.0000      -0.576495       -15.6872
  24   2.0000      -0.552420       -15.0321
  25   2.0000      -0.536711       -14.6047
  26   2.0000      -0.496550       -13.5118
  27   2.0000      -0.483650       -13.1608
  28   2.0000      -0.459592       -12.5061
  29   2.0000      -0.432076       -11.7574
  30   2.0000      -0.423211       -11.5161
  31   2.0000      -0.393186       -10.6991
  32   2.0000      -0.363565        -9.8931
  33   0.0000       0.139980         3.8091
  34   0.0000       0.145877         3.9695
  35   0.0000       0.153520         4.1775
  36   0.0000       0.161283         4.3887
  37   0.0000       0.164079         4.4648

MULLIKEN ATOMIC CHARGES
-----------------------
   0 O :   -0.474946
   1 C :   -0.023823
   2 C :   -0.032123
   3 C :   -0.255607
   4 C :   -0.015705
   5 C :   -0.213822
   6 C :   -0.005491
   7 C :   -0.122517
   8 N :   -0.263981
   9 H :    0.325135
  10 H :    0.109744
  11 H :    0.120316
  12 H :    0.112025
  13 H :    0.138105
  14 H :    0.134554
  15 H :    0.135453
  16 H :    0.138409
  17 H :    0.194275
Sum of atomic charges:    0.0000000

LOEWDIN ATOMIC CHARGES
----------------------
   0 O :   -0.044553
   1 C :   -0.331390
   2 C :   -0.256272
   3 C :   -0.203350
   4 C :   -0.177027
   5 C :   -0.234643
   6 C :   -0.101267
   7 C :   -0.085153
   8 N :    0.129752
   9 H :    0.178198
  10 H :    0.132883
  11 H :    0.126370
  12 H :    0.154186
  13 H :    0.137116
  14 H :    0.139937
  15 H :    0.135265
  16 H :    0.170789
  17 H :    0.129160

  Mayer bond orders larger than 0.1
B(  0-O ,  1-C ) :   0.9156 B(  0-O ,  9-H ) :   0.8374 B(  1-C ,  2-C ) :   0.9583
B(  1-C , 10-H ) :   0.9254 B(  1-C , 11-H ) :   0.9126 B(  2-C ,  3-C ) :   0.9339
B(  2-C ,  8-N ) :   0.8655 B(  2-C , 12-H ) :   0.9222 B(  3-C ,  4-C ) :   0.9495
B(  3-C , 13-H ) :   0.9318 B(  3-C , 14-H ) :   0.9047 B(  4-C ,  5-C ) :   0.9264
B(  4-C ,  8-N ) :   0.8731 B(  4-C , 15-H ) :   0.9002 B(  5-C ,  6-C ) :   1.1092
B(  5-C ,  7-C ) :  -0.1110 B(  5-C ,  8-N ) :   0.8946 B(  5-C , 16-H ) :   0.9413
B(  6-C ,  7-C ) :   2.5561 B(  7-C , 17-H ) :   0.9003

MP2 TOTAL ENERGY:     -401.159619215 Eh
FINAL SINGLE POINT ENERGY      -401.159619215259

DIPOLE MOMENT
-------------
                                X             Y             Z
Electronic contribution:      0.01333       1.02863      -2.94687
Nuclear contribution   :     -0.58638      -0.24996       3.38501
                        -----------------------------------------
Total Dipole Moment    :     -0.57305       0.77867       0.43814
                        -----------------------------------------
Magnitude (a.u.)       :      1.06145
Magnitude (Debye)      :      2.69800

                             ****ORCA TERMINATED NORMALLY****
TOTAL RUN TIME: 0 days 0 hours 29 minutes 37 seconds 439 msec
