                         Program Version 3.0.3 - RELEASE   -
|  1> ! RI-MP2 RIJK def2-TZVP def2-TZVP/C def2-TZVP/JK TIGHTSCF
|  2> % maxcore 2000
|  3> % mp2 density relaxed end
|  4> *xyz 0 1
|  5>  O       -0.6798776845     0.8180249582     0.7810053998
|  6>  C        0.0180141058     1.0174100034    -0.1790340838
|  7>  C        1.3120463825     1.7984311784    -0.1682215717
|  8>  C        1.2872578932     2.9627919218    -1.1737593773
|  9>  C        2.6271744464     3.6996049384    -1.2568041793
| 10>  C        2.5915423715     4.8740300022    -2.2557793140
| 11>  C        3.8630762118     5.5809035873    -2.3458928945
| 12>  C        4.9229784029     6.1451126545    -2.4000255697
| 13>  H       -0.2669239476     0.6236435285    -1.1842765620
| 14>  H        1.5012766643     2.1492254519     0.8504382720
| 15>  H        2.1189500423     1.1037471311    -0.4450127347
| 16>  H        1.0164212205     2.5808101206    -2.1675791804
| 17>  H        0.4956878868     3.6681028836    -0.8894995465
| 18>  H        2.9061688703     4.0809499107    -0.2679978121
| 19>  H        3.4188338542     3.0018564282    -1.5539918199
| 20>  H        2.3097956523     4.4999245191    -3.2490373815
| 21>  H        1.8016081538     5.5782347017    -1.9628966555
| 22>  H        5.8539566636     6.6523755604    -2.4564592089
| 23> *
| 24>
| 25>                          ****END OF INPUT****

CARTESIAN COORDINATES (ANGSTROEM)
---------------------------------
  O     -0.679878    0.818025    0.781005
  C      0.018014    1.017410   -0.179034
  C      1.312046    1.798431   -0.168222
  C      1.287258    2.962792   -1.173759
  C      2.627174    3.699605   -1.256804
  C      2.591542    4.874030   -2.255779
  C      3.863076    5.580904   -2.345893
  C      4.922978    6.145113   -2.400026
  H     -0.266924    0.623644   -1.184277
  H      1.501277    2.149225    0.850438
  H      2.118950    1.103747   -0.445013
  H      1.016421    2.580810   -2.167579
  H      0.495688    3.668103   -0.889500
  H      2.906169    4.080950   -0.267998
  H      3.418834    3.001856   -1.553992
  H      2.309796    4.499925   -3.249037
  H      1.801608    5.578235   -1.962897
  H      5.853957    6.652376   -2.456459

 Total Charge           Charge          ....    0
 Multiplicity           Mult            ....    1
 Number of Electrons    NEL             ....   60
 Basis Dimension        Dim             ....  308

ORBITAL ENERGIES
----------------

  NO   OCC          E(Eh)            E(eV)
   0   2.0000     -20.559295      -559.4469
   1   2.0000     -11.334129      -308.4173
   2   2.0000     -11.260945      -306.4259
   3   2.0000     -11.248423      -306.0851
   4   2.0000     -11.246391      -306.0299
   5   2.0000     -11.244131      -305.9684
   6   2.0000     -11.237533      -305.7888
   7   2.0000     -11.224046      -305.4218
   8   2.0000      -1.398062       -38.0432
   9   2.0000      -1.114203       -30.3190
  10   2.0000      -1.064677       -28.9713
  11   2.0000      -1.001773       -27.2596
  12   2.0000      -0.923818       -25.1384
  13   2.0000      -0.828673       -22.5493
  14   2.0000      -0.796796       -21.6819
  15   2.0000      -0.724078       -19.7032
  16   2.0000      -0.683890       -18.6096
  17   2.0000      -0.659238       -17.9388
  18   2.0000      -0.644006       -17.5243
  19   2.0000      -0.637384       -17.3441
  20   2.0000      -0.603843       -16.4314
  21   2.0000      -0.571540       -15.5524
  22   2.0000      -0.549596       -14.9553
  23   2.0000      -0.527875       -14.3642
  24   2.0000      -0.511621       -13.9219
  25   2.0000      -0.496474       -13.5098
  26   2.0000      -0.490808       -13.3556
  27   2.0000      -0.422658       -11.5011
  28   2.0000      -0.389909       -10.6100
  29   2.0000      -0.388581       -10.5738
  30   0.0000       0.122114         3.3229
  31   0.0000       0.132519         3.6060
  32   0.0000       0.149377         4.0648
  33   0.0000       0.155209         4.2234
  34   0.0000       0.164694         4.4815

MULLIKEN ATOMIC CHARGES
-----------------------
   0 O :   -0.262029
   1 C :    0.096416
   2 C :   -0.133303
   3 C :   -0.289018
   4 C :   -0.183859
   5 C :   -0.381709
   6 C :   -0.013233
   7 C :   -0.118063
   8 H :    0.068938
   9 H :    0.124080
  10 H :    0.124566
  11 H :    0.116018
  12 H :    0.127843
  13 H :    0.125541
  14 H :    0.120694
  15 H :    0.142125
  16 H :    0.143998
  17 H :    0.190993
Sum of atomic charges:   -0.0000000

LOEWDIN ATOMIC CHARGES
----------------------
   0 O :    0.131845
   1 C :   -0.298061
   2 C :   -0.261760
   3 C :   -0.263920
   4 C :   -0.250832
   5 C :   -0.249871
   6 C :   -0.113436
   7 C :   -0.106893
   8 H :    0.108690
   9 H :    0.145747
  10 H :    0.151771
  11 H :    0.139111
  12 H :    0.141852
  13 H :    0.143716
  14 H :    0.142255
  15 H :    0.156424
  16 H :    0.157098
  17 H :    0.126265

  Mayer bond orders larger than 0.1
B(  0-O ,  1-C ) :   2.0088 B(  1-C ,  2-C ) :   0.8757 B(  1-C ,  8-H ) :   0.9389
B(  2-C ,  3-C ) :   0.9103 B(  2-C ,  9-H ) :   0.9048 B(  2-C , 10-H ) :   0.9149
B(  3-C ,  4-C ) :   0.9263 B(  3-C , 11-H ) :   0.9293 B(  3-C , 12-H ) :   0.9231
B(  4-C ,  5-C ) :   0.9320 B(  4-C , 13-H ) :   0.9277 B(  4-C , 14-H ) :   0.9289
B(  5-C ,  6-C ) :   1.1243 B(  5-C ,  7-C ) :  -0.1209 B(  5-C , 15-H ) :   0.9242
B(  5-C , 16-H ) :   0.9226 B(  6-C ,  7-C ) :   2.6129 B(  7-C , 17-H ) :   0.8944

MP2 TOTAL ENERGY:     -347.165199016 Eh
FINAL SINGLE POINT ENERGY      -347.165199016236

DIPOLE MOMENT
-------------
                                X             Y             Z
Electronic contribution:     -1.38239      -0.91127       1.70549
Nuclear contribution   :      1.91617       1.09922      -2.39115
                        -----------------------------------------
Total Dipole Moment    :      0.53378       0.18795      -0.68566
                        -----------------------------------------
Magnitude (a.u.)       :      0.88903
Magnitude (Debye)      :      2.25974

                             ****ORCA TERMINATED NORMALLY****
TOTAL RUN TIME: 0 days 0 hours 9 minutes 40 seconds 526 msec
