                         Program Version 3.0.3 - RELEASE   -
|  1> ! RI-MP2 RIJK def2-TZVP def2-TZVP/C def2-TZVP/JK TIGHTSCF
|  2> % maxcore 2000
|  3> % mp2 density relaxed end
|  4> *xyz 0 1
|  5>  C        0.1357674715     1.3355231225    -0.1036615685
|  6>  O       -0.1524676063    -0.0399891616     0.0829574859
|  7>  C        0.5577559238    -0.6157295381     1.1598414322
|  8>  C        0.1036000795    -2.0128681251     1.5402063743
|  9>  C        0.2702804886    -2.9476056631     0.3723090661
| 10>  C        1.4882927361    -2.5975177375     1.1766101699
| 11>  C        2.3255055488    -3.6162130374     1.8951824063
| 12>  C        1.9747057318    -1.1914317286     0.7839475906
| 13>  O        2.4150611069    -0.9515079934    -0.5297984492
| 14>  H        1.1987978762     1.5043869841    -0.3194512117
| 15>  H       -0.4608972788     1.6770332205    -0.9530928733
| 16>  H       -0.1418524887     1.9231992563     0.7841919999
| 17>  H        0.5907171264     0.0785594174     2.0093841143
| 18>  H       -0.5368638540    -2.2511710485     2.3807717215
| 19>  H       -0.1079288565    -3.9518830577     0.5366795665
| 20>  H        0.1303563835    -2.5909817823    -0.6434823585
| 21>  H        1.7128870498    -4.4418678759     2.2725442151
| 22>  H        3.0812577323    -4.0448094760     1.2264887540
| 23>  H        2.8516481183    -3.1721200320     2.7482331006
| 24>  H        2.7623473052    -0.8391842759     1.4569568853
| 25>  H        1.6196314355    -0.8740339176    -1.0712941715
| 26> *
| 27>
| 28>                          ****END OF INPUT****

CARTESIAN COORDINATES (ANGSTROEM)
---------------------------------
  C      0.135767    1.335523   -0.103662
  O     -0.152468   -0.039989    0.082957
  C      0.557756   -0.615730    1.159841
  C      0.103600   -2.012868    1.540206
  C      0.270280   -2.947606    0.372309
  C      1.488293   -2.597518    1.176610
  C      2.325506   -3.616213    1.895182
  C      1.974706   -1.191432    0.783948
  O      2.415061   -0.951508   -0.529798
  H      1.198798    1.504387   -0.319451
  H     -0.460897    1.677033   -0.953093
  H     -0.141852    1.923199    0.784192
  H      0.590717    0.078559    2.009384
  H     -0.536864   -2.251171    2.380772
  H     -0.107929   -3.951883    0.536680
  H      0.130356   -2.590982   -0.643482
  H      1.712887   -4.441868    2.272544
  H      3.081258   -4.044809    1.226489
  H      2.851648   -3.172120    2.748233
  H      2.762347   -0.839184    1.456957
  H      1.619631   -0.874034   -1.071294

 Total Charge           Charge          ....    0
 Multiplicity           Mult            ....    1
 Number of Electrons    NEL             ....   70
 Basis Dimension        Dim             ....  351

ORBITAL ENERGIES
----------------

  NO   OCC          E(Eh)            E(eV)
   0   2.0000     -20.562199      -559.5259
   1   2.0000     -20.549998      -559.1939
   2   2.0000     -11.283804      -307.0479
   3   2.0000     -11.278535      -306.9045
   4   2.0000     -11.273566      -306.7693
   5   2.0000     -11.238543      -305.8163
   6   2.0000     -11.231709      -305.6303
   7   2.0000     -11.227688      -305.5209
   8   2.0000     -11.220436      -305.3236
   9   2.0000      -1.387734       -37.7622
  10   2.0000      -1.353400       -36.8279
  11   2.0000      -1.185501       -32.2591
  12   2.0000      -0.996180       -27.1074
  13   2.0000      -0.966612       -26.3028
  14   2.0000      -0.927163       -25.2294
  15   2.0000      -0.855644       -23.2832
  16   2.0000      -0.787359       -21.4251
  17   2.0000      -0.747590       -20.3430
  18   2.0000      -0.699092       -19.0233
  19   2.0000      -0.667100       -18.1527
  20   2.0000      -0.661225       -17.9928
  21   2.0000      -0.624530       -16.9943
  22   2.0000      -0.606109       -16.4931
  23   2.0000      -0.595538       -16.2054
  24   2.0000      -0.592012       -16.1095
  25   2.0000      -0.559686       -15.2298
  26   2.0000      -0.543150       -14.7798
  27   2.0000      -0.535470       -14.5709
  28   2.0000      -0.523068       -14.2334
  29   2.0000      -0.502350       -13.6696
  30   2.0000      -0.475700       -12.9445
  31   2.0000      -0.451074       -12.2743
  32   2.0000      -0.412056       -11.2126
  33   2.0000      -0.394441       -10.7333
  34   2.0000      -0.378745       -10.3062
  35   0.0000       0.139136         3.7861
  36   0.0000       0.151832         4.1316
  37   0.0000       0.160624         4.3708
  38   0.0000       0.176883         4.8132
  39   0.0000       0.191724         5.2171

MULLIKEN ATOMIC CHARGES
-----------------------
   0 C :   -0.245641
   1 O :   -0.320906
   2 C :    0.033331
   3 C :   -0.079051
   4 C :   -0.306659
   5 C :    0.096600
   6 C :   -0.419895
   7 C :    0.007719
   8 O :   -0.461261
   9 H :    0.137368
  10 H :    0.142262
  11 H :    0.116316
  12 H :    0.078967
  13 H :    0.132834
  14 H :    0.131862
  15 H :    0.129272
  16 H :    0.129105
  17 H :    0.145068
  18 H :    0.126742
  19 H :    0.097407
  20 H :    0.328558
Sum of atomic charges:   -0.0000000

LOEWDIN ATOMIC CHARGES
----------------------
   0 C :   -0.356719
   1 O :    0.148125
   2 C :   -0.276915
   3 C :   -0.144113
   4 C :   -0.183774
   5 C :   -0.207666
   6 C :   -0.274990
   7 C :   -0.272002
   8 O :   -0.007775
   9 H :    0.106398
  10 H :    0.113758
  11 H :    0.103300
  12 H :    0.135465
  13 H :    0.136060
  14 H :    0.142826
  15 H :    0.130994
  16 H :    0.129497
  17 H :    0.132695
  18 H :    0.126512
  19 H :    0.141542
  20 H :    0.176781

  Mayer bond orders larger than 0.1
B(  0-C ,  1-O ) :   0.8862 B(  0-C ,  9-H ) :   0.9322 B(  0-C , 10-H ) :   0.9402
B(  0-C , 11-H ) :   0.9332 B(  1-O ,  2-C ) :   1.0161 B(  2-C ,  3-C ) :   0.9746
B(  2-C ,  7-C ) :   1.0002 B(  2-C , 12-H ) :   0.9319 B(  3-C ,  4-C ) :   0.8730
B(  3-C ,  5-C ) :   0.7640 B(  3-C , 13-H ) :   0.9165 B(  4-C ,  5-C ) :   0.8782
B(  4-C , 14-H ) :   0.9327 B(  4-C , 15-H ) :   0.9123 B(  5-C ,  6-C ) :   0.9025
B(  5-C ,  7-C ) :   0.8688 B(  6-C , 16-H ) :   0.9383 B(  6-C , 17-H ) :   0.9389
B(  6-C , 18-H ) :   0.9373 B(  7-C ,  8-O ) :   1.0058 B(  7-C , 19-H ) :   0.9542
B(  8-O , 20-H ) :   0.8234

MP2 TOTAL ENERGY:     -423.485957080 Eh
FINAL SINGLE POINT ENERGY      -423.485957079861

DIPOLE MOMENT
-------------
                                X             Y             Z
Electronic contribution:     -0.65848       0.86374      -1.77351
Nuclear contribution   :      0.38098      -0.72426       2.26178
                        -----------------------------------------
Total Dipole Moment    :     -0.27750       0.13948       0.48826
                        -----------------------------------------
Magnitude (a.u.)       :      0.57867
Magnitude (Debye)      :      1.47086

                             ****ORCA TERMINATED NORMALLY****
TOTAL RUN TIME: 0 days 0 hours 29 minutes 45 seconds 660 msec
