                         Program Version 3.0.3 - RELEASE   -
|  1> ! RI-MP2 RIJK def2-TZVP def2-TZVP/C def2-TZVP/JK TIGHTSCF
|  2> % maxcore 2000
|  3> % mp2 density relaxed end
|  4> *xyz 0 1
|  5>  C       -0.2007551846     1.5484688400     0.0091455108
|  6>  C       -0.0897159651     0.0967210572     0.0086037224
|  7>  C       -0.0064136190    -1.1052878545     0.0078161128
|  8>  C        0.1318739968    -2.5695459809    -0.0011544398
|  9>  C       -1.2459166391    -3.2479563655    -0.0011991477
| 10>  O        0.7724129859    -2.9942588085    -1.2139563282
| 11>  C        0.9395864465    -3.0158664260     1.2252675489
| 12>  C        1.6497056306    -4.3421120823     1.2226757413
| 13>  C        2.4421864206    -3.0562865219     1.2007739005
| 14>  H        0.5833825446     2.0105761041     0.6188677114
| 15>  H       -0.1154026833     1.9527463560    -1.0055418916
| 16>  H       -1.1676953814     1.8703222519     0.4113279075
| 17>  H       -1.8304412940    -2.9113077710    -0.8601074522
| 18>  H       -1.1125506094    -4.3311974689    -0.0638150795
| 19>  H       -1.7918831381    -3.0104060392     0.9153507853
| 20>  H        1.4139799127    -2.3176611031    -1.4521747592
| 21>  H        0.4841517804    -2.7056541917     2.1611911273
| 22>  H        1.6390080010    -4.9350517500     2.1304026099
| 23>  H        1.6243086889    -4.9112151297     0.3007157424
| 24>  H        2.9449511536    -2.8082189174     0.2725166555
| 25>  H        2.9775941722    -2.7528567084     2.0933715522
| 26> *
| 27>
| 28>                          ****END OF INPUT****

CARTESIAN COORDINATES (ANGSTROEM)
---------------------------------
  C     -0.200755    1.548469    0.009146
  C     -0.089716    0.096721    0.008604
  C     -0.006414   -1.105288    0.007816
  C      0.131874   -2.569546   -0.001154
  C     -1.245917   -3.247956   -0.001199
  O      0.772413   -2.994259   -1.213956
  C      0.939586   -3.015866    1.225268
  C      1.649706   -4.342112    1.222676
  C      2.442186   -3.056287    1.200774
  H      0.583383    2.010576    0.618868
  H     -0.115403    1.952746   -1.005542
  H     -1.167695    1.870322    0.411328
  H     -1.830441   -2.911308   -0.860107
  H     -1.112551   -4.331197   -0.063815
  H     -1.791883   -3.010406    0.915351
  H      1.413980   -2.317661   -1.452175
  H      0.484152   -2.705654    2.161191
  H      1.639008   -4.935052    2.130403
  H      1.624309   -4.911215    0.300716
  H      2.944951   -2.808219    0.272517
  H      2.977594   -2.752857    2.093372

 Total Charge           Charge          ....    0
 Multiplicity           Mult            ....    1
 Number of Electrons    NEL             ....   68
 Basis Dimension        Dim             ....  351

ORBITAL ENERGIES
----------------

  NO   OCC          E(Eh)            E(eV)
   0   2.0000     -20.556684      -559.3758
   1   2.0000     -11.311234      -307.7943
   2   2.0000     -11.250190      -306.1332
   3   2.0000     -11.230447      -305.5960
   4   2.0000     -11.229975      -305.5832
   5   2.0000     -11.221996      -305.3660
   6   2.0000     -11.219121      -305.2878
   7   2.0000     -11.217387      -305.2406
   8   2.0000     -11.213751      -305.1417
   9   2.0000      -1.366172       -37.1754
  10   2.0000      -1.140755       -31.0415
  11   2.0000      -1.068875       -29.0856
  12   2.0000      -1.025266       -27.8989
  13   2.0000      -0.952617       -25.9220
  14   2.0000      -0.874392       -23.7934
  15   2.0000      -0.819373       -22.2963
  16   2.0000      -0.780963       -21.2511
  17   2.0000      -0.726985       -19.7823
  18   2.0000      -0.677752       -18.4426
  19   2.0000      -0.643767       -17.5178
  20   2.0000      -0.630909       -17.1679
  21   2.0000      -0.594314       -16.1721
  22   2.0000      -0.589860       -16.0509
  23   2.0000      -0.580871       -15.8063
  24   2.0000      -0.558918       -15.2089
  25   2.0000      -0.542846       -14.7716
  26   2.0000      -0.526042       -14.3143
  27   2.0000      -0.518832       -14.1181
  28   2.0000      -0.509093       -13.8531
  29   2.0000      -0.459269       -12.4974
  30   2.0000      -0.422850       -11.5063
  31   2.0000      -0.410073       -11.1587
  32   2.0000      -0.377227       -10.2649
  33   2.0000      -0.368867       -10.0374
  34   0.0000       0.125973         3.4279
  35   0.0000       0.152210         4.1418
  36   0.0000       0.156093         4.2475
  37   0.0000       0.170290         4.6338
  38   0.0000       0.179783         4.8921

MULLIKEN ATOMIC CHARGES
-----------------------
   0 C :   -0.490257
   1 C :    0.102124
   2 C :   -0.121841
   3 C :    0.105858
   4 C :   -0.375822
   5 O :   -0.468149
   6 C :   -0.080228
   7 C :   -0.228521
   8 C :   -0.291204
   9 H :    0.164488
  10 H :    0.164326
  11 H :    0.165206
  12 H :    0.137129
  13 H :    0.139493
  14 H :    0.123708
  15 H :    0.320875
  16 H :    0.122486
  17 H :    0.130358
  18 H :    0.139480
  19 H :    0.111036
  20 H :    0.129454
Sum of atomic charges:   -0.0000000

LOEWDIN ATOMIC CHARGES
----------------------
   0 C :   -0.294007
   1 C :   -0.092190
   2 C :   -0.047254
   3 C :   -0.374817
   4 C :   -0.246202
   5 O :    0.022169
   6 C :   -0.190754
   7 C :   -0.223822
   8 C :   -0.227618
   9 H :    0.140963
  10 H :    0.141948
  11 H :    0.142276
  12 H :    0.129716
  13 H :    0.130866
  14 H :    0.129514
  15 H :    0.177403
  16 H :    0.154451
  17 H :    0.129325
  18 H :    0.138521
  19 H :    0.129343
  20 H :    0.130169

  Mayer bond orders larger than 0.1
B(  0-C ,  1-C ) :   0.8223 B(  0-C ,  9-H ) :   0.9495 B(  0-C , 10-H ) :   0.9471
B(  0-C , 11-H ) :   0.9517 B(  1-C ,  2-C ) :   2.6310 B(  1-C ,  3-C ) :  -0.1180
B(  2-C ,  3-C ) :   1.1894 B(  3-C ,  4-C ) :   0.8726 B(  3-C ,  5-O ) :   0.9516
B(  3-C ,  6-C ) :   0.9279 B(  4-C , 12-H ) :   0.9386 B(  4-C , 13-H ) :   0.9399
B(  4-C , 14-H ) :   0.9291 B(  5-O , 15-H ) :   0.8421 B(  6-C ,  7-C ) :   0.8824
B(  6-C ,  8-C ) :   0.8831 B(  6-C , 16-H ) :   0.9150 B(  7-C ,  8-C ) :   0.9114
B(  7-C , 17-H ) :   0.9314 B(  7-C , 18-H ) :   0.9173 B(  8-C , 19-H ) :   0.9262
B(  8-C , 20-H ) :   0.9268

MP2 TOTAL ENERGY:     -386.371315926 Eh
FINAL SINGLE POINT ENERGY      -386.371315925896

DIPOLE MOMENT
-------------
                                X             Y             Z
Electronic contribution:      0.34415       0.33721      -2.10399
Nuclear contribution   :     -0.27473       0.37372       2.41697
                        -----------------------------------------
Total Dipole Moment    :      0.06942       0.71093       0.31298
                        -----------------------------------------
Magnitude (a.u.)       :      0.77987
Magnitude (Debye)      :      1.98226

                             ****ORCA TERMINATED NORMALLY****
TOTAL RUN TIME: 0 days 0 hours 18 minutes 52 seconds 746 msec
