                         Program Version 3.0.3 - RELEASE   -
|  1> ! RI-MP2 RIJK def2-TZVP def2-TZVP/C def2-TZVP/JK TIGHTSCF
|  2> % maxcore 2000
|  3> % mp2 density relaxed end
|  4> *xyz 0 1
|  5>  C       -0.0700413875     1.6210835343    -0.0511741738
|  6>  C        1.4297512907     1.2766446508    -0.0268969799
|  7>  C        1.2494758655     0.1273634010     1.0009482383
|  8>  C       -0.0508421760     0.0837005505     0.0426392769
|  9>  C        1.2168837815    -0.0543596651    -0.8719243710
| 10>  N        1.8291842771    -0.2281610573    -2.1728140266
| 11>  C        2.9924793460    -0.6289803385    -1.8119577604
| 12>  O        3.2789524283    -0.8729329420    -0.4833740079
| 13>  C        1.9467357537    -0.9158415586     0.1077721573
| 14>  H       -0.4581271632     2.1531902570     0.8226076664
| 15>  H       -0.4706590763     2.0482337938    -0.9740225127
| 16>  H        2.2943948256     1.9343043659    -0.1021042752
| 17>  H        1.2162277041     0.2167119179     2.0866711934
| 18>  H       -0.8756396724    -0.6243681085     0.1253398542
| 19>  H        3.8313154802    -0.7942206596    -2.4786074209
| 20>  H        1.6655560629    -1.9652691415     0.2423309418
| 21> *
| 22>
| 23>                          ****END OF INPUT****

CARTESIAN COORDINATES (ANGSTROEM)
---------------------------------
  C     -0.070041    1.621084   -0.051174
  C      1.429751    1.276645   -0.026897
  C      1.249476    0.127363    1.000948
  C     -0.050842    0.083701    0.042639
  C      1.216884   -0.054360   -0.871924
  N      1.829184   -0.228161   -2.172814
  C      2.992479   -0.628980   -1.811958
  O      3.278952   -0.872933   -0.483374
  C      1.946736   -0.915842    0.107772
  H     -0.458127    2.153190    0.822608
  H     -0.470659    2.048234   -0.974023
  H      2.294395    1.934304   -0.102104
  H      1.216228    0.216712    2.086671
  H     -0.875640   -0.624368    0.125340
  H      3.831315   -0.794221   -2.478607
  H      1.665556   -1.965269    0.242331

 Total Charge           Charge          ....    0
 Multiplicity           Mult            ....    1
 Number of Electrons    NEL             ....   64
 Basis Dimension        Dim             ....  321

ORBITAL ENERGIES
----------------

  NO   OCC          E(Eh)            E(eV)
   0   2.0000     -20.598006      -560.5002
   1   2.0000     -15.559408      -423.3930
   2   2.0000     -11.340292      -308.5850
   3   2.0000     -11.286705      -307.1269
   4   2.0000     -11.277885      -306.8869
   5   2.0000     -11.268466      -306.6306
   6   2.0000     -11.264093      -306.5116
   7   2.0000     -11.246826      -306.0417
   8   2.0000     -11.234371      -305.7028
   9   2.0000      -1.433690       -39.0127
  10   2.0000      -1.259758       -34.2798
  11   2.0000      -1.204814       -32.7847
  12   2.0000      -1.017615       -27.6907
  13   2.0000      -0.893971       -24.3262
  14   2.0000      -0.879375       -23.9290
  15   2.0000      -0.846535       -23.0354
  16   2.0000      -0.784820       -21.3560
  17   2.0000      -0.724175       -19.7058
  18   2.0000      -0.692814       -18.8524
  19   2.0000      -0.688509       -18.7353
  20   2.0000      -0.668398       -18.1880
  21   2.0000      -0.603674       -16.4268
  22   2.0000      -0.588144       -16.0042
  23   2.0000      -0.569255       -15.4902
  24   2.0000      -0.515236       -14.0203
  25   2.0000      -0.497830       -13.5467
  26   2.0000      -0.475920       -12.9504
  27   2.0000      -0.463307       -12.6072
  28   2.0000      -0.450119       -12.2483
  29   2.0000      -0.443490       -12.0680
  30   2.0000      -0.396289       -10.7836
  31   2.0000      -0.365753        -9.9526
  32   0.0000       0.146995         3.9999
  33   0.0000       0.153688         4.1821
  34   0.0000       0.159149         4.3307
  35   0.0000       0.164193         4.4679
  36   0.0000       0.177495         4.8299

MULLIKEN ATOMIC CHARGES
-----------------------
   0 C :   -0.198556
   1 C :   -0.140564
   2 C :   -0.105329
   3 C :   -0.112974
   4 C :    0.037831
   5 N :   -0.254481
   6 C :    0.112186
   7 O :   -0.280447
   8 C :    0.030199
   9 H :    0.117940
  10 H :    0.126679
  11 H :    0.137080
  12 H :    0.143736
  13 H :    0.137759
  14 H :    0.145684
  15 H :    0.103256
Sum of atomic charges:   -0.0000000

LOEWDIN ATOMIC CHARGES
----------------------
   0 C :   -0.199336
   1 C :   -0.114357
   2 C :   -0.108333
   3 C :   -0.098488
   4 C :   -0.221538
   5 N :    0.104298
   6 C :   -0.303443
   7 O :    0.213123
   8 C :   -0.200941
   9 H :    0.129796
  10 H :    0.132876
  11 H :    0.133506
  12 H :    0.131349
  13 H :    0.130533
  14 H :    0.132459
  15 H :    0.138494

  Mayer bond orders larger than 0.1
B(  0-C ,  1-C ) :   0.9232 B(  0-C ,  3-C ) :   0.9198 B(  0-C ,  9-H ) :   0.9266
B(  0-C , 10-H ) :   0.9196 B(  1-C ,  2-C ) :   0.8531 B(  1-C ,  4-C ) :   0.8483
B(  1-C , 11-H ) :   0.8822 B(  2-C ,  3-C ) :   0.8505 B(  2-C ,  8-C ) :   0.8761
B(  2-C , 12-H ) :   0.8931 B(  3-C ,  4-C ) :   0.8654 B(  3-C , 13-H ) :   0.9008
B(  4-C ,  5-N ) :   1.0274 B(  4-C ,  8-C ) :   0.9325 B(  5-N ,  6-C ) :   1.7671
B(  6-C ,  7-O ) :   1.0578 B(  6-C , 14-H ) :   0.9256 B(  7-O ,  8-C ) :   0.9171
B(  8-C , 15-H ) :   0.9599

MP2 TOTAL ENERGY:     -399.952294311 Eh
FINAL SINGLE POINT ENERGY      -399.952294311260

DIPOLE MOMENT
-------------
                                X             Y             Z
Electronic contribution:      3.32433      -2.52165      -2.23124
Nuclear contribution   :     -3.51648       2.55541       2.86305
                        -----------------------------------------
Total Dipole Moment    :     -0.19216       0.03377       0.63181
                        -----------------------------------------
Magnitude (a.u.)       :      0.66125
Magnitude (Debye)      :      1.68076

                             ****ORCA TERMINATED NORMALLY****
TOTAL RUN TIME: 0 days 0 hours 17 minutes 8 seconds 289 msec
