                         Program Version 3.0.3 - RELEASE   -
|  1> ! RI-MP2 RIJK def2-TZVP def2-TZVP/C def2-TZVP/JK TIGHTSCF
|  2> % maxcore 2000
|  3> % mp2 density relaxed end
|  4> *xyz 0 1
|  5>  O       -0.0263937258     1.3368607065    -0.6299513958
|  6>  C        0.0244128878     0.2257372211     0.2494187687
|  7>  C       -1.3075617507    -0.4878699419     0.2900232021
|  8>  N       -1.6826034010    -1.1418010795    -0.9823890451
|  9>  C       -1.4803973425    -1.9663811761     0.2231696386
| 10>  C       -0.3677941850    -2.9639745968     0.2057775329
| 11>  C       -0.1123404407    -3.8153600435     1.4260186058
| 12>  C       -0.6936256306    -4.4384927907     0.1829719861
| 13>  H       -0.3410662503     0.9837686965    -1.4711382053
| 14>  H        0.8227662449    -0.4721778687    -0.0388265891
| 15>  H        0.2736724829     0.6224667438     1.2392695335
| 16>  H       -2.0915793494     0.0676154343     0.8028893595
| 17>  H       -2.6726158496    -1.0188759924    -1.1737440190
| 18>  H       -2.3810599648    -2.3407548178     0.7122049507
| 19>  H        0.5000573445    -2.6619031927    -0.3694747619
| 20>  H        0.9151036162    -4.0406354559     1.6887634629
| 21>  H       -0.7680879059    -3.6831186527     2.2806763344
| 22>  H       -1.7403823730    -4.7250883945     0.2013059573
| 23>  H       -0.0660990870    -5.0923428790    -0.4119803665
| 24> *
| 25>
| 26>                          ****END OF INPUT****

CARTESIAN COORDINATES (ANGSTROEM)
---------------------------------
  O     -0.026394    1.336861   -0.629951
  C      0.024413    0.225737    0.249419
  C     -1.307562   -0.487870    0.290023
  N     -1.682603   -1.141801   -0.982389
  C     -1.480397   -1.966381    0.223170
  C     -0.367794   -2.963975    0.205778
  C     -0.112340   -3.815360    1.426019
  C     -0.693626   -4.438493    0.182972
  H     -0.341066    0.983769   -1.471138
  H      0.822766   -0.472178   -0.038827
  H      0.273672    0.622467    1.239270
  H     -2.091579    0.067615    0.802889
  H     -2.672616   -1.018876   -1.173744
  H     -2.381060   -2.340755    0.712205
  H      0.500057   -2.661903   -0.369475
  H      0.915104   -4.040635    1.688763
  H     -0.768088   -3.683119    2.280676
  H     -1.740382   -4.725088    0.201306
  H     -0.066099   -5.092343   -0.411980

 Total Charge           Charge          ....    0
 Multiplicity           Mult            ....    1
 Number of Electrons    NEL             ....   62
 Basis Dimension        Dim             ....  314

ORBITAL ENERGIES
----------------

  NO   OCC          E(Eh)            E(eV)
   0   2.0000     -20.546886      -559.1092
   1   2.0000     -15.561645      -423.4539
   2   2.0000     -11.272514      -306.7407
   3   2.0000     -11.270947      -306.6981
   4   2.0000     -11.260508      -306.4140
   5   2.0000     -11.236974      -305.7736
   6   2.0000     -11.230477      -305.5968
   7   2.0000     -11.229581      -305.5724
   8   2.0000      -1.354131       -36.8478
   9   2.0000      -1.265436       -34.4343
  10   2.0000      -1.143903       -31.1272
  11   2.0000      -0.967930       -26.3387
  12   2.0000      -0.912871       -24.8405
  13   2.0000      -0.829807       -22.5802
  14   2.0000      -0.822693       -22.3866
  15   2.0000      -0.769997       -20.9527
  16   2.0000      -0.721632       -19.6366
  17   2.0000      -0.682499       -18.5717
  18   2.0000      -0.650364       -17.6973
  19   2.0000      -0.635989       -17.3061
  20   2.0000      -0.600530       -16.3413
  21   2.0000      -0.588398       -16.0111
  22   2.0000      -0.528738       -14.3877
  23   2.0000      -0.519837       -14.1455
  24   2.0000      -0.512765       -13.9530
  25   2.0000      -0.488962       -13.3053
  26   2.0000      -0.477028       -12.9806
  27   2.0000      -0.445570       -12.1246
  28   2.0000      -0.433131       -11.7861
  29   2.0000      -0.415327       -11.3016
  30   2.0000      -0.381405       -10.3786
  31   0.0000       0.131731         3.5846
  32   0.0000       0.154800         4.2123
  33   0.0000       0.156960         4.2711
  34   0.0000       0.166834         4.5398
  35   0.0000       0.188235         5.1221

MULLIKEN ATOMIC CHARGES
-----------------------
   0 O :   -0.481117
   1 C :   -0.002129
   2 C :   -0.095459
   3 N :   -0.426339
   4 C :   -0.017885
   5 C :   -0.089538
   6 C :   -0.268843
   7 C :   -0.271146
   8 H :    0.323991
   9 H :    0.099268
  10 H :    0.106512
  11 H :    0.121402
  12 H :    0.223555
  13 H :    0.125205
  14 H :    0.134294
  15 H :    0.132674
  16 H :    0.127551
  17 H :    0.124303
  18 H :    0.133700
Sum of atomic charges:    0.0000000

LOEWDIN ATOMIC CHARGES
----------------------
   0 O :   -0.049533
   1 C :   -0.330347
   2 C :   -0.267037
   3 N :   -0.004659
   4 C :   -0.240342
   5 C :   -0.216305
   6 C :   -0.225475
   7 C :   -0.223743
   8 H :    0.177270
   9 H :    0.120157
  10 H :    0.130745
  11 H :    0.138021
  12 H :    0.165617
  13 H :    0.145246
  14 H :    0.151297
  15 H :    0.131961
  16 H :    0.132850
  17 H :    0.132225
  18 H :    0.132051

  Mayer bond orders larger than 0.1
B(  0-O ,  1-C ) :   0.9110 B(  0-O ,  8-H ) :   0.8358 B(  1-C ,  2-C ) :   0.9470
B(  1-C ,  9-H ) :   0.9192 B(  1-C , 10-H ) :   0.9315 B(  2-C ,  3-N ) :   0.8965
B(  2-C ,  4-C ) :   0.9156 B(  2-C , 11-H ) :   0.9242 B(  3-N ,  4-C ) :   0.8631
B(  3-N , 12-H ) :   0.8659 B(  4-C ,  5-C ) :   0.9106 B(  4-C , 13-H ) :   0.9086
B(  5-C ,  6-C ) :   0.8746 B(  5-C ,  7-C ) :   0.8812 B(  5-C , 14-H ) :   0.9237
B(  6-C ,  7-C ) :   0.9029 B(  6-C , 15-H ) :   0.9295 B(  6-C , 16-H ) :   0.9276
B(  7-C , 17-H ) :   0.9296 B(  7-C , 18-H ) :   0.9287

MP2 TOTAL ENERGY:     -364.398063867 Eh
FINAL SINGLE POINT ENERGY      -364.398063866739

DIPOLE MOMENT
-------------
                                X             Y             Z
Electronic contribution:     -0.67595       3.91421      -1.91523
Nuclear contribution   :      0.11663      -4.64072       2.26220
                        -----------------------------------------
Total Dipole Moment    :     -0.55932      -0.72650       0.34698
                        -----------------------------------------
Magnitude (a.u.)       :      0.98032
Magnitude (Debye)      :      2.49179

                             ****ORCA TERMINATED NORMALLY****
TOTAL RUN TIME: 0 days 0 hours 11 minutes 24 seconds 306 msec
