                         Program Version 3.0.3 - RELEASE   -
|  1> ! RI-MP2 RIJK def2-TZVP def2-TZVP/C def2-TZVP/JK TIGHTSCF
|  2> % maxcore 2000
|  3> % mp2 density relaxed end
|  4> *xyz 0 1
|  5>  C        0.2676184235     1.5031879118    -0.4567682262
|  6>  O        1.6426082991     1.3956472538    -0.0351564084
|  7>  C        1.4201085034     0.0851319776     0.5257122651
|  8>  C       -0.0282569562     0.0481111098    -0.0437682677
|  9>  C       -0.0659011180    -1.0159359052    -1.1642630128
| 10>  C        1.3707695868    -1.5329195192    -1.3425510874
| 11>  C        2.4037978537    -0.7622205838    -2.2023656984
| 12>  O        3.2585160109    -0.5441523502    -1.0588826949
| 13>  C        2.2429488251    -1.0301071016    -0.1658883785
| 14>  H       -0.2732882413     2.2638366936     0.1210321835
| 15>  H        0.1774182201     1.7389649764    -1.5247530662
| 16>  H        1.5392789718     0.0924294736     1.6151697209
| 17>  H       -0.8452788041    -0.0686209150     0.6692392072
| 18>  H       -0.7194586251    -1.8431481989    -0.8694268819
| 19>  H       -0.4797309304    -0.6097710434    -2.0942232657
| 20>  H        1.4088364447    -2.6085328726    -1.5204591570
| 21>  H        2.9127662907    -1.3387398209    -2.9827742285
| 22>  H        2.0439611480     0.1827856330    -2.6284370017
| 23>  H        2.6423927674    -1.7533846190     0.5532937187
| 24> *
| 25>
| 26>                          ****END OF INPUT****

CARTESIAN COORDINATES (ANGSTROEM)
---------------------------------
  C      0.267618    1.503188   -0.456768
  O      1.642608    1.395647   -0.035156
  C      1.420109    0.085132    0.525712
  C     -0.028257    0.048111   -0.043768
  C     -0.065901   -1.015936   -1.164263
  C      1.370770   -1.532920   -1.342551
  C      2.403798   -0.762221   -2.202366
  O      3.258516   -0.544152   -1.058883
  C      2.242949   -1.030107   -0.165888
  H     -0.273288    2.263837    0.121032
  H      0.177418    1.738965   -1.524753
  H      1.539279    0.092429    1.615170
  H     -0.845279   -0.068621    0.669239
  H     -0.719459   -1.843148   -0.869427
  H     -0.479731   -0.609771   -2.094223
  H      1.408836   -2.608533   -1.520459
  H      2.912766   -1.338740   -2.982774
  H      2.043961    0.182786   -2.628437
  H      2.642393   -1.753385    0.553294

 Total Charge           Charge          ....    0
 Multiplicity           Mult            ....    1
 Number of Electrons    NEL             ....   68
 Basis Dimension        Dim             ....  339

ORBITAL ENERGIES
----------------

  NO   OCC          E(Eh)            E(eV)
   0   2.0000     -20.545740      -559.0780
   1   2.0000     -20.542241      -558.9828
   2   2.0000     -11.281201      -306.9771
   3   2.0000     -11.279300      -306.9254
   4   2.0000     -11.278522      -306.9042
   5   2.0000     -11.275144      -306.8123
   6   2.0000     -11.238073      -305.8035
   7   2.0000     -11.234769      -305.7136
   8   2.0000     -11.234102      -305.6954
   9   2.0000      -1.388602       -37.7858
  10   2.0000      -1.364328       -37.1253
  11   2.0000      -1.099133       -29.9089
  12   2.0000      -0.990448       -26.9515
  13   2.0000      -0.979551       -26.6550
  14   2.0000      -0.903681       -24.5904
  15   2.0000      -0.883007       -24.0278
  16   2.0000      -0.759687       -20.6721
  17   2.0000      -0.731337       -19.9007
  18   2.0000      -0.717056       -19.5121
  19   2.0000      -0.660918       -17.9845
  20   2.0000      -0.648143       -17.6369
  21   2.0000      -0.625759       -17.0278
  22   2.0000      -0.615974       -16.7615
  23   2.0000      -0.587432       -15.9848
  24   2.0000      -0.573308       -15.6005
  25   2.0000      -0.561457       -15.2780
  26   2.0000      -0.534820       -14.5532
  27   2.0000      -0.491081       -13.3630
  28   2.0000      -0.461108       -12.5474
  29   2.0000      -0.454523       -12.3682
  30   2.0000      -0.447724       -12.1832
  31   2.0000      -0.441390       -12.0108
  32   2.0000      -0.419769       -11.4225
  33   2.0000      -0.397347       -10.8124
  34   0.0000       0.131743         3.5849
  35   0.0000       0.155539         4.2324
  36   0.0000       0.160348         4.3633
  37   0.0000       0.162601         4.4246
  38   0.0000       0.178177         4.8484

MULLIKEN ATOMIC CHARGES
-----------------------
   0 C :   -0.035610
   1 O :   -0.330332
   2 C :    0.088536
   3 C :   -0.144788
   4 C :   -0.271697
   5 C :   -0.135138
   6 C :   -0.040348
   7 O :   -0.329517
   8 C :    0.129703
   9 H :    0.099852
  10 H :    0.093242
  11 H :    0.099029
  12 H :    0.121189
  13 H :    0.124572
  14 H :    0.126005
  15 H :    0.115611
  16 H :    0.102729
  17 H :    0.083618
  18 H :    0.103345
Sum of atomic charges:    0.0000000

LOEWDIN ATOMIC CHARGES
----------------------
   0 C :   -0.257863
   1 O :    0.149123
   2 C :   -0.226007
   3 C :   -0.201707
   4 C :   -0.221320
   5 C :   -0.204315
   6 C :   -0.246502
   7 O :    0.147158
   8 C :   -0.238713
   9 H :    0.117933
  10 H :    0.115112
  11 H :    0.131229
  12 H :    0.141814
  13 H :    0.140531
  14 H :    0.140868
  15 H :    0.145412
  16 H :    0.116011
  17 H :    0.119178
  18 H :    0.132056

  Mayer bond orders larger than 0.1
B(  0-C ,  1-O ) :   0.9336 B(  0-C ,  3-C ) :   0.9807 B(  0-C ,  9-H ) :   0.9145
B(  0-C , 10-H ) :   0.9112 B(  1-O ,  2-C ) :   0.9430 B(  2-C ,  3-C ) :   0.9153
B(  2-C ,  8-C ) :   0.8914 B(  2-C , 11-H ) :   0.9166 B(  3-C ,  4-C ) :   0.9221
B(  3-C , 12-H ) :   0.9242 B(  4-C ,  5-C ) :   0.9427 B(  4-C , 13-H ) :   0.9234
B(  4-C , 14-H ) :   0.9261 B(  5-C ,  6-C ) :   1.0000 B(  5-C ,  8-C ) :   0.9035
B(  5-C , 15-H ) :   0.9239 B(  6-C ,  7-O ) :   0.9565 B(  6-C , 16-H ) :   0.9161
B(  6-C , 17-H ) :   0.8960 B(  7-O ,  8-C ) :   0.9510 B(  8-C , 18-H ) :   0.9233

MP2 TOTAL ENERGY:     -422.281123051 Eh
FINAL SINGLE POINT ENERGY      -422.281123051160

DIPOLE MOMENT
-------------
                                X             Y             Z
Electronic contribution:      4.10126       1.29574       1.76887
Nuclear contribution   :     -5.34209      -1.98389      -1.83925
                        -----------------------------------------
Total Dipole Moment    :     -1.24084      -0.68815      -0.07038
                        -----------------------------------------
Magnitude (a.u.)       :      1.42063
Magnitude (Debye)      :      3.61095

                             ****ORCA TERMINATED NORMALLY****
TOTAL RUN TIME: 0 days 0 hours 18 minutes 11 seconds 644 msec
