                         Program Version 3.0.3 - RELEASE   -
|  1> ! RI-MP2 RIJK def2-TZVP def2-TZVP/C def2-TZVP/JK TIGHTSCF
|  2> % maxcore 2000
|  3> % mp2 density relaxed end
|  4> *xyz 0 1
|  5>  C        0.0128722486     1.4408535859     0.0095171592
|  6>  N       -0.0049621251    -0.0133235884    -0.0173855956
|  7>  C        1.2739851881    -0.7087655848     0.0772643965
|  8>  C       -1.1784125949    -0.6848025398    -0.0163354285
|  9>  C       -2.4434643224    -0.0503617756    -0.0153965366
| 10>  N       -3.5457633591    -0.7612744836    -0.0542153051
| 11>  N       -3.4688889629    -2.0994682916    -0.0859762705
| 12>  N       -2.3002506020    -2.6935638257    -0.0511528816
| 13>  N       -1.1605454800    -2.0300605907    -0.0123961746
| 14>  H        1.0398362536     1.7767966773    -0.1383772724
| 15>  H       -0.5975963047     1.8634114403    -0.7954476681
| 16>  H       -0.3440632873     1.8435253509     0.9665181991
| 17>  H        1.7673674806    -0.4826199012     1.0303852900
| 18>  H        1.1015298268    -1.7805398487     0.0104319737
| 19>  H        1.9319381253    -0.3934956579    -0.7395349486
| 20>  H       -2.5660993545     1.0269366136     0.0246638332
| 21> *
| 22>
| 23>                          ****END OF INPUT****

CARTESIAN COORDINATES (ANGSTROEM)
---------------------------------
  C      0.012872    1.440854    0.009517
  N     -0.004962   -0.013324   -0.017386
  C      1.273985   -0.708766    0.077264
  C     -1.178413   -0.684803   -0.016335
  C     -2.443464   -0.050362   -0.015397
  N     -3.545763   -0.761274   -0.054215
  N     -3.468889   -2.099468   -0.085976
  N     -2.300251   -2.693564   -0.051153
  N     -1.160545   -2.030061   -0.012396
  H      1.039836    1.776797   -0.138377
  H     -0.597596    1.863411   -0.795448
  H     -0.344063    1.843525    0.966518
  H      1.767367   -0.482620    1.030385
  H      1.101530   -1.780540    0.010432
  H      1.931938   -0.393496   -0.739535
  H     -2.566099    1.026937    0.024664

 Total Charge           Charge          ....    0
 Multiplicity           Mult            ....    1
 Number of Electrons    NEL             ....   66
 Basis Dimension        Dim             ....  321

ORBITAL ENERGIES
----------------

  NO   OCC          E(Eh)            E(eV)
   0   2.0000     -15.663881      -426.2359
   1   2.0000     -15.637810      -425.5264
   2   2.0000     -15.636891      -425.5014
   3   2.0000     -15.615928      -424.9310
   4   2.0000     -15.614654      -424.8963
   5   2.0000     -11.357511      -309.0536
   6   2.0000     -11.303415      -307.5816
   7   2.0000     -11.292948      -307.2967
   8   2.0000     -11.276964      -306.8618
   9   2.0000      -1.436108       -39.0785
  10   2.0000      -1.315053       -35.7844
  11   2.0000      -1.269488       -34.5445
  12   2.0000      -1.167497       -31.7692
  13   2.0000      -1.011084       -27.5130
  14   2.0000      -0.993422       -27.0324
  15   2.0000      -0.951024       -25.8787
  16   2.0000      -0.876781       -23.8584
  17   2.0000      -0.773686       -21.0531
  18   2.0000      -0.742107       -20.1938
  19   2.0000      -0.692033       -18.8312
  20   2.0000      -0.681450       -18.5432
  21   2.0000      -0.632938       -17.2231
  22   2.0000      -0.622681       -16.9440
  23   2.0000      -0.608103       -16.5473
  24   2.0000      -0.588496       -16.0138
  25   2.0000      -0.578922       -15.7533
  26   2.0000      -0.559291       -15.2191
  27   2.0000      -0.516521       -14.0552
  28   2.0000      -0.490942       -13.3592
  29   2.0000      -0.458847       -12.4859
  30   2.0000      -0.442321       -12.0362
  31   2.0000      -0.408189       -11.1074
  32   2.0000      -0.350176        -9.5288
  33   0.0000       0.065496         1.7822
  34   0.0000       0.098437         2.6786
  35   0.0000       0.112810         3.0697
  36   0.0000       0.148817         4.0495
  37   0.0000       0.175526         4.7763

MULLIKEN ATOMIC CHARGES
-----------------------
   0 C :   -0.357930
   1 N :   -0.079036
   2 C :   -0.335769
   3 C :    0.199172
   4 C :   -0.125442
   5 N :   -0.098063
   6 N :   -0.077002
   7 N :   -0.109108
   8 N :   -0.129368
   9 H :    0.161945
  10 H :    0.155375
  11 H :    0.157469
  12 H :    0.144185
  13 H :    0.195270
  14 H :    0.143900
  15 H :    0.154402
Sum of atomic charges:    0.0000000

LOEWDIN ATOMIC CHARGES
----------------------
   0 C :   -0.284881
   1 N :    0.158859
   2 C :   -0.283062
   3 C :   -0.312419
   4 C :   -0.201390
   5 N :    0.046739
   6 N :   -0.040799
   7 N :   -0.048330
   8 N :    0.060550
   9 H :    0.131162
  10 H :    0.124792
  11 H :    0.122087
  12 H :    0.120775
  13 H :    0.136570
  14 H :    0.121083
  15 H :    0.148264

  Mayer bond orders larger than 0.1
B(  0-C ,  1-N ) :   0.8753 B(  0-C ,  9-H ) :   0.9309 B(  0-C , 10-H ) :   0.9282
B(  0-C , 11-H ) :   0.9268 B(  1-N ,  2-C ) :   0.8540 B(  1-N ,  3-C ) :   1.2327
B(  2-C , 12-H ) :   0.9303 B(  2-C , 13-H ) :   0.9197 B(  2-C , 14-H ) :   0.9304
B(  3-C ,  4-C ) :   1.1415 B(  3-C ,  8-N ) :   1.3148 B(  4-C ,  5-N ) :   1.5561
B(  4-C , 15-H ) :   0.9303 B(  5-N ,  6-N ) :   1.0454 B(  6-N ,  7-N ) :   1.2309
B(  7-N ,  8-N ) :   1.1434

MP2 TOTAL ENERGY:     -429.458328220 Eh
FINAL SINGLE POINT ENERGY      -429.458328219999

DIPOLE MOMENT
-------------
                                X             Y             Z
Electronic contribution:     -9.21892      -6.81705      -0.37168
Nuclear contribution   :     11.22159       8.97963       0.44458
                        -----------------------------------------
Total Dipole Moment    :      2.00267       2.16258       0.07291
                        -----------------------------------------
Magnitude (a.u.)       :      2.94834
Magnitude (Debye)      :      7.49409

                             ****ORCA TERMINATED NORMALLY****
TOTAL RUN TIME: 0 days 0 hours 17 minutes 28 seconds 897 msec
