                         Program Version 3.0.3 - RELEASE   -
|  1> ! RI-MP2 RIJK def2-TZVP def2-TZVP/C def2-TZVP/JK TIGHTSCF
|  2> % maxcore 2000
|  3> % mp2 density relaxed end
|  4> *xyz 0 1
|  5>  C       -0.0870204109     1.3722293998     0.1226761816
|  6>  N       -0.0113350328    -0.0368245835    -0.2276040223
|  7>  C       -1.1737677955    -0.8983778955     0.0083906080
|  8>  C       -0.5159203107    -2.3206165143    -0.0403926161
|  9>  N        0.9143397032    -2.0999074438     0.1404869594
| 10>  C        1.1079150743    -0.8374491756     0.0407907474
| 11>  N        2.3361764638    -0.2318807813     0.1936068637
| 12>  C       -1.8212579610    -0.6260423557     1.3075309235
| 13>  N       -2.3324457496    -0.4030169354     2.3201529169
| 14>  H        0.8090836830     1.8936535786    -0.2192946796
| 15>  H       -0.9411201674     1.8238531459    -0.3900311897
| 16>  H       -0.1994738957     1.5417802719     1.2022318090
| 17>  H       -1.9296651188    -0.7601190364    -0.7714284142
| 18>  H       -0.9275607829    -2.9804931016     0.7275473032
| 19>  H       -0.7123156751    -2.7837800906    -1.0160157465
| 20>  H        3.0878237538    -0.9067167349     0.1694326754
| 21>  H        2.5112043723     0.5647941724    -0.4009193696
| 22> *
| 23>
| 24>                          ****END OF INPUT****

CARTESIAN COORDINATES (ANGSTROEM)
---------------------------------
  C     -0.087020    1.372229    0.122676
  N     -0.011335   -0.036825   -0.227604
  C     -1.173768   -0.898378    0.008391
  C     -0.515920   -2.320617   -0.040393
  N      0.914340   -2.099907    0.140487
  C      1.107915   -0.837449    0.040791
  N      2.336176   -0.231881    0.193607
  C     -1.821258   -0.626042    1.307531
  N     -2.332446   -0.403017    2.320153
  H      0.809084    1.893654   -0.219295
  H     -0.941120    1.823853   -0.390031
  H     -0.199474    1.541780    1.202232
  H     -1.929665   -0.760119   -0.771428
  H     -0.927561   -2.980493    0.727547
  H     -0.712316   -2.783780   -1.016016
  H      3.087824   -0.906717    0.169433
  H      2.511204    0.564794   -0.400919

 Total Charge           Charge          ....    0
 Multiplicity           Mult            ....    1
 Number of Electrons    NEL             ....   66
 Basis Dimension        Dim             ....  327

ORBITAL ENERGIES
----------------

  NO   OCC          E(Eh)            E(eV)
   0   2.0000     -15.601712      -424.5442
   1   2.0000     -15.589130      -424.2018
   2   2.0000     -15.576323      -423.8533
   3   2.0000     -15.528281      -422.5460
   4   2.0000     -11.351724      -308.8961
   5   2.0000     -11.322220      -308.0933
   6   2.0000     -11.279455      -306.9296
   7   2.0000     -11.275042      -306.8095
   8   2.0000     -11.271782      -306.7208
   9   2.0000      -1.344433       -36.5839
  10   2.0000      -1.231886       -33.5213
  11   2.0000      -1.211902       -32.9775
  12   2.0000      -1.180553       -32.1245
  13   2.0000      -1.038570       -28.2609
  14   2.0000      -0.959475       -26.1086
  15   2.0000      -0.886149       -24.1133
  16   2.0000      -0.796109       -21.6632
  17   2.0000      -0.735450       -20.0126
  18   2.0000      -0.720156       -19.5964
  19   2.0000      -0.698534       -19.0081
  20   2.0000      -0.646402       -17.5895
  21   2.0000      -0.614273       -16.7152
  22   2.0000      -0.604253       -16.4425
  23   2.0000      -0.592683       -16.1277
  24   2.0000      -0.569758       -15.5039
  25   2.0000      -0.558411       -15.1951
  26   2.0000      -0.547547       -14.8995
  27   2.0000      -0.534897       -14.5553
  28   2.0000      -0.475407       -12.9365
  29   2.0000      -0.469742       -12.7823
  30   2.0000      -0.428655       -11.6643
  31   2.0000      -0.423276       -11.5179
  32   2.0000      -0.350939        -9.5495
  33   0.0000       0.116685         3.1752
  34   0.0000       0.133670         3.6373
  35   0.0000       0.154003         4.1906
  36   0.0000       0.160099         4.3565
  37   0.0000       0.177346         4.8258

MULLIKEN ATOMIC CHARGES
-----------------------
   0 C :   -0.310400
   1 N :   -0.165488
   2 C :    0.097383
   3 C :   -0.098813
   4 N :   -0.313665
   5 C :    0.245399
   6 N :   -0.518237
   7 C :   -0.240707
   8 N :   -0.050396
   9 H :    0.121830
  10 H :    0.151300
  11 H :    0.157780
  12 H :    0.149935
  13 H :    0.140983
  14 H :    0.109956
  15 H :    0.270239
  16 H :    0.252903
Sum of atomic charges:   -0.0000000

LOEWDIN ATOMIC CHARGES
----------------------
   0 C :   -0.297058
   1 N :    0.159352
   2 C :   -0.239690
   3 C :   -0.238153
   4 N :    0.047890
   5 C :   -0.434754
   6 N :   -0.048531
   7 C :   -0.172905
   8 N :    0.068054
   9 H :    0.118785
  10 H :    0.126033
  11 H :    0.122438
  12 H :    0.166446
  13 H :    0.137816
  14 H :    0.132279
  15 H :    0.182201
  16 H :    0.169798

  Mayer bond orders larger than 0.1
B(  0-C ,  1-N ) :   0.8956 B(  0-C ,  9-H ) :   0.9305 B(  0-C , 10-H ) :   0.9342
B(  0-C , 11-H ) :   0.9229 B(  1-N ,  2-C ) :   0.9414 B(  1-N ,  5-C ) :   1.0822
B(  2-C ,  3-C ) :   0.8752 B(  2-C ,  7-C ) :   0.8745 B(  2-C , 12-H ) :   0.9195
B(  3-C ,  4-N ) :   0.9643 B(  3-C , 13-H ) :   0.9274 B(  3-C , 14-H ) :   0.9137
B(  4-N ,  5-C ) :   1.7988 B(  5-C ,  6-N ) :   1.0560 B(  6-N , 15-H ) :   0.8669
B(  6-N , 16-H ) :   0.8669 B(  7-C ,  8-N ) :   2.8569

MP2 TOTAL ENERGY:     -413.510243293 Eh
FINAL SINGLE POINT ENERGY      -413.510243292898

DIPOLE MOMENT
-------------
                                X             Y             Z
Electronic contribution:     -1.92206      -2.54161       2.20683
Nuclear contribution   :      2.53756       3.33995      -3.70814
                        -----------------------------------------
Total Dipole Moment    :      0.61549       0.79834      -1.50131
                        -----------------------------------------
Magnitude (a.u.)       :      1.80834
Magnitude (Debye)      :      4.59645

                             ****ORCA TERMINATED NORMALLY****
TOTAL RUN TIME: 0 days 0 hours 16 minutes 43 seconds 254 msec
