                         Program Version 3.0.3 - RELEASE   -
|  1> ! RI-MP2 RIJK def2-TZVP def2-TZVP/C def2-TZVP/JK TIGHTSCF
|  2> % maxcore 2000
|  3> % mp2 density relaxed end
|  4> *xyz 0 1
|  5>  C       -0.0242743678     1.4180780553    -0.0730059641
|  6>  O       -0.0283580180     0.0331993165     0.1738984223
|  7>  C       -1.3046662966    -0.5930639512     0.0633951282
|  8>  C       -1.7425671541    -0.7680195439    -1.4013828643
|  9>  C       -0.8059908450    -1.7152525102    -2.1628178848
| 10>  C       -0.6870674883    -3.0873024327    -1.4763303880
| 11>  C        0.2599482837    -4.0195536367    -2.2363084873
| 12>  C       -0.2533143973    -2.9049194698    -0.0112462340
| 13>  C       -1.1847734936    -1.9552071659     0.7541307033
| 14>  H        0.9816091885     1.7826939444     0.1521390139
| 15>  H       -0.2556089014     1.6681093063    -1.1188750690
| 16>  H       -0.7436718323     1.9476466795     0.5720444002
| 17>  H       -2.0478845847     0.0241639188     0.5952650385
| 18>  H       -2.7649797711    -1.1689755487    -1.4027783818
| 19>  H       -1.7966857957     0.2046349891    -1.9027194695
| 20>  H       -1.1569773337    -1.8395730886    -3.1942010190
| 21>  H        0.1911984630    -1.2603705946    -2.2213224863
| 22>  H       -1.6883344730    -3.5468972797    -1.4745235511
| 23>  H        1.2744015464    -3.6047070509    -2.2687642746
| 24>  H        0.3189133753    -5.0035028046    -1.7585613901
| 25>  H       -0.0713442557    -4.1677647241    -3.2699556209
| 26>  H       -0.2176605544    -3.8778512974     0.4934164290
| 27>  H        0.7655277842    -2.4989113969     0.0124364085
| 28>  H       -0.8236488049    -1.8039515317     1.7765497696
| 29>  H       -2.1884523534    -2.3937975124     0.8258817114
| 30> *
| 31>
| 32>                          ****END OF INPUT****

CARTESIAN COORDINATES (ANGSTROEM)
---------------------------------
  C     -0.024274    1.418078   -0.073006
  O     -0.028358    0.033199    0.173898
  C     -1.304666   -0.593064    0.063395
  C     -1.742567   -0.768020   -1.401383
  C     -0.805991   -1.715253   -2.162818
  C     -0.687067   -3.087302   -1.476330
  C      0.259948   -4.019554   -2.236308
  C     -0.253314   -2.904919   -0.011246
  C     -1.184773   -1.955207    0.754131
  H      0.981609    1.782694    0.152139
  H     -0.255609    1.668109   -1.118875
  H     -0.743672    1.947647    0.572044
  H     -2.047885    0.024164    0.595265
  H     -2.764980   -1.168976   -1.402778
  H     -1.796686    0.204635   -1.902719
  H     -1.156977   -1.839573   -3.194201
  H      0.191198   -1.260371   -2.221322
  H     -1.688334   -3.546897   -1.474524
  H      1.274402   -3.604707   -2.268764
  H      0.318913   -5.003503   -1.758561
  H     -0.071344   -4.167765   -3.269956
  H     -0.217661   -3.877851    0.493416
  H      0.765528   -2.498911    0.012436
  H     -0.823649   -1.803952    1.776550
  H     -2.188452   -2.393798    0.825882

 Total Charge           Charge          ....    0
 Multiplicity           Mult            ....    1
 Number of Electrons    NEL             ....   72
 Basis Dimension        Dim             ....  375

ORBITAL ENERGIES
----------------

  NO   OCC          E(Eh)            E(eV)
   0   2.0000     -20.546436      -559.0969
   1   2.0000     -11.271515      -306.7135
   2   2.0000     -11.266228      -306.5697
   3   2.0000     -11.217379      -305.2404
   4   2.0000     -11.214932      -305.1738
   5   2.0000     -11.211588      -305.0828
   6   2.0000     -11.209975      -305.0389
   7   2.0000     -11.207130      -304.9615
   8   2.0000     -11.205585      -304.9195
   9   2.0000      -1.367352       -37.2075
  10   2.0000      -1.110555       -30.2197
  11   2.0000      -1.025140       -27.8955
  12   2.0000      -0.999854       -27.2074
  13   2.0000      -0.930716       -25.3261
  14   2.0000      -0.894403       -24.3380
  15   2.0000      -0.831716       -22.6322
  16   2.0000      -0.791587       -21.5402
  17   2.0000      -0.739644       -20.1267
  18   2.0000      -0.670211       -18.2374
  19   2.0000      -0.644854       -17.5474
  20   2.0000      -0.636116       -17.3096
  21   2.0000      -0.602775       -16.4023
  22   2.0000      -0.595060       -16.1924
  23   2.0000      -0.585111       -15.9217
  24   2.0000      -0.558060       -15.1856
  25   2.0000      -0.548009       -14.9121
  26   2.0000      -0.524723       -14.2784
  27   2.0000      -0.518936       -14.1210
  28   2.0000      -0.505029       -13.7426
  29   2.0000      -0.488288       -13.2870
  30   2.0000      -0.480258       -13.0685
  31   2.0000      -0.472764       -12.8646
  32   2.0000      -0.446902       -12.1608
  33   2.0000      -0.435868       -11.8606
  34   2.0000      -0.421923       -11.4811
  35   2.0000      -0.401650       -10.9295
  36   0.0000       0.134056         3.6478
  37   0.0000       0.151754         4.1294
  38   0.0000       0.155346         4.2272
  39   0.0000       0.172371         4.6904
  40   0.0000       0.187422         5.1000

MULLIKEN ATOMIC CHARGES
-----------------------
   0 C :   -0.229742
   1 O :   -0.321648
   2 C :    0.115492
   3 C :   -0.253425
   4 C :   -0.241028
   5 C :   -0.056301
   6 C :   -0.387182
   7 C :   -0.240300
   8 C :   -0.198851
   9 H :    0.139860
  10 H :    0.110363
  11 H :    0.110644
  12 H :    0.082824
  13 H :    0.111690
  14 H :    0.124911
  15 H :    0.117668
  16 H :    0.110442
  17 H :    0.075444
  18 H :    0.122585
  19 H :    0.128388
  20 H :    0.127514
  21 H :    0.115890
  22 H :    0.113439
  23 H :    0.116448
  24 H :    0.104874
Sum of atomic charges:   -0.0000000

LOEWDIN ATOMIC CHARGES
----------------------
   0 C :   -0.363858
   1 O :    0.155230
   2 C :   -0.322549
   3 C :   -0.248396
   4 C :   -0.241823
   5 C :   -0.283309
   6 C :   -0.296149
   7 C :   -0.241683
   8 C :   -0.240723
   9 H :    0.113283
  10 H :    0.099482
  11 H :    0.101808
  12 H :    0.134233
  13 H :    0.142388
  14 H :    0.135004
  15 H :    0.136248
  16 H :    0.142974
  17 H :    0.149402
  18 H :    0.123328
  19 H :    0.121925
  20 H :    0.121572
  21 H :    0.136201
  22 H :    0.144136
  23 H :    0.140404
  24 H :    0.140872

  Mayer bond orders larger than 0.1
B(  0-C ,  1-O ) :   0.9229 B(  0-C ,  9-H ) :   0.9421 B(  0-C , 10-H ) :   0.9322
B(  0-C , 11-H ) :   0.9354 B(  1-O ,  2-C ) :   0.9142 B(  2-C ,  3-C ) :   0.9291
B(  2-C ,  8-C ) :   0.9223 B(  2-C , 12-H ) :   0.9378 B(  3-C ,  4-C ) :   0.9350
B(  3-C , 13-H ) :   0.9279 B(  3-C , 14-H ) :   0.9308 B(  4-C ,  5-C ) :   0.9385
B(  4-C , 15-H ) :   0.9299 B(  4-C , 16-H ) :   0.9163 B(  5-C ,  6-C ) :   0.9077
B(  5-C ,  7-C ) :   0.9377 B(  5-C , 17-H ) :   0.9270 B(  6-C , 18-H ) :   0.9340
B(  6-C , 19-H ) :   0.9419 B(  6-C , 20-H ) :   0.9417 B(  7-C ,  8-C ) :   0.9583
B(  7-C , 21-H ) :   0.9288 B(  7-C , 22-H ) :   0.9143 B(  8-C , 23-H ) :   0.9210
B(  8-C , 24-H ) :   0.9275

MP2 TOTAL ENERGY:     -388.838758681 Eh
FINAL SINGLE POINT ENERGY      -388.838758680718

DIPOLE MOMENT
-------------
                                X             Y             Z
Electronic contribution:     -0.12208       2.06541       2.63855
Nuclear contribution   :     -0.24779      -1.82642      -2.74443
                        -----------------------------------------
Total Dipole Moment    :     -0.36986       0.23899      -0.10588
                        -----------------------------------------
Magnitude (a.u.)       :      0.45291
Magnitude (Debye)      :      1.15120

                             ****ORCA TERMINATED NORMALLY****
TOTAL RUN TIME: 0 days 0 hours 36 minutes 9 seconds 904 msec
