                         Program Version 3.0.3 - RELEASE   -
|  1> ! RI-MP2 RIJK def2-TZVP def2-TZVP/C def2-TZVP/JK TIGHTSCF
|  2> % maxcore 2000
|  3> % mp2 density relaxed end
|  4> *xyz 0 1
|  5>  C        0.0841658751     1.3522731586     0.2629495447
|  6>  N       -0.0253326231    -0.0829806127     0.0866498288
|  7>  C        0.0250089985    -0.7646001394    -1.1097282445
|  8>  C       -0.0427553716    -2.1112851082    -0.8491589333
|  9>  C       -0.1442851387    -2.2744482702     0.5623084619
| 10>  C       -0.1248456051    -1.0078239498     1.0928715537
| 11>  O       -0.2211272737    -0.5618737410     2.3861211767
| 12>  C        0.6871929064    -1.0458413489     3.2870315234
| 13>  O        0.6284678295    -0.7762104251     4.4441113051
| 14>  H        1.1299225090     1.6721651508     0.3335486700
| 15>  H       -0.3813956158     1.8563368461    -0.5865057924
| 16>  H       -0.4338296629     1.6471202355     1.1763415270
| 17>  H        0.0954373764    -0.2230988706    -2.0393552247
| 18>  H       -0.0404803500    -2.8986018515    -1.5865371651
| 19>  H       -0.2549818950    -3.1929019620     1.1162213247
| 20>  H        1.4364433611    -1.6949115615     2.8014979141
| 21> *
| 22>
| 23>                          ****END OF INPUT****

CARTESIAN COORDINATES (ANGSTROEM)
---------------------------------
  C      0.084166    1.352273    0.262950
  N     -0.025333   -0.082981    0.086650
  C      0.025009   -0.764600   -1.109728
  C     -0.042755   -2.111285   -0.849159
  C     -0.144285   -2.274448    0.562308
  C     -0.124846   -1.007824    1.092872
  O     -0.221127   -0.561874    2.386121
  C      0.687193   -1.045841    3.287032
  O      0.628468   -0.776210    4.444111
  H      1.129923    1.672165    0.333549
  H     -0.381396    1.856337   -0.586506
  H     -0.433830    1.647120    1.176342
  H      0.095437   -0.223099   -2.039355
  H     -0.040480   -2.898602   -1.586537
  H     -0.254982   -3.192902    1.116221
  H      1.436443   -1.694912    2.801498

 Total Charge           Charge          ....    0
 Multiplicity           Mult            ....    1
 Number of Electrons    NEL             ....   66
 Basis Dimension        Dim             ....  321

ORBITAL ENERGIES
----------------

  NO   OCC          E(Eh)            E(eV)
   0   2.0000     -20.633568      -561.4679
   1   2.0000     -20.567559      -559.6717
   2   2.0000     -15.622217      -425.1021
   3   2.0000     -11.397250      -310.1350
   4   2.0000     -11.330979      -308.3316
   5   2.0000     -11.282173      -307.0035
   6   2.0000     -11.261175      -306.4322
   7   2.0000     -11.225776      -305.4689
   8   2.0000     -11.224411      -305.4317
   9   2.0000      -1.487631       -40.4805
  10   2.0000      -1.399671       -38.0870
  11   2.0000      -1.311382       -35.6845
  12   2.0000      -1.093698       -29.7610
  13   2.0000      -0.996316       -27.1111
  14   2.0000      -0.951543       -25.8928
  15   2.0000      -0.884514       -24.0688
  16   2.0000      -0.803884       -21.8748
  17   2.0000      -0.799808       -21.7639
  18   2.0000      -0.738912       -20.1068
  19   2.0000      -0.688655       -18.7393
  20   2.0000      -0.668836       -18.2000
  21   2.0000      -0.657562       -17.8932
  22   2.0000      -0.644526       -17.5384
  23   2.0000      -0.614347       -16.7172
  24   2.0000      -0.592474       -16.1220
  25   2.0000      -0.579844       -15.7784
  26   2.0000      -0.552615       -15.0374
  27   2.0000      -0.549455       -14.9514
  28   2.0000      -0.535994       -14.5851
  29   2.0000      -0.492438       -13.3999
  30   2.0000      -0.475610       -12.9420
  31   2.0000      -0.356415        -9.6985
  32   2.0000      -0.308880        -8.4051
  33   0.0000       0.130026         3.5382
  34   0.0000       0.140461         3.8221
  35   0.0000       0.150523         4.0959
  36   0.0000       0.168646         4.5891
  37   0.0000       0.173734         4.7275

MULLIKEN ATOMIC CHARGES
-----------------------
   0 C :   -0.336285
   1 N :   -0.002942
   2 C :   -0.150567
   3 C :   -0.160959
   4 C :   -0.268415
   5 C :    0.199436
   6 O :   -0.239189
   7 C :    0.189216
   8 O :   -0.249973
   9 H :    0.151347
  10 H :    0.152892
  11 H :    0.175655
  12 H :    0.147969
  13 H :    0.136576
  14 H :    0.147949
  15 H :    0.107289
Sum of atomic charges:   -0.0000000

LOEWDIN ATOMIC CHARGES
----------------------
   0 C :   -0.266557
   1 N :    0.243867
   2 C :   -0.216912
   3 C :   -0.193090
   4 C :   -0.185611
   5 C :   -0.323289
   6 O :    0.295797
   7 C :   -0.412454
   8 O :    0.139561
   9 H :    0.123125
  10 H :    0.128363
  11 H :    0.132969
  12 H :    0.135971
  13 H :    0.140789
  14 H :    0.143310
  15 H :    0.114162

  Mayer bond orders larger than 0.1
B(  0-C ,  1-N ) :   0.8550 B(  0-C ,  9-H ) :   0.9264 B(  0-C , 10-H ) :   0.9314
B(  0-C , 11-H ) :   0.9275 B(  1-N ,  2-C ) :   1.1151 B(  1-N ,  5-C ) :   1.1483
B(  2-C ,  3-C ) :   1.4906 B(  2-C , 12-H ) :   0.9135 B(  3-C ,  4-C ) :   1.2493
B(  3-C , 13-H ) :   0.9305 B(  4-C ,  5-C ) :   1.4499 B(  4-C , 14-H ) :   0.9290
B(  5-C ,  6-O ) :   0.9563 B(  6-O ,  7-C ) :   0.9890 B(  7-C ,  8-O ) :   2.0510
B(  7-C , 15-H ) :   0.9168

MP2 TOTAL ENERGY:     -437.204530942 Eh
FINAL SINGLE POINT ENERGY      -437.204530942160

DIPOLE MOMENT
-------------
                                X             Y             Z
Electronic contribution:     -0.44516      -1.95438       5.50558
Nuclear contribution   :      0.74641       2.37130      -6.71045
                        -----------------------------------------
Total Dipole Moment    :      0.30126       0.41692      -1.20487
                        -----------------------------------------
Magnitude (a.u.)       :      1.31007
Magnitude (Debye)      :      3.32995

                             ****ORCA TERMINATED NORMALLY****
TOTAL RUN TIME: 0 days 0 hours 14 minutes 40 seconds 80 msec
