                         Program Version 3.0.3 - RELEASE   -
|  1> ! RI-MP2 RIJK def2-TZVP def2-TZVP/C def2-TZVP/JK TIGHTSCF
|  2> % maxcore 2000
|  3> % mp2 density relaxed end
|  4> *xyz 0 1
|  5>  O        0.0672373386     0.0738572710    -0.5984506178
|  6>  C        0.0426287952     1.1752881403    -0.1385955089
|  7>  C       -1.0400366358     2.0223777484     0.5680028443
|  8>  C       -0.0214414409     3.1864972117     0.6220550942
|  9>  O        0.7543705818     3.1828133510     1.8365548684
| 10>  C        1.8519242198     2.4691820110     1.2037649578
| 11>  C        2.2668408031     1.2654542024     1.8981989062
| 12>  C        2.6158596467     0.2659580254     2.4664556442
| 13>  C        1.0513774212     2.3394200101    -0.1297710421
| 14>  H       -1.8966910305     2.2045104119    -0.0906275327
| 15>  H       -1.3963423187     1.6588635511     1.5343610546
| 16>  H       -0.3468086227     4.1851299449     0.3289665018
| 17>  H        2.7078951429     3.1449774436     1.0821722633
| 18>  H        2.9196398504    -0.6212063637     2.9657928338
| 19>  H        1.5692003987     2.5913675309    -1.0534530071
| 20> *
| 21>
| 22>                          ****END OF INPUT****

CARTESIAN COORDINATES (ANGSTROEM)
---------------------------------
  O      0.067237    0.073857   -0.598451
  C      0.042629    1.175288   -0.138596
  C     -1.040037    2.022378    0.568003
  C     -0.021441    3.186497    0.622055
  O      0.754371    3.182813    1.836555
  C      1.851924    2.469182    1.203765
  C      2.266841    1.265454    1.898199
  C      2.615860    0.265958    2.466456
  C      1.051377    2.339420   -0.129771
  H     -1.896691    2.204510   -0.090628
  H     -1.396342    1.658864    1.534361
  H     -0.346809    4.185130    0.328967
  H      2.707895    3.144977    1.082172
  H      2.919640   -0.621206    2.965793
  H      1.569200    2.591368   -1.053453

 Total Charge           Charge          ....    0
 Multiplicity           Mult            ....    1
 Number of Electrons    NEL             ....   64
 Basis Dimension        Dim             ....  315

ORBITAL ENERGIES
----------------

  NO   OCC          E(Eh)            E(eV)
   0   2.0000     -20.576063      -559.9031
   1   2.0000     -20.563074      -559.5497
   2   2.0000     -11.344483      -308.6991
   3   2.0000     -11.336199      -308.4737
   4   2.0000     -11.311377      -307.7982
   5   2.0000     -11.265656      -306.5541
   6   2.0000     -11.250240      -306.1346
   7   2.0000     -11.244385      -305.9753
   8   2.0000     -11.240414      -305.8672
   9   2.0000      -1.414141       -38.4807
  10   2.0000      -1.401539       -38.1378
  11   2.0000      -1.126607       -30.6565
  12   2.0000      -1.069163       -29.0934
  13   2.0000      -0.992578       -27.0094
  14   2.0000      -0.909884       -24.7592
  15   2.0000      -0.839329       -22.8393
  16   2.0000      -0.756378       -20.5821
  17   2.0000      -0.724720       -19.7206
  18   2.0000      -0.713027       -19.4025
  19   2.0000      -0.690153       -18.7800
  20   2.0000      -0.673737       -18.3333
  21   2.0000      -0.630565       -17.1585
  22   2.0000      -0.615724       -16.7547
  23   2.0000      -0.581686       -15.8285
  24   2.0000      -0.574184       -15.6243
  25   2.0000      -0.537877       -14.6364
  26   2.0000      -0.494863       -13.4659
  27   2.0000      -0.476593       -12.9688
  28   2.0000      -0.445479       -12.1221
  29   2.0000      -0.413466       -11.2510
  30   2.0000      -0.408193       -11.1075
  31   2.0000      -0.392374       -10.6770
  32   0.0000       0.108462         2.9514
  33   0.0000       0.136686         3.7194
  34   0.0000       0.146314         3.9814
  35   0.0000       0.159733         4.3465
  36   0.0000       0.162791         4.4298

MULLIKEN ATOMIC CHARGES
-----------------------
   0 O :   -0.235777
   1 C :    0.090730
   2 C :   -0.222252
   3 C :    0.047779
   4 O :   -0.312243
   5 C :   -0.076940
   6 C :   -0.030880
   7 C :   -0.098480
   8 C :   -0.050575
   9 H :    0.140828
  10 H :    0.147652
  11 H :    0.124388
  12 H :    0.123597
  13 H :    0.199359
  14 H :    0.152814
Sum of atomic charges:    0.0000000

LOEWDIN ATOMIC CHARGES
----------------------
   0 O :    0.180667
   1 C :   -0.292095
   2 C :   -0.188399
   3 C :   -0.228791
   4 O :    0.170325
   5 C :   -0.240320
   6 C :   -0.083738
   7 C :   -0.061375
   8 C :   -0.123647
   9 H :    0.151311
  10 H :    0.149260
  11 H :    0.129680
  12 H :    0.159270
  13 H :    0.130806
  14 H :    0.147046

  Mayer bond orders larger than 0.1
B(  0-O ,  1-C ) :   2.0308 B(  1-C ,  2-C ) :   0.9267 B(  1-C ,  8-C ) :   0.8300
B(  2-C ,  3-C ) :   0.9310 B(  2-C ,  8-C ) :  -0.1212 B(  2-C ,  9-H ) :   0.8911
B(  2-C , 10-H ) :   0.8842 B(  3-C ,  4-O ) :   0.9411 B(  3-C ,  8-C ) :   0.9382
B(  3-C , 11-H ) :   0.9281 B(  4-O ,  5-C ) :   0.9411 B(  5-C ,  6-C ) :   1.1495
B(  5-C ,  8-C ) :   0.9136 B(  5-C , 12-H ) :   0.9056 B(  6-C ,  7-C ) :   2.5667
B(  7-C , 13-H ) :   0.8906 B(  8-C , 14-H ) :   0.8963

MP2 TOTAL ENERGY:     -419.843442282 Eh
FINAL SINGLE POINT ENERGY      -419.843442281561

DIPOLE MOMENT
-------------
                                X             Y             Z
Electronic contribution:      1.23887      -1.62152       0.03096
Nuclear contribution   :     -1.19223       2.28745      -0.26168
                        -----------------------------------------
Total Dipole Moment    :      0.04665       0.66593      -0.23072
                        -----------------------------------------
Magnitude (a.u.)       :      0.70631
Magnitude (Debye)      :      1.79529

                             ****ORCA TERMINATED NORMALLY****
TOTAL RUN TIME: 0 days 0 hours 16 minutes 15 seconds 587 msec
