                         Program Version 3.0.3 - RELEASE   -
|  1> ! RI-MP2 RIJK def2-TZVP def2-TZVP/C def2-TZVP/JK TIGHTSCF
|  2> % maxcore 2000
|  3> % mp2 density relaxed end
|  4> *xyz 0 1
|  5>  C       -0.1420151249     1.5741729692     0.1420437122
|  6>  C       -0.0059265336     0.0426129978     0.0466706305
|  7>  C        0.6830385374    -0.5070093501     1.3098172905
|  8>  C       -1.4109814880    -0.5789271222    -0.0713725403
|  9>  C        0.7842548653    -0.3583280212    -1.2206132539
| 10>  C        2.2487480951     0.0799611579    -1.3059054441
| 11>  N        2.9419695346    -0.5234078787    -2.3192649542
| 12>  O        2.7837107790     0.8840878302    -0.5648638855
| 13>  H        0.8376143265     2.0477820298     0.2151595913
| 14>  H       -0.6569425283     1.9771384044    -0.7384211752
| 15>  H       -0.7325513862     1.8491378096     1.0229471133
| 16>  H        0.0912766715    -0.2694652113     2.2004967602
| 17>  H        0.7821541635    -1.5981493297     1.2617057317
| 18>  H        1.6779884911    -0.0752641476     1.4316978844
| 19>  H       -1.9332140102    -0.2214569759    -0.9663755428
| 20>  H       -1.3632399624    -1.6727480735    -0.1249460578
| 21>  H       -2.0225290122    -0.3146909768     0.7978808645
| 22>  H        0.7536820173    -1.4499599484    -1.3375281351
| 23>  H        0.2760310434     0.0495402485    -2.1061051692
| 24>  H        2.4963251618    -1.1206733110    -2.9932385753
| 25>  H        3.8834961694    -0.2136755411    -2.4963951952
| 26> *
| 27>
| 28>                          ****END OF INPUT****

CARTESIAN COORDINATES (ANGSTROEM)
---------------------------------
  C     -0.142015    1.574173    0.142044
  C     -0.005927    0.042613    0.046671
  C      0.683039   -0.507009    1.309817
  C     -1.410981   -0.578927   -0.071373
  C      0.784255   -0.358328   -1.220613
  C      2.248748    0.079961   -1.305905
  N      2.941970   -0.523408   -2.319265
  O      2.783711    0.884088   -0.564864
  H      0.837614    2.047782    0.215160
  H     -0.656943    1.977138   -0.738421
  H     -0.732551    1.849138    1.022947
  H      0.091277   -0.269465    2.200497
  H      0.782154   -1.598149    1.261706
  H      1.677988   -0.075264    1.431698
  H     -1.933214   -0.221457   -0.966376
  H     -1.363240   -1.672748   -0.124946
  H     -2.022529   -0.314691    0.797881
  H      0.753682   -1.449960   -1.337528
  H      0.276031    0.049540   -2.106105
  H      2.496325   -1.120673   -2.993239
  H      3.883496   -0.213676   -2.496395

 Total Charge           Charge          ....    0
 Multiplicity           Mult            ....    1
 Number of Electrons    NEL             ....   64
 Basis Dimension        Dim             ....  326

ORBITAL ENERGIES
----------------

  NO   OCC          E(Eh)            E(eV)
   0   2.0000     -20.515412      -558.2527
   1   2.0000     -15.580278      -423.9609
   2   2.0000     -11.350802      -308.8710
   3   2.0000     -11.239078      -305.8308
   4   2.0000     -11.237742      -305.7945
   5   2.0000     -11.212594      -305.1102
   6   2.0000     -11.201673      -304.8130
   7   2.0000     -11.199214      -304.7461
   8   2.0000      -1.380474       -37.5646
   9   2.0000      -1.208385       -32.8818
  10   2.0000      -1.106432       -30.1076
  11   2.0000      -0.973819       -26.4990
  12   2.0000      -0.926745       -25.2180
  13   2.0000      -0.921873       -25.0854
  14   2.0000      -0.803806       -21.8727
  15   2.0000      -0.745379       -20.2828
  16   2.0000      -0.702724       -19.1221
  17   2.0000      -0.666561       -18.1380
  18   2.0000      -0.631415       -17.1817
  19   2.0000      -0.607957       -16.5434
  20   2.0000      -0.607013       -16.5177
  21   2.0000      -0.584313       -15.9000
  22   2.0000      -0.560666       -15.2565
  23   2.0000      -0.530971       -14.4484
  24   2.0000      -0.526597       -14.3294
  25   2.0000      -0.512053       -13.9337
  26   2.0000      -0.503423       -13.6988
  27   2.0000      -0.470134       -12.7930
  28   2.0000      -0.458064       -12.4646
  29   2.0000      -0.453243       -12.3334
  30   2.0000      -0.415622       -11.3096
  31   2.0000      -0.411107       -11.1868
  32   0.0000       0.119076         3.2402
  33   0.0000       0.143321         3.9000
  34   0.0000       0.167130         4.5478
  35   0.0000       0.178918         4.8686
  36   0.0000       0.188776         5.1369

MULLIKEN ATOMIC CHARGES
-----------------------
   0 C :   -0.436155
   1 C :    0.128147
   2 C :   -0.437715
   3 C :   -0.394786
   4 C :   -0.309849
   5 C :    0.307341
   6 N :   -0.482924
   7 O :   -0.364253
   8 H :    0.172184
   9 H :    0.115266
  10 H :    0.122142
  11 H :    0.124156
  12 H :    0.117613
  13 H :    0.167514
  14 H :    0.124535
  15 H :    0.124208
  16 H :    0.132900
  17 H :    0.134470
  18 H :    0.140737
  19 H :    0.256787
  20 H :    0.257681
Sum of atomic charges:    0.0000000

LOEWDIN ATOMIC CHARGES
----------------------
   0 C :   -0.271199
   1 C :   -0.344422
   2 C :   -0.270403
   3 C :   -0.274862
   4 C :   -0.205523
   5 C :   -0.466424
   6 N :   -0.026484
   7 O :    0.082339
   8 H :    0.132778
   9 H :    0.122002
  10 H :    0.123850
  11 H :    0.124734
  12 H :    0.122619
  13 H :    0.132445
  14 H :    0.122827
  15 H :    0.122292
  16 H :    0.126118
  17 H :    0.151341
  18 H :    0.155563
  19 H :    0.168636
  20 H :    0.171775

  Mayer bond orders larger than 0.1
B(  0-C ,  1-C ) :   0.9072 B(  0-C ,  8-H ) :   0.9308 B(  0-C ,  9-H ) :   0.9306
B(  0-C , 10-H ) :   0.9331 B(  1-C ,  2-C ) :   0.9047 B(  1-C ,  3-C ) :   0.9144
B(  1-C ,  4-C ) :   0.9111 B(  2-C , 11-H ) :   0.9330 B(  2-C , 12-H ) :   0.9310
B(  2-C , 13-H ) :   0.9326 B(  3-C , 14-H ) :   0.9337 B(  3-C , 15-H ) :   0.9341
B(  3-C , 16-H ) :   0.9393 B(  4-C ,  5-C ) :   0.9053 B(  4-C , 17-H ) :   0.9089
B(  4-C , 18-H ) :   0.8977 B(  5-C ,  6-N ) :   1.1642 B(  5-C ,  7-O ) :   1.9315
B(  6-N , 19-H ) :   0.8731 B(  6-N , 20-H ) :   0.8587

MP2 TOTAL ENERGY:     -365.697091604 Eh
FINAL SINGLE POINT ENERGY      -365.697091603978

DIPOLE MOMENT
-------------
                                X             Y             Z
Electronic contribution:      8.10825       1.06702      -3.63362
Nuclear contribution   :     -8.38571      -1.87577       2.59745
                        -----------------------------------------
Total Dipole Moment    :     -0.27746      -0.80875      -1.03616
                        -----------------------------------------
Magnitude (a.u.)       :      1.34339
Magnitude (Debye)      :      3.41463

                             ****ORCA TERMINATED NORMALLY****
TOTAL RUN TIME: 0 days 0 hours 15 minutes 7 seconds 141 msec
