                         Program Version 3.0.3 - RELEASE   -
|  1> ! RI-MP2 RIJK def2-TZVP def2-TZVP/C def2-TZVP/JK TIGHTSCF
|  2> % maxcore 2000
|  3> % mp2 density relaxed end
|  4> *xyz 0 1
|  5>  N       -0.0274929339     1.3793507729    -0.1361413627
|  6>  C        0.0509659637    -0.0115129749    -0.0501872814
|  7>  N       -1.0480429949    -0.7463400672     0.0556383093
|  8>  N       -0.5836103178    -2.0366032243     0.0242341991
|  9>  C        0.7568042492    -2.0951399073    -0.0787060086
| 10>  O        1.3538388127    -3.3063912801    -0.1111085987
| 11>  C        1.2308149437    -0.8003932645    -0.1338563091
| 12>  H        0.6898261470     1.8519207176     0.3977442114
| 13>  H       -0.9444296926     1.7085381049     0.1399837716
| 14>  H       -1.2248971912    -2.8067615102     0.0869241902
| 15>  H        2.3021461392    -3.1787091162    -0.2095903942
| 16>  H        2.2525383648    -0.4748222007    -0.2408479569
| 17> *
| 18>
| 19>                          ****END OF INPUT****

CARTESIAN COORDINATES (ANGSTROEM)
---------------------------------
  N     -0.027493    1.379351   -0.136141
  C      0.050966   -0.011513   -0.050187
  N     -1.048043   -0.746340    0.055638
  N     -0.583610   -2.036603    0.024234
  C      0.756804   -2.095140   -0.078706
  O      1.353839   -3.306391   -0.111109
  C      1.230815   -0.800393   -0.133856
  H      0.689826    1.851921    0.397744
  H     -0.944430    1.708538    0.139984
  H     -1.224897   -2.806762    0.086924
  H      2.302146   -3.178709   -0.209590
  H      2.252538   -0.474822   -0.240848

 Total Charge           Charge          ....    0
 Multiplicity           Mult            ....    1
 Number of Electrons    NEL             ....   52
 Basis Dimension        Dim             ....  247

ORBITAL ENERGIES
----------------

  NO   OCC          E(Eh)            E(eV)
   0   2.0000     -20.617881      -561.0411
   1   2.0000     -15.617216      -424.9661
   2   2.0000     -15.559274      -423.3894
   3   2.0000     -15.557399      -423.3383
   4   2.0000     -11.346005      -308.7405
   5   2.0000     -11.291698      -307.2627
   6   2.0000     -11.210830      -305.0622
   7   2.0000      -1.442894       -39.2631
   8   2.0000      -1.351240       -36.7691
   9   2.0000      -1.208998       -32.8985
  10   2.0000      -1.065184       -28.9851
  11   2.0000      -1.038087       -28.2478
  12   2.0000      -0.840027       -22.8583
  13   2.0000      -0.793986       -21.6055
  14   2.0000      -0.758978       -20.6529
  15   2.0000      -0.702832       -19.1250
  16   2.0000      -0.655451       -17.8357
  17   2.0000      -0.645133       -17.5549
  18   2.0000      -0.618745       -16.8369
  19   2.0000      -0.597788       -16.2666
  20   2.0000      -0.564028       -15.3480
  21   2.0000      -0.560221       -15.2444
  22   2.0000      -0.475592       -12.9415
  23   2.0000      -0.448295       -12.1987
  24   2.0000      -0.337286        -9.1780
  25   2.0000      -0.319614        -8.6971
  26   0.0000       0.123234         3.3534
  27   0.0000       0.144003         3.9185
  28   0.0000       0.158189         4.3045
  29   0.0000       0.186989         5.0882
  30   0.0000       0.191494         5.2108

MULLIKEN ATOMIC CHARGES
-----------------------
   0 N :   -0.524061
   1 C :    0.159872
   2 N :   -0.253590
   3 N :   -0.136493
   4 C :    0.224903
   5 O :   -0.429919
   6 C :   -0.285963
   7 H :    0.246194
   8 H :    0.250816
   9 H :    0.258436
  10 H :    0.347764
  11 H :    0.142040
Sum of atomic charges:    0.0000000

LOEWDIN ATOMIC CHARGES
----------------------
   0 N :   -0.090131
   1 C :   -0.391610
   2 N :    0.008062
   3 N :    0.132490
   4 C :   -0.388635
   5 O :    0.072958
   6 C :   -0.209980
   7 H :    0.166358
   8 H :    0.170657
   9 H :    0.188497
  10 H :    0.203087
  11 H :    0.138248

  Mayer bond orders larger than 0.1
B(  0-N ,  1-C ) :   1.0250 B(  0-N ,  7-H ) :   0.8767 B(  0-N ,  8-H ) :   0.8739
B(  1-C ,  2-N ) :   1.6128 B(  1-C ,  6-C ) :   1.2555 B(  2-N ,  3-N ) :   0.9865
B(  3-N ,  4-C ) :   1.2377 B(  3-N ,  9-H ) :   0.8690 B(  4-C ,  5-O ) :   1.1077
B(  4-C ,  6-C ) :   1.4322 B(  5-O , 10-H ) :   0.8263 B(  6-C , 11-H ) :   0.8993

MP2 TOTAL ENERGY:     -356.134535097 Eh
FINAL SINGLE POINT ENERGY      -356.134535097218

DIPOLE MOMENT
-------------
                                X             Y             Z
Electronic contribution:     -0.77514      -2.75350      -0.05921
Nuclear contribution   :      1.65667       2.48377       0.42578
                        -----------------------------------------
Total Dipole Moment    :      0.88154      -0.26973       0.36657
                        -----------------------------------------
Magnitude (a.u.)       :      0.99209
Magnitude (Debye)      :      2.52168

                             ****ORCA TERMINATED NORMALLY****
TOTAL RUN TIME: 0 days 0 hours 6 minutes 35 seconds 250 msec
