                         Program Version 3.0.3 - RELEASE   -
|  1> ! RI-MP2 RIJK def2-TZVP def2-TZVP/C def2-TZVP/JK TIGHTSCF
|  2> % maxcore 2000
|  3> % mp2 density relaxed end
|  4> *xyz 0 1
|  5>  C       -0.3065694112     1.4766311722     0.0460157581
|  6>  C        0.0615993293    -0.0103940192    -0.0339228709
|  7>  C        0.8422712818    -0.3411807672    -1.3385665070
|  8>  C        2.3265598519    -0.0512715692    -1.2832345930
|  9>  C        3.1779575094    -0.7852493663    -0.5625866467
| 10>  C        2.7296201601    -1.9429027730     0.2641874984
| 11>  C        2.8858041759    -1.9538971063     1.7696438255
| 12>  C        1.5150949792    -1.7863903781     1.1568567432
| 13>  C        0.8338311459    -0.4316916608     1.2347505794
| 14>  H        0.5929461209     2.1030569363     0.0245286739
| 15>  H       -0.9436018720     1.7767733564    -0.7927243391
| 16>  H       -0.8445818911     1.7036279731     0.9730002157
| 17>  H       -0.8727957213    -0.5861311329    -0.0774091465
| 18>  H        0.7054020520    -1.4059618067    -1.5570295919
| 19>  H        0.3832229268     0.2025898468    -2.1711899540
| 20>  H        2.7047395554     0.7877645151    -1.8625911614
| 21>  H        4.2419733646    -0.5544655731    -0.5739469429
| 22>  H        2.8551665340    -2.9161549848    -0.2091708521
| 23>  H        3.1361656585    -2.8944370162     2.2484254523
| 24>  H        3.3289765164    -1.0817152348     2.2405044936
| 25>  H        0.8506195657    -2.6449044956     1.2156620009
| 26>  H        1.5966908593     0.3281527301     1.4382378690
| 27>  H        0.1517850985    -0.4093446358     2.0940924055
| 28> *
| 29>
| 30>                          ****END OF INPUT****

CARTESIAN COORDINATES (ANGSTROEM)
---------------------------------
  C     -0.306569    1.476631    0.046016
  C      0.061599   -0.010394   -0.033923
  C      0.842271   -0.341181   -1.338567
  C      2.326560   -0.051272   -1.283235
  C      3.177958   -0.785249   -0.562587
  C      2.729620   -1.942903    0.264187
  C      2.885804   -1.953897    1.769644
  C      1.515095   -1.786390    1.156857
  C      0.833831   -0.431692    1.234751
  H      0.592946    2.103057    0.024529
  H     -0.943602    1.776773   -0.792724
  H     -0.844582    1.703628    0.973000
  H     -0.872796   -0.586131   -0.077409
  H      0.705402   -1.405962   -1.557030
  H      0.383223    0.202590   -2.171190
  H      2.704740    0.787765   -1.862591
  H      4.241973   -0.554466   -0.573947
  H      2.855167   -2.916155   -0.209171
  H      3.136166   -2.894437    2.248425
  H      3.328977   -1.081715    2.240504
  H      0.850620   -2.644904    1.215662
  H      1.596691    0.328153    1.438238
  H      0.151785   -0.409345    2.094092

 Total Charge           Charge          ....    0
 Multiplicity           Mult            ....    1
 Number of Electrons    NEL             ....   68
 Basis Dimension        Dim             ....  363

ORBITAL ENERGIES
----------------

  NO   OCC          E(Eh)            E(eV)
   0   2.0000     -11.226935      -305.5004
   1   2.0000     -11.225280      -305.4554
   2   2.0000     -11.224361      -305.4304
   3   2.0000     -11.220629      -305.3288
   4   2.0000     -11.220065      -305.3135
   5   2.0000     -11.218794      -305.2789
   6   2.0000     -11.217143      -305.2340
   7   2.0000     -11.214290      -305.1563
   8   2.0000     -11.208797      -305.0069
   9   2.0000      -1.156942       -31.4820
  10   2.0000      -1.080539       -29.4030
  11   2.0000      -1.037909       -28.2429
  12   2.0000      -0.936911       -25.4946
  13   2.0000      -0.921833       -25.0844
  14   2.0000      -0.836792       -22.7703
  15   2.0000      -0.801891       -21.8206
  16   2.0000      -0.745216       -20.2784
  17   2.0000      -0.706446       -19.2234
  18   2.0000      -0.670025       -18.2323
  19   2.0000      -0.643752       -17.5174
  20   2.0000      -0.615651       -16.7527
  21   2.0000      -0.594210       -16.1693
  22   2.0000      -0.571380       -15.5480
  23   2.0000      -0.558470       -15.1967
  24   2.0000      -0.528992       -14.3946
  25   2.0000      -0.526248       -14.3199
  26   2.0000      -0.503768       -13.7082
  27   2.0000      -0.483730       -13.1630
  28   2.0000      -0.475881       -12.9494
  29   2.0000      -0.466087       -12.6829
  30   2.0000      -0.447091       -12.1660
  31   2.0000      -0.411265       -11.1911
  32   2.0000      -0.393344       -10.7034
  33   2.0000      -0.336649        -9.1607
  34   0.0000       0.133821         3.6415
  35   0.0000       0.144895         3.9428
  36   0.0000       0.154878         4.2145
  37   0.0000       0.172213         4.6861
  38   0.0000       0.181758         4.9459

MULLIKEN ATOMIC CHARGES
-----------------------
   0 C :   -0.433362
   1 C :   -0.037744
   2 C :   -0.144738
   3 C :   -0.206067
   4 C :   -0.192406
   5 C :   -0.070329
   6 C :   -0.296577
   7 C :   -0.099059
   8 C :   -0.216935
   9 H :    0.130925
  10 H :    0.129558
  11 H :    0.130218
  12 H :    0.086007
  13 H :    0.123481
  14 H :    0.122528
  15 H :    0.119880
  16 H :    0.119052
  17 H :    0.124651
  18 H :    0.129285
  19 H :    0.129724
  20 H :    0.113495
  21 H :    0.115671
  22 H :    0.122745
Sum of atomic charges:   -0.0000000

LOEWDIN ATOMIC CHARGES
----------------------
   0 C :   -0.296891
   1 C :   -0.270145
   2 C :   -0.227480
   3 C :   -0.162641
   4 C :   -0.160281
   5 C :   -0.198089
   6 C :   -0.203396
   7 C :   -0.200476
   8 C :   -0.224126
   9 H :    0.124367
  10 H :    0.120959
  11 H :    0.123065
  12 H :    0.149150
  13 H :    0.148641
  14 H :    0.141010
  15 H :    0.139270
  16 H :    0.142441
  17 H :    0.152864
  18 H :    0.130364
  19 H :    0.134854
  20 H :    0.145156
  21 H :    0.148960
  22 H :    0.142424

  Mayer bond orders larger than 0.1
B(  0-C ,  1-C ) :   0.9045 B(  0-C ,  9-H ) :   0.9351 B(  0-C , 10-H ) :   0.9417
B(  0-C , 11-H ) :   0.9411 B(  1-C ,  2-C ) :   0.8845 B(  1-C ,  8-C ) :   0.9313
B(  1-C , 12-H ) :   0.9306 B(  2-C ,  3-C ) :   0.9205 B(  2-C , 13-H ) :   0.9188
B(  2-C , 14-H ) :   0.9406 B(  3-C ,  4-C ) :   1.8015 B(  3-C , 15-H ) :   0.9282
B(  4-C ,  5-C ) :   0.9123 B(  4-C , 16-H ) :   0.9300 B(  5-C ,  6-C ) :   0.8776
B(  5-C ,  7-C ) :   0.8911 B(  5-C , 17-H ) :   0.9239 B(  6-C ,  7-C ) :   0.8941
B(  6-C , 18-H ) :   0.9319 B(  6-C , 19-H ) :   0.9219 B(  7-C ,  8-C ) :   0.9123
B(  7-C , 20-H ) :   0.9285 B(  8-C , 21-H ) :   0.9182 B(  8-C , 22-H ) :   0.9288

MP2 TOTAL ENERGY:     -350.505600140 Eh
FINAL SINGLE POINT ENERGY      -350.505600140027

DIPOLE MOMENT
-------------
                                X             Y             Z
Electronic contribution:      3.16794      -2.94297      -0.82698
Nuclear contribution   :     -3.31439       2.88126       0.86391
                        -----------------------------------------
Total Dipole Moment    :     -0.14645      -0.06170       0.03693
                        -----------------------------------------
Magnitude (a.u.)       :      0.16315
Magnitude (Debye)      :      0.41470

                             ****ORCA TERMINATED NORMALLY****
TOTAL RUN TIME: 0 days 0 hours 21 minutes 21 seconds 163 msec
