                         Program Version 3.0.3 - RELEASE   -
|  1> ! RI-MP2 RIJK def2-TZVP def2-TZVP/C def2-TZVP/JK TIGHTSCF
|  2> % maxcore 2000
|  3> % mp2 density relaxed end
|  4> *xyz 0 1
|  5>  C       -0.3890223937     1.4741842235     0.0118835532
|  6>  C        0.0381805675     0.0051758312     0.0698769808
|  7>  C        0.6671248504    -0.4903860382    -1.2369634574
|  8>  C        1.0969648577    -1.9631770581    -1.1709828198
|  9>  C        1.5933025549    -2.5256780401    -2.4944920102
| 10>  C        2.8766521969    -1.9131468027    -3.0414471680
| 11>  C        3.3774405278    -2.4955357815    -4.3652966588
| 12>  C        1.1711995576    -3.8825872770    -2.8783000530
| 13>  O        0.5485486427    -2.7341232492    -3.4627485973
| 14>  H        0.4666875676     2.1282433508    -0.1899618826
| 15>  H       -1.1250134146     1.6406194209    -0.7824575619
| 16>  H       -0.8389522521     1.7975870685     0.9558233761
| 17>  H        0.7511090933    -0.1374081097     0.8932443106
| 18>  H       -0.8313440562    -0.6203848073     0.3115425214
| 19>  H       -0.0499764489    -0.3709763650    -2.0589355834
| 20>  H        1.5277684700     0.1453141122    -1.4809054586
| 21>  H        1.8815343740    -2.0894548306    -0.4123157152
| 22>  H        0.2422466668    -2.5654802666    -0.8417634296
| 23>  H        2.7044151052    -0.8376123473    -3.1694713126
| 24>  H        3.6525947278    -2.0033398867    -2.2700708389
| 25>  H        4.1990709743    -1.8917308331    -4.7610082968
| 26>  H        3.7504078092    -3.5177205946    -4.2478165391
| 27>  H        2.5740402849    -2.5070607118    -5.1070072481
| 28>  H        1.7732596201    -4.4796439981    -3.5596080999
| 29>  H        0.5437499966    -4.4582657996    -2.1981822409
| 30> *
| 31>
| 32>                          ****END OF INPUT****

CARTESIAN COORDINATES (ANGSTROEM)
---------------------------------
  C     -0.389022    1.474184    0.011884
  C      0.038181    0.005176    0.069877
  C      0.667125   -0.490386   -1.236963
  C      1.096965   -1.963177   -1.170983
  C      1.593303   -2.525678   -2.494492
  C      2.876652   -1.913147   -3.041447
  C      3.377441   -2.495536   -4.365297
  C      1.171200   -3.882587   -2.878300
  O      0.548549   -2.734123   -3.462749
  H      0.466688    2.128243   -0.189962
  H     -1.125013    1.640619   -0.782458
  H     -0.838952    1.797587    0.955823
  H      0.751109   -0.137408    0.893244
  H     -0.831344   -0.620385    0.311543
  H     -0.049976   -0.370976   -2.058936
  H      1.527768    0.145314   -1.480905
  H      1.881534   -2.089455   -0.412316
  H      0.242247   -2.565480   -0.841763
  H      2.704415   -0.837612   -3.169471
  H      3.652595   -2.003340   -2.270071
  H      4.199071   -1.891731   -4.761008
  H      3.750408   -3.517721   -4.247817
  H      2.574040   -2.507061   -5.107007
  H      1.773260   -4.479644   -3.559608
  H      0.543750   -4.458266   -2.198182

 Total Charge           Charge          ....    0
 Multiplicity           Mult            ....    1
 Number of Electrons    NEL             ....   72
 Basis Dimension        Dim             ....  375

ORBITAL ENERGIES
----------------

  NO   OCC          E(Eh)            E(eV)
   0   2.0000     -20.556809      -559.3792
   1   2.0000     -11.285523      -307.0947
   2   2.0000     -11.273232      -306.7602
   3   2.0000     -11.226621      -305.4919
   4   2.0000     -11.223383      -305.4038
   5   2.0000     -11.218144      -305.2612
   6   2.0000     -11.216167      -305.2074
   7   2.0000     -11.213264      -305.1284
   8   2.0000     -11.210819      -305.0619
   9   2.0000      -1.400950       -38.1218
  10   2.0000      -1.082223       -29.4488
  11   2.0000      -1.045953       -28.4618
  12   2.0000      -0.996130       -27.1061
  13   2.0000      -0.921372       -25.0718
  14   2.0000      -0.887402       -24.1474
  15   2.0000      -0.852607       -23.2006
  16   2.0000      -0.794466       -21.6185
  17   2.0000      -0.754421       -20.5288
  18   2.0000      -0.681639       -18.5484
  19   2.0000      -0.639851       -17.4112
  20   2.0000      -0.635949       -17.3051
  21   2.0000      -0.615196       -16.7403
  22   2.0000      -0.583682       -15.8828
  23   2.0000      -0.579654       -15.7732
  24   2.0000      -0.558162       -15.1884
  25   2.0000      -0.541268       -14.7286
  26   2.0000      -0.528194       -14.3729
  27   2.0000      -0.517373       -14.0784
  28   2.0000      -0.496656       -13.5147
  29   2.0000      -0.494601       -13.4588
  30   2.0000      -0.483502       -13.1568
  31   2.0000      -0.477580       -12.9956
  32   2.0000      -0.466458       -12.6930
  33   2.0000      -0.462311       -12.5801
  34   2.0000      -0.427959       -11.6453
  35   2.0000      -0.411856       -11.2072
  36   0.0000       0.136742         3.7210
  37   0.0000       0.148105         4.0301
  38   0.0000       0.158562         4.3147
  39   0.0000       0.167672         4.5626
  40   0.0000       0.181527         4.9396

MULLIKEN ATOMIC CHARGES
-----------------------
   0 C :   -0.382904
   1 C :   -0.183020
   2 C :   -0.283103
   3 C :   -0.221327
   4 C :    0.236745
   5 C :   -0.222963
   6 C :   -0.420452
   7 C :   -0.091286
   8 O :   -0.357761
   9 H :    0.120230
  10 H :    0.124143
  11 H :    0.132404
  12 H :    0.101612
  13 H :    0.107931
  14 H :    0.131542
  15 H :    0.108983
  16 H :    0.113563
  17 H :    0.114385
  18 H :    0.121039
  19 H :    0.113065
  20 H :    0.137005
  21 H :    0.120326
  22 H :    0.154224
  23 H :    0.115057
  24 H :    0.110560
Sum of atomic charges:   -0.0000000

LOEWDIN ATOMIC CHARGES
----------------------
   0 C :   -0.321805
   1 C :   -0.297515
   2 C :   -0.265974
   3 C :   -0.226853
   4 C :   -0.325039
   5 C :   -0.252105
   6 C :   -0.315136
   7 C :   -0.248509
   8 O :    0.157307
   9 H :    0.119565
  10 H :    0.120943
  11 H :    0.119970
  12 H :    0.133461
  13 H :    0.134629
  14 H :    0.143238
  15 H :    0.134877
  16 H :    0.143743
  17 H :    0.147114
  18 H :    0.145195
  19 H :    0.144412
  20 H :    0.122475
  21 H :    0.118468
  22 H :    0.129097
  23 H :    0.119598
  24 H :    0.118844

  Mayer bond orders larger than 0.1
B(  0-C ,  1-C ) :   0.9234 B(  0-C ,  9-H ) :   0.9399 B(  0-C , 10-H ) :   0.9393
B(  0-C , 11-H ) :   0.9429 B(  1-C ,  2-C ) :   0.9350 B(  1-C , 12-H ) :   0.9318
B(  1-C , 13-H ) :   0.9354 B(  2-C ,  3-C ) :   0.9324 B(  2-C , 14-H ) :   0.9300
B(  2-C , 15-H ) :   0.9282 B(  3-C ,  4-C ) :   0.9056 B(  3-C , 16-H ) :   0.9324
B(  3-C , 17-H ) :   0.9261 B(  4-C ,  5-C ) :   0.9186 B(  4-C ,  7-C ) :   0.9821
B(  4-C ,  8-O ) :   0.7871 B(  5-C ,  6-C ) :   0.9243 B(  5-C , 18-H ) :   0.9316
B(  5-C , 19-H ) :   0.9247 B(  6-C , 20-H ) :   0.9399 B(  6-C , 21-H ) :   0.9388
B(  6-C , 22-H ) :   0.9361 B(  7-C ,  8-O ) :   0.9115 B(  7-C , 23-H ) :   0.9129
B(  7-C , 24-H ) :   0.9011

MP2 TOTAL ENERGY:     -388.805707225 Eh
FINAL SINGLE POINT ENERGY      -388.805707225221

DIPOLE MOMENT
-------------
                                X             Y             Z
Electronic contribution:     -1.20131      -5.61948      -3.51707
Nuclear contribution   :      1.69872       5.47268       3.98881
                        -----------------------------------------
Total Dipole Moment    :      0.49741      -0.14680       0.47175
                        -----------------------------------------
Magnitude (a.u.)       :      0.70108
Magnitude (Debye)      :      1.78201

                             ****ORCA TERMINATED NORMALLY****
TOTAL RUN TIME: 0 days 0 hours 18 minutes 44 seconds 819 msec
