                         Program Version 3.0.3 - RELEASE   -
|  1> ! RI-MP2 RIJK def2-TZVP def2-TZVP/C def2-TZVP/JK TIGHTSCF
|  2> % maxcore 2000
|  3> % mp2 density relaxed end
|  4> *xyz 0 1
|  5>  C       -0.1029794720     1.4645251525     0.0823472209
|  6>  N       -0.0202365375     0.0226031062    -0.1083841430
|  7>  C       -1.1191676784    -0.7695974858    -0.0403799937
|  8>  C       -1.2933279412    -2.1308006273     0.0290587299
|  9>  C       -2.7029990582    -2.2636132085     0.0094071774
| 10>  N       -3.3407528158    -1.1086430076    -0.0602828199
| 11>  O       -2.3142136082    -0.1565781007    -0.0869464606
| 12>  C       -3.4470323837    -3.4801194474     0.0565889807
| 13>  N       -4.0125418328    -4.4875853763     0.0973580557
| 14>  H        0.8701098668     1.8992253228    -0.1517821221
| 15>  H       -0.8430122790     1.8836600669    -0.6021682912
| 16>  H       -0.3825730249     1.7438939449     1.1064493616
| 17>  H        0.8424109528    -0.4235250852     0.1569751101
| 18>  H       -0.5505904180    -2.9068894945     0.0767858642
| 19> *
| 20>
| 21>                          ****END OF INPUT****

CARTESIAN COORDINATES (ANGSTROEM)
---------------------------------
  C     -0.102979    1.464525    0.082347
  N     -0.020237    0.022603   -0.108384
  C     -1.119168   -0.769597   -0.040380
  C     -1.293328   -2.130801    0.029059
  C     -2.702999   -2.263613    0.009407
  N     -3.340753   -1.108643   -0.060283
  O     -2.314214   -0.156578   -0.086946
  C     -3.447032   -3.480119    0.056589
  N     -4.012542   -4.487585    0.097358
  H      0.870110    1.899225   -0.151782
  H     -0.843012    1.883660   -0.602168
  H     -0.382573    1.743894    1.106449
  H      0.842411   -0.423525    0.156975
  H     -0.550590   -2.906889    0.076786

 Total Charge           Charge          ....    0
 Multiplicity           Mult            ....    1
 Number of Electrons    NEL             ....   64
 Basis Dimension        Dim             ....  309

ORBITAL ENERGIES
----------------

  NO   OCC          E(Eh)            E(eV)
   0   2.0000     -20.665023      -562.3239
   1   2.0000     -15.641055      -425.6147
   2   2.0000     -15.616744      -424.9532
   3   2.0000     -15.593082      -424.3093
   4   2.0000     -11.381526      -309.7071
   5   2.0000     -11.332837      -308.3822
   6   2.0000     -11.291669      -307.2619
   7   2.0000     -11.288020      -307.1626
   8   2.0000     -11.248520      -306.0878
   9   2.0000      -1.519127       -41.3376
  10   2.0000      -1.286446       -35.0060
  11   2.0000      -1.239920       -33.7399
  12   2.0000      -1.184940       -32.2439
  13   2.0000      -1.083013       -29.4703
  14   2.0000      -0.968173       -26.3453
  15   2.0000      -0.914493       -24.8846
  16   2.0000      -0.846954       -23.0468
  17   2.0000      -0.769670       -20.9438
  18   2.0000      -0.711912       -19.3721
  19   2.0000      -0.696201       -18.9446
  20   2.0000      -0.661681       -18.0053
  21   2.0000      -0.640705       -17.4345
  22   2.0000      -0.624957       -17.0059
  23   2.0000      -0.593667       -16.1545
  24   2.0000      -0.578956       -15.7542
  25   2.0000      -0.570273       -15.5179
  26   2.0000      -0.530767       -14.4429
  27   2.0000      -0.510346       -13.8872
  28   2.0000      -0.487500       -13.2655
  29   2.0000      -0.480052       -13.0629
  30   2.0000      -0.429581       -11.6895
  31   2.0000      -0.340798        -9.2736
  32   0.0000       0.085746         2.3333
  33   0.0000       0.111096         3.0231
  34   0.0000       0.144213         3.9242
  35   0.0000       0.157212         4.2780
  36   0.0000       0.171009         4.6534

MULLIKEN ATOMIC CHARGES
-----------------------
   0 C :   -0.276226
   1 N :   -0.349921
   2 C :    0.296158
   3 C :   -0.305811
   4 C :    0.271772
   5 N :   -0.140174
   6 O :   -0.117314
   7 C :   -0.206167
   8 N :   -0.043435
   9 H :    0.147308
  10 H :    0.161541
  11 H :    0.143802
  12 H :    0.251605
  13 H :    0.166862
Sum of atomic charges:   -0.0000000

LOEWDIN ATOMIC CHARGES
----------------------
   0 C :   -0.308312
   1 N :    0.071884
   2 C :   -0.347357
   3 C :   -0.152582
   4 C :   -0.296246
   5 N :    0.074207
   6 O :    0.294339
   7 C :   -0.136540
   8 N :    0.087891
   9 H :    0.122892
  10 H :    0.127367
  11 H :    0.115565
  12 H :    0.194799
  13 H :    0.152092

  Mayer bond orders larger than 0.1
B(  0-C ,  1-N ) :   0.8732 B(  0-C ,  9-H ) :   0.9315 B(  0-C , 10-H ) :   0.9309
B(  0-C , 11-H ) :   0.9334 B(  1-N ,  2-C ) :   1.1707 B(  1-N , 12-H ) :   0.8715
B(  2-C ,  3-C ) :   1.4339 B(  2-C ,  6-O ) :   1.1193 B(  3-C ,  4-C ) :   1.2404
B(  3-C , 13-H ) :   0.8988 B(  4-C ,  5-N ) :   1.5218 B(  4-C ,  7-C ) :   0.8768
B(  5-N ,  6-O ) :   0.8665 B(  7-C ,  8-N ) :   2.8489

MP2 TOTAL ENERGY:     -432.135403692 Eh
FINAL SINGLE POINT ENERGY      -432.135403691983

DIPOLE MOMENT
-------------
                                X             Y             Z
Electronic contribution:     -6.75852      -6.91611      -0.36326
Nuclear contribution   :      9.24163       8.34077       0.55421
                        -----------------------------------------
Total Dipole Moment    :      2.48311       1.42466       0.19095
                        -----------------------------------------
Magnitude (a.u.)       :      2.86914
Magnitude (Debye)      :      7.29276

                             ****ORCA TERMINATED NORMALLY****
TOTAL RUN TIME: 0 days 0 hours 15 minutes 3 seconds 687 msec
