                         Program Version 3.0.3 - RELEASE   -
|  1> ! RI-MP2 RIJK def2-TZVP def2-TZVP/C def2-TZVP/JK TIGHTSCF
|  2> % maxcore 2000
|  3> % mp2 density relaxed end
|  4> *xyz 0 1
|  5>  C       -0.0535104585     1.4844939818    -0.0248798678
|  6>  C       -0.1460917808    -0.0265572993    -0.1538476365
|  7>  O        0.9069248765    -0.4692434983    -0.9893391717
|  8>  C        0.9407850620    -1.8605094286    -1.1664353217
|  9>  C       -0.0276405963    -2.4319602254    -2.2428223997
| 10>  N        1.0852943066    -2.4237994457    -3.2095661193
| 11>  C        1.2196981992    -3.5313169974    -4.1241010356
| 12>  C        2.0754659912    -2.2700247600    -2.1270511987
| 13>  H        0.9100130766     1.7738270072     0.4041385303
| 14>  H       -0.1470064464     1.9586065417    -1.0059153174
| 15>  H       -0.8509183724     1.8621889838     0.6221048187
| 16>  H       -0.0674788037    -0.5072041949     0.8365354780
| 17>  H       -1.1224919432    -0.3165814579    -0.5746037989
| 18>  H        0.9174512477    -2.3721466983    -0.1948888942
| 19>  H       -0.3829581871    -3.4434296439    -1.9830686872
| 20>  H       -0.8867463966    -1.8128789604    -2.5249334136
| 21>  H        0.3690009859    -3.5502936899    -4.8139793371
| 22>  H        2.1305354959    -3.4137886020    -4.7212468641
| 23>  H        1.2692023448    -4.5159702614    -3.6171113785
| 24>  H        2.8451887090    -1.5122397923    -2.3057062391
| 25>  H        2.5548610796    -3.2158250387    -1.8255400160
| 26> *
| 27>
| 28>                          ****END OF INPUT****

CARTESIAN COORDINATES (ANGSTROEM)
---------------------------------
  C     -0.053510    1.484494   -0.024880
  C     -0.146092   -0.026557   -0.153848
  O      0.906925   -0.469243   -0.989339
  C      0.940785   -1.860509   -1.166435
  C     -0.027641   -2.431960   -2.242822
  N      1.085294   -2.423799   -3.209566
  C      1.219698   -3.531317   -4.124101
  C      2.075466   -2.270025   -2.127051
  H      0.910013    1.773827    0.404139
  H     -0.147006    1.958607   -1.005915
  H     -0.850918    1.862189    0.622105
  H     -0.067479   -0.507204    0.836535
  H     -1.122492   -0.316581   -0.574604
  H      0.917451   -2.372147   -0.194889
  H     -0.382958   -3.443430   -1.983069
  H     -0.886746   -1.812879   -2.524933
  H      0.369001   -3.550294   -4.813979
  H      2.130535   -3.413789   -4.721247
  H      1.269202   -4.515970   -3.617111
  H      2.845189   -1.512240   -2.305706
  H      2.554861   -3.215825   -1.825540

 Total Charge           Charge          ....    0
 Multiplicity           Mult            ....    1
 Number of Electrons    NEL             ....   64
 Basis Dimension        Dim             ....  326

ORBITAL ENERGIES
----------------

  NO   OCC          E(Eh)            E(eV)
   0   2.0000     -20.552140      -559.2522
   1   2.0000     -15.539123      -422.8410
   2   2.0000     -11.278691      -306.9088
   3   2.0000     -11.273780      -306.7751
   4   2.0000     -11.246662      -306.0372
   5   2.0000     -11.244723      -305.9845
   6   2.0000     -11.239509      -305.8426
   7   2.0000     -11.212875      -305.1178
   8   2.0000      -1.378297       -37.5054
   9   2.0000      -1.239456       -33.7273
  10   2.0000      -1.035322       -28.1725
  11   2.0000      -0.990846       -26.9623
  12   2.0000      -0.919304       -25.0155
  13   2.0000      -0.868295       -23.6275
  14   2.0000      -0.831295       -22.6207
  15   2.0000      -0.751980       -20.4624
  16   2.0000      -0.690117       -18.7790
  17   2.0000      -0.670073       -18.2336
  18   2.0000      -0.642157       -17.4740
  19   2.0000      -0.616750       -16.7826
  20   2.0000      -0.605981       -16.4896
  21   2.0000      -0.579001       -15.7554
  22   2.0000      -0.549624       -14.9560
  23   2.0000      -0.542369       -14.7586
  24   2.0000      -0.538890       -14.6639
  25   2.0000      -0.521582       -14.1930
  26   2.0000      -0.489738       -13.3265
  27   2.0000      -0.478501       -13.0207
  28   2.0000      -0.475261       -12.9325
  29   2.0000      -0.451739       -12.2925
  30   2.0000      -0.408961       -11.1284
  31   2.0000      -0.350214        -9.5298
  32   0.0000       0.139853         3.8056
  33   0.0000       0.150080         4.0839
  34   0.0000       0.163241         4.4420
  35   0.0000       0.176598         4.8055
  36   0.0000       0.193823         5.2742

MULLIKEN ATOMIC CHARGES
-----------------------
   0 C :   -0.360443
   1 C :   -0.053307
   2 O :   -0.294084
   3 C :    0.081333
   4 C :   -0.185995
   5 N :   -0.132928
   6 C :   -0.325750
   7 C :   -0.147047
   8 H :    0.128546
   9 H :    0.132326
  10 H :    0.120688
  11 H :    0.090268
  12 H :    0.091497
  13 H :    0.081622
  14 H :    0.091600
  15 H :    0.108287
  16 H :    0.134940
  17 H :    0.136359
  18 H :    0.096537
  19 H :    0.113468
  20 H :    0.092083
Sum of atomic charges:   -0.0000000

LOEWDIN ATOMIC CHARGES
----------------------
   0 C :   -0.316548
   1 C :   -0.349043
   2 O :    0.186171
   3 C :   -0.308662
   4 C :   -0.244532
   5 N :    0.062247
   6 C :   -0.345852
   7 C :   -0.233264
   8 H :    0.123944
   9 H :    0.124873
  10 H :    0.123745
  11 H :    0.115488
  12 H :    0.116153
  13 H :    0.123260
  14 H :    0.118751
  15 H :    0.121935
  16 H :    0.118218
  17 H :    0.118416
  18 H :    0.098017
  19 H :    0.126609
  20 H :    0.120073

  Mayer bond orders larger than 0.1
B(  0-C ,  1-C ) :   0.9551 B(  0-C ,  8-H ) :   0.9355 B(  0-C ,  9-H ) :   0.9367
B(  0-C , 10-H ) :   0.9327 B(  1-C ,  2-O ) :   0.9130 B(  1-C , 11-H ) :   0.9234
B(  1-C , 12-H ) :   0.9210 B(  2-O ,  3-C ) :   0.9563 B(  3-C ,  4-C ) :   0.9381
B(  3-C ,  7-C ) :   0.9278 B(  3-C , 13-H ) :   0.9284 B(  4-C ,  5-N ) :   0.9568
B(  4-C , 14-H ) :   0.9122 B(  4-C , 15-H ) :   0.9112 B(  5-N ,  6-C ) :   0.9158
B(  5-N ,  7-C ) :   0.9580 B(  6-C , 16-H ) :   0.9376 B(  6-C , 17-H ) :   0.9383
B(  6-C , 18-H ) :   0.9241 B(  7-C , 19-H ) :   0.9142 B(  7-C , 20-H ) :   0.9139

MP2 TOTAL ENERGY:     -365.601359692 Eh
FINAL SINGLE POINT ENERGY      -365.601359691978

DIPOLE MOMENT
-------------
                                X             Y             Z
Electronic contribution:      1.66622       0.03606      -0.50755
Nuclear contribution   :     -1.97258      -0.46944       0.90824
                        -----------------------------------------
Total Dipole Moment    :     -0.30636      -0.43338       0.40070
                        -----------------------------------------
Magnitude (a.u.)       :      0.66501
Magnitude (Debye)      :      1.69032

                             ****ORCA TERMINATED NORMALLY****
TOTAL RUN TIME: 0 days 0 hours 12 minutes 7 seconds 918 msec
