                         Program Version 3.0.3 - RELEASE   -
|  1> ! RI-MP2 RIJK def2-TZVP def2-TZVP/C def2-TZVP/JK TIGHTSCF
|  2> % maxcore 2000
|  3> % mp2 density relaxed end
|  4> *xyz 0 1
|  5>  C       -0.1149371421     1.5611229573    -0.0005602894
|  6>  C        1.4227801071     1.5116386527    -0.2080975259
|  7>  N        1.4171084339     0.1530188535     0.3657509268
|  8>  C       -0.0461616568     0.0358590793     0.2744436704
|  9>  C        2.2906574003    -0.8303996739    -0.0357083858
| 10>  C        2.1611617041    -2.2060029415     0.0051067485
| 11>  N        3.3521267779    -2.6424393583    -0.4902843488
| 12>  N        4.1601438272    -1.6322383887    -0.8184574051
| 13>  N        3.5199157009    -0.5243848389    -0.5468077035
| 14>  H       -0.4166084511     2.1429512640     0.8716857285
| 15>  H       -0.7089030669     1.8686805227    -0.8609867346
| 16>  H        1.7314778186     1.5298126731    -1.2607725918
| 17>  H        2.0300280138     2.2319182275     0.3469412367
| 18>  H       -0.5318612266    -0.3328343657     1.1845163015
| 19>  H       -0.3759663286    -0.5796643672    -0.5762015255
| 20>  H        1.3806765730    -2.8696914315     0.3317987563
| 21>  H        3.6668150954    -3.5891521945    -0.6280144283
| 22> *
| 23>
| 24>                          ****END OF INPUT****

CARTESIAN COORDINATES (ANGSTROEM)
---------------------------------
  C     -0.114937    1.561123   -0.000560
  C      1.422780    1.511639   -0.208098
  N      1.417108    0.153019    0.365751
  C     -0.046162    0.035859    0.274444
  C      2.290657   -0.830400   -0.035708
  C      2.161162   -2.206003    0.005107
  N      3.352127   -2.642439   -0.490284
  N      4.160144   -1.632238   -0.818457
  N      3.519916   -0.524385   -0.546808
  H     -0.416608    2.142951    0.871686
  H     -0.708903    1.868681   -0.860987
  H      1.731478    1.529813   -1.260773
  H      2.030028    2.231918    0.346941
  H     -0.531861   -0.332834    1.184516
  H     -0.375966   -0.579664   -0.576202
  H      1.380677   -2.869691    0.331799
  H      3.666815   -3.589152   -0.628014

 Total Charge           Charge          ....    0
 Multiplicity           Mult            ....    1
 Number of Electrons    NEL             ....   66
 Basis Dimension        Dim             ....  327

ORBITAL ENERGIES
----------------

  NO   OCC          E(Eh)            E(eV)
   0   2.0000     -15.653390      -425.9504
   1   2.0000     -15.637512      -425.5183
   2   2.0000     -15.582342      -424.0171
   3   2.0000     -15.560849      -423.4322
   4   2.0000     -11.286688      -307.1264
   5   2.0000     -11.267230      -306.5969
   6   2.0000     -11.264895      -306.5334
   7   2.0000     -11.257198      -306.3239
   8   2.0000     -11.232431      -305.6500
   9   2.0000      -1.431918       -38.9645
  10   2.0000      -1.271478       -34.5987
  11   2.0000      -1.189446       -32.3665
  12   2.0000      -1.087579       -29.5945
  13   2.0000      -0.986608       -26.8470
  14   2.0000      -0.931807       -25.3558
  15   2.0000      -0.862418       -23.4676
  16   2.0000      -0.826953       -22.5025
  17   2.0000      -0.775722       -21.1085
  18   2.0000      -0.739377       -20.1195
  19   2.0000      -0.675729       -18.3875
  20   2.0000      -0.672583       -18.3019
  21   2.0000      -0.639029       -17.3889
  22   2.0000      -0.634091       -17.2545
  23   2.0000      -0.561178       -15.2704
  24   2.0000      -0.549127       -14.9425
  25   2.0000      -0.534434       -14.5427
  26   2.0000      -0.514484       -13.9998
  27   2.0000      -0.495806       -13.4916
  28   2.0000      -0.470832       -12.8120
  29   2.0000      -0.439048       -11.9471
  30   2.0000      -0.432570       -11.7708
  31   2.0000      -0.397843       -10.8259
  32   2.0000      -0.301571        -8.2062
  33   0.0000       0.129205         3.5158
  34   0.0000       0.140439         3.8215
  35   0.0000       0.140710         3.8289
  36   0.0000       0.156197         4.2503
  37   0.0000       0.181200         4.9307

MULLIKEN ATOMIC CHARGES
-----------------------
   0 C :   -0.222304
   1 C :   -0.137746
   2 N :   -0.118405
   3 C :   -0.147867
   4 C :    0.092945
   5 C :   -0.210489
   6 N :   -0.047645
   7 N :   -0.166123
   8 N :   -0.159965
   9 H :    0.122944
  10 H :    0.124874
  11 H :    0.114284
  12 H :    0.120676
  13 H :    0.115304
  14 H :    0.096778
  15 H :    0.162145
  16 H :    0.260592
Sum of atomic charges:    0.0000000

LOEWDIN ATOMIC CHARGES
----------------------
   0 C :   -0.236317
   1 C :   -0.226616
   2 N :    0.158053
   3 C :   -0.237777
   4 C :   -0.355263
   5 C :   -0.247495
   6 N :    0.115569
   7 N :   -0.066575
   8 N :    0.017010
   9 H :    0.132649
  10 H :    0.127392
  11 H :    0.126130
  12 H :    0.124097
  13 H :    0.120032
  14 H :    0.120413
  15 H :    0.138914
  16 H :    0.189785

  Mayer bond orders larger than 0.1
B(  0-C ,  1-C ) :   0.9393 B(  0-C ,  3-C ) :   0.9513 B(  0-C ,  9-H ) :   0.9230
B(  0-C , 10-H ) :   0.9311 B(  1-C ,  2-N ) :   0.8986 B(  1-C , 11-H ) :   0.9145
B(  1-C , 12-H ) :   0.9307 B(  2-N ,  3-C ) :   0.9039 B(  2-N ,  4-C ) :   1.1275
B(  3-C , 13-H ) :   0.9231 B(  3-C , 14-H ) :   0.9037 B(  4-C ,  5-C ) :   1.3900
B(  4-C ,  8-N ) :   1.3754 B(  5-C ,  6-N ) :   1.1707 B(  5-C ,  7-N ) :   0.1473
B(  5-C , 15-H ) :   0.9003 B(  6-N ,  7-N ) :   1.0787 B(  6-N , 16-H ) :   0.8637
B(  7-N ,  8-N ) :   1.2443

MP2 TOTAL ENERGY:     -413.453501484 Eh
FINAL SINGLE POINT ENERGY      -413.453501483550

DIPOLE MOMENT
-------------
                                X             Y             Z
Electronic contribution:      7.31536      -5.12897      -0.52971
Nuclear contribution   :     -8.72281       4.22026       0.71307
                        -----------------------------------------
Total Dipole Moment    :     -1.40745      -0.90871       0.18337
                        -----------------------------------------
Magnitude (a.u.)       :      1.68532
Magnitude (Debye)      :      4.28374

                             ****ORCA TERMINATED NORMALLY****
TOTAL RUN TIME: 0 days 0 hours 15 minutes 39 seconds 204 msec
