                         Program Version 3.0.3 - RELEASE   -
|  1> ! RI-MP2 RIJK def2-TZVP def2-TZVP/C def2-TZVP/JK TIGHTSCF
|  2> % maxcore 2000
|  3> % mp2 density relaxed end
|  4> *xyz 0 1
|  5>  O        0.0007602045    -0.0368157127    -0.0027992104
|  6>  C        0.0158205344     1.1666192834     0.0079983311
|  7>  C        1.2448908658     1.9968790966     0.0015130073
|  8>  C        1.1943292723     3.3515266636     0.0137046794
|  9>  C        2.4240921250     4.0786236089     0.0063454650
| 10>  C        3.5994657448     3.4071477855    -0.0124747138
| 11>  C        3.6522972198     1.9517540953    -0.0257516814
| 12>  O        4.6326947610     1.2636280639    -0.0421757686
| 13>  O        2.3986803395     1.3122782268    -0.0171703505
| 14>  H       -0.9131859907     1.7759840018     0.0232020267
| 15>  H        0.2347441921     3.8520703114     0.0286944932
| 16>  H        2.4088397632     5.1636123792     0.0158848418
| 17>  H        4.5598034181     3.9068870263    -0.0187585697
| 18> *
| 19>
| 20>                          ****END OF INPUT****

CARTESIAN COORDINATES (ANGSTROEM)
---------------------------------
  O      0.000760   -0.036816   -0.002799
  C      0.015821    1.166619    0.007998
  C      1.244891    1.996879    0.001513
  C      1.194329    3.351527    0.013705
  C      2.424092    4.078624    0.006345
  C      3.599466    3.407148   -0.012475
  C      3.652297    1.951754   -0.025752
  O      4.632695    1.263628   -0.042176
  O      2.398680    1.312278   -0.017170
  H     -0.913186    1.775984    0.023202
  H      0.234744    3.852070    0.028694
  H      2.408840    5.163612    0.015885
  H      4.559803    3.906887   -0.018759

 Total Charge           Charge          ....    0
 Multiplicity           Mult            ....    1
 Number of Electrons    NEL             ....   64
 Basis Dimension        Dim             ....  303

ORBITAL ENERGIES
----------------

  NO   OCC          E(Eh)            E(eV)
   0   2.0000     -20.645376      -561.7892
   1   2.0000     -20.583070      -560.0938
   2   2.0000     -20.553355      -559.2852
   3   2.0000     -11.404268      -310.3259
   4   2.0000     -11.360374      -309.1315
   5   2.0000     -11.352243      -308.9102
   6   2.0000     -11.303473      -307.5831
   7   2.0000     -11.283885      -307.0501
   8   2.0000     -11.278379      -306.9003
   9   2.0000      -1.493237       -40.6331
  10   2.0000      -1.419828       -38.6355
  11   2.0000      -1.390914       -37.8487
  12   2.0000      -1.158235       -31.5172
  13   2.0000      -1.084760       -29.5178
  14   2.0000      -0.948189       -25.8015
  15   2.0000      -0.903667       -24.5900
  16   2.0000      -0.855642       -23.2832
  17   2.0000      -0.746840       -20.3226
  18   2.0000      -0.731950       -19.9174
  19   2.0000      -0.710589       -19.3361
  20   2.0000      -0.678155       -18.4535
  21   2.0000      -0.672630       -18.3032
  22   2.0000      -0.654919       -17.8212
  23   2.0000      -0.644835       -17.5469
  24   2.0000      -0.593613       -16.1530
  25   2.0000      -0.567630       -15.4460
  26   2.0000      -0.558489       -15.1973
  27   2.0000      -0.523026       -14.2323
  28   2.0000      -0.478933       -13.0324
  29   2.0000      -0.478471       -13.0199
  30   2.0000      -0.451401       -12.2832
  31   2.0000      -0.355155        -9.6643
  32   0.0000       0.020595         0.5604
  33   0.0000       0.111260         3.0275
  34   0.0000       0.128764         3.5038
  35   0.0000       0.151582         4.1248
  36   0.0000       0.175645         4.7795

MULLIKEN ATOMIC CHARGES
-----------------------
   0 O :   -0.230913
   1 C :    0.030036
   2 C :    0.273804
   3 C :   -0.206550
   4 C :   -0.081375
   5 C :   -0.192538
   6 C :    0.259606
   7 O :   -0.271859
   8 O :   -0.152382
   9 H :    0.096222
  10 H :    0.161493
  11 H :    0.155003
  12 H :    0.159453
Sum of atomic charges:    0.0000000

LOEWDIN ATOMIC CHARGES
----------------------
   0 O :    0.163432
   1 C :   -0.271216
   2 C :   -0.248231
   3 C :   -0.127321
   4 C :   -0.114719
   5 C :   -0.102675
   6 C :   -0.425770
   7 O :    0.152416
   8 O :    0.374358
   9 H :    0.122045
  10 H :    0.160162
  11 H :    0.155815
  12 H :    0.161704

  Mayer bond orders larger than 0.1
B(  0-O ,  1-C ) :   2.0123 B(  1-C ,  2-C ) :   0.8268 B(  1-C ,  9-H ) :   0.9804
B(  2-C ,  3-C ) :   1.5057 B(  2-C ,  8-O ) :   1.1007 B(  2-C ,  9-H ) :  -0.1168
B(  3-C ,  4-C ) :   1.0769 B(  3-C , 10-H ) :   0.9085 B(  4-C ,  5-C ) :   1.5407
B(  4-C , 11-H ) :   0.9192 B(  5-C ,  6-C ) :   1.0551 B(  5-C , 12-H ) :   0.9225
B(  6-C ,  7-O ) :   2.0165 B(  6-C ,  8-O ) :   0.9973

MP2 TOTAL ENERGY:     -455.871046941 Eh
FINAL SINGLE POINT ENERGY      -455.871046941265

DIPOLE MOMENT
-------------
                                X             Y             Z
Electronic contribution:      1.26291      -3.98575      -0.04826
Nuclear contribution   :     -2.08947       6.26827       0.07717
                        -----------------------------------------
Total Dipole Moment    :     -0.82656       2.28252       0.02891
                        -----------------------------------------
Magnitude (a.u.)       :      2.42775
Magnitude (Debye)      :      6.17084

                             ****ORCA TERMINATED NORMALLY****
TOTAL RUN TIME: 0 days 0 hours 12 minutes 54 seconds 407 msec
