                         Program Version 3.0.3 - RELEASE   -
|  1> ! RI-MP2 RIJK def2-TZVP def2-TZVP/C def2-TZVP/JK TIGHTSCF
|  2> % maxcore 2000
|  3> % mp2 density relaxed end
|  4> *xyz 0 1
|  5>  C       -0.0609890619     1.2917237453     0.1653342128
|  6>  C        0.1104513915    -0.1490801865     0.1129292000
|  7>  C        0.2321832275    -1.3498083159     0.0804015046
|  8>  C        0.4066792586    -2.7822117127     0.0150557361
|  9>  O       -0.3571359421    -3.5754455043     0.5168961470
| 10>  C        1.6762013416    -3.2253876529    -0.7223132413
| 11>  O        1.7147302613    -4.6050590045    -0.9857715481
| 12>  C        1.9033181091    -5.4261896863     0.0755289895
| 13>  N        1.9253230917    -6.6725301268    -0.1039726261
| 14>  H        0.8270051678     1.8149131976    -0.2033376692
| 15>  H       -0.9146615807     1.5979902550    -0.4490250982
| 16>  H       -0.2543001856     1.6233294810     1.1909700023
| 17>  H        1.7288873324    -2.7171258925    -1.6892553661
| 18>  H        2.5446109737    -2.8889003011    -0.1338397192
| 19>  H        2.0433144257    -4.8940461973     1.0242703328
| 20>  H        2.0896985294    -7.1477217181     0.7808303530
| 21> *
| 22>
| 23>                          ****END OF INPUT****

CARTESIAN COORDINATES (ANGSTROEM)
---------------------------------
  C     -0.060989    1.291724    0.165334
  C      0.110451   -0.149080    0.112929
  C      0.232183   -1.349808    0.080402
  C      0.406679   -2.782212    0.015056
  O     -0.357136   -3.575446    0.516896
  C      1.676201   -3.225388   -0.722313
  O      1.714730   -4.605059   -0.985772
  C      1.903318   -5.426190    0.075529
  N      1.925323   -6.672530   -0.103973
  H      0.827005    1.814913   -0.203338
  H     -0.914662    1.597990   -0.449025
  H     -0.254300    1.623329    1.190970
  H      1.728887   -2.717126   -1.689255
  H      2.544611   -2.888900   -0.133840
  H      2.043314   -4.894046    1.024270
  H      2.089699   -7.147722    0.780830

 Total Charge           Charge          ....    0
 Multiplicity           Mult            ....    1
 Number of Electrons    NEL             ....   66
 Basis Dimension        Dim             ....  321

ORBITAL ENERGIES
----------------

  NO   OCC          E(Eh)            E(eV)
   0   2.0000     -20.599791      -560.5488
   1   2.0000     -20.572651      -559.8103
   2   2.0000     -15.536674      -422.7744
   3   2.0000     -11.370491      -309.4068
   4   2.0000     -11.336904      -308.4928
   5   2.0000     -11.319814      -308.0278
   6   2.0000     -11.280014      -306.9448
   7   2.0000     -11.275955      -306.8343
   8   2.0000     -11.250686      -306.1467
   9   2.0000      -1.442597       -39.2551
  10   2.0000      -1.408483       -38.3268
  11   2.0000      -1.198429       -32.6109
  12   2.0000      -1.101141       -29.9636
  13   2.0000      -1.038276       -28.2529
  14   2.0000      -0.984936       -26.8015
  15   2.0000      -0.874961       -23.8089
  16   2.0000      -0.822413       -22.3790
  17   2.0000      -0.729616       -19.8539
  18   2.0000      -0.726810       -19.7775
  19   2.0000      -0.675748       -18.3880
  20   2.0000      -0.670609       -18.2482
  21   2.0000      -0.657066       -17.8797
  22   2.0000      -0.619269       -16.8512
  23   2.0000      -0.618404       -16.8276
  24   2.0000      -0.610729       -16.6188
  25   2.0000      -0.571180       -15.5426
  26   2.0000      -0.564226       -15.3534
  27   2.0000      -0.518380       -14.1058
  28   2.0000      -0.463515       -12.6129
  29   2.0000      -0.434429       -11.8214
  30   2.0000      -0.416956       -11.3460
  31   2.0000      -0.413349       -11.2478
  32   2.0000      -0.398901       -10.8547
  33   0.0000       0.078559         2.1377
  34   0.0000       0.116939         3.1821
  35   0.0000       0.134664         3.6644
  36   0.0000       0.153281         4.1710
  37   0.0000       0.164778         4.4838

MULLIKEN ATOMIC CHARGES
-----------------------
   0 C :   -0.468304
   1 C :    0.075309
   2 C :    0.058192
   3 C :    0.030765
   4 O :   -0.258465
   5 C :   -0.113653
   6 O :   -0.214684
   7 C :    0.093801
   8 N :   -0.341435
   9 H :    0.170085
  10 H :    0.175627
  11 H :    0.174798
  12 H :    0.163832
  13 H :    0.147030
  14 H :    0.080846
  15 H :    0.226255
Sum of atomic charges:   -0.0000000

LOEWDIN ATOMIC CHARGES
----------------------
   0 C :   -0.280994
   1 C :   -0.050558
   2 C :   -0.042057
   3 C :   -0.337718
   4 O :    0.188749
   5 C :   -0.284722
   6 O :    0.253834
   7 C :   -0.389285
   8 N :   -0.075269
   9 H :    0.145598
  10 H :    0.150095
  11 H :    0.148949
  12 H :    0.151611
  13 H :    0.142283
  14 H :    0.110152
  15 H :    0.169332

  Mayer bond orders larger than 0.1
B(  0-C ,  1-C ) :   0.8662 B(  0-C ,  9-H ) :   0.9410 B(  0-C , 10-H ) :   0.9372
B(  0-C , 11-H ) :   0.9391 B(  1-C ,  2-C ) :   2.6868 B(  2-C ,  3-C ) :   0.9637
B(  2-C ,  5-C ) :  -0.1018 B(  3-C ,  4-O ) :   2.0031 B(  3-C ,  5-C ) :   0.9708
B(  5-C ,  6-O ) :   0.9223 B(  5-C , 12-H ) :   0.9014 B(  5-C , 13-H ) :   0.9301
B(  6-O ,  7-C ) :   1.0125 B(  7-C ,  8-N ) :   1.9569 B(  7-C , 14-H ) :   0.9245
B(  8-N , 15-H ) :   0.8503

MP2 TOTAL ENERGY:     -437.123694767 Eh
FINAL SINGLE POINT ENERGY      -437.123694767263

DIPOLE MOMENT
-------------
                                X             Y             Z
Electronic contribution:     -1.29471      -5.61527      -0.50149
Nuclear contribution   :      1.89391       7.89614       1.09895
                        -----------------------------------------
Total Dipole Moment    :      0.59920       2.28087       0.59746
                        -----------------------------------------
Magnitude (a.u.)       :      2.43277
Magnitude (Debye)      :      6.18360

                             ****ORCA TERMINATED NORMALLY****
TOTAL RUN TIME: 0 days 0 hours 12 minutes 48 seconds 277 msec
