                         Program Version 3.0.3 - RELEASE   -
|  1> ! RI-MP2 RIJK def2-TZVP def2-TZVP/C def2-TZVP/JK TIGHTSCF
|  2> % maxcore 2000
|  3> % mp2 density relaxed end
|  4> *xyz 0 1
|  5>  C       -0.1941138749     1.4234973346    -0.1227523163
|  6>  N        0.0510092354     0.0048606943     0.0793414457
|  7>  C        1.4039463043    -0.4983855392    -0.1274046487
|  8>  C        0.8075164452    -0.4764620605     1.2467157786
|  9>  C        1.3614554240     0.5087293988     2.2599009673
| 10>  C        0.2569902697    -1.7726040501     1.7871530118
| 11>  C        1.0033199721    -2.6245657848     2.7848545624
| 12>  C       -0.2728064926    -1.9302831546     3.1921234337
| 13>  H        0.6613700054     2.0796095101     0.1008246703
| 14>  H       -0.4681517513     1.5827137932    -1.1710518062
| 15>  H       -1.0397594675     1.7401122912     0.4967053785
| 16>  H        1.4898641990    -1.4296765363    -0.6832703602
| 17>  H        2.1918439198     0.2255614356    -0.3380752599
| 18>  H        1.8809980723     1.3399392788     1.7802011070
| 19>  H        0.5656120903     0.9248543141     2.8871290667
| 20>  H        2.0827761270     0.0192798014     2.9218059118
| 21>  H       -0.2891566631    -2.3165524909     1.0229379359
| 22>  H        0.9900318700    -3.7000822787     2.6460715801
| 23>  H        1.9349736537    -2.2479287999     3.1940491688
| 24>  H       -0.1912378585    -1.0927458296     3.8758896812
| 25>  H       -1.1670660702    -2.5269934677     3.3340372914
| 26> *
| 27>
| 28>                          ****END OF INPUT****

CARTESIAN COORDINATES (ANGSTROEM)
---------------------------------
  C     -0.194114    1.423497   -0.122752
  N      0.051009    0.004861    0.079341
  C      1.403946   -0.498386   -0.127405
  C      0.807516   -0.476462    1.246716
  C      1.361455    0.508729    2.259901
  C      0.256990   -1.772604    1.787153
  C      1.003320   -2.624566    2.784855
  C     -0.272806   -1.930283    3.192123
  H      0.661370    2.079610    0.100825
  H     -0.468152    1.582714   -1.171052
  H     -1.039759    1.740112    0.496705
  H      1.489864   -1.429677   -0.683270
  H      2.191844    0.225561   -0.338075
  H      1.880998    1.339939    1.780201
  H      0.565612    0.924854    2.887129
  H      2.082776    0.019280    2.921806
  H     -0.289157   -2.316552    1.022938
  H      0.990032   -3.700082    2.646072
  H      1.934974   -2.247929    3.194049
  H     -0.191238   -1.092746    3.875890
  H     -1.167066   -2.526993    3.334037

 Total Charge           Charge          ....    0
 Multiplicity           Mult            ....    1
 Number of Electrons    NEL             ....   62
 Basis Dimension        Dim             ....  326

ORBITAL ENERGIES
----------------

  NO   OCC          E(Eh)            E(eV)
   0   2.0000     -15.548580      -423.0984
   1   2.0000     -11.263369      -306.4918
   2   2.0000     -11.243118      -305.9408
   3   2.0000     -11.241425      -305.8947
   4   2.0000     -11.225537      -305.4624
   5   2.0000     -11.221251      -305.3458
   6   2.0000     -11.220575      -305.3274
   7   2.0000     -11.219919      -305.3095
   8   2.0000      -1.267272       -34.4842
   9   2.0000      -1.134053       -30.8592
  10   2.0000      -1.007669       -27.4201
  11   2.0000      -0.962956       -26.2034
  12   2.0000      -0.856077       -23.2950
  13   2.0000      -0.822832       -22.3904
  14   2.0000      -0.811870       -22.0921
  15   2.0000      -0.728655       -19.8277
  16   2.0000      -0.675063       -18.3694
  17   2.0000      -0.659139       -17.9361
  18   2.0000      -0.619298       -16.8519
  19   2.0000      -0.595826       -16.2133
  20   2.0000      -0.586908       -15.9706
  21   2.0000      -0.568201       -15.4615
  22   2.0000      -0.539606       -14.6834
  23   2.0000      -0.535896       -14.5825
  24   2.0000      -0.508021       -13.8240
  25   2.0000      -0.485652       -13.2153
  26   2.0000      -0.473970       -12.8974
  27   2.0000      -0.450046       -12.2464
  28   2.0000      -0.415024       -11.2934
  29   2.0000      -0.393236       -10.7005
  30   2.0000      -0.352307        -9.5868
  31   0.0000       0.139400         3.7933
  32   0.0000       0.165757         4.5105
  33   0.0000       0.166359         4.5269
  34   0.0000       0.174159         4.7391
  35   0.0000       0.188893         5.1400

MULLIKEN ATOMIC CHARGES
-----------------------
   0 C :   -0.297211
   1 N :   -0.240134
   2 C :   -0.219978
   3 C :    0.175152
   4 C :   -0.411062
   5 C :   -0.123751
   6 C :   -0.271753
   7 C :   -0.274174
   8 H :    0.100304
   9 H :    0.141163
  10 H :    0.134071
  11 H :    0.119678
  12 H :    0.109546
  13 H :    0.133703
  14 H :    0.138737
  15 H :    0.143844
  16 H :    0.128948
  17 H :    0.128717
  18 H :    0.124495
  19 H :    0.130272
  20 H :    0.129432
Sum of atomic charges:   -0.0000000

LOEWDIN ATOMIC CHARGES
----------------------
   0 C :   -0.332994
   1 N :    0.106361
   2 C :   -0.228477
   3 C :   -0.289065
   4 C :   -0.268303
   5 C :   -0.189365
   6 C :   -0.227942
   7 C :   -0.225247
   8 H :    0.102502
   9 H :    0.119105
  10 H :    0.118392
  11 H :    0.124856
  12 H :    0.122621
  13 H :    0.126631
  14 H :    0.129107
  15 H :    0.131897
  16 H :    0.157957
  17 H :    0.130082
  18 H :    0.129853
  19 H :    0.131482
  20 H :    0.130547

  Mayer bond orders larger than 0.1
B(  0-C ,  1-N ) :   0.8898 B(  0-C ,  8-H ) :   0.9274 B(  0-C ,  9-H ) :   0.9376
B(  0-C , 10-H ) :   0.9395 B(  1-N ,  2-C ) :   0.9348 B(  1-N ,  3-C ) :   0.7919
B(  2-C ,  3-C ) :   0.9154 B(  2-C , 11-H ) :   0.9087 B(  2-C , 12-H ) :   0.9142
B(  3-C ,  4-C ) :   0.9073 B(  3-C ,  5-C ) :   0.8904 B(  4-C , 13-H ) :   0.9334
B(  4-C , 14-H ) :   0.9346 B(  4-C , 15-H ) :   0.9369 B(  5-C ,  6-C ) :   0.8630
B(  5-C ,  7-C ) :   0.8956 B(  5-C , 16-H ) :   0.9304 B(  6-C ,  7-C ) :   0.8961
B(  6-C , 17-H ) :   0.9299 B(  6-C , 18-H ) :   0.9279 B(  7-C , 19-H ) :   0.9275
B(  7-C , 20-H ) :   0.9311

MP2 TOTAL ENERGY:     -328.487177824 Eh
FINAL SINGLE POINT ENERGY      -328.487177824458

DIPOLE MOMENT
-------------
                                X             Y             Z
Electronic contribution:     -0.97547      -2.31831      -1.77922
Nuclear contribution   :      1.31852       2.60040       1.95917
                        -----------------------------------------
Total Dipole Moment    :      0.34306       0.28210       0.17994
                        -----------------------------------------
Magnitude (a.u.)       :      0.47922
Magnitude (Debye)      :      1.21807

                             ****ORCA TERMINATED NORMALLY****
TOTAL RUN TIME: 0 days 0 hours 14 minutes 1 seconds 276 msec
