                         Program Version 3.0.3 - RELEASE   -
|  1> ! RI-MP2 RIJK def2-TZVP def2-TZVP/C def2-TZVP/JK TIGHTSCF
|  2> % maxcore 2000
|  3> % mp2 density relaxed end
|  4> *xyz 0 1
|  5>  C       -0.0983069356     1.5916496444     0.0876424286
|  6>  C        0.0209304818     0.0867460691    -0.0388752521
|  7>  C        0.7211599684    -0.5894935457    -1.2486951146
|  8>  C        2.1372089165    -0.0371518920    -1.5710799592
|  9>  C        2.7490274166    -0.7898212273    -0.3335942556
| 10>  C        1.3911978105    -1.5465833531    -0.2154825036
| 11>  N        0.9782300836    -0.6299268783     0.9133884601
| 12>  C        2.2893225659    -0.0184367143     0.8988586169
| 13>  O        2.7415330741     0.8393251537     1.5984712378
| 14>  H        0.8607313134     2.0987075506    -0.0427609423
| 15>  H       -0.7948298242     1.9693874384    -0.6683485189
| 16>  H       -0.4851410594     1.8621032214     1.0746113768
| 17>  H       -0.9620491424    -0.3743407372     0.1086233559
| 18>  H        0.1028784850    -0.8955455811    -2.0927994766
| 19>  H        2.5092125086    -0.5008737337    -2.4876379054
| 20>  H        2.2916683554     1.0432149937    -1.6351984603
| 21>  H        3.7532019074    -1.2025115302    -0.4172606880
| 22>  H        1.2449244545    -2.6177301481    -0.1019435695
| 23> *
| 24>
| 25>                          ****END OF INPUT****

CARTESIAN COORDINATES (ANGSTROEM)
---------------------------------
  C     -0.098307    1.591650    0.087642
  C      0.020930    0.086746   -0.038875
  C      0.721160   -0.589494   -1.248695
  C      2.137209   -0.037152   -1.571080
  C      2.749027   -0.789821   -0.333594
  C      1.391198   -1.546583   -0.215483
  N      0.978230   -0.629927    0.913388
  C      2.289323   -0.018437    0.898859
  O      2.741533    0.839325    1.598471
  H      0.860731    2.098708   -0.042761
  H     -0.794830    1.969387   -0.668349
  H     -0.485141    1.862103    1.074611
  H     -0.962049   -0.374341    0.108623
  H      0.102878   -0.895546   -2.092799
  H      2.509213   -0.500874   -2.487638
  H      2.291668    1.043215   -1.635198
  H      3.753202   -1.202512   -0.417261
  H      1.244924   -2.617730   -0.101944

 Total Charge           Charge          ....    0
 Multiplicity           Mult            ....    1
 Number of Electrons    NEL             ....   66
 Basis Dimension        Dim             ....  333

ORBITAL ENERGIES
----------------

  NO   OCC          E(Eh)            E(eV)
   0   2.0000     -20.543284      -559.0112
   1   2.0000     -15.567393      -423.6103
   2   2.0000     -11.349783      -308.8433
   3   2.0000     -11.283020      -307.0266
   4   2.0000     -11.278601      -306.9063
   5   2.0000     -11.255695      -306.2830
   6   2.0000     -11.253917      -306.2347
   7   2.0000     -11.251046      -306.1565
   8   2.0000     -11.223991      -305.4203
   9   2.0000      -1.399993       -38.0958
  10   2.0000      -1.297820       -35.3155
  11   2.0000      -1.083690       -29.4887
  12   2.0000      -1.049743       -28.5650
  13   2.0000      -0.962091       -26.1798
  14   2.0000      -0.887183       -24.1415
  15   2.0000      -0.824147       -22.4262
  16   2.0000      -0.790739       -21.5171
  17   2.0000      -0.713334       -19.4108
  18   2.0000      -0.683703       -18.6045
  19   2.0000      -0.661561       -18.0020
  20   2.0000      -0.650445       -17.6995
  21   2.0000      -0.625214       -17.0129
  22   2.0000      -0.594180       -16.1685
  23   2.0000      -0.566426       -15.4132
  24   2.0000      -0.549792       -14.9606
  25   2.0000      -0.541163       -14.7258
  26   2.0000      -0.524593       -14.2749
  27   2.0000      -0.494406       -13.4535
  28   2.0000      -0.475959       -12.9515
  29   2.0000      -0.466690       -12.6993
  30   2.0000      -0.439389       -11.9564
  31   2.0000      -0.422590       -11.4993
  32   2.0000      -0.369869       -10.0647
  33   0.0000       0.124086         3.3765
  34   0.0000       0.150970         4.1081
  35   0.0000       0.153429         4.1750
  36   0.0000       0.155963         4.2440
  37   0.0000       0.176306         4.7975

MULLIKEN ATOMIC CHARGES
-----------------------
   0 C :   -0.402131
   1 C :   -0.043684
   2 C :   -0.018559
   3 C :   -0.318373
   4 C :   -0.063431
   5 C :   -0.119744
   6 N :   -0.141593
   7 C :    0.136174
   8 O :   -0.262438
   9 H :    0.142046
  10 H :    0.135182
  11 H :    0.151282
  12 H :    0.111587
  13 H :    0.129048
  14 H :    0.136810
  15 H :    0.139263
  16 H :    0.146923
  17 H :    0.141638
Sum of atomic charges:   -0.0000000

LOEWDIN ATOMIC CHARGES
----------------------
   0 C :   -0.288742
   1 C :   -0.237484
   2 C :   -0.172044
   3 C :   -0.182730
   4 C :   -0.151190
   5 C :   -0.142019
   6 N :    0.175189
   7 C :   -0.381525
   8 O :    0.154260
   9 H :    0.128080
  10 H :    0.131169
  11 H :    0.135589
  12 H :    0.151474
  13 H :    0.134624
  14 H :    0.145731
  15 H :    0.130562
  16 H :    0.138869
  17 H :    0.130188

  Mayer bond orders larger than 0.1
B(  0-C ,  1-C ) :   0.9417 B(  0-C ,  9-H ) :   0.9228 B(  0-C , 10-H ) :   0.9287
B(  0-C , 11-H ) :   0.9332 B(  1-C ,  2-C ) :   0.9154 B(  1-C ,  6-N ) :   0.8653
B(  1-C , 12-H ) :   0.9229 B(  2-C ,  3-C ) :   0.8972 B(  2-C ,  5-C ) :   0.9021
B(  2-C , 13-H ) :   0.9107 B(  3-C ,  4-C ) :   0.8497 B(  3-C , 14-H ) :   0.9127
B(  3-C , 15-H ) :   0.9285 B(  4-C ,  5-C ) :   0.8837 B(  4-C ,  7-C ) :   0.8984
B(  4-C , 16-H ) :   0.9011 B(  5-C ,  6-N ) :   0.9436 B(  5-C , 17-H ) :   0.8913
B(  6-N ,  7-C ) :   0.9822 B(  7-C ,  8-O ) :   2.0366

MP2 TOTAL ENERGY:     -401.227397248 Eh
FINAL SINGLE POINT ENERGY      -401.227397248286

DIPOLE MOMENT
-------------
                                X             Y             Z
Electronic contribution:      3.61590      -2.48670       4.59793
Nuclear contribution   :     -4.10956       1.96930      -6.05122
                        -----------------------------------------
Total Dipole Moment    :     -0.49366      -0.51740      -1.45329
                        -----------------------------------------
Magnitude (a.u.)       :      1.61971
Magnitude (Debye)      :      4.11697

                             ****ORCA TERMINATED NORMALLY****
TOTAL RUN TIME: 0 days 0 hours 20 minutes 43 seconds 312 msec
