                         Program Version 3.0.3 - RELEASE   -
|  1> ! RI-MP2 RIJK def2-TZVP def2-TZVP/C def2-TZVP/JK TIGHTSCF
|  2> % maxcore 2000
|  3> % mp2 density relaxed end
|  4> *xyz 0 1
|  5>  O       -0.0110134207    -0.0042771030    -0.0379545438
|  6>  C        0.0075611949     1.1875407565    -0.0246771009
|  7>  O       -1.1075115622     1.9620624749    -0.0564265814
|  8>  C       -0.8228162565     3.3772221028     0.0128470852
|  9>  C        0.6883959014     3.5136424977    -0.0543281308
| 10>  C        1.4318109866     4.5930155402    -0.7303986948
| 11>  O        1.3353009996     4.5408395315     0.6870054574
| 12>  C        1.2350432069     2.1184947345     0.0212761929
| 13>  O        2.3791092244     1.7699453633     0.0943991015
| 14>  H       -1.3473050302     3.8617162598    -0.8139929994
| 15>  H       -1.2075937684     3.7660464339     0.9601485423
| 16>  H        2.4153038303     4.3704337031    -1.1399366905
| 17>  H        0.8683790338     5.3889476050    -1.2153217878
| 18> *
| 19>
| 20>                          ****END OF INPUT****

CARTESIAN COORDINATES (ANGSTROEM)
---------------------------------
  O     -0.011013   -0.004277   -0.037955
  C      0.007561    1.187541   -0.024677
  O     -1.107512    1.962062   -0.056427
  C     -0.822816    3.377222    0.012847
  C      0.688396    3.513642   -0.054328
  C      1.431811    4.593016   -0.730399
  O      1.335301    4.540840    0.687005
  C      1.235043    2.118495    0.021276
  O      2.379109    1.769945    0.094399
  H     -1.347305    3.861716   -0.813993
  H     -1.207594    3.766046    0.960149
  H      2.415304    4.370434   -1.139937
  H      0.868379    5.388948   -1.215322

 Total Charge           Charge          ....    0
 Multiplicity           Mult            ....    1
 Number of Electrons    NEL             ....   66
 Basis Dimension        Dim             ....  303

ORBITAL ENERGIES
----------------

  NO   OCC          E(Eh)            E(eV)
   0   2.0000     -20.637862      -561.5848
   1   2.0000     -20.622286      -561.1609
   2   2.0000     -20.607390      -560.7556
   3   2.0000     -20.577875      -559.9524
   4   2.0000     -11.409902      -310.4792
   5   2.0000     -11.378993      -309.6381
   6   2.0000     -11.343325      -308.6676
   7   2.0000     -11.338178      -308.5275
   8   2.0000     -11.333747      -308.4069
   9   2.0000      -1.496435       -40.7201
  10   2.0000      -1.468073       -39.9483
  11   2.0000      -1.438111       -39.1330
  12   2.0000      -1.400072       -38.0979
  13   2.0000      -1.076162       -29.2838
  14   2.0000      -1.003047       -27.2943
  15   2.0000      -0.954337       -25.9688
  16   2.0000      -0.847299       -23.0562
  17   2.0000      -0.806459       -21.9449
  18   2.0000      -0.733783       -19.9672
  19   2.0000      -0.722742       -19.6668
  20   2.0000      -0.714003       -19.4290
  21   2.0000      -0.705026       -19.1847
  22   2.0000      -0.667675       -18.1684
  23   2.0000      -0.627530       -17.0760
  24   2.0000      -0.619105       -16.8467
  25   2.0000      -0.609377       -16.5820
  26   2.0000      -0.586308       -15.9543
  27   2.0000      -0.566144       -15.4056
  28   2.0000      -0.531826       -14.4717
  29   2.0000      -0.508092       -13.8259
  30   2.0000      -0.490442       -13.3456
  31   2.0000      -0.472318       -12.8524
  32   2.0000      -0.432038       -11.7564
  33   0.0000       0.037605         1.0233
  34   0.0000       0.128202         3.4885
  35   0.0000       0.149836         4.0772
  36   0.0000       0.161197         4.3864
  37   0.0000       0.173261         4.7147

MULLIKEN ATOMIC CHARGES
-----------------------
   0 O :   -0.239542
   1 C :    0.237482
   2 O :   -0.208525
   3 C :   -0.019807
   4 C :    0.099193
   5 C :   -0.060388
   6 O :   -0.304675
   7 C :    0.142249
   8 O :   -0.219576
   9 H :    0.138450
  10 H :    0.146452
  11 H :    0.151324
  12 H :    0.137364
Sum of atomic charges:    0.0000000

LOEWDIN ATOMIC CHARGES
----------------------
   0 O :    0.183293
   1 C :   -0.440243
   2 O :    0.266435
   3 C :   -0.208485
   4 C :   -0.305623
   5 C :   -0.210014
   6 O :    0.206395
   7 C :   -0.260068
   8 O :    0.225576
   9 H :    0.137521
  10 H :    0.142598
  11 H :    0.134244
  12 H :    0.128372

  Mayer bond orders larger than 0.1
B(  0-O ,  1-C ) :   2.0328 B(  1-C ,  2-O ) :   1.1082 B(  1-C ,  7-C ) :   0.8817
B(  2-O ,  3-C ) :   0.8753 B(  3-C ,  4-C ) :   0.9199 B(  3-C ,  9-H ) :   0.9286
B(  3-C , 10-H ) :   0.9161 B(  4-C ,  5-C ) :   0.9318 B(  4-C ,  6-O ) :   0.8759
B(  4-C ,  7-C ) :   0.8745 B(  5-C ,  6-O ) :   0.8902 B(  5-C , 11-H ) :   0.9055
B(  5-C , 12-H ) :   0.9196 B(  7-C ,  8-O ) :   2.0000

MP2 TOTAL ENERGY:     -492.938917439 Eh
FINAL SINGLE POINT ENERGY      -492.938917438717

DIPOLE MOMENT
-------------
                                X             Y             Z
Electronic contribution:      0.90449      -4.92146       1.36961
Nuclear contribution   :     -1.44370       6.68909      -2.04609
                        -----------------------------------------
Total Dipole Moment    :     -0.53921       1.76764      -0.67648
                        -----------------------------------------
Magnitude (a.u.)       :      1.96797
Magnitude (Debye)      :      5.00219

                             ****ORCA TERMINATED NORMALLY****
TOTAL RUN TIME: 0 days 0 hours 14 minutes 23 seconds 421 msec
