                         Program Version 3.0.3 - RELEASE   -
|  1> ! RI-MP2 RIJK def2-TZVP def2-TZVP/C def2-TZVP/JK TIGHTSCF
|  2> % maxcore 2000
|  3> % mp2 density relaxed end
|  4> *xyz 0 1
|  5>  C        0.0133670087     1.4070861431     0.0500899250
|  6>  O       -0.0079328824    -0.0002988605     0.0050402070
|  7>  C        0.6567237825    -0.5201044068    -1.1247297407
|  8>  C        0.5531699824    -2.0444387952    -1.0739064409
|  9>  C       -0.8272186626    -2.6158955873    -1.2802482055
| 10>  C       -0.7888510472    -3.4594273495    -2.3155086491
| 11>  N        0.5026684168    -3.5313039126    -2.8650648686
| 12>  C        1.3789059808    -2.6907880445    -2.2052063731
| 13>  O        2.5418853166    -2.5041885870    -2.4829955718
| 14>  H        1.0419179182     1.7987858066     0.0869409049
| 15>  H       -0.4909604751     1.8514159103    -0.8226389388
| 16>  H       -0.5142527665     1.7131760063     0.9566324103
| 17>  H        0.2003432425    -0.1382818645    -2.0534311587
| 18>  H        1.7195560073    -0.2319122086    -1.1318754614
| 19>  H        0.9820960535    -2.3659948259    -0.1153070639
| 20>  H       -1.6875990646    -2.3751198062    -0.6766127788
| 21>  H       -1.5790171714    -4.0564813204    -2.7480834160
| 22>  H        0.7708447805    -4.0682298172    -3.6727534699
| 23> *
| 24>
| 25>                          ****END OF INPUT****

CARTESIAN COORDINATES (ANGSTROEM)
---------------------------------
  C      0.013367    1.407086    0.050090
  O     -0.007933   -0.000299    0.005040
  C      0.656724   -0.520104   -1.124730
  C      0.553170   -2.044439   -1.073906
  C     -0.827219   -2.615896   -1.280248
  C     -0.788851   -3.459427   -2.315509
  N      0.502668   -3.531304   -2.865065
  C      1.378906   -2.690788   -2.205206
  O      2.541885   -2.504189   -2.482996
  H      1.041918    1.798786    0.086941
  H     -0.490960    1.851416   -0.822639
  H     -0.514253    1.713176    0.956632
  H      0.200343   -0.138282   -2.053431
  H      1.719556   -0.231912   -1.131875
  H      0.982096   -2.365995   -0.115307
  H     -1.687599   -2.375120   -0.676613
  H     -1.579017   -4.056481   -2.748083
  H      0.770845   -4.068230   -3.672753

 Total Charge           Charge          ....    0
 Multiplicity           Mult            ....    1
 Number of Electrons    NEL             ....   68
 Basis Dimension        Dim             ....  333

ORBITAL ENERGIES
----------------

  NO   OCC          E(Eh)            E(eV)
   0   2.0000     -20.561755      -559.5138
   1   2.0000     -20.527849      -558.5912
   2   2.0000     -15.598512      -424.4571
   3   2.0000     -11.355262      -308.9924
   4   2.0000     -11.285156      -307.0847
   5   2.0000     -11.284254      -307.0602
   6   2.0000     -11.274415      -306.7924
   7   2.0000     -11.249467      -306.1136
   8   2.0000     -11.228817      -305.5516
   9   2.0000      -1.391457       -37.8635
  10   2.0000      -1.382519       -37.6203
  11   2.0000      -1.272202       -34.6184
  12   2.0000      -1.083233       -29.4763
  13   2.0000      -1.001560       -27.2538
  14   2.0000      -0.939602       -25.5679
  15   2.0000      -0.873459       -23.7680
  16   2.0000      -0.798103       -21.7175
  17   2.0000      -0.790361       -21.5068
  18   2.0000      -0.707263       -19.2456
  19   2.0000      -0.677448       -18.4343
  20   2.0000      -0.663129       -18.0447
  21   2.0000      -0.645501       -17.5650
  22   2.0000      -0.624248       -16.9867
  23   2.0000      -0.602918       -16.4062
  24   2.0000      -0.600723       -16.3465
  25   2.0000      -0.582173       -15.8417
  26   2.0000      -0.569443       -15.4953
  27   2.0000      -0.514816       -14.0089
  28   2.0000      -0.508889       -13.8476
  29   2.0000      -0.488903       -13.3037
  30   2.0000      -0.476021       -12.9532
  31   2.0000      -0.429547       -11.6886
  32   2.0000      -0.421806       -11.4779
  33   2.0000      -0.327990        -8.9251
  34   0.0000       0.128321         3.4918
  35   0.0000       0.139026         3.7831
  36   0.0000       0.154091         4.1930
  37   0.0000       0.172974         4.7069
  38   0.0000       0.177417         4.8278

MULLIKEN ATOMIC CHARGES
-----------------------
   0 C :   -0.215985
   1 O :   -0.309674
   2 C :   -0.089019
   3 C :    0.073929
   4 C :   -0.283996
   5 C :   -0.012929
   6 N :   -0.274597
   7 C :    0.165866
   8 O :   -0.325963
   9 H :    0.115440
  10 H :    0.112351
  11 H :    0.139363
  12 H :    0.100228
  13 H :    0.125151
  14 H :    0.128493
  15 H :    0.151586
  16 H :    0.153620
  17 H :    0.246137
Sum of atomic charges:    0.0000000

LOEWDIN ATOMIC CHARGES
----------------------
   0 C :   -0.358632
   1 O :    0.137002
   2 C :   -0.293791
   3 C :   -0.197274
   4 C :   -0.163187
   5 C :   -0.200876
   6 N :    0.148575
   7 C :   -0.392133
   8 O :    0.096579
   9 H :    0.103106
  10 H :    0.101931
  11 H :    0.113727
  12 H :    0.125656
  13 H :    0.130728
  14 H :    0.178542
  15 H :    0.144126
  16 H :    0.138047
  17 H :    0.187874

  Mayer bond orders larger than 0.1
B(  0-C ,  1-O ) :   0.9184 B(  0-C ,  9-H ) :   0.9376 B(  0-C , 10-H ) :   0.9361
B(  0-C , 11-H ) :   0.9389 B(  1-O ,  2-C ) :   0.9467 B(  2-C ,  3-C ) :   0.9171
B(  2-C , 12-H ) :   0.9160 B(  2-C , 13-H ) :   0.9230 B(  3-C ,  4-C ) :   0.9118
B(  3-C ,  7-C ) :   0.8856 B(  3-C , 14-H ) :   0.8887 B(  4-C ,  5-C ) :   1.7515
B(  4-C , 15-H ) :   0.9257 B(  5-C ,  6-N ) :   0.9741 B(  5-C , 16-H ) :   0.9081
B(  6-N ,  7-C ) :   1.1150 B(  6-N , 17-H ) :   0.8642 B(  7-C ,  8-O ) :   2.0111

MP2 TOTAL ENERGY:     -438.387436521 Eh
FINAL SINGLE POINT ENERGY      -438.387436520910

DIPOLE MOMENT
-------------
                                X             Y             Z
Electronic contribution:      2.51280      -7.07433      -3.06878
Nuclear contribution   :     -3.53685       7.00579       2.77097
                        -----------------------------------------
Total Dipole Moment    :     -1.02405      -0.06854      -0.29781
                        -----------------------------------------
Magnitude (a.u.)       :      1.06867
Magnitude (Debye)      :      2.71635

                             ****ORCA TERMINATED NORMALLY****
TOTAL RUN TIME: 0 days 0 hours 15 minutes 51 seconds 181 msec
