                         Program Version 3.0.3 - RELEASE   -
|  1> ! RI-MP2 RIJK def2-TZVP def2-TZVP/C def2-TZVP/JK TIGHTSCF
|  2> % maxcore 2000
|  3> % mp2 density relaxed end
|  4> *xyz 0 1
|  5>  C       -0.1442057186     1.5782766958    -0.1402753272
|  6>  C       -0.1382046634     0.0443164016    -0.1262679334
|  7>  C        0.7933332890    -0.5316295426    -1.1626836727
|  8>  C        2.3353432171    -0.4319675299    -0.9952388251
|  9>  C        2.4682785134    -1.9496497903    -1.3459160610
| 10>  C        0.9320027888    -2.0377580758    -1.5405965073
| 11>  O        0.2200294190    -3.0266580569    -0.8584901620
| 12>  C        0.4275932409    -1.5970560157    -2.9293886226
| 13>  O        0.4031859953    -0.2085321973    -2.5255635077
| 14>  H        0.8447850523     1.9839818503     0.0986145934
| 15>  H       -0.4297625831     1.9493403054    -1.1284499766
| 16>  H       -0.8532825410     1.9736521756     0.5928379758
| 17>  H        0.1604768005    -0.3289337066     0.8608769448
| 18>  H       -1.1484344750    -0.3364824413    -0.3147838021
| 19>  H        2.7988848323     0.2597080378    -1.7003598859
| 20>  H        2.6647337113    -0.1872658702     0.0177702778
| 21>  H        3.0817331418    -2.2029958419    -2.2147047082
| 22>  H        2.7954191726    -2.5500857709    -0.4931762330
| 23>  H        0.6127957627    -3.8827591738    -1.0603768804
| 24>  H        1.0873769668    -1.7706904111    -3.7893615602
| 25>  H       -0.5788808427    -1.9720248320    -3.1545320763
| 26> *
| 27>
| 28>                          ****END OF INPUT****

CARTESIAN COORDINATES (ANGSTROEM)
---------------------------------
  C     -0.144206    1.578277   -0.140275
  C     -0.138205    0.044316   -0.126268
  C      0.793333   -0.531630   -1.162684
  C      2.335343   -0.431968   -0.995239
  C      2.468279   -1.949650   -1.345916
  C      0.932003   -2.037758   -1.540597
  O      0.220029   -3.026658   -0.858490
  C      0.427593   -1.597056   -2.929389
  O      0.403186   -0.208532   -2.525564
  H      0.844785    1.983982    0.098615
  H     -0.429763    1.949340   -1.128450
  H     -0.853283    1.973652    0.592838
  H      0.160477   -0.328934    0.860877
  H     -1.148434   -0.336482   -0.314784
  H      2.798885    0.259708   -1.700360
  H      2.664734   -0.187266    0.017770
  H      3.081733   -2.202996   -2.214705
  H      2.795419   -2.550086   -0.493176
  H      0.612796   -3.882759   -1.060377
  H      1.087377   -1.770690   -3.789362
  H     -0.578881   -1.972025   -3.154532

 Total Charge           Charge          ....    0
 Multiplicity           Mult            ....    1
 Number of Electrons    NEL             ....   70
 Basis Dimension        Dim             ....  351

ORBITAL ENERGIES
----------------

  NO   OCC          E(Eh)            E(eV)
   0   2.0000     -20.568938      -559.7093
   1   2.0000     -20.543195      -559.0088
   2   2.0000     -11.286201      -307.1131
   3   2.0000     -11.278541      -306.9047
   4   2.0000     -11.273118      -306.7571
   5   2.0000     -11.230455      -305.5962
   6   2.0000     -11.223758      -305.4140
   7   2.0000     -11.217413      -305.2413
   8   2.0000     -11.208285      -304.9929
   9   2.0000      -1.391214       -37.8569
  10   2.0000      -1.361160       -37.0391
  11   2.0000      -1.105497       -30.0821
  12   2.0000      -1.037059       -28.2198
  13   2.0000      -0.954587       -25.9756
  14   2.0000      -0.901757       -24.5381
  15   2.0000      -0.851783       -23.1782
  16   2.0000      -0.823472       -22.4078
  17   2.0000      -0.733127       -19.9494
  18   2.0000      -0.675923       -18.3928
  19   2.0000      -0.663581       -18.0569
  20   2.0000      -0.653951       -17.7949
  21   2.0000      -0.631641       -17.1878
  22   2.0000      -0.603947       -16.4342
  23   2.0000      -0.578412       -15.7394
  24   2.0000      -0.563485       -15.3332
  25   2.0000      -0.553968       -15.0742
  26   2.0000      -0.532830       -14.4990
  27   2.0000      -0.522958       -14.2304
  28   2.0000      -0.508920       -13.8484
  29   2.0000      -0.494648       -13.4600
  30   2.0000      -0.476914       -12.9775
  31   2.0000      -0.467864       -12.7312
  32   2.0000      -0.429571       -11.6892
  33   2.0000      -0.403375       -10.9764
  34   2.0000      -0.389043       -10.5864
  35   0.0000       0.129840         3.5331
  36   0.0000       0.139502         3.7960
  37   0.0000       0.166552         4.5321
  38   0.0000       0.174689         4.7535
  39   0.0000       0.183816         5.0019

MULLIKEN ATOMIC CHARGES
-----------------------
   0 C :   -0.407511
   1 C :   -0.207682
   2 C :    0.217567
   3 C :   -0.278182
   4 C :   -0.241821
   5 C :    0.139988
   6 O :   -0.449641
   7 C :   -0.056370
   8 O :   -0.336971
   9 H :    0.121578
  10 H :    0.148387
  11 H :    0.134388
  12 H :    0.111669
  13 H :    0.117881
  14 H :    0.126628
  15 H :    0.115089
  16 H :    0.118576
  17 H :    0.115939
  18 H :    0.324934
  19 H :    0.091877
  20 H :    0.093675
Sum of atomic charges:   -0.0000000

LOEWDIN ATOMIC CHARGES
----------------------
   0 C :   -0.309710
   1 C :   -0.251130
   2 C :   -0.265136
   3 C :   -0.191511
   4 C :   -0.206833
   5 C :   -0.327829
   6 O :    0.018739
   7 C :   -0.235626
   8 O :    0.154965
   9 H :    0.120727
  10 H :    0.127761
  11 H :    0.120729
  12 H :    0.144928
  13 H :    0.146756
  14 H :    0.135734
  15 H :    0.133905
  16 H :    0.128289
  17 H :    0.135364
  18 H :    0.181936
  19 H :    0.116037
  20 H :    0.121903

  Mayer bond orders larger than 0.1
B(  0-C ,  1-C ) :   0.9187 B(  0-C ,  9-H ) :   0.9350 B(  0-C , 10-H ) :   0.9371
B(  0-C , 11-H ) :   0.9410 B(  1-C ,  2-C ) :   0.8997 B(  1-C , 12-H ) :   0.9277
B(  1-C , 13-H ) :   0.9296 B(  2-C ,  3-C ) :   0.8933 B(  2-C ,  5-C ) :   0.8589
B(  2-C ,  6-O ) :  -0.1091 B(  2-C ,  8-O ) :   0.9468 B(  3-C ,  4-C ) :   0.9816
B(  3-C , 14-H ) :   0.9066 B(  3-C , 15-H ) :   0.9066 B(  4-C ,  5-C ) :   0.9672
B(  4-C , 16-H ) :   0.9087 B(  4-C , 17-H ) :   0.9078 B(  5-C ,  6-O ) :   1.1291
B(  5-C ,  7-C ) :   1.0275 B(  6-O , 18-H ) :   0.8348 B(  7-C ,  8-O ) :   0.9604
B(  7-C , 19-H ) :   0.9038 B(  7-C , 20-H ) :   0.9024

MP2 TOTAL ENERGY:     -423.494193760 Eh
FINAL SINGLE POINT ENERGY      -423.494193759847

DIPOLE MOMENT
-------------
                                X             Y             Z
Electronic contribution:     -0.87193      -4.42163      -2.89884
Nuclear contribution   :      1.44525       3.71990       2.99906
                        -----------------------------------------
Total Dipole Moment    :      0.57332      -0.70173       0.10022
                        -----------------------------------------
Magnitude (a.u.)       :      0.91168
Magnitude (Debye)      :      2.31731

                             ****ORCA TERMINATED NORMALLY****
TOTAL RUN TIME: 0 days 0 hours 19 minutes 5 seconds 890 msec
