                         Program Version 3.0.3 - RELEASE   -
|  1> ! RI-MP2 RIJK def2-TZVP def2-TZVP/C def2-TZVP/JK TIGHTSCF
|  2> % maxcore 2000
|  3> % mp2 density relaxed end
|  4> *xyz 0 1
|  5>  C        0.0336837308     1.5710615184    -0.0355834134
|  6>  C        0.0626616305     0.0323049452    -0.0168295669
|  7>  C        0.6870061725    -0.5197418985    -1.3071733453
|  8>  O       -0.1063550593    -0.0841259148    -2.4025059995
|  9>  C        0.7655411838    -0.5158999022     1.1976733939
| 10>  C        0.2408561873    -1.3449442629     2.1037299152
| 11>  C        1.1927565061    -1.6707103643     3.2284326308
| 12>  C        2.5508647739    -1.1582945221     2.6858523728
| 13>  C        2.1878853674    -0.1352143849     1.5818751637
| 14>  H        1.0477574533     1.9861088026    -0.0549235374
| 15>  H       -0.4912667944     1.9255077944    -0.9250414979
| 16>  H       -0.4726313543     1.9623254692     0.8518883045
| 17>  H       -0.9731898733    -0.3295050474    -0.0004043807
| 18>  H        1.7244497487    -0.1609838465    -1.4042764759
| 19>  H        0.7190068857    -1.6185960588    -1.2515194377
| 20>  H        0.3073078986    -0.3901837585    -3.2144324197
| 21>  H       -0.7777429318    -1.7192514836     2.0728679656
| 22>  H        0.8975925450    -1.1497381730     4.1511693490
| 23>  H        1.2166307919    -2.7379843309     3.4771058426
| 24>  H        3.1903125286    -0.7344854168     3.4644773853
| 25>  H        3.0985145209    -1.9939716384     2.2380051963
| 26>  H        2.8893303147    -0.1653762245     0.7401850672
| 27>  H        2.2153144935     0.8965212084     1.9604009474
| 28> *
| 29>
| 30>                          ****END OF INPUT****

CARTESIAN COORDINATES (ANGSTROEM)
---------------------------------
  C      0.033684    1.571062   -0.035583
  C      0.062662    0.032305   -0.016830
  C      0.687006   -0.519742   -1.307173
  O     -0.106355   -0.084126   -2.402506
  C      0.765541   -0.515900    1.197673
  C      0.240856   -1.344944    2.103730
  C      1.192757   -1.670710    3.228433
  C      2.550865   -1.158295    2.685852
  C      2.187885   -0.135214    1.581875
  H      1.047757    1.986109   -0.054924
  H     -0.491267    1.925508   -0.925041
  H     -0.472631    1.962325    0.851888
  H     -0.973190   -0.329505   -0.000404
  H      1.724450   -0.160984   -1.404276
  H      0.719007   -1.618596   -1.251519
  H      0.307308   -0.390184   -3.214432
  H     -0.777743   -1.719251    2.072868
  H      0.897593   -1.149738    4.151169
  H      1.216631   -2.737984    3.477106
  H      3.190313   -0.734485    3.464477
  H      3.098515   -1.993972    2.238005
  H      2.889330   -0.165376    0.740185
  H      2.215314    0.896521    1.960401

 Total Charge           Charge          ....    0
 Multiplicity           Mult            ....    1
 Number of Electrons    NEL             ....   70
 Basis Dimension        Dim             ....  363

ORBITAL ENERGIES
----------------

  NO   OCC          E(Eh)            E(eV)
   0   2.0000     -20.553669      -559.2938
   1   2.0000     -11.272248      -306.7335
   2   2.0000     -11.226598      -305.4913
   3   2.0000     -11.221942      -305.3646
   4   2.0000     -11.220502      -305.3254
   5   2.0000     -11.218723      -305.2770
   6   2.0000     -11.217721      -305.2497
   7   2.0000     -11.211939      -305.0924
   8   2.0000     -11.205459      -304.9160
   9   2.0000      -1.358016       -36.9535
  10   2.0000      -1.135310       -30.8934
  11   2.0000      -1.056189       -28.7404
  12   2.0000      -0.957936       -26.0668
  13   2.0000      -0.943384       -25.6708
  14   2.0000      -0.915499       -24.9120
  15   2.0000      -0.809637       -22.0314
  16   2.0000      -0.776713       -21.1354
  17   2.0000      -0.715939       -19.4817
  18   2.0000      -0.690868       -18.7995
  19   2.0000      -0.643793       -17.5185
  20   2.0000      -0.632077       -17.1997
  21   2.0000      -0.624351       -16.9895
  22   2.0000      -0.587503       -15.9868
  23   2.0000      -0.567089       -15.4313
  24   2.0000      -0.546073       -14.8594
  25   2.0000      -0.534257       -14.5379
  26   2.0000      -0.517490       -14.0816
  27   2.0000      -0.499961       -13.6046
  28   2.0000      -0.485559       -13.2127
  29   2.0000      -0.477294       -12.9878
  30   2.0000      -0.476197       -12.9580
  31   2.0000      -0.461296       -12.5525
  32   2.0000      -0.453317       -12.3354
  33   2.0000      -0.438238       -11.9251
  34   2.0000      -0.330973        -9.0062
  35   0.0000       0.130606         3.5540
  36   0.0000       0.144556         3.9336
  37   0.0000       0.164224         4.4688
  38   0.0000       0.167661         4.5623
  39   0.0000       0.173168         4.7121

MULLIKEN ATOMIC CHARGES
-----------------------
   0 C :   -0.425446
   1 C :    0.009926
   2 C :   -0.089179
   3 O :   -0.467740
   4 C :    0.005230
   5 C :   -0.214973
   6 C :   -0.160673
   7 C :   -0.231251
   8 C :   -0.253054
   9 H :    0.118746
  10 H :    0.157293
  11 H :    0.133030
  12 H :    0.086015
  13 H :    0.091932
  14 H :    0.106417
  15 H :    0.315703
  16 H :    0.122630
  17 H :    0.110518
  18 H :    0.116119
  19 H :    0.121098
  20 H :    0.107811
  21 H :    0.119261
  22 H :    0.120589
Sum of atomic charges:   -0.0000000

LOEWDIN ATOMIC CHARGES
----------------------
   0 C :   -0.283872
   1 C :   -0.251944
   2 C :   -0.321796
   3 O :   -0.047507
   4 C :   -0.148126
   5 C :   -0.139260
   6 C :   -0.246173
   7 C :   -0.238750
   8 C :   -0.216139
   9 H :    0.122158
  10 H :    0.128849
  11 H :    0.124169
  12 H :    0.161756
  13 H :    0.115524
  14 H :    0.119364
  15 H :    0.172122
  16 H :    0.137253
  17 H :    0.137831
  18 H :    0.133841
  19 H :    0.129543
  20 H :    0.136293
  21 H :    0.133942
  22 H :    0.140920

  Mayer bond orders larger than 0.1
B(  0-C ,  1-C ) :   0.9035 B(  0-C ,  9-H ) :   0.9302 B(  0-C , 10-H ) :   0.9326
B(  0-C , 11-H ) :   0.9396 B(  1-C ,  2-C ) :   0.9195 B(  1-C ,  4-C ) :   0.8764
B(  1-C , 12-H ) :   0.9299 B(  2-C ,  3-O ) :   1.0186 B(  2-C , 13-H ) :   0.9217
B(  2-C , 14-H ) :   0.9330 B(  3-O , 15-H ) :   0.8480 B(  4-C ,  5-C ) :   1.7394
B(  4-C ,  8-C ) :   0.9059 B(  5-C ,  6-C ) :   0.9433 B(  5-C , 16-H ) :   0.9236
B(  6-C ,  7-C ) :   0.9507 B(  6-C , 17-H ) :   0.9089 B(  6-C , 18-H ) :   0.9335
B(  7-C ,  8-C ) :   0.9511 B(  7-C , 19-H ) :   0.9406 B(  7-C , 20-H ) :   0.9318
B(  8-C , 21-H ) :   0.9285 B(  8-C , 22-H ) :   0.9107

MP2 TOTAL ENERGY:     -387.629349897 Eh
FINAL SINGLE POINT ENERGY      -387.629349896704

DIPOLE MOMENT
-------------
                                X             Y             Z
Electronic contribution:     -2.16111      -1.57287      -2.33991
Nuclear contribution   :      2.66950       1.29744       2.24369
                        -----------------------------------------
Total Dipole Moment    :      0.50839      -0.27543      -0.09622
                        -----------------------------------------
Magnitude (a.u.)       :      0.58616
Magnitude (Debye)      :      1.48990

                             ****ORCA TERMINATED NORMALLY****
TOTAL RUN TIME: 0 days 0 hours 20 minutes 9 seconds 696 msec
