                         Program Version 3.0.3 - RELEASE   -
|  1> ! RI-MP2 RIJK def2-TZVP def2-TZVP/C def2-TZVP/JK TIGHTSCF
|  2> % maxcore 2000
|  3> % mp2 density relaxed end
|  4> *xyz 0 1
|  5>  O        0.1523643487     1.3595352960    -0.0566437934
|  6>  C        0.0848567936    -0.0355405603    -0.0390405408
|  7>  C       -1.3514798415    -0.5044381905     0.1047299484
|  8>  O       -2.2589525230     0.2927912015     0.1874787862
|  9>  C       -1.5925157741    -1.9830194140     0.1391456024
| 10>  N       -0.6617194032    -2.8467879927     0.0538422251
| 11>  C       -1.3185108387    -4.1613214447     0.1272534426
| 12>  C       -2.8288074830    -3.8350764436     0.2748414342
| 13>  O       -2.8738012615    -2.3862555186     0.2678881824
| 14>  H       -0.7628008790     1.6679734900     0.0310379844
| 15>  H        0.5007783169    -0.4759946192    -0.9581020478
| 16>  H        0.6711819222    -0.4622828439     0.7891034882
| 17>  H       -1.0926761974    -4.7351320007    -0.7771920632
| 18>  H       -0.9189396728    -4.7242557381     0.9767581009
| 19>  H       -3.4397374396    -4.1966995370    -0.5558499649
| 20>  H       -3.2634017277    -4.1826974543     1.2152745753
| 21> *
| 22>
| 23>                          ****END OF INPUT****

CARTESIAN COORDINATES (ANGSTROEM)
---------------------------------
  O      0.152364    1.359535   -0.056644
  C      0.084857   -0.035541   -0.039041
  C     -1.351480   -0.504438    0.104730
  O     -2.258953    0.292791    0.187479
  C     -1.592516   -1.983019    0.139146
  N     -0.661719   -2.846788    0.053842
  C     -1.318511   -4.161321    0.127253
  C     -2.828807   -3.835076    0.274841
  O     -2.873801   -2.386256    0.267888
  H     -0.762801    1.667973    0.031038
  H      0.500778   -0.475995   -0.958102
  H      0.671182   -0.462283    0.789103
  H     -1.092676   -4.735132   -0.777192
  H     -0.918940   -4.724256    0.976758
  H     -3.439737   -4.196700   -0.555850
  H     -3.263402   -4.182697    1.215275

 Total Charge           Charge          ....    0
 Multiplicity           Mult            ....    1
 Number of Electrons    NEL             ....   68
 Basis Dimension        Dim             ....  321

ORBITAL ENERGIES
----------------

  NO   OCC          E(Eh)            E(eV)
   0   2.0000     -20.612500      -560.8947
   1   2.0000     -20.584809      -560.1411
   2   2.0000     -20.558036      -559.4126
   3   2.0000     -15.583193      -424.0402
   4   2.0000     -11.362574      -309.1913
   5   2.0000     -11.359335      -309.1032
   6   2.0000     -11.310538      -307.7754
   7   2.0000     -11.295093      -307.3551
   8   2.0000     -11.284230      -307.0595
   9   2.0000      -1.463441       -39.8223
  10   2.0000      -1.426844       -38.8264
  11   2.0000      -1.364669       -37.1345
  12   2.0000      -1.242438       -33.8085
  13   2.0000      -1.064833       -28.9756
  14   2.0000      -0.991280       -26.9741
  15   2.0000      -0.882944       -24.0261
  16   2.0000      -0.871554       -23.7162
  17   2.0000      -0.766926       -20.8691
  18   2.0000      -0.737305       -20.0631
  19   2.0000      -0.709795       -19.3145
  20   2.0000      -0.697107       -18.9692
  21   2.0000      -0.656407       -17.8617
  22   2.0000      -0.638581       -17.3767
  23   2.0000      -0.627279       -17.0691
  24   2.0000      -0.597137       -16.2489
  25   2.0000      -0.591319       -16.0906
  26   2.0000      -0.567103       -15.4317
  27   2.0000      -0.548228       -14.9180
  28   2.0000      -0.538490       -14.6531
  29   2.0000      -0.525208       -14.2916
  30   2.0000      -0.476423       -12.9641
  31   2.0000      -0.456163       -12.4128
  32   2.0000      -0.449231       -12.2242
  33   2.0000      -0.402604       -10.9554
  34   0.0000       0.069269         1.8849
  35   0.0000       0.126299         3.4368
  36   0.0000       0.153639         4.1807
  37   0.0000       0.173425         4.7191
  38   0.0000       0.176120         4.7925

MULLIKEN ATOMIC CHARGES
-----------------------
   0 O :   -0.478435
   1 C :    0.005190
   2 C :    0.153761
   3 O :   -0.286032
   4 C :    0.205916
   5 N :   -0.260768
   6 C :   -0.150860
   7 C :   -0.061720
   8 O :   -0.242034
   9 H :    0.335599
  10 H :    0.128601
  11 H :    0.128528
  12 H :    0.135276
  13 H :    0.135351
  14 H :    0.125874
  15 H :    0.125755
Sum of atomic charges:   -0.0000000

LOEWDIN ATOMIC CHARGES
----------------------
   0 O :   -0.032203
   1 C :   -0.327920
   2 C :   -0.290993
   3 O :    0.172856
   4 C :   -0.359817
   5 N :    0.111668
   6 C :   -0.271554
   7 C :   -0.249377
   8 O :    0.255174
   9 H :    0.181234
  10 H :    0.142772
  11 H :    0.142751
  12 H :    0.135400
  13 H :    0.135397
  14 H :    0.127314
  15 H :    0.127299

  Mayer bond orders larger than 0.1
B(  0-O ,  1-C ) :   1.0096 B(  0-O ,  9-H ) :   0.8082 B(  1-C ,  2-C ) :   0.9926
B(  1-C , 10-H ) :   0.8986 B(  1-C , 11-H ) :   0.8985 B(  2-C ,  3-O ) :   1.9201
B(  2-C ,  4-C ) :   0.8637 B(  4-C ,  5-N ) :   1.7923 B(  4-C ,  8-O ) :   1.1355
B(  5-N ,  6-C ) :   0.9177 B(  6-C ,  7-C ) :   0.9412 B(  6-C , 12-H ) :   0.9247
B(  6-C , 13-H ) :   0.9247 B(  7-C ,  8-O ) :   0.8581 B(  7-C , 14-H ) :   0.9263
B(  7-C , 15-H ) :   0.9263

MP2 TOTAL ENERGY:     -474.288231032 Eh
FINAL SINGLE POINT ENERGY      -474.288231032025

DIPOLE MOMENT
-------------
                                X             Y             Z
Electronic contribution:     -1.80000       4.37644       0.14318
Nuclear contribution   :      1.43121      -6.07334      -0.09379
                        -----------------------------------------
Total Dipole Moment    :     -0.36879      -1.69689       0.04940
                        -----------------------------------------
Magnitude (a.u.)       :      1.73721
Magnitude (Debye)      :      4.41563

                             ****ORCA TERMINATED NORMALLY****
TOTAL RUN TIME: 0 days 0 hours 13 minutes 52 seconds 698 msec
