                         Program Version 3.0.3 - RELEASE   -
|  1> ! RI-MP2 RIJK def2-TZVP def2-TZVP/C def2-TZVP/JK TIGHTSCF
|  2> % maxcore 2000
|  3> % mp2 density relaxed end
|  4> *xyz 0 1
|  5>  C        0.3140448677     1.0176056875     0.8037619845
|  6>  O       -0.1376870512     0.3047369088    -0.3327539914
|  7>  C       -1.3497546730    -0.3510951396    -0.1288858309
|  8>  C       -1.6004525357    -1.5617452528    -0.9652009284
|  9>  C       -1.3504621004    -1.7101796704     0.5240600419
| 10>  C        1.6372297731     1.6662085252     0.4421147244
| 11>  C        1.6004426721     2.9183822616    -0.4591150875
| 12>  C        2.2160599882     3.6346955306     0.7599105962
| 13>  O        2.1615447967     2.4274001643     1.5531681366
| 14>  H       -0.4129503573     1.7917185826     1.0992089284
| 15>  H        0.4530327522     0.3466099663     1.6652905089
| 16>  H       -2.1873850852     0.3150022974     0.0838624385
| 17>  H       -2.5999300172    -1.7277926123    -1.3507007270
| 18>  H       -0.7988351133    -1.8603803403    -1.6308451536
| 19>  H       -0.3871430724    -2.1097690126     0.8208651767
| 20>  H       -2.1767113074    -1.9804115145     1.1722954192
| 21>  H        2.3426682692     0.8913937153     0.1140467609
| 22>  H        2.2233317816     2.8784068982    -1.3530591758
| 23>  H        0.5960809478     3.2438198722    -0.7362803313
| 24>  H        3.2466769306     3.9867740244     0.6280214724
| 25>  H        1.6220751738     4.4420421480     1.2044046671
| 26> *
| 27>
| 28>                          ****END OF INPUT****

CARTESIAN COORDINATES (ANGSTROEM)
---------------------------------
  C      0.314045    1.017606    0.803762
  O     -0.137687    0.304737   -0.332754
  C     -1.349755   -0.351095   -0.128886
  C     -1.600453   -1.561745   -0.965201
  C     -1.350462   -1.710180    0.524060
  C      1.637230    1.666209    0.442115
  C      1.600443    2.918382   -0.459115
  C      2.216060    3.634696    0.759911
  O      2.161545    2.427400    1.553168
  H     -0.412950    1.791719    1.099209
  H      0.453033    0.346610    1.665291
  H     -2.187385    0.315002    0.083862
  H     -2.599930   -1.727793   -1.350701
  H     -0.798835   -1.860380   -1.630845
  H     -0.387143   -2.109769    0.820865
  H     -2.176711   -1.980412    1.172295
  H      2.342668    0.891394    0.114047
  H      2.223332    2.878407   -1.353059
  H      0.596081    3.243820   -0.736280
  H      3.246677    3.986774    0.628021
  H      1.622075    4.442042    1.204405

 Total Charge           Charge          ....    0
 Multiplicity           Mult            ....    1
 Number of Electrons    NEL             ....   70
 Basis Dimension        Dim             ....  351

ORBITAL ENERGIES
----------------

  NO   OCC          E(Eh)            E(eV)
   0   2.0000     -20.563063      -559.5494
   1   2.0000     -20.545509      -559.0717
   2   2.0000     -11.282936      -307.0243
   3   2.0000     -11.279983      -306.9439
   4   2.0000     -11.277431      -306.8745
   5   2.0000     -11.273771      -306.7749
   6   2.0000     -11.227034      -305.5031
   7   2.0000     -11.226260      -305.4821
   8   2.0000     -11.225541      -305.4625
   9   2.0000      -1.389859       -37.8200
  10   2.0000      -1.373772       -37.3822
  11   2.0000      -1.131275       -30.7836
  12   2.0000      -1.020059       -27.7572
  13   2.0000      -0.983565       -26.7642
  14   2.0000      -0.873224       -23.7616
  15   2.0000      -0.827810       -22.5259
  16   2.0000      -0.805962       -21.9313
  17   2.0000      -0.759238       -20.6599
  18   2.0000      -0.700114       -19.0511
  19   2.0000      -0.687233       -18.7006
  20   2.0000      -0.669763       -18.2252
  21   2.0000      -0.652118       -17.7450
  22   2.0000      -0.619903       -16.8684
  23   2.0000      -0.598505       -16.2861
  24   2.0000      -0.577523       -15.7152
  25   2.0000      -0.555875       -15.1261
  26   2.0000      -0.537316       -14.6211
  27   2.0000      -0.524027       -14.2595
  28   2.0000      -0.516106       -14.0440
  29   2.0000      -0.473369       -12.8810
  30   2.0000      -0.461819       -12.5667
  31   2.0000      -0.447761       -12.1842
  32   2.0000      -0.422997       -11.5103
  33   2.0000      -0.409023       -11.1301
  34   2.0000      -0.395672       -10.7668
  35   0.0000       0.144525         3.9327
  36   0.0000       0.157732         4.2921
  37   0.0000       0.159380         4.3370
  38   0.0000       0.170986         4.6528
  39   0.0000       0.181229         4.9315

MULLIKEN ATOMIC CHARGES
-----------------------
   0 C :   -0.103514
   1 O :   -0.293940
   2 C :    0.019954
   3 C :   -0.250533
   4 C :   -0.266268
   5 C :    0.185911
   6 C :   -0.311703
   7 C :   -0.009053
   8 O :   -0.346641
   9 H :    0.096051
  10 H :    0.109412
  11 H :    0.100286
  12 H :    0.129912
  13 H :    0.136720
  14 H :    0.135058
  15 H :    0.128681
  16 H :    0.088818
  17 H :    0.128894
  18 H :    0.128100
  19 H :    0.096696
  20 H :    0.097160
Sum of atomic charges:   -0.0000000

LOEWDIN ATOMIC CHARGES
----------------------
   0 C :   -0.300913
   1 O :    0.196350
   2 C :   -0.325306
   3 C :   -0.226712
   4 C :   -0.236619
   5 C :   -0.284503
   6 C :   -0.228426
   7 C :   -0.272177
   8 O :    0.129993
   9 H :    0.123263
  10 H :    0.126940
  11 H :    0.131434
  12 H :    0.131449
  13 H :    0.138647
  14 H :    0.136200
  15 H :    0.129409
  16 H :    0.135694
  17 H :    0.130762
  18 H :    0.134256
  19 H :    0.115489
  20 H :    0.114769

  Mayer bond orders larger than 0.1
B(  0-C ,  1-O ) :   0.9079 B(  0-C ,  5-C ) :   0.9604 B(  0-C ,  9-H ) :   0.9165
B(  0-C , 10-H ) :   0.9239 B(  1-O ,  2-C ) :   0.9861 B(  2-C ,  3-C ) :   0.9003
B(  2-C ,  4-C ) :   0.8916 B(  2-C , 11-H ) :   0.9335 B(  3-C ,  4-C ) :   0.9080
B(  3-C , 12-H ) :   0.9257 B(  3-C , 13-H ) :   0.9228 B(  4-C , 14-H ) :   0.9238
B(  4-C , 15-H ) :   0.9211 B(  5-C ,  6-C ) :   0.9078 B(  5-C ,  8-O ) :   0.9172
B(  5-C , 16-H ) :   0.9072 B(  6-C ,  7-C ) :   0.9780 B(  6-C , 17-H ) :   0.9289
B(  6-C , 18-H ) :   0.9274 B(  7-C ,  8-O ) :   0.9401 B(  7-C , 19-H ) :   0.9200
B(  7-C , 20-H ) :   0.9156

MP2 TOTAL ENERGY:     -423.462579620 Eh
FINAL SINGLE POINT ENERGY      -423.462579619612

DIPOLE MOMENT
-------------
                                X             Y             Z
Electronic contribution:      2.34043       1.21460       0.97183
Nuclear contribution   :     -2.74191      -1.06867      -1.27606
                        -----------------------------------------
Total Dipole Moment    :     -0.40148       0.14594      -0.30423
                        -----------------------------------------
Magnitude (a.u.)       :      0.52444
Magnitude (Debye)      :      1.33301

                             ****ORCA TERMINATED NORMALLY****
TOTAL RUN TIME: 0 days 0 hours 14 minutes 38 seconds 834 msec
