                         Program Version 3.0.3 - RELEASE   -
|  1> ! RI-MP2 RIJK def2-TZVP def2-TZVP/C def2-TZVP/JK TIGHTSCF
|  2> % maxcore 2000
|  3> % mp2 density relaxed end
|  4> *xyz 0 1
|  5>  C        0.0820557761     1.7315504825    -0.1012956078
|  6>  C       -0.3195724187     0.2718208906    -0.3423051328
|  7>  C        0.7121991707    -0.4916217495    -1.1649264135
|  8>  C        2.1075990304    -0.7945016053    -0.5491053856
|  9>  C        2.0834333470    -2.1743625488    -1.2578789291
| 10>  C        0.5433719001    -2.0234940779    -1.4533504895
| 11>  C       -0.2975278194    -2.8140698666    -0.4478391668
| 12>  C       -0.3357508407    -4.3143137646    -0.7581404569
| 13>  H        1.0386349483     1.7965119308     0.4285357989
| 14>  H        0.1924106168     2.2729262760    -1.0476913470
| 15>  H       -0.6665734921     2.2583679429     0.4987115182
| 16>  H       -0.4676373314    -0.2268436010     0.6237032842
| 17>  H       -1.2911025706     0.2412375042    -0.8539314593
| 18>  H        0.8505964095     0.0271893068    -2.1222579022
| 19>  H        2.9294564825    -0.1157307781    -0.7900545913
| 20>  H        2.0543482809    -0.8927220115     0.5403544471
| 21>  H        2.6250645950    -2.1592319746    -2.2076934799
| 22>  H        2.4278478931    -3.0380949796    -0.6819194673
| 23>  H        0.1827388059    -2.2516713187    -2.4630173957
| 24>  H        0.0922075799    -2.6630473634     0.5675258978
| 25>  H       -1.3225017627    -2.4221803492    -0.4407964571
| 26>  H       -0.7748597143    -4.5002834292    -1.7447869220
| 27>  H        0.6692482607    -4.7496227789    -0.7584019683
| 28>  H       -0.9325254070    -4.8588776969    -0.0195965141
| 29> *
| 30>
| 31>                          ****END OF INPUT****

CARTESIAN COORDINATES (ANGSTROEM)
---------------------------------
  C      0.082056    1.731550   -0.101296
  C     -0.319572    0.271821   -0.342305
  C      0.712199   -0.491622   -1.164926
  C      2.107599   -0.794502   -0.549105
  C      2.083433   -2.174363   -1.257879
  C      0.543372   -2.023494   -1.453350
  C     -0.297528   -2.814070   -0.447839
  C     -0.335751   -4.314314   -0.758140
  H      1.038635    1.796512    0.428536
  H      0.192411    2.272926   -1.047691
  H     -0.666573    2.258368    0.498712
  H     -0.467637   -0.226844    0.623703
  H     -1.291103    0.241238   -0.853931
  H      0.850596    0.027189   -2.122258
  H      2.929456   -0.115731   -0.790055
  H      2.054348   -0.892722    0.540354
  H      2.625065   -2.159232   -2.207693
  H      2.427848   -3.038095   -0.681919
  H      0.182739   -2.251671   -2.463017
  H      0.092208   -2.663047    0.567526
  H     -1.322502   -2.422180   -0.440796
  H     -0.774860   -4.500283   -1.744787
  H      0.669248   -4.749623   -0.758402
  H     -0.932525   -4.858878   -0.019597

 Total Charge           Charge          ....    0
 Multiplicity           Mult            ....    1
 Number of Electrons    NEL             ....   64
 Basis Dimension        Dim             ....  344

ORBITAL ENERGIES
----------------

  NO   OCC          E(Eh)            E(eV)
   0   2.0000     -11.217657      -305.2480
   1   2.0000     -11.217028      -305.2309
   2   2.0000     -11.214703      -305.1676
   3   2.0000     -11.213272      -305.1286
   4   2.0000     -11.212322      -305.1028
   5   2.0000     -11.211517      -305.0809
   6   2.0000     -11.209175      -305.0172
   7   2.0000     -11.209046      -305.0137
   8   2.0000      -1.133057       -30.8321
   9   2.0000      -1.034187       -28.1417
  10   2.0000      -1.012752       -27.5584
  11   2.0000      -0.901452       -24.5298
  12   2.0000      -0.889494       -24.2044
  13   2.0000      -0.822426       -22.3793
  14   2.0000      -0.804868       -21.9016
  15   2.0000      -0.710949       -19.3459
  16   2.0000      -0.660202       -17.9650
  17   2.0000      -0.625121       -17.0104
  18   2.0000      -0.603657       -16.4263
  19   2.0000      -0.588643       -16.0178
  20   2.0000      -0.561520       -15.2797
  21   2.0000      -0.552217       -15.0266
  22   2.0000      -0.537904       -14.6371
  23   2.0000      -0.510805       -13.8997
  24   2.0000      -0.500160       -13.6101
  25   2.0000      -0.493535       -13.4298
  26   2.0000      -0.488134       -13.2828
  27   2.0000      -0.479569       -13.0497
  28   2.0000      -0.450612       -12.2618
  29   2.0000      -0.429903       -11.6982
  30   2.0000      -0.411808       -11.2059
  31   2.0000      -0.408483       -11.1154
  32   0.0000       0.135589         3.6896
  33   0.0000       0.148742         4.0475
  34   0.0000       0.153758         4.1840
  35   0.0000       0.164284         4.4704
  36   0.0000       0.180837         4.9208

MULLIKEN ATOMIC CHARGES
-----------------------
   0 C :   -0.389112
   1 C :   -0.220408
   2 C :   -0.054745
   3 C :   -0.279558
   4 C :   -0.230765
   5 C :   -0.005494
   6 C :   -0.270960
   7 C :   -0.387458
   8 H :    0.127598
   9 H :    0.121691
  10 H :    0.132753
  11 H :    0.107353
  12 H :    0.109346
  13 H :    0.089165
  14 H :    0.117077
  15 H :    0.109389
  16 H :    0.113809
  17 H :    0.109528
  18 H :    0.094285
  19 H :    0.114286
  20 H :    0.113627
  21 H :    0.121818
  22 H :    0.124114
  23 H :    0.132663
Sum of atomic charges:    0.0000000

LOEWDIN ATOMIC CHARGES
----------------------
   0 C :   -0.316588
   1 C :   -0.282712
   2 C :   -0.218252
   3 C :   -0.225104
   4 C :   -0.223098
   5 C :   -0.210805
   6 C :   -0.277330
   7 C :   -0.317304
   8 H :    0.121441
   9 H :    0.120240
  10 H :    0.119602
  11 H :    0.136645
  12 H :    0.136703
  13 H :    0.151218
  14 H :    0.121901
  15 H :    0.133283
  16 H :    0.132230
  17 H :    0.123862
  18 H :    0.139168
  19 H :    0.137334
  20 H :    0.137445
  21 H :    0.120441
  22 H :    0.119810
  23 H :    0.119871

  Mayer bond orders larger than 0.1
B(  0-C ,  1-C ) :   0.9154 B(  0-C ,  8-H ) :   0.9395 B(  0-C ,  9-H ) :   0.9403
B(  0-C , 10-H ) :   0.9426 B(  1-C ,  2-C ) :   0.9104 B(  1-C , 11-H ) :   0.9309
B(  1-C , 12-H ) :   0.9384 B(  2-C ,  3-C ) :   0.9346 B(  2-C ,  5-C ) :   0.9025
B(  2-C , 13-H ) :   0.9239 B(  3-C ,  4-C ) :   0.9443 B(  3-C , 14-H ) :   0.9271
B(  3-C , 15-H ) :   0.9225 B(  4-C ,  5-C ) :   0.9039 B(  4-C , 16-H ) :   0.9244
B(  4-C , 17-H ) :   0.9252 B(  5-C ,  6-C ) :   0.9098 B(  5-C , 18-H ) :   0.9217
B(  6-C ,  7-C ) :   0.9194 B(  6-C , 19-H ) :   0.9319 B(  6-C , 20-H ) :   0.9368
B(  7-C , 21-H ) :   0.9391 B(  7-C , 22-H ) :   0.9414 B(  7-C , 23-H ) :   0.9434

MP2 TOTAL ENERGY:     -313.692171206 Eh
FINAL SINGLE POINT ENERGY      -313.692171206414

DIPOLE MOMENT
-------------
                                X             Y             Z
Electronic contribution:      1.18327       0.06616      -1.36172
Nuclear contribution   :     -1.24057      -0.05149       1.34830
                        -----------------------------------------
Total Dipole Moment    :     -0.05730       0.01468      -0.01342
                        -----------------------------------------
Magnitude (a.u.)       :      0.06065
Magnitude (Debye)      :      0.15417

                             ****ORCA TERMINATED NORMALLY****
TOTAL RUN TIME: 0 days 0 hours 14 minutes 55 seconds 757 msec
