                         Program Version 3.0.3 - RELEASE   -
|  1> ! RI-MP2 RIJK def2-TZVP def2-TZVP/C def2-TZVP/JK TIGHTSCF
|  2> % maxcore 2000
|  3> % mp2 density relaxed end
|  4> *xyz 0 1
|  5>  C       -0.0419551376     1.6053513031    -0.0628212419
|  6>  C        0.0056467720     0.0689342227    -0.0220818364
|  7>  C        0.6902199028    -0.5038622582    -1.2406857548
|  8>  C        1.9241868466    -0.9997233616    -1.1966186871
|  9>  C        2.7368363417    -1.0075240594     0.0665024592
| 10>  O        2.1491886639    -0.2417469650     1.1090028571
| 11>  C        0.7555340476    -0.4789782151     1.2158597423
| 12>  C        0.2915115264     0.1232581245     2.4731871628
| 13>  N       -0.1172497755     0.5819197458     3.4509694843
| 14>  H        0.9702293356     2.0148270526    -0.0073898850
| 15>  H       -0.4974574553     1.9476514420    -0.9965824560
| 16>  H       -0.6266061463     2.0056209975     0.7701613429
| 17>  H       -1.0223406188    -0.3145675072     0.0211448230
| 18>  H        0.1329689597    -0.4860038793    -2.1733240481
| 19>  H        2.3942968959    -1.4272757043    -2.0779067777
| 20>  H        2.9073764091    -2.0453861485     0.4053378420
| 21>  H        3.7238440985    -0.5631105802    -0.1029830665
| 22>  H        0.5628714736    -1.5624502792     1.2852163397
| 23> *
| 24>
| 25>                          ****END OF INPUT****

CARTESIAN COORDINATES (ANGSTROEM)
---------------------------------
  C     -0.041955    1.605351   -0.062821
  C      0.005647    0.068934   -0.022082
  C      0.690220   -0.503862   -1.240686
  C      1.924187   -0.999723   -1.196619
  C      2.736836   -1.007524    0.066502
  O      2.149189   -0.241747    1.109003
  C      0.755534   -0.478978    1.215860
  C      0.291512    0.123258    2.473187
  N     -0.117250    0.581920    3.450969
  H      0.970229    2.014827   -0.007390
  H     -0.497457    1.947651   -0.996582
  H     -0.626606    2.005621    0.770161
  H     -1.022341   -0.314568    0.021145
  H      0.132969   -0.486004   -2.173324
  H      2.394297   -1.427276   -2.077907
  H      2.907376   -2.045386    0.405338
  H      3.723844   -0.563111   -0.102983
  H      0.562871   -1.562450    1.285216

 Total Charge           Charge          ....    0
 Multiplicity           Mult            ....    1
 Number of Electrons    NEL             ....   66
 Basis Dimension        Dim             ....  333

ORBITAL ENERGIES
----------------

  NO   OCC          E(Eh)            E(eV)
   0   2.0000     -20.585985      -560.1731
   1   2.0000     -15.574041      -423.7912
   2   2.0000     -11.338942      -308.5483
   3   2.0000     -11.301848      -307.5389
   4   2.0000     -11.272907      -306.7514
   5   2.0000     -11.262762      -306.4753
   6   2.0000     -11.250082      -306.1303
   7   2.0000     -11.248326      -306.0825
   8   2.0000     -11.227256      -305.5092
   9   2.0000      -1.411621       -38.4122
  10   2.0000      -1.220289       -33.2057
  11   2.0000      -1.122041       -30.5323
  12   2.0000      -1.074795       -29.2467
  13   2.0000      -0.976061       -26.5600
  14   2.0000      -0.921927       -25.0869
  15   2.0000      -0.865457       -23.5503
  16   2.0000      -0.755888       -20.5688
  17   2.0000      -0.733699       -19.9650
  18   2.0000      -0.691078       -18.8052
  19   2.0000      -0.678957       -18.4754
  20   2.0000      -0.624331       -16.9889
  21   2.0000      -0.618007       -16.8168
  22   2.0000      -0.593722       -16.1560
  23   2.0000      -0.583527       -15.8786
  24   2.0000      -0.558451       -15.1962
  25   2.0000      -0.544560       -14.8182
  26   2.0000      -0.536498       -14.5988
  27   2.0000      -0.504524       -13.7288
  28   2.0000      -0.495048       -13.4709
  29   2.0000      -0.473424       -12.8825
  30   2.0000      -0.467280       -12.7153
  31   2.0000      -0.434103       -11.8125
  32   2.0000      -0.374562       -10.1923
  33   0.0000       0.122103         3.3226
  34   0.0000       0.133334         3.6282
  35   0.0000       0.152611         4.1528
  36   0.0000       0.157166         4.2767
  37   0.0000       0.163272         4.4429

MULLIKEN ATOMIC CHARGES
-----------------------
   0 C :   -0.435156
   1 C :    0.046486
   2 C :   -0.236234
   3 C :   -0.170264
   4 C :   -0.041388
   5 O :   -0.296120
   6 C :    0.133765
   7 C :   -0.146922
   8 N :   -0.049748
   9 H :    0.146490
  10 H :    0.135820
  11 H :    0.154237
  12 H :    0.113027
  13 H :    0.133602
  14 H :    0.132625
  15 H :    0.118208
  16 H :    0.141550
  17 H :    0.120023
Sum of atomic charges:   -0.0000000

LOEWDIN ATOMIC CHARGES
----------------------
   0 C :   -0.275869
   1 C :   -0.238413
   2 C :   -0.143727
   3 C :   -0.172273
   4 C :   -0.294971
   5 O :    0.198138
   6 C :   -0.283487
   7 C :   -0.153948
   8 N :    0.074850
   9 H :    0.132195
  10 H :    0.127288
  11 H :    0.130832
  12 H :    0.164640
  13 H :    0.147349
  14 H :    0.147361
  15 H :    0.131326
  16 H :    0.142046
  17 H :    0.166661

  Mayer bond orders larger than 0.1
B(  0-C ,  1-C ) :   0.8830 B(  0-C ,  9-H ) :   0.9321 B(  0-C , 10-H ) :   0.9346
B(  0-C , 11-H ) :   0.9294 B(  1-C ,  2-C ) :   0.9062 B(  1-C ,  6-C ) :   0.9166
B(  1-C , 12-H ) :   0.9115 B(  2-C ,  3-C ) :   1.8139 B(  2-C , 13-H ) :   0.9274
B(  3-C ,  4-C ) :   0.9431 B(  3-C , 14-H ) :   0.9151 B(  4-C ,  5-O ) :   0.9248
B(  4-C , 15-H ) :   0.9373 B(  4-C , 16-H ) :   0.9157 B(  5-O ,  6-C ) :   0.9531
B(  6-C ,  7-C ) :   0.8896 B(  6-C , 17-H ) :   0.9218 B(  7-C ,  8-N ) :   2.8633

MP2 TOTAL ENERGY:     -401.268613742 Eh
FINAL SINGLE POINT ENERGY      -401.268613741913

DIPOLE MOMENT
-------------
                                X             Y             Z
Electronic contribution:      0.29109      -1.09540       6.34909
Nuclear contribution   :     -0.04576       0.31543      -8.02334
                        -----------------------------------------
Total Dipole Moment    :      0.24534      -0.77997      -1.67425
                        -----------------------------------------
Magnitude (a.u.)       :      1.86324
Magnitude (Debye)      :      4.73597

                             ****ORCA TERMINATED NORMALLY****
TOTAL RUN TIME: 0 days 0 hours 18 minutes 2 seconds 404 msec
