                         Program Version 3.0.3 - RELEASE   -
|  1> ! RI-MP2 RIJK def2-TZVP def2-TZVP/C def2-TZVP/JK TIGHTSCF
|  2> % maxcore 2000
|  3> % mp2 density relaxed end
|  4> *xyz 0 1
|  5>  N       -0.0850800339     1.3385336126     0.0257951273
|  6>  C        0.0508589658    -0.0380602612     0.0006746121
|  7>  O        1.1064754072    -0.5974804008    -0.2284708846
|  8>  N       -1.1032430155    -0.7220933055     0.3386764135
|  9>  C       -1.1616735921    -2.1340221162     0.1974238233
| 10>  C       -2.1678287492    -2.9497322692     0.9329953270
| 11>  C       -2.3054616740    -2.7987116461    -0.5857672609
| 12>  C       -3.3431008734    -1.9485959240    -1.0860149090
| 13>  N       -4.1514679594    -1.2073648301    -1.4578076264
| 14>  H        0.7021231327     1.8163071028    -0.3845510901
| 15>  H       -0.9820473534     1.7450335791    -0.1921327368
| 16>  H       -1.9689045970    -0.2166211674     0.4436780241
| 17>  H       -0.1722772430    -2.5406218102     0.0322836916
| 18>  H       -1.8800035162    -3.9260862386     1.3052800286
| 19>  H       -2.9033595336    -2.4325628228     1.5393293099
| 20>  H       -2.0627631650    -3.6516350124    -1.2091701096
| 21> *
| 22>
| 23>                          ****END OF INPUT****

CARTESIAN COORDINATES (ANGSTROEM)
---------------------------------
  N     -0.085080    1.338534    0.025795
  C      0.050859   -0.038060    0.000675
  O      1.106475   -0.597480   -0.228471
  N     -1.103243   -0.722093    0.338676
  C     -1.161674   -2.134022    0.197424
  C     -2.167829   -2.949732    0.932995
  C     -2.305462   -2.798712   -0.585767
  C     -3.343101   -1.948596   -1.086015
  N     -4.151468   -1.207365   -1.457808
  H      0.702123    1.816307   -0.384551
  H     -0.982047    1.745034   -0.192133
  H     -1.968905   -0.216621    0.443678
  H     -0.172277   -2.540622    0.032284
  H     -1.880004   -3.926086    1.305280
  H     -2.903360   -2.432563    1.539329
  H     -2.062763   -3.651635   -1.209170

 Total Charge           Charge          ....    0
 Multiplicity           Mult            ....    1
 Number of Electrons    NEL             ....   66
 Basis Dimension        Dim             ....  321

ORBITAL ENERGIES
----------------

  NO   OCC          E(Eh)            E(eV)
   0   2.0000     -20.520630      -558.3947
   1   2.0000     -15.601849      -424.5479
   2   2.0000     -15.588970      -424.1974
   3   2.0000     -15.577430      -423.8834
   4   2.0000     -11.389611      -309.9271
   5   2.0000     -11.309506      -307.7473
   6   2.0000     -11.290572      -307.2321
   7   2.0000     -11.284515      -307.0673
   8   2.0000     -11.270370      -306.6823
   9   2.0000      -1.405061       -38.2337
  10   2.0000      -1.272189       -34.6180
  11   2.0000      -1.229737       -33.4628
  12   2.0000      -1.212341       -32.9895
  13   2.0000      -1.150237       -31.2995
  14   2.0000      -0.930143       -25.3105
  15   2.0000      -0.879658       -23.9367
  16   2.0000      -0.828374       -22.5412
  17   2.0000      -0.759482       -20.6666
  18   2.0000      -0.744386       -20.2558
  19   2.0000      -0.705947       -19.2098
  20   2.0000      -0.672050       -18.2874
  21   2.0000      -0.632206       -17.2032
  22   2.0000      -0.623652       -16.9704
  23   2.0000      -0.610890       -16.6232
  24   2.0000      -0.573280       -15.5997
  25   2.0000      -0.562084       -15.2951
  26   2.0000      -0.541823       -14.7437
  27   2.0000      -0.524196       -14.2641
  28   2.0000      -0.471492       -12.8299
  29   2.0000      -0.458114       -12.4659
  30   2.0000      -0.435517       -11.8510
  31   2.0000      -0.433527       -11.7969
  32   2.0000      -0.385458       -10.4888
  33   0.0000       0.115948         3.1551
  34   0.0000       0.132138         3.5956
  35   0.0000       0.147682         4.0186
  36   0.0000       0.157759         4.2928
  37   0.0000       0.167774         4.5654

MULLIKEN ATOMIC CHARGES
-----------------------
   0 N :   -0.520993
   1 C :    0.405383
   2 O :   -0.399738
   3 N :   -0.355588
   4 C :   -0.009469
   5 C :   -0.229629
   6 C :   -0.018906
   7 C :   -0.215895
   8 N :   -0.063176
   9 H :    0.270616
  10 H :    0.252296
  11 H :    0.235526
  12 H :    0.176287
  13 H :    0.154727
  14 H :    0.151119
  15 H :    0.167439
Sum of atomic charges:    0.0000000

LOEWDIN ATOMIC CHARGES
----------------------
   0 N :   -0.057130
   1 C :   -0.562015
   2 O :    0.056471
   3 N :    0.120637
   4 C :   -0.216354
   5 C :   -0.172169
   6 C :   -0.193493
   7 C :   -0.189984
   8 N :    0.055171
   9 H :    0.178815
  10 H :    0.167462
  11 H :    0.189751
  12 H :    0.166867
  13 H :    0.141970
  14 H :    0.145223
  15 H :    0.168779

  Mayer bond orders larger than 0.1
B(  0-N ,  1-C ) :   1.1036 B(  0-N ,  9-H ) :   0.8663 B(  0-N , 10-H ) :   0.8706
B(  1-C ,  2-O ) :   1.9080 B(  1-C ,  3-N ) :   1.0848 B(  3-N ,  4-C ) :   0.9355
B(  3-N , 11-H ) :   0.8675 B(  4-C ,  5-C ) :   0.8828 B(  4-C ,  6-C ) :   0.8178
B(  4-C , 12-H ) :   0.9201 B(  5-C ,  6-C ) :   0.8284 B(  5-C , 13-H ) :   0.9299
B(  5-C , 14-H ) :   0.9196 B(  6-C ,  7-C ) :   0.9857 B(  6-C , 15-H ) :   0.9057
B(  7-C ,  8-N ) :   2.8303

MP2 TOTAL ENERGY:     -433.384558432 Eh
FINAL SINGLE POINT ENERGY      -433.384558432232

DIPOLE MOMENT
-------------
                                X             Y             Z
Electronic contribution:     -0.61073       0.83549      -2.17054
Nuclear contribution   :      0.45018      -0.96833       2.69165
                        -----------------------------------------
Total Dipole Moment    :     -0.16054      -0.13284       0.52111
                        -----------------------------------------
Magnitude (a.u.)       :      0.56122
Magnitude (Debye)      :      1.42652

                             ****ORCA TERMINATED NORMALLY****
TOTAL RUN TIME: 0 days 0 hours 22 minutes 26 seconds 912 msec
