                         Program Version 3.0.3 - RELEASE   -
|  1> ! RI-MP2 RIJK def2-TZVP def2-TZVP/C def2-TZVP/JK TIGHTSCF
|  2> % maxcore 2000
|  3> % mp2 density relaxed end
|  4> *xyz 0 1
|  5>  C        0.0186462687     1.5319721319    -0.1766444087
|  6>  C        0.0054414177     0.0230543207    -0.0195575768
|  7>  O        0.6690352400    -0.5317811710    -1.1673283414
|  8>  C        0.7580259897    -1.8741116205    -1.2140178211
|  9>  N        0.2806018206    -2.6144306764    -0.2915449335
| 10>  C        1.4357690166    -2.3238708902    -2.3971419773
| 11>  C        1.9995677252    -2.7432903672    -3.3770883714
| 12>  C        2.6757828169    -3.2658176847    -4.5574105342
| 13>  C        2.5910193477    -4.7981520751    -4.6798411574
| 14>  H        1.0436177282     1.9097539511    -0.2293422620
| 15>  H       -0.5058737012     1.8339497544    -1.0875628252
| 16>  H       -0.4782247653     1.9985282395     0.6792059031
| 17>  H        0.5266489256    -0.3021807370     0.8869944461
| 18>  H       -1.0123500987    -0.3775397991     0.0338170784
| 19>  H        0.4473885585    -3.5942244896    -0.5085788041
| 20>  H        2.2453846306    -2.7970763501    -5.4516217619
| 21>  H        3.7276534294    -2.9532170081    -4.5321210311
| 22>  H        3.0492560647    -5.2835607892    -3.8141172570
| 23>  H        1.5500967887    -5.1264413897    -4.7407481811
| 24>  H        3.1123691765    -5.1349056398    -5.5803677833
| 25> *
| 26>
| 27>                          ****END OF INPUT****

CARTESIAN COORDINATES (ANGSTROEM)
---------------------------------
  C      0.018646    1.531972   -0.176644
  C      0.005441    0.023054   -0.019558
  O      0.669035   -0.531781   -1.167328
  C      0.758026   -1.874112   -1.214018
  N      0.280602   -2.614431   -0.291545
  C      1.435769   -2.323871   -2.397142
  C      1.999568   -2.743290   -3.377088
  C      2.675783   -3.265818   -4.557411
  C      2.591019   -4.798152   -4.679841
  H      1.043618    1.909754   -0.229342
  H     -0.505874    1.833950   -1.087563
  H     -0.478225    1.998528    0.679206
  H      0.526649   -0.302181    0.886994
  H     -1.012350   -0.377540    0.033817
  H      0.447389   -3.594224   -0.508579
  H      2.245385   -2.797076   -5.451622
  H      3.727653   -2.953217   -4.532121
  H      3.049256   -5.283561   -3.814117
  H      1.550097   -5.126441   -4.740748
  H      3.112369   -5.134906   -5.580368

 Total Charge           Charge          ....    0
 Multiplicity           Mult            ....    1
 Number of Electrons    NEL             ....   68
 Basis Dimension        Dim             ....  345

ORBITAL ENERGIES
----------------

  NO   OCC          E(Eh)            E(eV)
   0   2.0000     -20.587389      -560.2113
   1   2.0000     -15.537917      -422.8082
   2   2.0000     -11.356607      -309.0290
   3   2.0000     -11.277297      -306.8709
   4   2.0000     -11.263601      -306.4982
   5   2.0000     -11.251441      -306.1673
   6   2.0000     -11.234484      -305.7059
   7   2.0000     -11.234033      -305.6936
   8   2.0000     -11.216667      -305.2210
   9   2.0000      -1.425172       -38.7809
  10   2.0000      -1.197671       -32.5903
  11   2.0000      -1.092628       -29.7319
  12   2.0000      -1.036523       -28.2052
  13   2.0000      -1.008535       -27.4436
  14   2.0000      -0.903954       -24.5978
  15   2.0000      -0.870693       -23.6928
  16   2.0000      -0.804806       -21.8999
  17   2.0000      -0.746239       -20.3062
  18   2.0000      -0.674158       -18.3448
  19   2.0000      -0.667961       -18.1761
  20   2.0000      -0.660353       -17.9691
  21   2.0000      -0.635946       -17.3050
  22   2.0000      -0.569327       -15.4922
  23   2.0000      -0.567311       -15.4373
  24   2.0000      -0.560242       -15.2450
  25   2.0000      -0.541643       -14.7388
  26   2.0000      -0.534141       -14.5347
  27   2.0000      -0.523594       -14.2477
  28   2.0000      -0.501691       -13.6517
  29   2.0000      -0.490642       -13.3510
  30   2.0000      -0.454831       -12.3766
  31   2.0000      -0.425497       -11.5784
  32   2.0000      -0.390251       -10.6193
  33   2.0000      -0.370480       -10.0813
  34   0.0000       0.121185         3.2976
  35   0.0000       0.125831         3.4240
  36   0.0000       0.146645         3.9904
  37   0.0000       0.166212         4.5229
  38   0.0000       0.169454         4.6111

MULLIKEN ATOMIC CHARGES
-----------------------
   0 C :   -0.361805
   1 C :   -0.060975
   2 O :   -0.238012
   3 C :    0.043110
   4 N :   -0.405926
   5 C :    0.063773
   6 C :    0.066639
   7 C :   -0.294898
   8 C :   -0.367845
   9 H :    0.131292
  10 H :    0.131230
  11 H :    0.127865
  12 H :    0.119818
  13 H :    0.119950
  14 H :    0.225027
  15 H :    0.148629
  16 H :    0.148033
  17 H :    0.133110
  18 H :    0.134111
  19 H :    0.136873
Sum of atomic charges:    0.0000000

LOEWDIN ATOMIC CHARGES
----------------------
   0 C :   -0.316830
   1 C :   -0.309070
   2 O :    0.262571
   3 C :   -0.422533
   4 N :   -0.050520
   5 C :   -0.039866
   6 C :   -0.043737
   7 C :   -0.272965
   8 C :   -0.297297
   9 H :    0.124515
  10 H :    0.124504
  11 H :    0.126799
  12 H :    0.127811
  13 H :    0.127836
  14 H :    0.170900
  15 H :    0.157238
  16 H :    0.157310
  17 H :    0.125057
  18 H :    0.125301
  19 H :    0.122977

  Mayer bond orders larger than 0.1
B(  0-C ,  1-C ) :   0.9353 B(  0-C ,  9-H ) :   0.9340 B(  0-C , 10-H ) :   0.9340
B(  0-C , 11-H ) :   0.9364 B(  1-C ,  2-O ) :   0.8390 B(  1-C , 12-H ) :   0.9330
B(  1-C , 13-H ) :   0.9330 B(  2-O ,  3-C ) :   1.2131 B(  3-C ,  4-N ) :   1.9002
B(  3-C ,  5-C ) :   1.0394 B(  4-N , 14-H ) :   0.8646 B(  5-C ,  6-C ) :   2.6555
B(  6-C ,  7-C ) :   0.9472 B(  7-C ,  8-C ) :   0.9379 B(  7-C , 15-H ) :   0.9366
B(  7-C , 16-H ) :   0.9362 B(  8-C , 17-H ) :   0.9347 B(  8-C , 18-H ) :   0.9345
B(  8-C , 19-H ) :   0.9390

MP2 TOTAL ENERGY:     -402.430099592 Eh
FINAL SINGLE POINT ENERGY      -402.430099592169

DIPOLE MOMENT
-------------
                                X             Y             Z
Electronic contribution:     -0.76041      -0.30605       2.03104
Nuclear contribution   :      1.10942       0.10109      -2.65707
                        -----------------------------------------
Total Dipole Moment    :      0.34901      -0.20497      -0.62604
                        -----------------------------------------
Magnitude (a.u.)       :      0.74548
Magnitude (Debye)      :      1.89486

                             ****ORCA TERMINATED NORMALLY****
TOTAL RUN TIME: 0 days 0 hours 13 minutes 56 seconds 727 msec
