                         Program Version 3.0.3 - RELEASE   -
|  1> ! RI-MP2 RIJK def2-TZVP def2-TZVP/C def2-TZVP/JK TIGHTSCF
|  2> % maxcore 2000
|  3> % mp2 density relaxed end
|  4> *xyz 0 1
|  5>  O        0.0526197999     1.3434796273     0.3528690905
|  6>  C        0.0730152316     0.0021652615    -0.0837459046
|  7>  C       -1.3146289086    -0.5849468622    -0.1019640293
|  8>  N       -1.9922651475    -1.1003022068     1.1171181160
|  9>  C       -1.7240899812    -2.0063969616    -0.0129894349
| 10>  C       -2.9538125509    -2.2034736439    -0.8935321235
| 11>  N       -3.2269265877    -0.8534173525    -1.3739159779
| 12>  C       -2.3263784555     0.0960015102    -0.9983392734
| 13>  O       -2.3094584746     1.2679233314    -1.3353835905
| 14>  H       -0.6175703004     1.7860454214    -0.1913951881
| 15>  H        0.5157673640    -0.0923621576    -1.0894712719
| 16>  H        0.7130699801    -0.5603401428     0.6072635825
| 17>  H       -1.2807339722    -1.2380513925     1.8342015577
| 18>  H       -1.0108255482    -2.8155118104     0.0957020653
| 19>  H       -2.7386752607    -2.8856473329    -1.7256325740
| 20>  H       -3.7966280004    -2.6047323697    -0.3196155044
| 21>  H       -4.0523655279    -0.6069433089    -1.8961358794
| 22> *
| 23>
| 24>                          ****END OF INPUT****

CARTESIAN COORDINATES (ANGSTROEM)
---------------------------------
  O      0.052620    1.343480    0.352869
  C      0.073015    0.002165   -0.083746
  C     -1.314629   -0.584947   -0.101964
  N     -1.992265   -1.100302    1.117118
  C     -1.724090   -2.006397   -0.012989
  C     -2.953813   -2.203474   -0.893532
  N     -3.226927   -0.853417   -1.373916
  C     -2.326378    0.096002   -0.998339
  O     -2.309458    1.267923   -1.335384
  H     -0.617570    1.786045   -0.191395
  H      0.515767   -0.092362   -1.089471
  H      0.713070   -0.560340    0.607264
  H     -1.280734   -1.238051    1.834202
  H     -1.010826   -2.815512    0.095702
  H     -2.738675   -2.885647   -1.725633
  H     -3.796628   -2.604732   -0.319616
  H     -4.052366   -0.606943   -1.896136

 Total Charge           Charge          ....    0
 Multiplicity           Mult            ....    1
 Number of Electrons    NEL             ....   68
 Basis Dimension        Dim             ....  327

ORBITAL ENERGIES
----------------

  NO   OCC          E(Eh)            E(eV)
   0   2.0000     -20.547266      -559.1195
   1   2.0000     -20.532229      -558.7104
   2   2.0000     -15.594685      -424.3529
   3   2.0000     -15.584684      -424.0808
   4   2.0000     -11.359966      -309.1204
   5   2.0000     -11.292136      -307.2747
   6   2.0000     -11.291741      -307.2639
   7   2.0000     -11.291110      -307.2467
   8   2.0000     -11.285494      -307.0939
   9   2.0000      -1.397793       -38.0359
  10   2.0000      -1.356251       -36.9055
  11   2.0000      -1.309765       -35.6405
  12   2.0000      -1.232473       -33.5373
  13   2.0000      -1.004900       -27.3447
  14   2.0000      -0.989674       -26.9304
  15   2.0000      -0.915249       -24.9052
  16   2.0000      -0.832198       -22.6453
  17   2.0000      -0.777159       -21.1476
  18   2.0000      -0.731570       -19.9070
  19   2.0000      -0.692479       -18.8433
  20   2.0000      -0.675935       -18.3931
  21   2.0000      -0.648491       -17.6463
  22   2.0000      -0.637655       -17.3515
  23   2.0000      -0.616556       -16.7773
  24   2.0000      -0.590360       -16.0645
  25   2.0000      -0.577839       -15.7238
  26   2.0000      -0.569740       -15.5034
  27   2.0000      -0.540015       -14.6946
  28   2.0000      -0.503443       -13.6994
  29   2.0000      -0.492754       -13.4085
  30   2.0000      -0.445698       -12.1281
  31   2.0000      -0.439925       -11.9710
  32   2.0000      -0.407395       -11.0858
  33   2.0000      -0.395510       -10.7624
  34   0.0000       0.125491         3.4148
  35   0.0000       0.139379         3.7927
  36   0.0000       0.152907         4.1608
  37   0.0000       0.162232         4.4146
  38   0.0000       0.177858         4.8398

MULLIKEN ATOMIC CHARGES
-----------------------
   0 O :   -0.473657
   1 C :    0.030286
   2 C :    0.097127
   3 N :   -0.378428
   4 C :   -0.159892
   5 C :   -0.042263
   6 N :   -0.313409
   7 C :    0.216777
   8 O :   -0.386603
   9 H :    0.340352
  10 H :    0.105647
  11 H :    0.097441
  12 H :    0.223114
  13 H :    0.151884
  14 H :    0.119770
  15 H :    0.128841
  16 H :    0.243014
Sum of atomic charges:    0.0000000

LOEWDIN ATOMIC CHARGES
----------------------
   0 O :   -0.036860
   1 C :   -0.313802
   2 C :   -0.252869
   3 N :    0.044096
   4 C :   -0.224284
   5 C :   -0.238389
   6 N :    0.139021
   7 C :   -0.406942
   8 O :    0.072795
   9 H :    0.182407
  10 H :    0.129260
  11 H :    0.131764
  12 H :    0.175990
  13 H :    0.141511
  14 H :    0.132724
  15 H :    0.137428
  16 H :    0.186150

  Mayer bond orders larger than 0.1
B(  0-O ,  1-C ) :   0.9661 B(  0-O ,  9-H ) :   0.8111 B(  1-C ,  2-C ) :   0.9654
B(  1-C , 10-H ) :   0.9110 B(  1-C , 11-H ) :   0.9139 B(  2-C ,  3-N ) :   0.7969
B(  2-C ,  4-C ) :   0.8659 B(  2-C ,  7-C ) :   0.8879 B(  3-N ,  4-C ) :   1.0099
B(  3-N , 12-H ) :   0.8634 B(  4-C ,  5-C ) :   0.9330 B(  4-C , 13-H ) :   0.9142
B(  5-C ,  6-N ) :   0.8981 B(  5-C , 14-H ) :   0.9280 B(  5-C , 15-H ) :   0.9127
B(  6-N ,  7-C ) :   1.2586 B(  6-N , 16-H ) :   0.8641 B(  7-C ,  8-O ) :   1.8750

MP2 TOTAL ENERGY:     -454.429215393 Eh
FINAL SINGLE POINT ENERGY      -454.429215392856

DIPOLE MOMENT
-------------
                                X             Y             Z
Electronic contribution:     -1.63657       3.43175      -0.65064
Nuclear contribution   :      1.42131      -5.42352       0.24075
                        -----------------------------------------
Total Dipole Moment    :     -0.21526      -1.99177      -0.40989
                        -----------------------------------------
Magnitude (a.u.)       :      2.04487
Magnitude (Debye)      :      5.19766

                             ****ORCA TERMINATED NORMALLY****
TOTAL RUN TIME: 0 days 0 hours 17 minutes 4 seconds 26 msec
