                         Program Version 3.0.3 - RELEASE   -
|  1> ! RI-MP2 RIJK def2-TZVP def2-TZVP/C def2-TZVP/JK TIGHTSCF
|  2> % maxcore 2000
|  3> % mp2 density relaxed end
|  4> *xyz 0 1
|  5>  C       -0.0761019102     1.5504667341     0.0526929853
|  6>  C       -0.0283642705     0.0248377795     0.1371330582
|  7>  C       -1.4665831185    -0.5235989493     0.0810608604
|  8>  O       -2.0259556974    -0.3204996904    -1.2026629712
|  9>  O        0.6938332551    -0.5162353986    -1.0211360561
| 10>  C        1.7827615650    -1.2308940145    -0.4037207185
| 11>  C        1.1051002410    -2.0176021157     0.7408714224
| 12>  C        0.8635707835    -0.5581147974     1.2574560855
| 13>  C        2.2894508974    -0.2550845890     0.6840427642
| 14>  H       -0.5023235564     1.9652776287     0.9728992113
| 15>  H        0.9100571898     1.9894095536    -0.1011373448
| 16>  H       -0.7189993376     1.8432905772    -0.7811038875
| 17>  H       -1.4928315005    -1.5857031544     0.3578225040
| 18>  H       -2.0982558028     0.0183992135     0.7936262588
| 19>  H       -1.3600230667    -0.6472406550    -1.8218175383
| 20>  H        2.4094916970    -1.6765137666    -1.1746692541
| 21>  H        0.2564184752    -2.6530347426     0.4875802783
| 22>  H        1.8154836856    -2.5607938864     1.3659761744
| 23>  H        0.5833850296    -0.3348009080     2.2864540980
| 24>  H        3.0821835139    -0.6795548713     1.3019619762
| 25>  H        2.5421531776     0.7610362026     0.3814619936
| 26> *
| 27>
| 28>                          ****END OF INPUT****

CARTESIAN COORDINATES (ANGSTROEM)
---------------------------------
  C     -0.076102    1.550467    0.052693
  C     -0.028364    0.024838    0.137133
  C     -1.466583   -0.523599    0.081061
  O     -2.025956   -0.320500   -1.202663
  O      0.693833   -0.516235   -1.021136
  C      1.782762   -1.230894   -0.403721
  C      1.105100   -2.017602    0.740871
  C      0.863571   -0.558115    1.257456
  C      2.289451   -0.255085    0.684043
  H     -0.502324    1.965278    0.972899
  H      0.910057    1.989410   -0.101137
  H     -0.718999    1.843291   -0.781104
  H     -1.492832   -1.585703    0.357823
  H     -2.098256    0.018399    0.793626
  H     -1.360023   -0.647241   -1.821818
  H      2.409492   -1.676514   -1.174669
  H      0.256418   -2.653035    0.487580
  H      1.815484   -2.560794    1.365976
  H      0.583385   -0.334801    2.286454
  H      3.082184   -0.679555    1.301962
  H      2.542153    0.761036    0.381462

 Total Charge           Charge          ....    0
 Multiplicity           Mult            ....    1
 Number of Electrons    NEL             ....   70
 Basis Dimension        Dim             ....  351

ORBITAL ENERGIES
----------------

  NO   OCC          E(Eh)            E(eV)
   0   2.0000     -20.554654      -559.3206
   1   2.0000     -20.544055      -559.0322
   2   2.0000     -11.290216      -307.2224
   3   2.0000     -11.287751      -307.1553
   4   2.0000     -11.268719      -306.6374
   5   2.0000     -11.248586      -306.0896
   6   2.0000     -11.232912      -305.6631
   7   2.0000     -11.232774      -305.6593
   8   2.0000     -11.211262      -305.0740
   9   2.0000      -1.388587       -37.7854
  10   2.0000      -1.347036       -36.6547
  11   2.0000      -1.128964       -30.7207
  12   2.0000      -1.048432       -28.5293
  13   2.0000      -0.935790       -25.4641
  14   2.0000      -0.900923       -24.5154
  15   2.0000      -0.888054       -24.1652
  16   2.0000      -0.784282       -21.3414
  17   2.0000      -0.752682       -20.4815
  18   2.0000      -0.707125       -19.2419
  19   2.0000      -0.676295       -18.4029
  20   2.0000      -0.664765       -18.0892
  21   2.0000      -0.620911       -16.8959
  22   2.0000      -0.606418       -16.5015
  23   2.0000      -0.577947       -15.7267
  24   2.0000      -0.563914       -15.3449
  25   2.0000      -0.541858       -14.7447
  26   2.0000      -0.527354       -14.3500
  27   2.0000      -0.521203       -14.1827
  28   2.0000      -0.512113       -13.9353
  29   2.0000      -0.501956       -13.6589
  30   2.0000      -0.475368       -12.9354
  31   2.0000      -0.464954       -12.6520
  32   2.0000      -0.443212       -12.0604
  33   2.0000      -0.431250       -11.7349
  34   2.0000      -0.399824       -10.8798
  35   0.0000       0.140303         3.8178
  36   0.0000       0.155188         4.2229
  37   0.0000       0.166864         4.5406
  38   0.0000       0.168900         4.5960
  39   0.0000       0.185723         5.0538

MULLIKEN ATOMIC CHARGES
-----------------------
   0 C :   -0.426709
   1 C :    0.076024
   2 C :    0.018301
   3 O :   -0.477534
   4 O :   -0.367410
   5 C :    0.084306
   6 C :   -0.272186
   7 C :   -0.054111
   8 C :   -0.273675
   9 H :    0.125249
  10 H :    0.124939
  11 H :    0.158786
  12 H :    0.091864
  13 H :    0.101481
  14 H :    0.328778
  15 H :    0.131986
  16 H :    0.121296
  17 H :    0.123825
  18 H :    0.138673
  19 H :    0.124696
  20 H :    0.121421
Sum of atomic charges:   -0.0000000

LOEWDIN ATOMIC CHARGES
----------------------
   0 C :   -0.267875
   1 C :   -0.329247
   2 C :   -0.306843
   3 O :   -0.043063
   4 O :    0.174349
   5 C :   -0.269113
   6 C :   -0.202361
   7 C :   -0.173168
   8 C :   -0.197896
   9 H :    0.128855
  10 H :    0.122375
  11 H :    0.135925
  12 H :    0.117227
  13 H :    0.131931
  14 H :    0.178712
  15 H :    0.129370
  16 H :    0.125628
  17 H :    0.139536
  18 H :    0.139083
  19 H :    0.139297
  20 H :    0.127278

  Mayer bond orders larger than 0.1
B(  0-C ,  1-C ) :   0.9148 B(  0-C ,  9-H ) :   0.9328 B(  0-C , 10-H ) :   0.9331
B(  0-C , 11-H ) :   0.9358 B(  1-C ,  2-C ) :   0.9534 B(  1-C ,  4-O ) :   0.8316
B(  1-C ,  7-C ) :   0.9000 B(  2-C ,  3-O ) :   0.9312 B(  2-C , 12-H ) :   0.9100
B(  2-C , 13-H ) :   0.9245 B(  3-O , 14-H ) :   0.8250 B(  4-O ,  5-C ) :   0.9186
B(  5-C ,  6-C ) :   0.9191 B(  5-C ,  8-C ) :   0.9154 B(  5-C , 15-H ) :   0.9202
B(  6-C ,  7-C ) :   0.8975 B(  6-C , 16-H ) :   0.9242 B(  6-C , 17-H ) :   0.9202
B(  7-C ,  8-C ) :   0.9007 B(  7-C , 18-H ) :   0.9067 B(  8-C , 19-H ) :   0.9216
B(  8-C , 20-H ) :   0.9240

MP2 TOTAL ENERGY:     -423.509795623 Eh
FINAL SINGLE POINT ENERGY      -423.509795623014

DIPOLE MOMENT
-------------
                                X             Y             Z
Electronic contribution:     -0.90355      -1.61652      -3.09129
Nuclear contribution   :      1.73865       1.32641       3.85985
                        -----------------------------------------
Total Dipole Moment    :      0.83511      -0.29012       0.76857
                        -----------------------------------------
Magnitude (a.u.)       :      1.17144
Magnitude (Debye)      :      2.97756

                             ****ORCA TERMINATED NORMALLY****
TOTAL RUN TIME: 0 days 0 hours 19 minutes 23 seconds 384 msec
