                         Program Version 3.0.3 - RELEASE   -
|  1> ! RI-MP2 RIJK def2-TZVP def2-TZVP/C def2-TZVP/JK TIGHTSCF
|  2> % maxcore 2000
|  3> % mp2 density relaxed end
|  4> *xyz 0 1
|  5>  C        0.0798208308     1.5588193614    -0.1027830966
|  6>  C        0.0072798905     0.0356963696     0.0169206965
|  7>  C       -1.4285158695    -0.5173795180     0.0740211326
|  8>  O       -2.0773894353    -0.1208879428    -1.1156679762
|  9>  C       -1.4071003977    -2.0708614079     0.1950374175
| 10>  C       -2.7402137346    -2.6396716251     0.0529847226
| 11>  C       -3.8613303086    -3.0470683235    -0.0979364421
| 12>  C       -2.1392881879     0.0440178787     1.2542773730
| 13>  N       -2.6895854576     0.4820938174     2.1711192056
| 14>  H        1.1220270671     1.8823714599    -0.1727462201
| 15>  H       -0.4485093529     1.9013958835    -0.9952084729
| 16>  H       -0.3675225983     2.0472362990     0.7679844758
| 17>  H        0.4832141298    -0.4339053770    -0.8511083290
| 18>  H        0.5429061514    -0.3062909590     0.9094301986
| 19>  H       -2.9377938524    -0.5615863875    -1.1430141054
| 20>  H       -0.7531195873    -2.4486946065    -0.5990395667
| 21>  H       -0.9631564899    -2.3592952181     1.1541464697
| 22>  H       -4.8451041075    -3.4335504939    -0.2055958229
| 23> *
| 24>
| 25>                          ****END OF INPUT****

CARTESIAN COORDINATES (ANGSTROEM)
---------------------------------
  C      0.079821    1.558819   -0.102783
  C      0.007280    0.035696    0.016921
  C     -1.428516   -0.517380    0.074021
  O     -2.077389   -0.120888   -1.115668
  C     -1.407100   -2.070861    0.195037
  C     -2.740214   -2.639672    0.052985
  C     -3.861330   -3.047068   -0.097936
  C     -2.139288    0.044018    1.254277
  N     -2.689585    0.482094    2.171119
  H      1.122027    1.882371   -0.172746
  H     -0.448509    1.901396   -0.995208
  H     -0.367523    2.047236    0.767984
  H      0.483214   -0.433905   -0.851108
  H      0.542906   -0.306291    0.909430
  H     -2.937794   -0.561586   -1.143014
  H     -0.753120   -2.448695   -0.599040
  H     -0.963156   -2.359295    1.154146
  H     -4.845104   -3.433550   -0.205596

 Total Charge           Charge          ....    0
 Multiplicity           Mult            ....    1
 Number of Electrons    NEL             ....   66
 Basis Dimension        Dim             ....  333

ORBITAL ENERGIES
----------------

  NO   OCC          E(Eh)            E(eV)
   0   2.0000     -20.587477      -560.2137
   1   2.0000     -15.576253      -423.8514
   2   2.0000     -11.354374      -308.9682
   3   2.0000     -11.284798      -307.0750
   4   2.0000     -11.272808      -306.7487
   5   2.0000     -11.256722      -306.3110
   6   2.0000     -11.252101      -306.1852
   7   2.0000     -11.246804      -306.0411
   8   2.0000     -11.223696      -305.4123
   9   2.0000      -1.404468       -38.2175
  10   2.0000      -1.221789       -33.2466
  11   2.0000      -1.118881       -30.4463
  12   2.0000      -1.068573       -29.0774
  13   2.0000      -1.004730       -27.3401
  14   2.0000      -0.925128       -25.1740
  15   2.0000      -0.853525       -23.2256
  16   2.0000      -0.762126       -20.7385
  17   2.0000      -0.744395       -20.2560
  18   2.0000      -0.688464       -18.7341
  19   2.0000      -0.669474       -18.2173
  20   2.0000      -0.622973       -16.9519
  21   2.0000      -0.614900       -16.7323
  22   2.0000      -0.606057       -16.4916
  23   2.0000      -0.580226       -15.7888
  24   2.0000      -0.557503       -15.1704
  25   2.0000      -0.528859       -14.3910
  26   2.0000      -0.515934       -14.0393
  27   2.0000      -0.506976       -13.7955
  28   2.0000      -0.493861       -13.4387
  29   2.0000      -0.469873       -12.7859
  30   2.0000      -0.461868       -12.5681
  31   2.0000      -0.412419       -11.2225
  32   2.0000      -0.409671       -11.1477
  33   0.0000       0.120222         3.2714
  34   0.0000       0.145236         3.9521
  35   0.0000       0.151461         4.1215
  36   0.0000       0.156226         4.2511
  37   0.0000       0.158361         4.3092

MULLIKEN ATOMIC CHARGES
-----------------------
   0 C :   -0.418149
   1 C :   -0.186548
   2 C :    0.340201
   3 O :   -0.457578
   4 C :   -0.301552
   5 C :   -0.083421
   6 C :   -0.120661
   7 C :   -0.265047
   8 N :   -0.045218
   9 H :    0.138330
  10 H :    0.152103
  11 H :    0.147871
  12 H :    0.123671
  13 H :    0.123076
  14 H :    0.335968
  15 H :    0.154751
  16 H :    0.162034
  17 H :    0.200167
Sum of atomic charges:    0.0000000

LOEWDIN ATOMIC CHARGES
----------------------
   0 C :   -0.304786
   1 C :   -0.234724
   2 C :   -0.373473
   3 O :    0.051831
   4 C :   -0.197544
   5 C :   -0.117751
   6 C :   -0.086171
   7 C :   -0.148269
   8 N :    0.073936
   9 H :    0.124735
  10 H :    0.130147
  11 H :    0.129623
  12 H :    0.147974
  13 H :    0.148256
  14 H :    0.190311
  15 H :    0.166844
  16 H :    0.168088
  17 H :    0.130973

  Mayer bond orders larger than 0.1
B(  0-C ,  1-C ) :   0.9392 B(  0-C ,  9-H ) :   0.9359 B(  0-C , 10-H ) :   0.9351
B(  0-C , 11-H ) :   0.9317 B(  1-C ,  2-C ) :   0.8647 B(  1-C , 12-H ) :   0.9271
B(  1-C , 13-H ) :   0.9189 B(  2-C ,  3-O ) :   0.9469 B(  2-C ,  4-C ) :   0.8725
B(  2-C ,  7-C ) :   0.9208 B(  3-O , 14-H ) :   0.8200 B(  4-C ,  5-C ) :   1.0999
B(  4-C , 15-H ) :   0.9066 B(  4-C , 16-H ) :   0.9185 B(  5-C ,  6-C ) :   2.6091
B(  6-C , 17-H ) :   0.8929 B(  7-C ,  8-N ) :   2.8677

MP2 TOTAL ENERGY:     -401.239074911 Eh
FINAL SINGLE POINT ENERGY      -401.239074910998

DIPOLE MOMENT
-------------
                                X             Y             Z
Electronic contribution:     -6.60651      -2.77970       2.26708
Nuclear contribution   :      7.21538       1.92220      -3.00363
                        -----------------------------------------
Total Dipole Moment    :      0.60887      -0.85750      -0.73655
                        -----------------------------------------
Magnitude (a.u.)       :      1.28395
Magnitude (Debye)      :      3.26355

                             ****ORCA TERMINATED NORMALLY****
TOTAL RUN TIME: 0 days 0 hours 16 minutes 50 seconds 292 msec
