                         Program Version 3.0.3 - RELEASE   -
|  1> ! RI-MP2 RIJK def2-TZVP def2-TZVP/C def2-TZVP/JK TIGHTSCF
|  2> % maxcore 2000
|  3> % mp2 density relaxed end
|  4> *xyz 0 1
|  5>  N       -0.1423920519     1.3540562262     0.0563311940
|  6>  C        0.0852945902     0.0165658063     0.0062548035
|  7>  O        1.1636477936    -0.5202370403    -0.0286279951
|  8>  N       -1.1295784189    -0.7338048226     0.0128894492
|  9>  N       -2.3598573082    -0.0881436919     0.0215698919
| 10>  C       -3.2324717053    -1.0409350814     0.0221217838
| 11>  N       -2.6541629024    -2.2765381306     0.0147953088
| 12>  C       -1.2545482231    -2.1359248876     0.0084064086
| 13>  O       -0.4316191233    -3.0101649416     0.0023094034
| 14>  H        0.6579113717     1.9553242163    -0.0231625681
| 15>  H       -1.0766951885     1.7218378960     0.0066846456
| 16>  H       -4.2991769900    -0.8775877476     0.0270981490
| 17>  H       -3.1070134737    -3.1741853610     0.0145747555
| 18> *
| 19>
| 20>                          ****END OF INPUT****

CARTESIAN COORDINATES (ANGSTROEM)
---------------------------------
  N     -0.142392    1.354056    0.056331
  C      0.085295    0.016566    0.006255
  O      1.163648   -0.520237   -0.028628
  N     -1.129578   -0.733805    0.012889
  N     -2.359857   -0.088144    0.021570
  C     -3.232472   -1.040935    0.022122
  N     -2.654163   -2.276538    0.014795
  C     -1.254548   -2.135925    0.008406
  O     -0.431619   -3.010165    0.002309
  H      0.657911    1.955324   -0.023163
  H     -1.076695    1.721838    0.006685
  H     -4.299177   -0.877588    0.027098
  H     -3.107013   -3.174185    0.014575

 Total Charge           Charge          ....    0
 Multiplicity           Mult            ....    1
 Number of Electrons    NEL             ....   66
 Basis Dimension        Dim             ....  303

ORBITAL ENERGIES
----------------

  NO   OCC          E(Eh)            E(eV)
   0   2.0000     -20.537124      -558.8436
   1   2.0000     -20.522898      -558.4564
   2   2.0000     -15.653929      -425.9651
   3   2.0000     -15.642319      -425.6491
   4   2.0000     -15.628478      -425.2725
   5   2.0000     -15.587562      -424.1591
   6   2.0000     -11.408231      -310.4338
   7   2.0000     -11.397084      -310.1304
   8   2.0000     -11.354108      -308.9610
   9   2.0000      -1.458700       -39.6932
  10   2.0000      -1.399746       -38.0890
  11   2.0000      -1.377013       -37.4704
  12   2.0000      -1.263077       -34.3701
  13   2.0000      -1.215915       -33.0867
  14   2.0000      -1.138993       -30.9936
  15   2.0000      -0.935736       -25.4627
  16   2.0000      -0.891181       -24.2503
  17   2.0000      -0.799945       -21.7676
  18   2.0000      -0.778123       -21.1738
  19   2.0000      -0.740989       -20.1633
  20   2.0000      -0.695347       -18.9213
  21   2.0000      -0.690830       -18.7985
  22   2.0000      -0.673086       -18.3156
  23   2.0000      -0.645138       -17.5551
  24   2.0000      -0.622212       -16.9313
  25   2.0000      -0.595814       -16.2129
  26   2.0000      -0.538019       -14.6402
  27   2.0000      -0.534084       -14.5332
  28   2.0000      -0.484459       -13.1828
  29   2.0000      -0.471749       -12.8369
  30   2.0000      -0.437426       -11.9030
  31   2.0000      -0.425707       -11.5841
  32   2.0000      -0.367681       -10.0051
  33   0.0000       0.117439         3.1957
  34   0.0000       0.122656         3.3376
  35   0.0000       0.144212         3.9242
  36   0.0000       0.158398         4.3102
  37   0.0000       0.177748         4.8368

MULLIKEN ATOMIC CHARGES
-----------------------
   0 N :   -0.496595
   1 C :    0.314079
   2 O :   -0.312366
   3 N :    0.034465
   4 N :   -0.285878
   5 C :    0.085468
   6 N :   -0.321711
   7 C :    0.283302
   8 O :   -0.297062
   9 H :    0.268391
  10 H :    0.286605
  11 H :    0.172491
  12 H :    0.268809
Sum of atomic charges:   -0.0000000

LOEWDIN ATOMIC CHARGES
----------------------
   0 N :   -0.013230
   1 C :   -0.524759
   2 O :    0.117466
   3 N :    0.196077
   4 N :    0.043220
   5 C :   -0.310281
   6 N :    0.157124
   7 C :   -0.473972
   8 O :    0.114719
   9 H :    0.179518
  10 H :    0.173841
  11 H :    0.140583
  12 H :    0.199697

  Mayer bond orders larger than 0.1
B(  0-N ,  1-C ) :   1.2006 B(  0-N ,  9-H ) :   0.8628 B(  0-N , 10-H ) :   0.8468
B(  1-C ,  2-O ) :   2.0150 B(  1-C ,  3-N ) :   0.9310 B(  3-N ,  4-N ) :   0.8715
B(  3-N ,  7-C ) :   1.0351 B(  4-N ,  5-C ) :   1.6563 B(  5-C ,  6-N ) :   1.1104
B(  5-C , 11-H ) :   0.9189 B(  6-N ,  7-C ) :   1.0407 B(  6-N , 12-H ) :   0.8610
B(  7-C ,  8-O ) :   2.0283

MP2 TOTAL ENERGY:     -485.373904621 Eh
FINAL SINGLE POINT ENERGY      -485.373904621256

DIPOLE MOMENT
-------------
                                X             Y             Z
Electronic contribution:      1.02730      -2.31242      -0.02194
Nuclear contribution   :     -3.29333       3.12855      -0.02147
                        -----------------------------------------
Total Dipole Moment    :     -2.26603       0.81614      -0.04341
                        -----------------------------------------
Magnitude (a.u.)       :      2.40891
Magnitude (Debye)      :      6.12296

                             ****ORCA TERMINATED NORMALLY****
TOTAL RUN TIME: 0 days 0 hours 13 minutes 35 seconds 13 msec
