                         Program Version 3.0.3 - RELEASE   -
|  1> ! RI-MP2 RIJK def2-TZVP def2-TZVP/C def2-TZVP/JK TIGHTSCF
|  2> % maxcore 2000
|  3> % mp2 density relaxed end
|  4> *xyz 0 1
|  5>  C       -0.0146503793     1.5212517939    -0.0102825427
|  6>  N        1.3249749408     2.1539537459    -0.0856857259
|  7>  C        2.2154841887     1.3832081978    -0.8335705929
|  8>  C        2.0866295596     0.0315432039    -1.1194859027
|  9>  C        3.2368533694    -0.2655712105    -1.8887202527
| 10>  N        4.0137568985     0.7992138911    -2.0604284244
| 11>  N        3.3653051027     1.8005861755    -1.4049491578
| 12>  C        0.9865222354    -0.6958756475    -0.5168166755
| 13>  C        0.0038957402     0.0049145411     0.0693540123
| 14>  H       -0.5354166138     1.9547210867     0.8475426986
| 15>  H       -0.5776664426     1.8332191440    -0.9038688163
| 16>  H        1.6911780926     2.3781228055     0.8344324127
| 17>  H        3.5318739746    -1.2110879565    -2.3213965555
| 18>  H        3.7497642170     2.7301153510    -1.4165292093
| 19>  H        0.9956337397    -1.7810554736    -0.5028720621
| 20>  H       -0.8213720535    -0.4861879382     0.5741514843
| 21> *
| 22>
| 23>                          ****END OF INPUT****

CARTESIAN COORDINATES (ANGSTROEM)
---------------------------------
  C     -0.014650    1.521252   -0.010283
  N      1.324975    2.153954   -0.085686
  C      2.215484    1.383208   -0.833571
  C      2.086630    0.031543   -1.119486
  C      3.236853   -0.265571   -1.888720
  N      4.013757    0.799214   -2.060428
  N      3.365305    1.800586   -1.404949
  C      0.986522   -0.695876   -0.516817
  C      0.003896    0.004915    0.069354
  H     -0.535417    1.954721    0.847543
  H     -0.577666    1.833219   -0.903869
  H      1.691178    2.378123    0.834432
  H      3.531874   -1.211088   -2.321397
  H      3.749764    2.730115   -1.416529
  H      0.995634   -1.781055   -0.502872
  H     -0.821372   -0.486188    0.574151

 Total Charge           Charge          ....    0
 Multiplicity           Mult            ....    1
 Number of Electrons    NEL             ....   64
 Basis Dimension        Dim             ....  321

ORBITAL ENERGIES
----------------

  NO   OCC          E(Eh)            E(eV)
   0   2.0000     -15.630464      -425.3266
   1   2.0000     -15.580684      -423.9720
   2   2.0000     -15.578125      -423.9023
   3   2.0000     -11.305901      -307.6492
   4   2.0000     -11.272789      -306.7482
   5   2.0000     -11.254128      -306.2404
   6   2.0000     -11.240020      -305.8565
   7   2.0000     -11.227597      -305.5184
   8   2.0000     -11.214588      -305.1645
   9   2.0000      -1.369829       -37.2749
  10   2.0000      -1.244919       -33.8760
  11   2.0000      -1.105882       -30.0926
  12   2.0000      -1.068391       -29.0724
  13   2.0000      -1.029180       -28.0054
  14   2.0000      -0.909918       -24.7601
  15   2.0000      -0.833723       -22.6868
  16   2.0000      -0.813234       -22.1292
  17   2.0000      -0.751573       -20.4513
  18   2.0000      -0.722886       -19.6707
  19   2.0000      -0.655868       -17.8471
  20   2.0000      -0.642144       -17.4736
  21   2.0000      -0.610780       -16.6202
  22   2.0000      -0.602112       -16.3843
  23   2.0000      -0.590588       -16.0707
  24   2.0000      -0.567591       -15.4449
  25   2.0000      -0.539301       -14.6751
  26   2.0000      -0.527284       -14.3481
  27   2.0000      -0.455772       -12.4022
  28   2.0000      -0.428626       -11.6635
  29   2.0000      -0.419735       -11.4216
  30   2.0000      -0.349694        -9.5156
  31   2.0000      -0.288207        -7.8425
  32   0.0000       0.124552         3.3892
  33   0.0000       0.128476         3.4960
  34   0.0000       0.150819         4.1040
  35   0.0000       0.166593         4.5332
  36   0.0000       0.173345         4.7170

MULLIKEN ATOMIC CHARGES
-----------------------
   0 C :   -0.099692
   1 N :   -0.337797
   2 C :    0.065931
   3 C :    0.097546
   4 C :   -0.141132
   5 N :   -0.206417
   6 N :   -0.117298
   7 C :   -0.232302
   8 C :   -0.145093
   9 H :    0.133726
  10 H :    0.120058
  11 H :    0.227091
  12 H :    0.129411
  13 H :    0.251732
  14 H :    0.126060
  15 H :    0.128176
Sum of atomic charges:    0.0000000

LOEWDIN ATOMIC CHARGES
----------------------
   0 C :   -0.260947
   1 N :    0.045111
   2 C :   -0.286698
   3 C :   -0.178090
   4 C :   -0.248719
   5 N :    0.019307
   6 N :    0.147728
   7 C :   -0.136705
   8 C :   -0.171554
   9 H :    0.136502
  10 H :    0.140457
  11 H :    0.182289
  12 H :    0.134663
  13 H :    0.187960
  14 H :    0.148492
  15 H :    0.140204

  Mayer bond orders larger than 0.1
B(  0-C ,  1-N ) :   0.9200 B(  0-C ,  8-C ) :   0.9204 B(  0-C ,  9-H ) :   0.9400
B(  0-C , 10-H ) :   0.9164 B(  1-N ,  2-C ) :   1.1174 B(  1-N , 11-H ) :   0.8601
B(  2-C ,  3-C ) :   1.3135 B(  2-C ,  5-N ) :   0.1120 B(  2-C ,  6-N ) :   1.2224
B(  3-C ,  4-C ) :   1.2242 B(  3-C ,  7-C ) :   0.9845 B(  4-C ,  5-N ) :   1.5581
B(  4-C , 12-H ) :   0.9451 B(  5-N ,  6-N ) :   1.0197 B(  6-N , 13-H ) :   0.8669
B(  7-C ,  8-C ) :   1.7464 B(  7-C , 14-H ) :   0.9336 B(  8-C , 15-H ) :   0.9206

MP2 TOTAL ENERGY:     -396.255008371 Eh
FINAL SINGLE POINT ENERGY      -396.255008371015

DIPOLE MOMENT
-------------
                                X             Y             Z
Electronic contribution:      4.41315       0.53598      -2.07003
Nuclear contribution   :     -5.03882      -0.09859       2.93849
                        -----------------------------------------
Total Dipole Moment    :     -0.62567       0.43740       0.86846
                        -----------------------------------------
Magnitude (a.u.)       :      1.15629
Magnitude (Debye)      :      2.93905

                             ****ORCA TERMINATED NORMALLY****
TOTAL RUN TIME: 0 days 0 hours 17 minutes 46 seconds 452 msec
