                         Program Version 3.0.3 - RELEASE   -
|  1> ! RI-MP2 RIJK def2-TZVP def2-TZVP/C def2-TZVP/JK TIGHTSCF
|  2> % maxcore 2000
|  3> % mp2 density relaxed end
|  4> *xyz 0 1
|  5>  O       -0.2010639542     1.3380265595     0.0288516913
|  6>  C        0.0644720285    -0.0511805462    -0.0706877536
|  7>  C        0.8667199002    -0.3555214716    -1.2743715921
|  8>  N        1.5334927724    -0.5667733971    -2.1944158393
|  9>  C        0.7436353800    -0.6057299850     1.1832391149
| 10>  C        0.0018969278    -0.4348295688     2.5370704226
| 11>  C        0.4302091037    -1.8826828878     2.9045934760
| 12>  C        0.7354935026    -2.1454434500     1.4024104592
| 13>  O       -0.3606841744    -2.6950506984     0.6934470358
| 14>  H        0.6410206510     1.8025433994     0.0983576736
| 15>  H       -0.9092211794    -0.5337741312    -0.1848164235
| 16>  H        1.7693796766    -0.2265095797     1.2437872601
| 17>  H        0.3376741157     0.3728278270     3.1890652040
| 18>  H       -1.0773568681    -0.3441496354     2.3952484490
| 19>  H        1.3362630564    -1.9091443651     3.5163660221
| 20>  H       -0.3232208968    -2.5324646971     3.3563899334
| 21>  H        1.6642197231    -2.6783743081     1.1656768785
| 22>  H       -0.4439745251    -3.6227459443     0.9344510382
| 23> *
| 24>
| 25>                          ****END OF INPUT****

CARTESIAN COORDINATES (ANGSTROEM)
---------------------------------
  O     -0.201064    1.338027    0.028852
  C      0.064472   -0.051181   -0.070688
  C      0.866720   -0.355521   -1.274372
  N      1.533493   -0.566773   -2.194416
  C      0.743635   -0.605730    1.183239
  C      0.001897   -0.434830    2.537070
  C      0.430209   -1.882683    2.904593
  C      0.735494   -2.145443    1.402410
  O     -0.360684   -2.695051    0.693447
  H      0.641021    1.802543    0.098358
  H     -0.909221   -0.533774   -0.184816
  H      1.769380   -0.226510    1.243787
  H      0.337674    0.372828    3.189065
  H     -1.077357   -0.344150    2.395248
  H      1.336263   -1.909144    3.516366
  H     -0.323221   -2.532465    3.356390
  H      1.664220   -2.678374    1.165677
  H     -0.443975   -3.622746    0.934451

 Total Charge           Charge          ....    0
 Multiplicity           Mult            ....    1
 Number of Electrons    NEL             ....   68
 Basis Dimension        Dim             ....  333

ORBITAL ENERGIES
----------------

  NO   OCC          E(Eh)            E(eV)
   0   2.0000     -20.585771      -560.1673
   1   2.0000     -20.575334      -559.8833
   2   2.0000     -15.571685      -423.7271
   3   2.0000     -11.332054      -308.3609
   4   2.0000     -11.300471      -307.5014
   5   2.0000     -11.269536      -306.6597
   6   2.0000     -11.255222      -306.2702
   7   2.0000     -11.239373      -305.8389
   8   2.0000     -11.238714      -305.8209
   9   2.0000      -1.394766       -37.9535
  10   2.0000      -1.383524       -37.6476
  11   2.0000      -1.216655       -33.1069
  12   2.0000      -1.143900       -31.1271
  13   2.0000      -1.020156       -27.7599
  14   2.0000      -0.908237       -24.7144
  15   2.0000      -0.893402       -24.3107
  16   2.0000      -0.784303       -21.3420
  17   2.0000      -0.754963       -20.5436
  18   2.0000      -0.722931       -19.6720
  19   2.0000      -0.686300       -18.6752
  20   2.0000      -0.655201       -17.8289
  21   2.0000      -0.650724       -17.7071
  22   2.0000      -0.600499       -16.3404
  23   2.0000      -0.581483       -15.8230
  24   2.0000      -0.569553       -15.4983
  25   2.0000      -0.545221       -14.8362
  26   2.0000      -0.541217       -14.7273
  27   2.0000      -0.517445       -14.0804
  28   2.0000      -0.498476       -13.5642
  29   2.0000      -0.485165       -13.2020
  30   2.0000      -0.466819       -12.7028
  31   2.0000      -0.464804       -12.6480
  32   2.0000      -0.442579       -12.0432
  33   2.0000      -0.431449       -11.7403
  34   0.0000       0.114808         3.1241
  35   0.0000       0.126449         3.4409
  36   0.0000       0.150568         4.0972
  37   0.0000       0.152692         4.1550
  38   0.0000       0.178552         4.8587

MULLIKEN ATOMIC CHARGES
-----------------------
   0 O :   -0.444870
   1 C :    0.203722
   2 C :   -0.209438
   3 N :   -0.058036
   4 C :   -0.095821
   5 C :   -0.225113
   6 C :   -0.201923
   7 C :   -0.009350
   8 O :   -0.472387
   9 H :    0.323500
  10 H :    0.149232
  11 H :    0.121755
  12 H :    0.123389
  13 H :    0.125118
  14 H :    0.119293
  15 H :    0.119049
  16 H :    0.111101
  17 H :    0.320779
Sum of atomic charges:   -0.0000000

LOEWDIN ATOMIC CHARGES
----------------------
   0 O :    0.012092
   1 C :   -0.322774
   2 C :   -0.165832
   3 N :    0.065254
   4 C :   -0.197556
   5 C :   -0.210814
   6 C :   -0.228738
   7 C :   -0.296255
   8 O :   -0.009022
   9 H :    0.183136
  10 H :    0.174258
  11 H :    0.158078
  12 H :    0.126771
  13 H :    0.142957
  14 H :    0.136344
  15 H :    0.127203
  16 H :    0.125198
  17 H :    0.179698

  Mayer bond orders larger than 0.1
B(  0-O ,  1-C ) :   0.9016 B(  0-O ,  9-H ) :   0.8377 B(  1-C ,  2-C ) :   0.9259
B(  1-C ,  4-C ) :   0.9362 B(  1-C , 10-H ) :   0.8878 B(  2-C ,  3-N ) :   2.8661
B(  4-C ,  5-C ) :   0.9313 B(  4-C ,  7-C ) :   0.9068 B(  4-C , 11-H ) :   0.8970
B(  5-C ,  6-C ) :   0.9253 B(  5-C , 12-H ) :   0.9326 B(  5-C , 13-H ) :   0.9157
B(  6-C ,  7-C ) :   0.8952 B(  6-C , 14-H ) :   0.9161 B(  6-C , 15-H ) :   0.9199
B(  7-C ,  8-O ) :   1.0198 B(  7-C , 16-H ) :   0.9519 B(  8-O , 17-H ) :   0.8406

MP2 TOTAL ENERGY:     -438.362459299 Eh
FINAL SINGLE POINT ENERGY      -438.362459298925

DIPOLE MOMENT
-------------
                                X             Y             Z
Electronic contribution:      0.58800       1.63353      -7.86119
Nuclear contribution   :     -0.50128      -2.08407       9.61212
                        -----------------------------------------
Total Dipole Moment    :      0.08671      -0.45054       1.75093
                        -----------------------------------------
Magnitude (a.u.)       :      1.81005
Magnitude (Debye)      :      4.60078

                             ****ORCA TERMINATED NORMALLY****
TOTAL RUN TIME: 0 days 0 hours 18 minutes 23 seconds 555 msec
