                         Program Version 3.0.3 - RELEASE   -
|  1> ! RI-MP2 RIJK def2-TZVP def2-TZVP/C def2-TZVP/JK TIGHTSCF
|  2> % maxcore 2000
|  3> % mp2 density relaxed end
|  4> *xyz 0 1
|  5>  C       -0.0751704171     1.3740671074    -0.2817884516
|  6>  C       -0.0310140730    -0.0539220139    -0.0022219769
|  7>  C        0.0167113295    -1.2366140301     0.2175080513
|  8>  C        0.0599452902    -2.6661628282     0.5088379092
|  9>  N       -1.2636404211    -3.2780917290     0.4817776063
| 10>  C       -1.5115964869    -4.4268485345    -0.2152954664
| 11>  C       -2.9657669218    -4.8719205956    -0.2281527249
| 12>  O       -0.6363384722    -5.0500328952    -0.7890032650
| 13>  H        0.7360031683     1.6699553122    -0.9559714523
| 14>  H       -1.0199853783     1.6543323424    -0.7603199496
| 15>  H        0.0214495227     1.9659944944     0.6349392781
| 16>  H        0.6556647314    -3.2102493893    -0.2313790625
| 17>  H        0.5387802991    -2.8325558634     1.4841375140
| 18>  H       -2.0267753224    -2.7644880006     0.8893832028
| 19>  H       -3.6062898558    -4.3025173578     0.4503556904
| 20>  H       -3.3538974413    -4.7728530495    -1.2461721113
| 21>  H       -3.0105011614    -5.9303037993     0.0377654286
| 22> *
| 23>
| 24>                          ****END OF INPUT****

CARTESIAN COORDINATES (ANGSTROEM)
---------------------------------
  C     -0.075170    1.374067   -0.281788
  C     -0.031014   -0.053922   -0.002222
  C      0.016711   -1.236614    0.217508
  C      0.059945   -2.666163    0.508838
  N     -1.263640   -3.278092    0.481778
  C     -1.511596   -4.426849   -0.215295
  C     -2.965767   -4.871921   -0.228153
  O     -0.636338   -5.050033   -0.789003
  H      0.736003    1.669955   -0.955971
  H     -1.019985    1.654332   -0.760320
  H      0.021450    1.965994    0.634939
  H      0.655665   -3.210249   -0.231379
  H      0.538780   -2.832556    1.484138
  H     -2.026775   -2.764488    0.889383
  H     -3.606290   -4.302517    0.450356
  H     -3.353897   -4.772853   -1.246172
  H     -3.010501   -5.930304    0.037765

 Total Charge           Charge          ....    0
 Multiplicity           Mult            ....    1
 Number of Electrons    NEL             ....   60
 Basis Dimension        Dim             ....  302

ORBITAL ENERGIES
----------------

  NO   OCC          E(Eh)            E(eV)
   0   2.0000     -20.512264      -558.1671
   1   2.0000     -15.587189      -424.1490
   2   2.0000     -11.350113      -308.8523
   3   2.0000     -11.287086      -307.1372
   4   2.0000     -11.251939      -306.1808
   5   2.0000     -11.237929      -305.7996
   6   2.0000     -11.232594      -305.6544
   7   2.0000     -11.224514      -305.4345
   8   2.0000      -1.379659       -37.5424
   9   2.0000      -1.234779       -33.6000
  10   2.0000      -1.070658       -29.1341
  11   2.0000      -1.024127       -27.8679
  12   2.0000      -0.979603       -26.6563
  13   2.0000      -0.918544       -24.9949
  14   2.0000      -0.794805       -21.6278
  15   2.0000      -0.712710       -19.3938
  16   2.0000      -0.666577       -18.1385
  17   2.0000      -0.656533       -17.8652
  18   2.0000      -0.632207       -17.2032
  19   2.0000      -0.601907       -16.3787
  20   2.0000      -0.596249       -16.2248
  21   2.0000      -0.591430       -16.0936
  22   2.0000      -0.585943       -15.9443
  23   2.0000      -0.571335       -15.5468
  24   2.0000      -0.557358       -15.1665
  25   2.0000      -0.512110       -13.9352
  26   2.0000      -0.428269       -11.6538
  27   2.0000      -0.405142       -11.0245
  28   2.0000      -0.379933       -10.3385
  29   2.0000      -0.370810       -10.0903
  30   0.0000       0.124940         3.3998
  31   0.0000       0.139533         3.7969
  32   0.0000       0.164836         4.4854
  33   0.0000       0.173558         4.7228
  34   0.0000       0.179418         4.8822

MULLIKEN ATOMIC CHARGES
-----------------------
   0 C :   -0.475045
   1 C :    0.037434
   2 C :   -0.066635
   3 C :   -0.175071
   4 N :   -0.337572
   5 C :    0.324243
   6 C :   -0.406727
   7 O :   -0.388439
   8 H :    0.165383
   9 H :    0.162116
  10 H :    0.161918
  11 H :    0.188580
  12 H :    0.148844
  13 H :    0.239367
  14 H :    0.115646
  15 H :    0.151921
  16 H :    0.154038
Sum of atomic charges:   -0.0000000

LOEWDIN ATOMIC CHARGES
----------------------
   0 C :   -0.293214
   1 C :   -0.101825
   2 C :   -0.093946
   3 C :   -0.258421
   4 N :    0.108407
   5 C :   -0.478537
   6 C :   -0.278431
   7 O :    0.071912
   8 H :    0.142781
   9 H :    0.141760
  10 H :    0.140692
  11 H :    0.165138
  12 H :    0.148571
  13 H :    0.186835
  14 H :    0.120099
  15 H :    0.139494
  16 H :    0.138686

  Mayer bond orders larger than 0.1
B(  0-C ,  1-C ) :   0.8706 B(  0-C ,  8-H ) :   0.9453 B(  0-C ,  9-H ) :   0.9435
B(  0-C , 10-H ) :   0.9463 B(  1-C ,  2-C ) :   2.7140 B(  2-C ,  3-C ) :   0.9726
B(  3-C ,  4-N ) :   0.8377 B(  3-C , 11-H ) :   0.9297 B(  3-C , 12-H ) :   0.9413
B(  4-N ,  5-C ) :   1.1549 B(  4-N , 13-H ) :   0.8720 B(  5-C ,  6-C ) :   0.8941
B(  5-C ,  7-O ) :   1.8816 B(  6-C , 14-H ) :   0.9380 B(  6-C , 15-H ) :   0.9179
B(  6-C , 16-H ) :   0.9309

MP2 TOTAL ENERGY:     -363.240133871 Eh
FINAL SINGLE POINT ENERGY      -363.240133871075

DIPOLE MOMENT
-------------
                                X             Y             Z
Electronic contribution:      2.52360      -3.30143      -0.06353
Nuclear contribution   :     -3.30292       4.46847       0.70018
                        -----------------------------------------
Total Dipole Moment    :     -0.77932       1.16704       0.63665
                        -----------------------------------------
Magnitude (a.u.)       :      1.54099
Magnitude (Debye)      :      3.91688

                             ****ORCA TERMINATED NORMALLY****
TOTAL RUN TIME: 0 days 0 hours 9 minutes 48 seconds 61 msec
