                         Program Version 3.0.3 - RELEASE   -
|  1> ! RI-MP2 RIJK def2-TZVP def2-TZVP/C def2-TZVP/JK TIGHTSCF
|  2> % maxcore 2000
|  3> % mp2 density relaxed end
|  4> *xyz 0 1
|  5>  O       -0.0330878252     1.3150013645     0.0096111882
|  6>  C        1.0910176363     2.0759870558     0.0027973441
|  7>  C        2.3414578691     1.5564010025    -0.0120647606
|  8>  C        2.4877151561     0.1448445881    -0.0210038916
|  9>  C        3.5073971895    -0.7815291419    -0.0358199137
| 10>  C        2.8503934185    -2.0548646353    -0.0362100037
| 11>  N        1.5234358161    -1.9987868888    -0.0231020929
| 12>  C        1.2575826379    -0.6508722064    -0.0133515257
| 13>  C        0.0551167082    -0.0260439110     0.0016078970
| 14>  H        0.8458346408     3.1283697966     0.0107738419
| 15>  H        3.1878393542     2.2335191311    -0.0166466928
| 16>  H        4.5724692270    -0.6036363046    -0.0451923799
| 17>  H        3.3531400053    -3.0168090801    -0.0462022145
| 18>  H       -0.9133398440    -0.5083457606     0.0084072142
| 19> *
| 20>
| 21>                          ****END OF INPUT****

CARTESIAN COORDINATES (ANGSTROEM)
---------------------------------
  O     -0.033088    1.315001    0.009611
  C      1.091018    2.075987    0.002797
  C      2.341458    1.556401   -0.012065
  C      2.487715    0.144845   -0.021004
  C      3.507397   -0.781529   -0.035820
  C      2.850393   -2.054865   -0.036210
  N      1.523436   -1.998787   -0.023102
  C      1.257583   -0.650872   -0.013352
  C      0.055117   -0.026044    0.001608
  H      0.845835    3.128370    0.010774
  H      3.187839    2.233519   -0.016647
  H      4.572469   -0.603636   -0.045192
  H      3.353140   -3.016809   -0.046202
  H     -0.913340   -0.508346    0.008407

 Total Charge           Charge          ....    0
 Multiplicity           Mult            ....    1
 Number of Electrons    NEL             ....   62
 Basis Dimension        Dim             ....  309

ORBITAL ENERGIES
----------------

  NO   OCC          E(Eh)            E(eV)
   0   2.0000     -20.654722      -562.0436
   1   2.0000     -15.540247      -422.8716
   2   2.0000     -11.331449      -308.3444
   3   2.0000     -11.327887      -308.2475
   4   2.0000     -11.268892      -306.6421
   5   2.0000     -11.260481      -306.4133
   6   2.0000     -11.259251      -306.3798
   7   2.0000     -11.257593      -306.3347
   8   2.0000     -11.219807      -305.3065
   9   2.0000      -1.485499       -40.4225
  10   2.0000      -1.263692       -34.3868
  11   2.0000      -1.109656       -30.1953
  12   2.0000      -1.058241       -28.7962
  13   2.0000      -1.015141       -27.6234
  14   2.0000      -0.898359       -24.4456
  15   2.0000      -0.856157       -23.2972
  16   2.0000      -0.792745       -21.5717
  17   2.0000      -0.730821       -19.8866
  18   2.0000      -0.714256       -19.4359
  19   2.0000      -0.669547       -18.2193
  20   2.0000      -0.663613       -18.0578
  21   2.0000      -0.640572       -17.4309
  22   2.0000      -0.622658       -16.9434
  23   2.0000      -0.560023       -15.2390
  24   2.0000      -0.550212       -14.9720
  25   2.0000      -0.539869       -14.6906
  26   2.0000      -0.518561       -14.1108
  27   2.0000      -0.432457       -11.7677
  28   2.0000      -0.423880       -11.5344
  29   2.0000      -0.335722        -9.1355
  30   2.0000      -0.306243        -8.3333
  31   0.0000       0.062814         1.7092
  32   0.0000       0.125385         3.4119
  33   0.0000       0.154707         4.2098
  34   0.0000       0.171657         4.6710
  35   0.0000       0.175904         4.7866

MULLIKEN ATOMIC CHARGES
-----------------------
   0 O :   -0.175217
   1 C :    0.049866
   2 C :   -0.222411
   3 C :    0.028906
   4 C :   -0.196777
   5 C :   -0.028399
   6 N :   -0.261890
   7 C :    0.090063
   8 C :    0.002556
   9 H :    0.156076
  10 H :    0.143506
  11 H :    0.130901
  12 H :    0.122609
  13 H :    0.160212
Sum of atomic charges:   -0.0000000

LOEWDIN ATOMIC CHARGES
----------------------
   0 O :    0.360336
   1 C :   -0.224446
   2 C :   -0.125801
   3 C :   -0.132900
   4 C :   -0.151419
   5 C :   -0.207752
   6 N :    0.117409
   7 C :   -0.215482
   8 C :   -0.139500
   9 H :    0.141230
  10 H :    0.158887
  11 H :    0.138926
  12 H :    0.131168
  13 H :    0.149344

  Mayer bond orders larger than 0.1
B(  0-O ,  1-C ) :   1.0036 B(  0-O ,  8-C ) :   1.1068 B(  1-C ,  2-C ) :   1.5661
B(  1-C ,  9-H ) :   0.9328 B(  2-C ,  3-C ) :   1.1465 B(  2-C , 10-H ) :   0.8995
B(  3-C ,  4-C ) :   1.4302 B(  3-C ,  7-C ) :   0.9873 B(  4-C ,  5-C ) :   1.1871
B(  4-C , 11-H ) :   0.9167 B(  5-C ,  6-N ) :   1.4863 B(  5-C , 12-H ) :   0.9437
B(  6-N ,  7-C ) :   1.2834 B(  7-C ,  8-C ) :   1.4353 B(  8-C , 13-H ) :   0.9251

MP2 TOTAL ENERGY:     -398.889011930 Eh
FINAL SINGLE POINT ENERGY      -398.889011929514

DIPOLE MOMENT
-------------
                                X             Y             Z
Electronic contribution:     -2.52535      -0.06452       0.02409
Nuclear contribution   :      2.65174       1.26597      -0.01892
                        -----------------------------------------
Total Dipole Moment    :      0.12639       1.20145       0.00517
                        -----------------------------------------
Magnitude (a.u.)       :      1.20810
Magnitude (Debye)      :      3.07074

                             ****ORCA TERMINATED NORMALLY****
TOTAL RUN TIME: 0 days 0 hours 17 minutes 15 seconds 199 msec
