                         Program Version 3.0.3 - RELEASE   -
|  1> ! RI-MP2 RIJK def2-TZVP def2-TZVP/C def2-TZVP/JK TIGHTSCF
|  2> % maxcore 2000
|  3> % mp2 density relaxed end
|  4> *xyz 0 1
|  5>  C       -0.1930091876     1.5889448315    -0.0255297050
|  6>  C       -0.2248016764     0.0668236872    -0.1811370842
|  7>  C        0.9449367401    -0.4677684980    -1.0172960382
|  8>  C        0.9086773842    -1.9807854484    -1.1828539489
|  9>  N       -0.0830124119    -2.4952191028    -2.1665055778
| 10>  C        1.3457401093    -2.6813787740    -2.4420381186
| 11>  C        1.9269383568    -1.9885854109    -3.6506600600
| 12>  C        1.0704111485    -2.7327009543     0.0395515174
| 13>  C        1.1944831585    -3.3535225182     1.0633604295
| 14>  H        0.7255527325     1.9191253173     0.4728886247
| 15>  H       -0.2377519209     2.0898448148    -0.9992619450
| 16>  H       -1.0396255649     1.9450101723     0.5697264204
| 17>  H       -0.2090385041    -0.4076602806     0.8071238623
| 18>  H       -1.1620705462    -0.2409885130    -0.6595786543
| 19>  H        0.9206087307    -0.0028793761    -2.0069219437
| 20>  H        1.8981252132    -0.1860421817    -0.5520656038
| 21>  H       -0.4979842839    -3.3561669301    -1.8198071630
| 22>  H        1.7457992932    -3.6796544851    -2.2707910471
| 23>  H        1.4564741905    -1.0199284487    -3.8273686509
| 24>  H        3.0060182158    -1.8414886996    -3.5356453261
| 25>  H        1.7649119557    -2.6021442667    -4.5435876096
| 26>  H        1.3075088167    -3.9024068749     1.9653096422
| 27> *
| 28>
| 29>                          ****END OF INPUT****

CARTESIAN COORDINATES (ANGSTROEM)
---------------------------------
  C     -0.193009    1.588945   -0.025530
  C     -0.224802    0.066824   -0.181137
  C      0.944937   -0.467768   -1.017296
  C      0.908677   -1.980785   -1.182854
  N     -0.083012   -2.495219   -2.166506
  C      1.345740   -2.681379   -2.442038
  C      1.926938   -1.988585   -3.650660
  C      1.070411   -2.732701    0.039552
  C      1.194483   -3.353523    1.063360
  H      0.725553    1.919125    0.472889
  H     -0.237752    2.089845   -0.999262
  H     -1.039626    1.945010    0.569726
  H     -0.209039   -0.407660    0.807124
  H     -1.162071   -0.240989   -0.659579
  H      0.920609   -0.002879   -2.006922
  H      1.898125   -0.186042   -0.552066
  H     -0.497984   -3.356167   -1.819807
  H      1.745799   -3.679654   -2.270791
  H      1.456474   -1.019928   -3.827369
  H      3.006018   -1.841489   -3.535645
  H      1.764912   -2.602144   -4.543588
  H      1.307509   -3.902407    1.965310

 Total Charge           Charge          ....    0
 Multiplicity           Mult            ....    1
 Number of Electrons    NEL             ....   68
 Basis Dimension        Dim             ....  357

ORBITAL ENERGIES
----------------

  NO   OCC          E(Eh)            E(eV)
   0   2.0000     -15.562115      -423.4667
   1   2.0000     -11.285738      -307.1005
   2   2.0000     -11.269541      -306.6598
   3   2.0000     -11.237657      -305.7922
   4   2.0000     -11.227624      -305.5192
   5   2.0000     -11.224786      -305.4420
   6   2.0000     -11.221746      -305.3592
   7   2.0000     -11.214158      -305.1528
   8   2.0000     -11.209821      -305.0347
   9   2.0000      -1.273395       -34.6508
  10   2.0000      -1.068631       -29.0789
  11   2.0000      -1.032997       -28.1093
  12   2.0000      -0.994791       -27.0696
  13   2.0000      -0.959155       -26.0999
  14   2.0000      -0.870661       -23.6919
  15   2.0000      -0.806362       -21.9422
  16   2.0000      -0.799976       -21.7684
  17   2.0000      -0.733642       -19.9634
  18   2.0000      -0.699534       -19.0353
  19   2.0000      -0.627205       -17.0671
  20   2.0000      -0.616848       -16.7853
  21   2.0000      -0.588972       -16.0267
  22   2.0000      -0.577924       -15.7261
  23   2.0000      -0.562227       -15.2990
  24   2.0000      -0.541619       -14.7382
  25   2.0000      -0.524303       -14.2670
  26   2.0000      -0.500677       -13.6241
  27   2.0000      -0.484864       -13.1938
  28   2.0000      -0.477168       -12.9844
  29   2.0000      -0.466014       -12.6809
  30   2.0000      -0.455372       -12.3913
  31   2.0000      -0.431866       -11.7517
  32   2.0000      -0.393045       -10.6953
  33   2.0000      -0.356732        -9.7072
  34   0.0000       0.136748         3.7211
  35   0.0000       0.150310         4.0901
  36   0.0000       0.155263         4.2249
  37   0.0000       0.166999         4.5443
  38   0.0000       0.171599         4.6695

MULLIKEN ATOMIC CHARGES
-----------------------
   0 C :   -0.388681
   1 C :   -0.229369
   2 C :   -0.225869
   3 C :   -0.007584
   4 N :   -0.380895
   5 C :   -0.044849
   6 C :   -0.386477
   7 C :    0.003886
   8 C :   -0.132918
   9 H :    0.120621
  10 H :    0.123353
  11 H :    0.133871
  12 H :    0.122611
  13 H :    0.124771
  14 H :    0.107501
  15 H :    0.114422
  16 H :    0.224606
  17 H :    0.127373
  18 H :    0.137192
  19 H :    0.130354
  20 H :    0.134923
  21 H :    0.191159
Sum of atomic charges:    0.0000000

LOEWDIN ATOMIC CHARGES
----------------------
   0 C :   -0.321168
   1 C :   -0.284616
   2 C :   -0.210896
   3 C :   -0.271790
   4 N :    0.041965
   5 C :   -0.248638
   6 C :   -0.292422
   7 C :   -0.077485
   8 C :   -0.093099
   9 H :    0.119787
  10 H :    0.120118
  11 H :    0.120970
  12 H :    0.139596
  13 H :    0.140077
  14 H :    0.144857
  15 H :    0.146513
  16 H :    0.170659
  17 H :    0.144202
  18 H :    0.126819
  19 H :    0.128138
  20 H :    0.129079
  21 H :    0.127333

  Mayer bond orders larger than 0.1
B(  0-C ,  1-C ) :   0.9123 B(  0-C ,  9-H ) :   0.9382 B(  0-C , 10-H ) :   0.9412
B(  0-C , 11-H ) :   0.9440 B(  1-C ,  2-C ) :   0.9389 B(  1-C , 12-H ) :   0.9302
B(  1-C , 13-H ) :   0.9370 B(  2-C ,  3-C ) :   0.9343 B(  2-C , 14-H ) :   0.9193
B(  2-C , 15-H ) :   0.9253 B(  3-C ,  4-N ) :   0.8508 B(  3-C ,  5-C ) :   0.8873
B(  3-C ,  7-C ) :   1.1924 B(  3-C ,  8-C ) :  -0.1234 B(  4-N ,  5-C ) :   0.9692
B(  4-N , 16-H ) :   0.8717 B(  5-C ,  6-C ) :   0.8822 B(  5-C , 17-H ) :   0.9234
B(  6-C , 18-H ) :   0.9434 B(  6-C , 19-H ) :   0.9335 B(  6-C , 20-H ) :   0.9314
B(  7-C ,  8-C ) :   2.5457 B(  8-C , 21-H ) :   0.8915

MP2 TOTAL ENERGY:     -366.496095055 Eh
FINAL SINGLE POINT ENERGY      -366.496095054780

DIPOLE MOMENT
-------------
                                X             Y             Z
Electronic contribution:      0.39877      -7.99001       2.04939
Nuclear contribution   :     -0.06680       7.72529      -1.95630
                        -----------------------------------------
Total Dipole Moment    :      0.33197      -0.26472       0.09308
                        -----------------------------------------
Magnitude (a.u.)       :      0.43467
Magnitude (Debye)      :      1.10486

                             ****ORCA TERMINATED NORMALLY****
TOTAL RUN TIME: 0 days 0 hours 20 minutes 38 seconds 638 msec
