                         Program Version 3.0.3 - RELEASE   -
|  1> ! RI-MP2 RIJK def2-TZVP def2-TZVP/C def2-TZVP/JK TIGHTSCF
|  2> % maxcore 2000
|  3> % mp2 density relaxed end
|  4> *xyz 0 1
|  5>  N        0.0024689262     1.4675566684     0.0076004425
|  6>  C       -0.0447768625     0.0372699802    -0.0100142874
|  7>  C       -1.3499261940    -0.7108132920     0.0228157038
|  8>  C       -2.6484122626     0.0323470720    -0.2981540682
|  9>  C       -2.6843928076     0.0684280157    -1.8399825736
| 10>  N       -1.2546031403     0.1418661109    -2.1999787800
| 11>  C       -0.5318925175    -0.7154245996    -1.2700946728
| 12>  C        0.1348241757    -1.8773589323    -1.7701590080
| 13>  N        0.6996962561    -2.8003288979    -2.1853941233
| 14>  H        0.9689122911     1.7725366081    -0.0527005189
| 15>  H       -0.4621752127     1.8117868541    -0.8325341753
| 16>  H        0.7668761619    -0.4357113584     0.5333948001
| 17>  H       -1.3952557944    -1.6135652484     0.6196003626
| 18>  H       -3.5166282547    -0.4841214011     0.1153186091
| 19>  H       -2.6255741249     1.0434432157     0.1207823771
| 20>  H       -3.1695760727    -0.8414504666    -2.2271467571
| 21>  H       -3.2190901082     0.9363346493    -2.2374789425
| 22>  H       -1.0629710191    -0.0931413680    -3.1653215281
| 23> *
| 24>
| 25>                          ****END OF INPUT****

CARTESIAN COORDINATES (ANGSTROEM)
---------------------------------
  N      0.002469    1.467557    0.007600
  C     -0.044777    0.037270   -0.010014
  C     -1.349926   -0.710813    0.022816
  C     -2.648412    0.032347   -0.298154
  C     -2.684393    0.068428   -1.839983
  N     -1.254603    0.141866   -2.199979
  C     -0.531893   -0.715425   -1.270095
  C      0.134824   -1.877359   -1.770159
  N      0.699696   -2.800329   -2.185394
  H      0.968912    1.772537   -0.052701
  H     -0.462175    1.811787   -0.832534
  H      0.766876   -0.435711    0.533395
  H     -1.395256   -1.613565    0.619600
  H     -3.516628   -0.484121    0.115319
  H     -2.625574    1.043443    0.120782
  H     -3.169576   -0.841450   -2.227147
  H     -3.219090    0.936335   -2.237479
  H     -1.062971   -0.093141   -3.165322

 Total Charge           Charge          ....    0
 Multiplicity           Mult            ....    1
 Number of Electrons    NEL             ....   66
 Basis Dimension        Dim             ....  333

ORBITAL ENERGIES
----------------

  NO   OCC          E(Eh)            E(eV)
   0   2.0000     -15.574035      -423.7910
   1   2.0000     -15.569328      -423.6630
   2   2.0000     -15.555084      -423.2754
   3   2.0000     -11.302387      -307.5536
   4   2.0000     -11.288054      -307.1636
   5   2.0000     -11.274075      -306.7832
   6   2.0000     -11.270264      -306.6795
   7   2.0000     -11.256541      -306.3061
   8   2.0000     -11.243059      -305.9392
   9   2.0000      -1.282084       -34.8873
  10   2.0000      -1.212370       -32.9903
  11   2.0000      -1.194496       -32.5039
  12   2.0000      -1.097677       -29.8693
  13   2.0000      -1.034433       -28.1483
  14   2.0000      -0.878233       -23.8979
  15   2.0000      -0.860561       -23.4170
  16   2.0000      -0.787483       -21.4285
  17   2.0000      -0.768030       -20.8992
  18   2.0000      -0.689821       -18.7710
  19   2.0000      -0.652073       -17.7438
  20   2.0000      -0.646704       -17.5977
  21   2.0000      -0.603364       -16.4184
  22   2.0000      -0.592468       -16.1219
  23   2.0000      -0.563703       -15.3391
  24   2.0000      -0.555821       -15.1247
  25   2.0000      -0.537924       -14.6377
  26   2.0000      -0.525564       -14.3013
  27   2.0000      -0.497529       -13.5385
  28   2.0000      -0.492825       -13.4104
  29   2.0000      -0.471474       -12.8295
  30   2.0000      -0.440698       -11.9920
  31   2.0000      -0.396816       -10.7979
  32   2.0000      -0.355529        -9.6744
  33   0.0000       0.117762         3.2045
  34   0.0000       0.146986         3.9997
  35   0.0000       0.149328         4.0634
  36   0.0000       0.155709         4.2370
  37   0.0000       0.177469         4.8292

MULLIKEN ATOMIC CHARGES
-----------------------
   0 N :   -0.529239
   1 C :   -0.086614
   2 C :   -0.066042
   3 C :   -0.296065
   4 C :   -0.106224
   5 N :   -0.420171
   6 C :    0.293765
   7 C :   -0.262690
   8 N :   -0.050392
   9 H :    0.236512
  10 H :    0.249684
  11 H :    0.140499
  12 H :    0.154821
  13 H :    0.134276
  14 H :    0.144892
  15 H :    0.112023
  16 H :    0.123875
  17 H :    0.227091
Sum of atomic charges:   -0.0000000

LOEWDIN ATOMIC CHARGES
----------------------
   0 N :   -0.130382
   1 C :   -0.236420
   2 C :   -0.141901
   3 C :   -0.226690
   4 C :   -0.274314
   5 N :    0.037589
   6 C :   -0.265109
   7 C :   -0.170868
   8 N :    0.059697
   9 H :    0.163119
  10 H :    0.164149
  11 H :    0.152456
  12 H :    0.153631
  13 H :    0.142056
  14 H :    0.145518
  15 H :    0.123613
  16 H :    0.128151
  17 H :    0.175707

  Mayer bond orders larger than 0.1
B(  0-N ,  1-C ) :   1.0391 B(  0-N ,  9-H ) :   0.8829 B(  0-N , 10-H ) :   0.8568
B(  1-C ,  2-C ) :   0.8794 B(  1-C ,  6-C ) :   0.8284 B(  1-C , 11-H ) :   0.9292
B(  2-C ,  3-C ) :   0.9149 B(  2-C ,  6-C ) :   0.7673 B(  2-C , 12-H ) :   0.9127
B(  3-C ,  4-C ) :   0.9750 B(  3-C , 13-H ) :   0.9324 B(  3-C , 14-H ) :   0.9168
B(  4-C ,  5-N ) :   0.9052 B(  4-C , 15-H ) :   0.9175 B(  4-C , 16-H ) :   0.9278
B(  5-N ,  6-C ) :   1.0156 B(  5-N , 17-H ) :   0.8875 B(  6-C ,  7-C ) :   0.9146
B(  7-C ,  8-N ) :   2.8842

MP2 TOTAL ENERGY:     -397.434914656 Eh
FINAL SINGLE POINT ENERGY      -397.434914655780

DIPOLE MOMENT
-------------
                                X             Y             Z
Electronic contribution:      4.70684      -4.69312      -2.12463
Nuclear contribution   :     -5.51110       5.57248       2.25794
                        -----------------------------------------
Total Dipole Moment    :     -0.80426       0.87936       0.13331
                        -----------------------------------------
Magnitude (a.u.)       :      1.19911
Magnitude (Debye)      :      3.04790

                             ****ORCA TERMINATED NORMALLY****
TOTAL RUN TIME: 0 days 0 hours 18 minutes 32 seconds 724 msec
