                         Program Version 3.0.3 - RELEASE   -
|  1> ! RI-MP2 RIJK def2-TZVP def2-TZVP/C def2-TZVP/JK TIGHTSCF
|  2> % maxcore 2000
|  3> % mp2 density relaxed end
|  4> *xyz 0 1
|  5>  C        0.1474206580     1.3071198848    -0.3068077864
|  6>  O        0.0233367601    -0.1036452267    -0.2896952264
|  7>  C       -1.2709139675    -0.6122352287     0.0073303626
|  8>  C       -1.3180153435    -1.9890694182    -0.6626602831
|  9>  O       -0.9957238801    -1.9033283204    -2.0314238010
| 10>  C       -1.5277920460    -0.7315159655     1.5262908055
| 11>  C       -1.8358281344     0.5215860273     2.2072419221
| 12>  C       -2.1167993654     1.5485964569     2.7707114135
| 13>  C       -2.4513789417     2.7897320066     3.4553028265
| 14>  H        1.1524511648     1.5304515447    -0.6743969663
| 15>  H       -0.5892239026     1.7650207798    -0.9832652592
| 16>  H        0.0225770555     1.7411278707     0.6910295582
| 17>  H       -2.0340191798     0.0343005172    -0.4506214688
| 18>  H       -0.6345950600    -2.6690529526    -0.1255758946
| 19>  H       -2.3287891893    -2.4032855106    -0.5882858992
| 20>  H       -0.2020972442    -1.3538621592    -2.0646611763
| 21>  H       -2.3608764810    -1.4325850586     1.6751904382
| 22>  H       -0.6437936724    -1.2018670539     1.9747333403
| 23>  H       -3.4983734614     2.7976065113     3.7780817112
| 24>  H       -1.8298797458     2.9335331971     4.3461140438
| 25>  H       -2.3006455433     3.6582556980     2.8043304991
| 26> *
| 27>
| 28>                          ****END OF INPUT****

CARTESIAN COORDINATES (ANGSTROEM)
---------------------------------
  C      0.147421    1.307120   -0.306808
  O      0.023337   -0.103645   -0.289695
  C     -1.270914   -0.612235    0.007330
  C     -1.318015   -1.989069   -0.662660
  O     -0.995724   -1.903328   -2.031424
  C     -1.527792   -0.731516    1.526291
  C     -1.835828    0.521586    2.207242
  C     -2.116799    1.548596    2.770711
  C     -2.451379    2.789732    3.455303
  H      1.152451    1.530452   -0.674397
  H     -0.589224    1.765021   -0.983265
  H      0.022577    1.741128    0.691030
  H     -2.034019    0.034301   -0.450621
  H     -0.634595   -2.669053   -0.125576
  H     -2.328789   -2.403286   -0.588286
  H     -0.202097   -1.353862   -2.064661
  H     -2.360876   -1.432585    1.675190
  H     -0.643794   -1.201867    1.974733
  H     -3.498373    2.797607    3.778082
  H     -1.829880    2.933533    4.346114
  H     -2.300646    3.658256    2.804330

 Total Charge           Charge          ....    0
 Multiplicity           Mult            ....    1
 Number of Electrons    NEL             ....   70
 Basis Dimension        Dim             ....  351

ORBITAL ENERGIES
----------------

  NO   OCC          E(Eh)            E(eV)
   0   2.0000     -20.563710      -559.5670
   1   2.0000     -20.546827      -559.1076
   2   2.0000     -11.289875      -307.2131
   3   2.0000     -11.273327      -306.7628
   4   2.0000     -11.272149      -306.7308
   5   2.0000     -11.254019      -306.2374
   6   2.0000     -11.249840      -306.1237
   7   2.0000     -11.226450      -305.4872
   8   2.0000     -11.221964      -305.3652
   9   2.0000      -1.388676       -37.7878
  10   2.0000      -1.349229       -36.7144
  11   2.0000      -1.087448       -29.5910
  12   2.0000      -1.044446       -28.4208
  13   2.0000      -0.980812       -26.6893
  14   2.0000      -0.922553       -25.1039
  15   2.0000      -0.909317       -24.7438
  16   2.0000      -0.814077       -22.1522
  17   2.0000      -0.709818       -19.3151
  18   2.0000      -0.680944       -18.5294
  19   2.0000      -0.671008       -18.2591
  20   2.0000      -0.641686       -17.4612
  21   2.0000      -0.625317       -17.0157
  22   2.0000      -0.609330       -16.5807
  23   2.0000      -0.592727       -16.1289
  24   2.0000      -0.589233       -16.0339
  25   2.0000      -0.583425       -15.8758
  26   2.0000      -0.577803       -15.7228
  27   2.0000      -0.574633       -15.6366
  28   2.0000      -0.523907       -14.2562
  29   2.0000      -0.491171       -13.3654
  30   2.0000      -0.490170       -13.3382
  31   2.0000      -0.442814       -12.0496
  32   2.0000      -0.438156       -11.9228
  33   2.0000      -0.371059       -10.0970
  34   2.0000      -0.365817        -9.9544
  35   0.0000       0.129826         3.5328
  36   0.0000       0.146297         3.9809
  37   0.0000       0.159145         4.3306
  38   0.0000       0.177079         4.8186
  39   0.0000       0.182658         4.9704

MULLIKEN ATOMIC CHARGES
-----------------------
   0 C :   -0.223405
   1 O :   -0.352540
   2 C :    0.085310
   3 C :    0.013699
   4 O :   -0.483369
   5 C :   -0.367760
   6 C :   -0.044038
   7 C :    0.066341
   8 C :   -0.479630
   9 H :    0.137294
  10 H :    0.118090
  11 H :    0.138886
  12 H :    0.089096
  13 H :    0.092247
  14 H :    0.110568
  15 H :    0.325808
  16 H :    0.145800
  17 H :    0.142865
  18 H :    0.162802
  19 H :    0.163127
  20 H :    0.158810
Sum of atomic charges:   -0.0000000

LOEWDIN ATOMIC CHARGES
----------------------
   0 C :   -0.348950
   1 O :    0.144019
   2 C :   -0.324581
   3 C :   -0.335507
   4 O :   -0.043963
   5 C :   -0.232441
   6 C :   -0.095452
   7 C :   -0.111611
   8 C :   -0.296335
   9 H :    0.112568
  10 H :    0.104684
  11 H :    0.110538
  12 H :    0.142041
  13 H :    0.121124
  14 H :    0.130421
  15 H :    0.176952
  16 H :    0.163628
  17 H :    0.161253
  18 H :    0.140986
  19 H :    0.140898
  20 H :    0.139729

  Mayer bond orders larger than 0.1
B(  0-C ,  1-O ) :   0.8934 B(  0-C ,  9-H ) :   0.9377 B(  0-C , 10-H ) :   0.9380
B(  0-C , 11-H ) :   0.9333 B(  1-O ,  2-C ) :   0.8783 B(  2-C ,  3-C ) :   0.9236
B(  2-C ,  5-C ) :   0.9161 B(  2-C , 12-H ) :   0.9259 B(  3-C ,  4-O ) :   0.9494
B(  3-C , 13-H ) :   0.9200 B(  3-C , 14-H ) :   0.9281 B(  4-O , 15-H ) :   0.8248
B(  5-C ,  6-C ) :   1.0705 B(  5-C ,  7-C ) :  -0.1187 B(  5-C , 16-H ) :   0.9426
B(  5-C , 17-H ) :   0.8932 B(  6-C ,  7-C ) :   2.6850 B(  7-C ,  8-C ) :   0.8535
B(  8-C , 18-H ) :   0.9477 B(  8-C , 19-H ) :   0.9488 B(  8-C , 20-H ) :   0.9453

MP2 TOTAL ENERGY:     -423.476699512 Eh
FINAL SINGLE POINT ENERGY      -423.476699512266

DIPOLE MOMENT
-------------
                                X             Y             Z
Electronic contribution:      0.56202      -3.59047      -1.84246
Nuclear contribution   :     -0.62273       4.38664       2.53793
                        -----------------------------------------
Total Dipole Moment    :     -0.06071       0.79617       0.69548
                        -----------------------------------------
Magnitude (a.u.)       :      1.05890
Magnitude (Debye)      :      2.69150

                             ****ORCA TERMINATED NORMALLY****
TOTAL RUN TIME: 0 days 0 hours 19 minutes 6 seconds 472 msec
