                         Program Version 3.0.3 - RELEASE   -
|  1> ! RI-MP2 RIJK def2-TZVP def2-TZVP/C def2-TZVP/JK TIGHTSCF
|  2> % maxcore 2000
|  3> % mp2 density relaxed end
|  4> *xyz 0 1
|  5>  C       -0.0154953918     1.4861377412     0.0737801945
|  6>  C        1.3029346380     0.7981344712    -0.0854227178
|  7>  O        1.7844109791     0.3410885126     1.1798712980
|  8>  C        0.6352558511    -0.5391777213     1.3102736371
|  9>  C        0.0375879332    -0.0339710276    -0.0064758597
| 10>  C       -0.7202767859    -0.8359643715    -1.0138863140
| 11>  C       -0.2685156975    -2.2778038917    -1.3993464279
| 12>  C       -1.7654224470    -2.6801570718    -1.4828902565
| 13>  C       -2.1096164708    -1.4333230608    -0.6263776089
| 14>  H       -0.2398812183     1.9928520314     1.0090252348
| 15>  H       -0.4098869255     1.9652806283    -0.8177360841
| 16>  H        2.0276390137     0.9751681139    -0.8723914918
| 17>  H        0.9570251597    -1.5864131965     1.2797786235
| 18>  H        0.0696870422    -0.3546473331     2.2318036920
| 19>  H       -0.8302276715    -0.2408221121    -1.9278180536
| 20>  H        0.3495819177    -2.3913541723    -2.2932471771
| 21>  H        0.2332312551    -2.7806535679    -0.5671864508
| 22>  H       -2.1522299295    -2.5891366380    -2.5021047838
| 23>  H       -2.0498144659    -3.6593908835    -1.0915540543
| 24>  H       -2.1489135022    -1.6787160644     0.4400817579
| 25>  H       -3.0016390140    -0.8563342061    -0.8817969876
| 26> *
| 27>
| 28>                          ****END OF INPUT****

CARTESIAN COORDINATES (ANGSTROEM)
---------------------------------
  C     -0.015495    1.486138    0.073780
  C      1.302935    0.798134   -0.085423
  O      1.784411    0.341089    1.179871
  C      0.635256   -0.539178    1.310274
  C      0.037588   -0.033971   -0.006476
  C     -0.720277   -0.835964   -1.013886
  C     -0.268516   -2.277804   -1.399346
  C     -1.765422   -2.680157   -1.482890
  C     -2.109616   -1.433323   -0.626378
  H     -0.239881    1.992852    1.009025
  H     -0.409887    1.965281   -0.817736
  H      2.027639    0.975168   -0.872391
  H      0.957025   -1.586413    1.279779
  H      0.069687   -0.354647    2.231804
  H     -0.830228   -0.240822   -1.927818
  H      0.349582   -2.391354   -2.293247
  H      0.233231   -2.780654   -0.567186
  H     -2.152230   -2.589137   -2.502105
  H     -2.049814   -3.659391   -1.091554
  H     -2.148914   -1.678716    0.440082
  H     -3.001639   -0.856334   -0.881797

 Total Charge           Charge          ....    0
 Multiplicity           Mult            ....    1
 Number of Electrons    NEL             ....   68
 Basis Dimension        Dim             ....  351

ORBITAL ENERGIES
----------------

  NO   OCC          E(Eh)            E(eV)
   0   2.0000     -20.549508      -559.1806
   1   2.0000     -11.283766      -307.0469
   2   2.0000     -11.279729      -306.9370
   3   2.0000     -11.239757      -305.8493
   4   2.0000     -11.236089      -305.7495
   5   2.0000     -11.229379      -305.5669
   6   2.0000     -11.223896      -305.4177
   7   2.0000     -11.223259      -305.4004
   8   2.0000     -11.222735      -305.3862
   9   2.0000      -1.387629       -37.7593
  10   2.0000      -1.144613       -31.1465
  11   2.0000      -1.103193       -30.0194
  12   2.0000      -0.954748       -25.9800
  13   2.0000      -0.903464       -24.5845
  14   2.0000      -0.899872       -24.4868
  15   2.0000      -0.820197       -22.3187
  16   2.0000      -0.774171       -21.0663
  17   2.0000      -0.732394       -19.9294
  18   2.0000      -0.689286       -18.7564
  19   2.0000      -0.661000       -17.9867
  20   2.0000      -0.639282       -17.3957
  21   2.0000      -0.631759       -17.1910
  22   2.0000      -0.577359       -15.7107
  23   2.0000      -0.559772       -15.2322
  24   2.0000      -0.541258       -14.7284
  25   2.0000      -0.540589       -14.7102
  26   2.0000      -0.522511       -14.2182
  27   2.0000      -0.502458       -13.6726
  28   2.0000      -0.475493       -12.9388
  29   2.0000      -0.450493       -12.2585
  30   2.0000      -0.450172       -12.2498
  31   2.0000      -0.447965       -12.1897
  32   2.0000      -0.387407       -10.5419
  33   2.0000      -0.366171        -9.9640
  34   0.0000       0.134854         3.6696
  35   0.0000       0.149750         4.0749
  36   0.0000       0.159018         4.3271
  37   0.0000       0.162870         4.4319
  38   0.0000       0.183849         5.0028

MULLIKEN ATOMIC CHARGES
-----------------------
   0 C :   -0.265920
   1 C :    0.041750
   2 O :   -0.333272
   3 C :   -0.007586
   4 C :   -0.063627
   5 C :   -0.045733
   6 C :   -0.246495
   7 C :   -0.193201
   8 C :   -0.250616
   9 H :    0.132642
  10 H :    0.126677
  11 H :    0.129020
  12 H :    0.100068
  13 H :    0.104436
  14 H :    0.093104
  15 H :    0.117548
  16 H :    0.105364
  17 H :    0.110966
  18 H :    0.116276
  19 H :    0.111383
  20 H :    0.117217
Sum of atomic charges:    0.0000000

LOEWDIN ATOMIC CHARGES
----------------------
   0 C :   -0.187670
   1 C :   -0.232344
   2 O :    0.142106
   3 C :   -0.216776
   4 C :   -0.204462
   5 C :   -0.205419
   6 C :   -0.215100
   7 C :   -0.244874
   8 C :   -0.213532
   9 H :    0.135534
  10 H :    0.142003
  11 H :    0.130272
  12 H :    0.123098
  13 H :    0.118927
  14 H :    0.158653
  15 H :    0.123168
  16 H :    0.133090
  17 H :    0.133168
  18 H :    0.121843
  19 H :    0.135473
  20 H :    0.122840

  Mayer bond orders larger than 0.1
B(  0-C ,  1-C ) :   0.8801 B(  0-C ,  4-C ) :   0.8707 B(  0-C ,  9-H ) :   0.9039
B(  0-C , 10-H ) :   0.9256 B(  1-C ,  2-O ) :   0.9629 B(  1-C ,  4-C ) :   0.9165
B(  1-C , 11-H ) :   0.9161 B(  2-O ,  3-C ) :   0.9378 B(  3-C ,  4-C ) :   0.9546
B(  3-C , 12-H ) :   0.9174 B(  3-C , 13-H ) :   0.9075 B(  4-C ,  5-C ) :   0.9182
B(  5-C ,  6-C ) :   0.9208 B(  5-C ,  8-C ) :   0.9072 B(  5-C , 14-H ) :   0.9066
B(  6-C ,  7-C ) :   0.9445 B(  6-C , 15-H ) :   0.9296 B(  6-C , 16-H ) :   0.9256
B(  7-C ,  8-C ) :   0.9397 B(  7-C , 17-H ) :   0.9273 B(  7-C , 18-H ) :   0.9270
B(  8-C , 19-H ) :   0.9253 B(  8-C , 20-H ) :   0.9286

MP2 TOTAL ENERGY:     -386.348297577 Eh
FINAL SINGLE POINT ENERGY      -386.348297576684

DIPOLE MOMENT
-------------
                                X             Y             Z
Electronic contribution:      4.88030       3.75255       2.75233
Nuclear contribution   :     -5.49156      -3.96228      -3.24826
                        -----------------------------------------
Total Dipole Moment    :     -0.61126      -0.20973      -0.49592
                        -----------------------------------------
Magnitude (a.u.)       :      0.81460
Magnitude (Debye)      :      2.07055

                             ****ORCA TERMINATED NORMALLY****
TOTAL RUN TIME: 0 days 0 hours 18 minutes 7 seconds 938 msec
