                         Program Version 3.0.3 - RELEASE   -
|  1> ! RI-MP2 RIJK def2-TZVP def2-TZVP/C def2-TZVP/JK TIGHTSCF
|  2> % maxcore 2000
|  3> % mp2 density relaxed end
|  4> *xyz 0 1
|  5>  O       -0.0855344071     1.4411359410    -0.0831657513
|  6>  C       -0.0038106851     0.0258107953     0.0021654423
|  7>  C        0.5931240150    -0.5496269355     1.3098676717
|  8>  N       -0.2290727306    -1.7311573884     1.6608492643
|  9>  C       -1.6476937088    -1.4665190181     1.9609868660
| 10>  C       -2.1343856856    -0.1367501568     1.3708606263
| 11>  C       -1.4217332747    -0.5439599125     0.0326346329
| 12>  O       -2.1328627859    -0.4187216000    -1.1597940065
| 13>  C       -1.2287330538    -1.9667912715     0.6181230760
| 14>  H        0.7917185214     1.7914896471    -0.2623868665
| 15>  H        0.5179743866    -0.3800330780    -0.8780757009
| 16>  H        1.6298469690    -0.8768637051     1.1880424752
| 17>  H        0.5637452675     0.1985764097     2.1081670698
| 18>  H       -2.0816039168    -2.0032338034     2.7973754425
| 19>  H       -3.2163015916    -0.1507740236     1.2213059558
| 20>  H       -1.8360242537     0.7984684347     1.8523955167
| 21>  H       -2.0546221311     0.5037037144    -1.4332408887
| 22>  H       -1.3246581948    -2.9237024090     0.1199504445
| 23> *
| 24>
| 25>                          ****END OF INPUT****

CARTESIAN COORDINATES (ANGSTROEM)
---------------------------------
  O     -0.085534    1.441136   -0.083166
  C     -0.003811    0.025811    0.002165
  C      0.593124   -0.549627    1.309868
  N     -0.229073   -1.731157    1.660849
  C     -1.647694   -1.466519    1.960987
  C     -2.134386   -0.136750    1.370861
  C     -1.421733   -0.543960    0.032635
  O     -2.132863   -0.418722   -1.159794
  C     -1.228733   -1.966791    0.618123
  H      0.791719    1.791490   -0.262387
  H      0.517974   -0.380033   -0.878076
  H      1.629847   -0.876864    1.188042
  H      0.563745    0.198576    2.108167
  H     -2.081604   -2.003234    2.797375
  H     -3.216302   -0.150774    1.221306
  H     -1.836024    0.798468    1.852396
  H     -2.054622    0.503704   -1.433241
  H     -1.324658   -2.923702    0.119950

 Total Charge           Charge          ....    0
 Multiplicity           Mult            ....    1
 Number of Electrons    NEL             ....   68
 Basis Dimension        Dim             ....  333

ORBITAL ENERGIES
----------------

  NO   OCC          E(Eh)            E(eV)
   0   2.0000     -20.573139      -559.8236
   1   2.0000     -20.563722      -559.5673
   2   2.0000     -15.563104      -423.4936
   3   2.0000     -11.291927      -307.2690
   4   2.0000     -11.285861      -307.1039
   5   2.0000     -11.261387      -306.4379
   6   2.0000     -11.255859      -306.2875
   7   2.0000     -11.253633      -306.2269
   8   2.0000     -11.226195      -305.4803
   9   2.0000      -1.390179       -37.8287
  10   2.0000      -1.366180       -37.1756
  11   2.0000      -1.298896       -35.3448
  12   2.0000      -1.045140       -28.4397
  13   2.0000      -1.031115       -28.0581
  14   2.0000      -0.917931       -24.9782
  15   2.0000      -0.834942       -22.7199
  16   2.0000      -0.796529       -21.6747
  17   2.0000      -0.744952       -20.2712
  18   2.0000      -0.716906       -19.5080
  19   2.0000      -0.711485       -19.3605
  20   2.0000      -0.656996       -17.8778
  21   2.0000      -0.635061       -17.2809
  22   2.0000      -0.623758       -16.9733
  23   2.0000      -0.598163       -16.2769
  24   2.0000      -0.583697       -15.8832
  25   2.0000      -0.544670       -14.8212
  26   2.0000      -0.538172       -14.6444
  27   2.0000      -0.518155       -14.0997
  28   2.0000      -0.493319       -13.4239
  29   2.0000      -0.467674       -12.7261
  30   2.0000      -0.441192       -12.0054
  31   2.0000      -0.424898       -11.5621
  32   2.0000      -0.411290       -11.1918
  33   2.0000      -0.373100       -10.1526
  34   0.0000       0.123073         3.3490
  35   0.0000       0.163770         4.4564
  36   0.0000       0.168194         4.5768
  37   0.0000       0.172380         4.6907
  38   0.0000       0.183672         4.9980

MULLIKEN ATOMIC CHARGES
-----------------------
   0 O :   -0.471758
   1 C :   -0.056076
   2 C :   -0.142783
   3 N :   -0.212936
   4 C :   -0.078012
   5 C :   -0.279646
   6 C :    0.380872
   7 O :   -0.470445
   8 C :   -0.184704
   9 H :    0.324833
  10 H :    0.092417
  11 H :    0.123687
  12 H :    0.118868
  13 H :    0.134235
  14 H :    0.121763
  15 H :    0.124259
  16 H :    0.331493
  17 H :    0.143933
Sum of atomic charges:   -0.0000000

LOEWDIN ATOMIC CHARGES
----------------------
   0 O :   -0.018751
   1 C :   -0.317328
   2 C :   -0.249919
   3 N :    0.137932
   4 C :   -0.208733
   5 C :   -0.185343
   6 C :   -0.333429
   7 O :    0.027538
   8 C :   -0.162859
   9 H :    0.177952
  10 H :    0.138187
  11 H :    0.130720
  12 H :    0.134563
  13 H :    0.131271
  14 H :    0.145744
  15 H :    0.129088
  16 H :    0.188127
  17 H :    0.135239

  Mayer bond orders larger than 0.1
B(  0-O ,  1-C ) :   1.0677 B(  0-O ,  9-H ) :   0.8427 B(  1-C ,  2-C ) :   0.9184
B(  1-C ,  6-C ) :   0.8776 B(  1-C , 10-H ) :   0.9416 B(  2-C ,  3-N ) :   0.9128
B(  2-C , 11-H ) :   0.9199 B(  2-C , 12-H ) :   0.9205 B(  3-N ,  4-C ) :   0.9138
B(  3-N ,  8-C ) :   0.9118 B(  4-C ,  5-C ) :   0.9202 B(  4-C ,  8-C ) :   0.8623
B(  4-C , 13-H ) :   0.9349 B(  5-C ,  6-C ) :   0.9507 B(  5-C , 14-H ) :   0.9092
B(  5-C , 15-H ) :   0.8975 B(  6-C ,  7-O ) :   0.9714 B(  6-C ,  8-C ) :   0.8519
B(  7-O , 16-H ) :   0.8257 B(  8-C , 17-H ) :   0.9147

MP2 TOTAL ENERGY:     -438.330208449 Eh
FINAL SINGLE POINT ENERGY      -438.330208448763

DIPOLE MOMENT
-------------
                                X             Y             Z
Electronic contribution:     -0.60511      -0.93741      -1.51175
Nuclear contribution   :      1.12163       1.59677       1.37190
                        -----------------------------------------
Total Dipole Moment    :      0.51651       0.65936      -0.13984
                        -----------------------------------------
Magnitude (a.u.)       :      0.84917
Magnitude (Debye)      :      2.15843

                             ****ORCA TERMINATED NORMALLY****
TOTAL RUN TIME: 0 days 0 hours 16 minutes 33 seconds 434 msec
