                         Program Version 3.0.3 - RELEASE   -
|  1> ! RI-MP2 RIJK def2-TZVP def2-TZVP/C def2-TZVP/JK TIGHTSCF
|  2> % maxcore 2000
|  3> % mp2 density relaxed end
|  4> *xyz 0 1
|  5>  C       -0.1050637507     1.5753477978    -0.1538603805
|  6>  C        0.0178430078     0.0668392421     0.0020416473
|  7>  C        1.0360848122    -0.6579886031    -0.8914951319
|  8>  O        2.3423292427    -0.2021205873    -0.5009036374
|  9>  C        1.7295421401    -1.2468498568     0.2595408522
| 10>  C        0.7692023888    -0.5751668688     1.2577985377
| 11>  C        1.3876641501     0.3532786323     2.2888170086
| 12>  O        0.0030557829    -1.6044384102     1.8608920943
| 13>  H        0.8810101364     2.0465819668    -0.1754105719
| 14>  H       -0.6199225156     1.8282686139    -1.0874364058
| 15>  H       -0.6786856869     2.0186669045     0.6672948544
| 16>  H       -0.9577426440    -0.4254450884    -0.0624950322
| 17>  H        0.9271240221    -1.0198833329    -1.9076948384
| 18>  H        2.2642517399    -2.1824798091     0.3771488769
| 19>  H        2.0825574466     1.0497442323     1.8145758228
| 20>  H        0.6168807613     0.9398382579     2.8042892834
| 21>  H        1.9290611841    -0.2312198026     3.0391318024
| 22>  H       -0.6588182779    -1.1908644784     2.4254247380
| 23> *
| 24>
| 25>                          ****END OF INPUT****

CARTESIAN COORDINATES (ANGSTROEM)
---------------------------------
  C     -0.105064    1.575348   -0.153860
  C      0.017843    0.066839    0.002042
  C      1.036085   -0.657989   -0.891495
  O      2.342329   -0.202121   -0.500904
  C      1.729542   -1.246850    0.259541
  C      0.769202   -0.575167    1.257799
  C      1.387664    0.353279    2.288817
  O      0.003056   -1.604438    1.860892
  H      0.881010    2.046582   -0.175411
  H     -0.619923    1.828269   -1.087436
  H     -0.678686    2.018667    0.667295
  H     -0.957743   -0.425445   -0.062495
  H      0.927124   -1.019883   -1.907695
  H      2.264252   -2.182480    0.377149
  H      2.082557    1.049744    1.814576
  H      0.616881    0.939838    2.804289
  H      1.929061   -0.231220    3.039132
  H     -0.658818   -1.190864    2.425425

 Total Charge           Charge          ....    0
 Multiplicity           Mult            ....    1
 Number of Electrons    NEL             ....   62
 Basis Dimension        Dim             ....  308

ORBITAL ENERGIES
----------------

  NO   OCC          E(Eh)            E(eV)
   0   2.0000     -20.567468      -559.6693
   1   2.0000     -20.563563      -559.5630
   2   2.0000     -11.295989      -307.3795
   3   2.0000     -11.283551      -307.0410
   4   2.0000     -11.280723      -306.9641
   5   2.0000     -11.238016      -305.8020
   6   2.0000     -11.218179      -305.2622
   7   2.0000     -11.217721      -305.2497
   8   2.0000      -1.420067       -38.6420
   9   2.0000      -1.370290       -37.2875
  10   2.0000      -1.089116       -29.6364
  11   2.0000      -0.995667       -27.0935
  12   2.0000      -0.959916       -26.1206
  13   2.0000      -0.865139       -23.5416
  14   2.0000      -0.827313       -22.5123
  15   2.0000      -0.745375       -20.2827
  16   2.0000      -0.718629       -19.5549
  17   2.0000      -0.665789       -18.1170
  18   2.0000      -0.642897       -17.4941
  19   2.0000      -0.611046       -16.6274
  20   2.0000      -0.587388       -15.9836
  21   2.0000      -0.577470       -15.7138
  22   2.0000      -0.548857       -14.9352
  23   2.0000      -0.542883       -14.7726
  24   2.0000      -0.536229       -14.5915
  25   2.0000      -0.511147       -13.9090
  26   2.0000      -0.501063       -13.6346
  27   2.0000      -0.478151       -13.0111
  28   2.0000      -0.455689       -12.3999
  29   2.0000      -0.407891       -11.0993
  30   2.0000      -0.399674       -10.8757
  31   0.0000       0.127239         3.4623
  32   0.0000       0.158651         4.3171
  33   0.0000       0.168774         4.5926
  34   0.0000       0.176969         4.8156
  35   0.0000       0.196504         5.3472

MULLIKEN ATOMIC CHARGES
-----------------------
   0 C :   -0.428499
   1 C :   -0.082239
   2 C :   -0.009062
   3 O :   -0.338241
   4 C :   -0.051799
   5 C :    0.305933
   6 C :   -0.449654
   7 O :   -0.472088
   8 H :    0.148614
   9 H :    0.135328
  10 H :    0.125574
  11 H :    0.101766
  12 H :    0.139382
  13 H :    0.138389
  14 H :    0.153094
  15 H :    0.121680
  16 H :    0.145233
  17 H :    0.316588
Sum of atomic charges:    0.0000000

LOEWDIN ATOMIC CHARGES
----------------------
   0 C :   -0.297478
   1 C :   -0.206527
   2 C :   -0.218011
   3 O :    0.173570
   4 C :   -0.205147
   5 C :   -0.344509
   6 C :   -0.280600
   7 O :    0.013606
   8 H :    0.129551
   9 H :    0.126259
  10 H :    0.123021
  11 H :    0.154434
  12 H :    0.129771
  13 H :    0.133914
  14 H :    0.135950
  15 H :    0.124321
  16 H :    0.130426
  17 H :    0.177449

  Mayer bond orders larger than 0.1
B(  0-C ,  1-C ) :   0.8658 B(  0-C ,  8-H ) :   0.9372 B(  0-C ,  9-H ) :   0.9324
B(  0-C , 10-H ) :   0.9401 B(  1-C ,  2-C ) :   0.8998 B(  1-C ,  5-C ) :   0.9205
B(  1-C , 11-H ) :   0.9108 B(  2-C ,  3-O ) :   0.9008 B(  2-C ,  4-C ) :   0.9206
B(  2-C , 12-H ) :   0.9198 B(  3-O ,  4-C ) :   0.9171 B(  4-C ,  5-C ) :   0.8479
B(  4-C , 13-H ) :   0.9184 B(  5-C ,  6-C ) :   0.9120 B(  5-C ,  7-O ) :   0.9543
B(  6-C , 14-H ) :   0.9316 B(  6-C , 15-H ) :   0.9219 B(  6-C , 16-H ) :   0.9382
B(  7-O , 17-H ) :   0.8406

MP2 TOTAL ENERGY:     -384.271207074 Eh
FINAL SINGLE POINT ENERGY      -384.271207073864

DIPOLE MOMENT
-------------
                                X             Y             Z
Electronic contribution:      2.21795      -5.03721      -1.99576
Nuclear contribution   :     -2.90053       5.25882       2.24058
                        -----------------------------------------
Total Dipole Moment    :     -0.68259       0.22161       0.24482
                        -----------------------------------------
Magnitude (a.u.)       :      0.75827
Magnitude (Debye)      :      1.92736

                             ****ORCA TERMINATED NORMALLY****
TOTAL RUN TIME: 0 days 0 hours 13 minutes 43 seconds 958 msec
