                         Program Version 3.0.3 - RELEASE   -
|  1> ! RI-MP2 RIJK def2-TZVP def2-TZVP/C def2-TZVP/JK TIGHTSCF
|  2> % maxcore 2000
|  3> % mp2 density relaxed end
|  4> *xyz 0 1
|  5>  C       -0.3831656244     1.5367439011    -0.0246254527
|  6>  C       -0.0448033417     0.0523359072     0.0550800380
|  7>  C        1.1327468584    -0.6016984326    -0.7789910978
|  8>  C        2.1480126356    -0.0783651376     0.2829265865
|  9>  O        2.5004744989     1.2756961131     0.1908405673
| 10>  C        0.9177332640    -0.5417993706     1.1621010796
| 11>  C        0.9442798108    -1.7531281278     0.2232804871
| 12>  O        0.8346417522    -2.9398140626     0.2478611873
| 13>  H        0.4909078835     2.1775018338     0.0485899549
| 14>  H       -0.8918695383     1.7437553475    -0.9727248597
| 15>  H       -1.0823771643     1.7937290800     0.7791666585
| 16>  H       -0.9760961474    -0.5181671730    -0.0307338338
| 17>  H        1.2578569966    -0.6361911706    -1.8588414014
| 18>  H        3.0468948336    -0.6971185314     0.4032981210
| 19>  H        3.0270566833     1.4976365986     0.9653919917
| 20>  H        0.8051594194    -0.5087405451     2.2441622035
| 21> *
| 22>
| 23>                          ****END OF INPUT****

CARTESIAN COORDINATES (ANGSTROEM)
---------------------------------
  C     -0.383166    1.536744   -0.024625
  C     -0.044803    0.052336    0.055080
  C      1.132747   -0.601698   -0.778991
  C      2.148013   -0.078365    0.282927
  O      2.500474    1.275696    0.190841
  C      0.917733   -0.541799    1.162101
  C      0.944280   -1.753128    0.223280
  O      0.834642   -2.939814    0.247861
  H      0.490908    2.177502    0.048590
  H     -0.891870    1.743755   -0.972725
  H     -1.082377    1.793729    0.779167
  H     -0.976096   -0.518167   -0.030734
  H      1.257857   -0.636191   -1.858841
  H      3.046895   -0.697119    0.403298
  H      3.027057    1.497637    0.965392
  H      0.805159   -0.508741    2.244162

 Total Charge           Charge          ....    0
 Multiplicity           Mult            ....    1
 Number of Electrons    NEL             ....   60
 Basis Dimension        Dim             ....  296

ORBITAL ENERGIES
----------------

  NO   OCC          E(Eh)            E(eV)
   0   2.0000     -20.579261      -559.9902
   1   2.0000     -20.553567      -559.2910
   2   2.0000     -11.343423      -308.6702
   3   2.0000     -11.316672      -307.9423
   4   2.0000     -11.265050      -306.5376
   5   2.0000     -11.260927      -306.4254
   6   2.0000     -11.260340      -306.4094
   7   2.0000     -11.218744      -305.2776
   8   2.0000      -1.402253       -38.1573
   9   2.0000      -1.390186       -37.8289
  10   2.0000      -1.219744       -33.1909
  11   2.0000      -1.005004       -27.3475
  12   2.0000      -0.898000       -24.4358
  13   2.0000      -0.887183       -24.1415
  14   2.0000      -0.802808       -21.8455
  15   2.0000      -0.729325       -19.8459
  16   2.0000      -0.709032       -19.2937
  17   2.0000      -0.699402       -19.0317
  18   2.0000      -0.641077       -17.4446
  19   2.0000      -0.615663       -16.7531
  20   2.0000      -0.600391       -16.3375
  21   2.0000      -0.574119       -15.6226
  22   2.0000      -0.568635       -15.4733
  23   2.0000      -0.546948       -14.8832
  24   2.0000      -0.523991       -14.2585
  25   2.0000      -0.488837       -13.3019
  26   2.0000      -0.464125       -12.6295
  27   2.0000      -0.457311       -12.4441
  28   2.0000      -0.435098       -11.8396
  29   2.0000      -0.386141       -10.5074
  30   0.0000       0.124053         3.3757
  31   0.0000       0.145003         3.9457
  32   0.0000       0.162489         4.4215
  33   0.0000       0.172619         4.6972
  34   0.0000       0.174052         4.7362

MULLIKEN ATOMIC CHARGES
-----------------------
   0 C :   -0.424275
   1 C :   -0.094879
   2 C :   -0.062097
   3 C :   -0.002621
   4 O :   -0.470713
   5 C :   -0.066228
   6 C :    0.076859
   7 O :   -0.253052
   8 H :    0.165793
   9 H :    0.131751
  10 H :    0.129688
  11 H :    0.119213
  12 H :    0.153883
  13 H :    0.110982
  14 H :    0.329212
  15 H :    0.156484
Sum of atomic charges:    0.0000000

LOEWDIN ATOMIC CHARGES
----------------------
   0 C :   -0.296009
   1 C :   -0.184692
   2 C :   -0.109938
   3 C :   -0.281026
   4 O :    0.000205
   5 C :   -0.121823
   6 C :   -0.287310
   7 O :    0.165210
   8 H :    0.127934
   9 H :    0.127425
  10 H :    0.126098
  11 H :    0.153474
  12 H :    0.133438
  13 H :    0.135169
  14 H :    0.182095
  15 H :    0.129751

  Mayer bond orders larger than 0.1
B(  0-C ,  1-C ) :   0.8784 B(  0-C ,  8-H ) :   0.9338 B(  0-C ,  9-H ) :   0.9372
B(  0-C , 10-H ) :   0.9376 B(  1-C ,  2-C ) :   0.8725 B(  1-C ,  5-C ) :   0.8739
B(  1-C , 11-H ) :   0.9269 B(  2-C ,  3-C ) :   0.8766 B(  2-C ,  6-C ) :   0.8214
B(  2-C , 12-H ) :   0.8726 B(  3-C ,  4-O ) :   1.0561 B(  3-C ,  5-C ) :   0.8491
B(  3-C , 13-H ) :   0.9570 B(  4-O , 14-H ) :   0.8370 B(  5-C ,  6-C ) :   0.8063
B(  5-C , 15-H ) :   0.8757 B(  6-C ,  7-O ) :   2.0561

MP2 TOTAL ENERGY:     -383.059419923 Eh
FINAL SINGLE POINT ENERGY      -383.059419922636

DIPOLE MOMENT
-------------
                                X             Y             Z
Electronic contribution:      2.65611      -6.13229       0.27200
Nuclear contribution   :     -2.39991       7.10688       0.16627
                        -----------------------------------------
Total Dipole Moment    :      0.25620       0.97459       0.43827
                        -----------------------------------------
Magnitude (a.u.)       :      1.09888
Magnitude (Debye)      :      2.79312

                             ****ORCA TERMINATED NORMALLY****
TOTAL RUN TIME: 0 days 0 hours 11 minutes 41 seconds 976 msec
