                         Program Version 3.0.3 - RELEASE   -
|  1> ! RI-MP2 RIJK def2-TZVP def2-TZVP/C def2-TZVP/JK TIGHTSCF
|  2> % maxcore 2000
|  3> % mp2 density relaxed end
|  4> *xyz 0 1
|  5>  C       -0.0896176015     1.4847196179    -0.0514237883
|  6>  C        0.0543957937    -0.0087821000     0.0175939295
|  7>  C       -0.7813805444    -0.8650471110     0.9387510623
|  8>  C        0.7279977948    -0.7746435149     1.1244930840
|  9>  C        1.5261839014    -1.8483607150     0.4453512503
| 10>  C        2.6288831938    -1.3556029278    -0.4831590530
| 11>  C        1.2585293354    -1.6828695963    -1.0265427814
| 12>  C        1.0203956976    -2.7985468271    -2.0035789311
| 13>  O        0.3890455982    -0.5811466045    -1.2372170972
| 14>  H        0.8396110069     1.9498999175    -0.3961713422
| 15>  H       -0.8856799738     1.7624363942    -0.7503682928
| 16>  H       -0.3415764753     1.8946308725     0.9306377656
| 17>  H       -1.4060522020    -0.3586833325     1.6671879038
| 18>  H       -1.1938143328    -1.7884387784     0.5460305323
| 19>  H        1.1282455445    -0.2698564614     1.9987633702
| 20>  H        1.6100339041    -2.8322039623     0.8974341222
| 21>  H        2.9201831237    -0.3123166502    -0.4224685016
| 22>  H        3.4369747502    -2.0435245297    -0.7089675853
| 23>  H        1.7026679598    -3.6316806786    -1.8129414536
| 24>  H       -0.0084169618    -3.1661142484    -1.9317494852
| 25>  H        1.1843558175    -2.4525471440    -3.0296206187
| 26> *
| 27>
| 28>                          ****END OF INPUT****

CARTESIAN COORDINATES (ANGSTROEM)
---------------------------------
  C     -0.089618    1.484720   -0.051424
  C      0.054396   -0.008782    0.017594
  C     -0.781381   -0.865047    0.938751
  C      0.727998   -0.774644    1.124493
  C      1.526184   -1.848361    0.445351
  C      2.628883   -1.355603   -0.483159
  C      1.258529   -1.682870   -1.026543
  C      1.020396   -2.798547   -2.003579
  O      0.389046   -0.581147   -1.237217
  H      0.839611    1.949900   -0.396171
  H     -0.885680    1.762436   -0.750368
  H     -0.341576    1.894631    0.930638
  H     -1.406052   -0.358683    1.667188
  H     -1.193814   -1.788439    0.546031
  H      1.128246   -0.269856    1.998763
  H      1.610034   -2.832204    0.897434
  H      2.920183   -0.312317   -0.422469
  H      3.436975   -2.043525   -0.708968
  H      1.702668   -3.631681   -1.812941
  H     -0.008417   -3.166114   -1.931749
  H      1.184356   -2.452547   -3.029621

 Total Charge           Charge          ....    0
 Multiplicity           Mult            ....    1
 Number of Electrons    NEL             ....   68
 Basis Dimension        Dim             ....  351

ORBITAL ENERGIES
----------------

  NO   OCC          E(Eh)            E(eV)
   0   2.0000     -20.552501      -559.2620
   1   2.0000     -11.283942      -307.0517
   2   2.0000     -11.283921      -307.0511
   3   2.0000     -11.231556      -305.6262
   4   2.0000     -11.230882      -305.6078
   5   2.0000     -11.221898      -305.3634
   6   2.0000     -11.221890      -305.3631
   7   2.0000     -11.217707      -305.2493
   8   2.0000     -11.217706      -305.2493
   9   2.0000      -1.387119       -37.7454
  10   2.0000      -1.144295       -31.1379
  11   2.0000      -1.123624       -30.5754
  12   2.0000      -0.972551       -26.4645
  13   2.0000      -0.970915       -26.4199
  14   2.0000      -0.858692       -23.3662
  15   2.0000      -0.802754       -21.8441
  16   2.0000      -0.778090       -21.1729
  17   2.0000      -0.751218       -20.4417
  18   2.0000      -0.669237       -18.2109
  19   2.0000      -0.651991       -17.7416
  20   2.0000      -0.610699       -16.6180
  21   2.0000      -0.587539       -15.9877
  22   2.0000      -0.581525       -15.8241
  23   2.0000      -0.574831       -15.6420
  24   2.0000      -0.548068       -14.9137
  25   2.0000      -0.547142       -14.8885
  26   2.0000      -0.538744       -14.6600
  27   2.0000      -0.523168       -14.2361
  28   2.0000      -0.505462       -13.7543
  29   2.0000      -0.502628       -13.6772
  30   2.0000      -0.448442       -12.2027
  31   2.0000      -0.413035       -11.2393
  32   2.0000      -0.379497       -10.3266
  33   2.0000      -0.350645        -9.5415
  34   0.0000       0.142355         3.8737
  35   0.0000       0.153151         4.1675
  36   0.0000       0.171578         4.6689
  37   0.0000       0.173243         4.7142
  38   0.0000       0.192804         5.2465

MULLIKEN ATOMIC CHARGES
-----------------------
   0 C :   -0.417590
   1 C :    0.225326
   2 C :   -0.309210
   3 C :   -0.130519
   4 C :   -0.130381
   5 C :   -0.309286
   6 C :    0.225305
   7 C :   -0.417555
   8 O :   -0.302756
   9 H :    0.130316
  10 H :    0.141379
  11 H :    0.123654
  12 H :    0.131077
  13 H :    0.133580
  14 H :    0.123337
  15 H :    0.123332
  16 H :    0.133582
  17 H :    0.131077
  18 H :    0.123641
  19 H :    0.130280
  20 H :    0.141411
Sum of atomic charges:   -0.0000000

LOEWDIN ATOMIC CHARGES
----------------------
   0 C :   -0.265948
   1 C :   -0.316398
   2 C :   -0.181489
   3 C :   -0.170185
   4 C :   -0.170182
   5 C :   -0.181490
   6 C :   -0.316385
   7 C :   -0.265947
   8 O :    0.247500
   9 H :    0.128113
  10 H :    0.131699
  11 H :    0.130453
  12 H :    0.135540
  13 H :    0.138658
  14 H :    0.145801
  15 H :    0.145806
  16 H :    0.138659
  17 H :    0.135535
  18 H :    0.130445
  19 H :    0.128093
  20 H :    0.131722

  Mayer bond orders larger than 0.1
B(  0-C ,  1-C ) :   0.9125 B(  0-C ,  9-H ) :   0.9362 B(  0-C , 10-H ) :   0.9416
B(  0-C , 11-H ) :   0.9333 B(  1-C ,  2-C ) :   0.8715 B(  1-C ,  3-C ) :   0.8937
B(  1-C ,  8-O ) :   0.9356 B(  2-C ,  3-C ) :   0.8697 B(  2-C , 12-H ) :   0.9232
B(  2-C , 13-H ) :   0.9134 B(  3-C ,  4-C ) :   0.8944 B(  3-C , 14-H ) :   0.9184
B(  4-C ,  5-C ) :   0.8697 B(  4-C ,  6-C ) :   0.8936 B(  4-C , 15-H ) :   0.9184
B(  5-C ,  6-C ) :   0.8716 B(  5-C , 16-H ) :   0.9134 B(  5-C , 17-H ) :   0.9232
B(  6-C ,  7-C ) :   0.9126 B(  6-C ,  8-O ) :   0.9354 B(  7-C , 18-H ) :   0.9333
B(  7-C , 19-H ) :   0.9362 B(  7-C , 20-H ) :   0.9416

MP2 TOTAL ENERGY:     -386.395407501 Eh
FINAL SINGLE POINT ENERGY      -386.395407501090

DIPOLE MOMENT
-------------
                                X             Y             Z
Electronic contribution:      0.01862      -0.01772       0.04918
Nuclear contribution   :      0.13090      -0.13025       0.36049
                        -----------------------------------------
Total Dipole Moment    :      0.14952      -0.14797       0.40967
                        -----------------------------------------
Magnitude (a.u.)       :      0.46052
Magnitude (Debye)      :      1.17054

                             ****ORCA TERMINATED NORMALLY****
TOTAL RUN TIME: 0 days 0 hours 19 minutes 33 seconds 932 msec
