                         Program Version 3.0.3 - RELEASE   -
|  1> ! RI-MP2 RIJK def2-TZVP def2-TZVP/C def2-TZVP/JK TIGHTSCF
|  2> % maxcore 2000
|  3> % mp2 density relaxed end
|  4> *xyz 0 1
|  5>  C        0.0562668762     1.5477942160    -0.0025521323
|  6>  C        0.0699481798     0.0383926271     0.0701350601
|  7>  O       -1.1024731727    -0.5560340274    -0.4129101918
|  8>  C        1.3329505389    -0.8230804230    -0.2146704608
|  9>  C        2.5186297875    -0.1353003587     0.4242651969
| 10>  O        3.5718284168     0.3114400249     0.0637581739
| 11>  N        1.8999082216    -0.1563827667     1.6908203638
| 12>  C        0.6760668933    -0.7819544176     1.1722515092
| 13>  C       -0.0237186302    -1.8499906348     1.9547035456
| 14>  H        0.9669924213     1.9922240025     0.4020581854
| 15>  H       -0.0291859568     1.8746006844    -1.0458328148
| 16>  H       -0.8052141871     1.9408618311     0.5466974159
| 17>  H       -1.2272658313    -0.2762884558    -1.3266976302
| 18>  H        1.3150578826    -1.5999613067    -0.9659096841
| 19>  H        1.9203186793     0.6256884284     2.3365403390
| 20>  H       -0.4752142898    -1.4333288800     2.8627155586
| 21>  H       -0.8207129033    -2.2943830942     1.3566691108
| 22>  H        0.6823213038    -2.6292806197     2.2560934450
| 23> *
| 24>
| 25>                          ****END OF INPUT****

CARTESIAN COORDINATES (ANGSTROEM)
---------------------------------
  C      0.056267    1.547794   -0.002552
  C      0.069948    0.038393    0.070135
  O     -1.102473   -0.556034   -0.412910
  C      1.332951   -0.823080   -0.214670
  C      2.518630   -0.135300    0.424265
  O      3.571828    0.311440    0.063758
  N      1.899908   -0.156383    1.690820
  C      0.676067   -0.781954    1.172252
  C     -0.023719   -1.849991    1.954704
  H      0.966992    1.992224    0.402058
  H     -0.029186    1.874601   -1.045833
  H     -0.805214    1.940862    0.546697
  H     -1.227266   -0.276288   -1.326698
  H      1.315058   -1.599961   -0.965910
  H      1.920319    0.625688    2.336540
  H     -0.475214   -1.433329    2.862716
  H     -0.820713   -2.294383    1.356669
  H      0.682321   -2.629281    2.256093

 Total Charge           Charge          ....    0
 Multiplicity           Mult            ....    1
 Number of Electrons    NEL             ....   68
 Basis Dimension        Dim             ....  333

ORBITAL ENERGIES
----------------

  NO   OCC          E(Eh)            E(eV)
   0   2.0000     -20.585726      -560.1661
   1   2.0000     -20.535303      -558.7940
   2   2.0000     -15.582246      -424.0145
   3   2.0000     -11.357807      -309.0616
   4   2.0000     -11.323009      -308.1147
   5   2.0000     -11.293282      -307.3058
   6   2.0000     -11.249691      -306.1196
   7   2.0000     -11.239126      -305.8322
   8   2.0000     -11.229878      -305.5805
   9   2.0000      -1.404726       -38.2245
  10   2.0000      -1.392625       -37.8952
  11   2.0000      -1.286361       -35.0037
  12   2.0000      -1.091240       -29.6941
  13   2.0000      -1.010017       -27.4840
  14   2.0000      -0.985002       -26.8033
  15   2.0000      -0.873147       -23.7595
  16   2.0000      -0.781366       -21.2620
  17   2.0000      -0.763966       -20.7886
  18   2.0000      -0.706328       -19.2202
  19   2.0000      -0.684977       -18.6392
  20   2.0000      -0.669768       -18.2253
  21   2.0000      -0.650256       -17.6944
  22   2.0000      -0.606739       -16.5102
  23   2.0000      -0.583326       -15.8731
  24   2.0000      -0.575679       -15.6650
  25   2.0000      -0.569921       -15.5083
  26   2.0000      -0.555896       -15.1267
  27   2.0000      -0.551568       -15.0089
  28   2.0000      -0.535494       -14.5715
  29   2.0000      -0.512557       -13.9474
  30   2.0000      -0.458953       -12.4887
  31   2.0000      -0.436464       -11.8768
  32   2.0000      -0.402742       -10.9592
  33   2.0000      -0.380136       -10.3440
  34   0.0000       0.115198         3.1347
  35   0.0000       0.139927         3.8076
  36   0.0000       0.159633         4.3438
  37   0.0000       0.170600         4.6423
  38   0.0000       0.181505         4.9390

MULLIKEN ATOMIC CHARGES
-----------------------
   0 C :   -0.397461
   1 C :    0.188760
   2 O :   -0.457384
   3 C :   -0.189397
   4 C :    0.162454
   5 O :   -0.292386
   6 N :   -0.319951
   7 C :    0.154363
   8 C :   -0.425786
   9 H :    0.142378
  10 H :    0.129468
  11 H :    0.146963
  12 H :    0.327912
  13 H :    0.163269
  14 H :    0.230320
  15 H :    0.131872
  16 H :    0.160476
  17 H :    0.144130
Sum of atomic charges:   -0.0000000

LOEWDIN ATOMIC CHARGES
----------------------
   0 C :   -0.270142
   1 C :   -0.321446
   2 O :    0.041267
   3 C :   -0.103872
   4 C :   -0.412774
   5 O :    0.122490
   6 N :    0.137791
   7 C :   -0.235169
   8 C :   -0.264228
   9 H :    0.135498
  10 H :    0.130313
  11 H :    0.132492
  12 H :    0.185952
  13 H :    0.145946
  14 H :    0.171202
  15 H :    0.131538
  16 H :    0.139470
  17 H :    0.133671

  Mayer bond orders larger than 0.1
B(  0-C ,  1-C ) :   0.9324 B(  0-C ,  9-H ) :   0.9271 B(  0-C , 10-H ) :   0.9193
B(  0-C , 11-H ) :   0.9376 B(  1-C ,  2-O ) :   0.9769 B(  1-C ,  3-C ) :   0.7820
B(  1-C ,  7-C ) :   0.9046 B(  2-O , 12-H ) :   0.8335 B(  3-C ,  4-C ) :   0.8714
B(  3-C ,  7-C ) :   0.8163 B(  3-C , 13-H ) :   0.9020 B(  4-C ,  5-O ) :   2.0241
B(  4-C ,  6-N ) :   1.1226 B(  6-N ,  7-C ) :   0.9478 B(  6-N , 14-H ) :   0.8572
B(  7-C ,  8-C ) :   0.8974 B(  8-C , 15-H ) :   0.9269 B(  8-C , 16-H ) :   0.9322
B(  8-C , 17-H ) :   0.9391

MP2 TOTAL ENERGY:     -438.364813503 Eh
FINAL SINGLE POINT ENERGY      -438.364813503093

DIPOLE MOMENT
-------------
                                X             Y             Z
Electronic contribution:      5.41532      -0.26064      -1.64325
Nuclear contribution   :     -6.74081       0.44020       1.66429
                        -----------------------------------------
Total Dipole Moment    :     -1.32549       0.17955       0.02104
                        -----------------------------------------
Magnitude (a.u.)       :      1.33776
Magnitude (Debye)      :      3.40031

                             ****ORCA TERMINATED NORMALLY****
TOTAL RUN TIME: 0 days 0 hours 20 minutes 23 seconds 170 msec
