                         Program Version 3.0.3 - RELEASE   -
|  1> ! RI-MP2 RIJK def2-TZVP def2-TZVP/C def2-TZVP/JK TIGHTSCF
|  2> % maxcore 2000
|  3> % mp2 density relaxed end
|  4> *xyz 0 1
|  5>  O        0.0799255701     1.3989770349     0.2017892228
|  6>  C       -0.0265132819     0.0002093600     0.0683071157
|  7>  C       -1.4450325676    -0.5155446615    -0.0522564437
|  8>  C       -2.2627732615    -0.1036339680    -1.2567937477
|  9>  C       -1.4850573981    -1.3963138737    -1.2807141885
| 10>  N       -0.1699527313    -1.3449774736    -1.8678736829
| 11>  C        0.6434853408    -0.4343446073    -1.2537640160
| 12>  O        1.6825267424     0.0323243455    -1.6718845778
| 13>  H        0.9257728452     1.6311456898    -0.2090083832
| 14>  H        0.4808299033    -0.5127760071     0.9020244340
| 15>  H       -1.9683385483    -0.8149230884     0.8463881995
| 16>  H       -3.3408046279    -0.1612523723    -1.1544790745
| 17>  H       -1.9038510365     0.7187333113    -1.8662778434
| 18>  H       -1.9788776359    -2.3603499572    -1.2883552051
| 19>  H       -0.0095319930    -1.5683189524    -2.8396605093
| 20> *
| 21>
| 22>                          ****END OF INPUT****

CARTESIAN COORDINATES (ANGSTROEM)
---------------------------------
  O      0.079926    1.398977    0.201789
  C     -0.026513    0.000209    0.068307
  C     -1.445033   -0.515545   -0.052256
  C     -2.262773   -0.103634   -1.256794
  C     -1.485057   -1.396314   -1.280714
  N     -0.169953   -1.344977   -1.867874
  C      0.643485   -0.434345   -1.253764
  O      1.682527    0.032324   -1.671885
  H      0.925773    1.631146   -0.209008
  H      0.480830   -0.512776    0.902024
  H     -1.968339   -0.814923    0.846388
  H     -3.340805   -0.161252   -1.154479
  H     -1.903851    0.718733   -1.866278
  H     -1.978878   -2.360350   -1.288355
  H     -0.009532   -1.568319   -2.839661

 Total Charge           Charge          ....    0
 Multiplicity           Mult            ....    1
 Number of Electrons    NEL             ....   60
 Basis Dimension        Dim             ....  290

ORBITAL ENERGIES
----------------

  NO   OCC          E(Eh)            E(eV)
   0   2.0000     -20.562614      -559.5372
   1   2.0000     -20.535843      -558.8087
   2   2.0000     -15.597461      -424.4285
   3   2.0000     -11.356691      -309.0313
   4   2.0000     -11.302859      -307.5664
   5   2.0000     -11.290471      -307.2293
   6   2.0000     -11.252338      -306.1917
   7   2.0000     -11.246415      -306.0305
   8   2.0000      -1.406161       -38.2636
   9   2.0000      -1.363971       -37.1155
  10   2.0000      -1.278357       -34.7858
  11   2.0000      -1.129818       -30.7439
  12   2.0000      -0.995208       -27.0810
  13   2.0000      -0.860438       -23.4137
  14   2.0000      -0.821602       -22.3569
  15   2.0000      -0.795142       -21.6369
  16   2.0000      -0.724893       -19.7253
  17   2.0000      -0.695703       -18.9310
  18   2.0000      -0.679302       -18.4847
  19   2.0000      -0.646974       -17.6051
  20   2.0000      -0.622503       -16.9392
  21   2.0000      -0.595478       -16.2038
  22   2.0000      -0.584796       -15.9131
  23   2.0000      -0.554013       -15.0755
  24   2.0000      -0.529675       -14.4132
  25   2.0000      -0.489709       -13.3257
  26   2.0000      -0.462705       -12.5908
  27   2.0000      -0.442003       -12.0275
  28   2.0000      -0.427039       -11.6203
  29   2.0000      -0.384701       -10.4682
  30   0.0000       0.134704         3.6655
  31   0.0000       0.144019         3.9190
  32   0.0000       0.161368         4.3911
  33   0.0000       0.167412         4.5555
  34   0.0000       0.178586         4.8596

MULLIKEN ATOMIC CHARGES
-----------------------
   0 O :   -0.470618
   1 C :    0.096934
   2 C :   -0.106662
   3 C :   -0.263788
   4 C :   -0.018012
   5 N :   -0.292798
   6 C :    0.149150
   7 O :   -0.348486
   8 H :    0.332384
   9 H :    0.100657
  10 H :    0.145561
  11 H :    0.137171
  12 H :    0.153309
  13 H :    0.139004
  14 H :    0.246194
Sum of atomic charges:   -0.0000000

LOEWDIN ATOMIC CHARGES
----------------------
   0 O :   -0.007078
   1 C :   -0.297117
   2 C :   -0.172346
   3 C :   -0.192953
   4 C :   -0.230175
   5 N :    0.145588
   6 C :   -0.427898
   7 O :    0.086003
   8 H :    0.186317
   9 H :    0.148633
  10 H :    0.148608
  11 H :    0.138826
  12 H :    0.143088
  13 H :    0.140896
  14 H :    0.189609

  Mayer bond orders larger than 0.1
B(  0-O ,  1-C ) :   1.0590 B(  0-O ,  8-H ) :   0.8169 B(  1-C ,  2-C ) :   0.9179
B(  1-C ,  6-C ) :   0.9076 B(  1-C ,  9-H ) :   0.9262 B(  2-C ,  3-C ) :   0.8600
B(  2-C ,  4-C ) :   0.8825 B(  2-C , 10-H ) :   0.9258 B(  3-C ,  4-C ) :   0.9062
B(  3-C , 11-H ) :   0.9250 B(  3-C , 12-H ) :   0.9180 B(  4-C ,  5-N ) :   0.8927
B(  4-C , 13-H ) :   0.9234 B(  5-N ,  6-C ) :   1.1914 B(  5-N , 14-H ) :   0.8564
B(  6-C ,  7-O ) :   1.9645

MP2 TOTAL ENERGY:     -399.176925778 Eh
FINAL SINGLE POINT ENERGY      -399.176925778212

DIPOLE MOMENT
-------------
                                X             Y             Z
Electronic contribution:      4.09858       0.29672      -0.77586
Nuclear contribution   :     -5.12809      -1.20350       0.58196
                        -----------------------------------------
Total Dipole Moment    :     -1.02951      -0.90678      -0.19390
                        -----------------------------------------
Magnitude (a.u.)       :      1.38555
Magnitude (Debye)      :      3.52178

                             ****ORCA TERMINATED NORMALLY****
TOTAL RUN TIME: 0 days 0 hours 12 minutes 1 seconds 578 msec
