                         Program Version 3.0.3 - RELEASE   -
|  1> ! RI-MP2 RIJK def2-TZVP def2-TZVP/C def2-TZVP/JK TIGHTSCF
|  2> % maxcore 2000
|  3> % mp2 density relaxed end
|  4> *xyz 0 1
|  5>  O       -0.1144740669     1.4046592897    -1.2962920825
|  6>  C        0.3883811469     1.0722734497    -0.2547266969
|  7>  C        1.1542215349     2.0317568920     0.6671889377
|  8>  O        1.7230461349     1.5711314218     1.6298519631
|  9>  C        1.1834071572     3.4783786654     0.2889483927
| 10>  C        1.5887239972     4.6862910195     1.1641351437
| 11>  C        1.1051979734     5.2290315741    -0.2065463485
| 12>  C        1.9550752541     4.1341697347    -0.9066526220
| 13>  N       -0.0687204380     4.2630638415    -0.0916013680
| 14>  H        0.3680479538     0.0317194846     0.1321118679
| 15>  H        0.9321317887     4.8870665969     2.0101144574
| 16>  H        2.6471034179     4.7932155382     1.4014911118
| 17>  H        0.9607879319     6.2675931204    -0.5038075334
| 18>  H        3.0453256350     4.1942087028    -0.8320499928
| 19>  H        1.6247804906     3.8237538609    -1.9003627467
| 20>  H       -0.3596905917     3.9702642877    -1.0287560436
| 21> *
| 22>
| 23>                          ****END OF INPUT****

CARTESIAN COORDINATES (ANGSTROEM)
---------------------------------
  O     -0.114474    1.404659   -1.296292
  C      0.388381    1.072273   -0.254727
  C      1.154222    2.031757    0.667189
  O      1.723046    1.571131    1.629852
  C      1.183407    3.478379    0.288948
  C      1.588724    4.686291    1.164135
  C      1.105198    5.229032   -0.206546
  C      1.955075    4.134170   -0.906653
  N     -0.068720    4.263064   -0.091601
  H      0.368048    0.031719    0.132112
  H      0.932132    4.887067    2.010114
  H      2.647103    4.793216    1.401491
  H      0.960788    6.267593   -0.503808
  H      3.045326    4.194209   -0.832050
  H      1.624780    3.823754   -1.900363
  H     -0.359691    3.970264   -1.028756

 Total Charge           Charge          ....    0
 Multiplicity           Mult            ....    1
 Number of Electrons    NEL             ....   66
 Basis Dimension        Dim             ....  321

ORBITAL ENERGIES
----------------

  NO   OCC          E(Eh)            E(eV)
   0   2.0000     -20.599746      -560.5476
   1   2.0000     -20.592838      -560.3596
   2   2.0000     -15.566563      -423.5877
   3   2.0000     -11.361930      -309.1738
   4   2.0000     -11.359978      -309.1207
   5   2.0000     -11.300612      -307.5053
   6   2.0000     -11.289728      -307.2091
   7   2.0000     -11.255329      -306.2731
   8   2.0000     -11.244998      -305.9920
   9   2.0000      -1.440282       -39.1921
  10   2.0000      -1.422096       -38.6972
  11   2.0000      -1.298787       -35.3418
  12   2.0000      -1.026782       -27.9402
  13   2.0000      -0.987844       -26.8806
  14   2.0000      -0.934163       -25.4199
  15   2.0000      -0.898328       -24.4448
  16   2.0000      -0.791374       -21.5344
  17   2.0000      -0.758609       -20.6428
  18   2.0000      -0.714050       -19.4303
  19   2.0000      -0.703519       -19.1437
  20   2.0000      -0.666619       -18.1396
  21   2.0000      -0.655212       -17.8292
  22   2.0000      -0.617812       -16.8115
  23   2.0000      -0.598694       -16.2913
  24   2.0000      -0.543095       -14.7784
  25   2.0000      -0.538247       -14.6464
  26   2.0000      -0.519050       -14.1241
  27   2.0000      -0.504920       -13.7396
  28   2.0000      -0.502209       -13.6658
  29   2.0000      -0.483021       -13.1437
  30   2.0000      -0.475739       -12.9455
  31   2.0000      -0.413109       -11.2413
  32   2.0000      -0.403127       -10.9696
  33   0.0000       0.047287         1.2868
  34   0.0000       0.146866         3.9964
  35   0.0000       0.159546         4.3415
  36   0.0000       0.167449         4.5565
  37   0.0000       0.172180         4.6853

MULLIKEN ATOMIC CHARGES
-----------------------
   0 O :   -0.250600
   1 C :    0.094159
   2 C :    0.125221
   3 O :   -0.241072
   4 C :    0.035687
   5 C :   -0.136727
   6 C :   -0.097221
   7 C :   -0.198391
   8 N :   -0.320090
   9 H :    0.118873
  10 H :    0.124772
  11 H :    0.127942
  12 H :    0.143533
  13 H :    0.120931
  14 H :    0.136809
  15 H :    0.216173
Sum of atomic charges:    0.0000000

LOEWDIN ATOMIC CHARGES
----------------------
   0 O :    0.162539
   1 C :   -0.245060
   2 C :   -0.289994
   3 O :    0.197498
   4 C :   -0.243468
   5 C :   -0.165109
   6 C :   -0.216615
   7 C :   -0.174375
   8 N :    0.032345
   9 H :    0.123492
  10 H :    0.137549
  11 H :    0.134430
  12 H :    0.123492
  13 H :    0.130519
  14 H :    0.132225
  15 H :    0.160533

  Mayer bond orders larger than 0.1
B(  0-O ,  1-C ) :   1.9494 B(  1-C ,  2-C ) :   0.9141 B(  1-C ,  4-C ) :  -0.1016
B(  1-C ,  9-H ) :   0.9266 B(  2-C ,  3-O ) :   2.0166 B(  2-C ,  4-C ) :   0.7493
B(  4-C ,  5-C ) :   0.8565 B(  4-C ,  7-C ) :   0.8758 B(  4-C ,  8-N ) :   0.8904
B(  5-C ,  6-C ) :   0.9112 B(  5-C , 10-H ) :   0.9187 B(  5-C , 11-H ) :   0.9263
B(  6-C ,  7-C ) :   0.9260 B(  6-C ,  8-N ) :   0.9065 B(  6-C , 12-H ) :   0.8989
B(  7-C , 13-H ) :   0.9293 B(  7-C , 14-H ) :   0.9187 B(  8-N , 15-H ) :   0.8768

MP2 TOTAL ENERGY:     -437.099555151 Eh
FINAL SINGLE POINT ENERGY      -437.099555150868

DIPOLE MOMENT
-------------
                                X             Y             Z
Electronic contribution:     -1.69144      -5.74714       0.89393
Nuclear contribution   :      2.20055       6.08018      -1.32457
                        -----------------------------------------
Total Dipole Moment    :      0.50910       0.33304      -0.43064
                        -----------------------------------------
Magnitude (a.u.)       :      0.74535
Magnitude (Debye)      :      1.89453

                             ****ORCA TERMINATED NORMALLY****
TOTAL RUN TIME: 0 days 0 hours 16 minutes 16 seconds 931 msec
