                         Program Version 3.0.3 - RELEASE   -
|  1> ! RI-MP2 RIJK def2-TZVP def2-TZVP/C def2-TZVP/JK TIGHTSCF
|  2> % maxcore 2000
|  3> % mp2 density relaxed end
|  4> *xyz 0 1
|  5>  C       -0.0366668989     1.4904184106     0.0659434239
|  6>  C        0.0699179777     0.0055064009    -0.0494973147
|  7>  C        0.0220443693    -0.7654213067    -1.1462064892
|  8>  C        0.1150462928    -2.1977218378    -0.7161007050
|  9>  C       -1.0353306148    -2.7858676253     0.2463799121
| 10>  C        0.1138744239    -3.4396068671     1.0569471564
| 11>  C        0.8809375810    -2.1669778495     0.6393075921
| 12>  C        0.0711614724    -0.9312119214     1.1519296578
| 13>  C       -1.3654296637    -1.5894284935     1.1490006365
| 14>  H        0.8223790761     1.9105432806     0.6047481604
| 15>  H       -0.0891623846     1.9687048643    -0.9162305857
| 16>  H       -0.9299621445     1.7840016991     0.6331863354
| 17>  H       -0.1017617418    -0.4240314783    -2.1674543228
| 18>  H        0.4554927651    -2.9315169136    -1.4474163488
| 19>  H       -1.8644063512    -3.3659045763    -0.1581294476
| 20>  H       -0.0584299843    -3.6368616939     2.1194902889
| 21>  H        0.5243986917    -4.3311601922     0.5751277586
| 22>  H        1.9688694307    -2.0844034129     0.6710639540
| 23>  H        0.3762363136    -0.4924907712     2.1033489503
| 24>  H       -2.1248425731    -0.9129067293     0.7502912928
| 25>  H       -1.6797220175    -1.9200211765     2.1438560546
| 26> *
| 27>
| 28>                          ****END OF INPUT****

CARTESIAN COORDINATES (ANGSTROEM)
---------------------------------
  C     -0.036667    1.490418    0.065943
  C      0.069918    0.005506   -0.049497
  C      0.022044   -0.765421   -1.146206
  C      0.115046   -2.197722   -0.716101
  C     -1.035331   -2.785868    0.246380
  C      0.113874   -3.439607    1.056947
  C      0.880938   -2.166978    0.639308
  C      0.071161   -0.931212    1.151930
  C     -1.365430   -1.589428    1.149001
  H      0.822379    1.910543    0.604748
  H     -0.089162    1.968705   -0.916231
  H     -0.929962    1.784002    0.633186
  H     -0.101762   -0.424031   -2.167454
  H      0.455493   -2.931517   -1.447416
  H     -1.864406   -3.365905   -0.158129
  H     -0.058430   -3.636862    2.119490
  H      0.524399   -4.331160    0.575128
  H      1.968869   -2.084403    0.671064
  H      0.376236   -0.492491    2.103349
  H     -2.124843   -0.912907    0.750291
  H     -1.679722   -1.920021    2.143856

 Total Charge           Charge          ....    0
 Multiplicity           Mult            ....    1
 Number of Electrons    NEL             ....   66
 Basis Dimension        Dim             ....  351

ORBITAL ENERGIES
----------------

  NO   OCC          E(Eh)            E(eV)
   0   2.0000     -11.227673      -305.5205
   1   2.0000     -11.226689      -305.4937
   2   2.0000     -11.224473      -305.4334
   3   2.0000     -11.224088      -305.4230
   4   2.0000     -11.223645      -305.4109
   5   2.0000     -11.220467      -305.3244
   6   2.0000     -11.215881      -305.1996
   7   2.0000     -11.215058      -305.1772
   8   2.0000     -11.205040      -304.9046
   9   2.0000      -1.200270       -32.6610
  10   2.0000      -1.067533       -29.0490
  11   2.0000      -0.978681       -26.6313
  12   2.0000      -0.956313       -26.0226
  13   2.0000      -0.923171       -25.1207
  14   2.0000      -0.847969       -23.0744
  15   2.0000      -0.772040       -21.0083
  16   2.0000      -0.731058       -19.8931
  17   2.0000      -0.693393       -18.8682
  18   2.0000      -0.680071       -18.5057
  19   2.0000      -0.636545       -17.3213
  20   2.0000      -0.599470       -16.3124
  21   2.0000      -0.575226       -15.6527
  22   2.0000      -0.563578       -15.3357
  23   2.0000      -0.550179       -14.9711
  24   2.0000      -0.504327       -13.7234
  25   2.0000      -0.499931       -13.6038
  26   2.0000      -0.489393       -13.3170
  27   2.0000      -0.470006       -12.7895
  28   2.0000      -0.455132       -12.3848
  29   2.0000      -0.436106       -11.8671
  30   2.0000      -0.427820       -11.6416
  31   2.0000      -0.415530       -11.3071
  32   2.0000      -0.318082        -8.6555
  33   0.0000       0.139532         3.7969
  34   0.0000       0.151510         4.1228
  35   0.0000       0.158134         4.3031
  36   0.0000       0.175496         4.7755
  37   0.0000       0.183094         4.9822

MULLIKEN ATOMIC CHARGES
-----------------------
   0 C :   -0.452695
   1 C :   -0.034753
   2 C :   -0.226743
   3 C :   -0.080183
   4 C :   -0.073494
   5 C :   -0.265040
   6 C :   -0.062351
   7 C :   -0.012660
   8 C :   -0.263554
   9 H :    0.142072
  10 H :    0.138284
  11 H :    0.137259
  12 H :    0.119028
  13 H :    0.115875
  14 H :    0.123513
  15 H :    0.111148
  16 H :    0.114250
  17 H :    0.112744
  18 H :    0.121410
  19 H :    0.119040
  20 H :    0.116849
Sum of atomic charges:    0.0000000

LOEWDIN ATOMIC CHARGES
----------------------
   0 C :   -0.276519
   1 C :   -0.163376
   2 C :   -0.126707
   3 C :   -0.156663
   4 C :   -0.179063
   5 C :   -0.208178
   6 C :   -0.152981
   7 C :   -0.151579
   8 C :   -0.196453
   9 H :    0.131082
  10 H :    0.130315
  11 H :    0.131279
  12 H :    0.134754
  13 H :    0.145466
  14 H :    0.130742
  15 H :    0.124411
  16 H :    0.137368
  17 H :    0.134728
  18 H :    0.140560
  19 H :    0.136017
  20 H :    0.134796

  Mayer bond orders larger than 0.1
B(  0-C ,  1-C ) :   0.8783 B(  0-C ,  9-H ) :   0.9439 B(  0-C , 10-H ) :   0.9522
B(  0-C , 11-H ) :   0.9218 B(  1-C ,  2-C ) :   1.7219 B(  1-C ,  7-C ) :   0.9278
B(  2-C ,  3-C ) :   0.9680 B(  2-C , 12-H ) :   0.9295 B(  3-C ,  4-C ) :   0.8481
B(  3-C ,  6-C ) :   0.9238 B(  3-C , 13-H ) :   0.9251 B(  4-C ,  5-C ) :   0.9112
B(  4-C ,  8-C ) :   0.9450 B(  4-C , 14-H ) :   0.9134 B(  5-C ,  6-C ) :   0.9332
B(  5-C , 15-H ) :   0.9223 B(  5-C , 16-H ) :   0.9251 B(  6-C ,  7-C ) :   0.9037
B(  6-C , 17-H ) :   0.9115 B(  7-C ,  8-C ) :   0.8804 B(  7-C , 18-H ) :   0.9155
B(  8-C , 19-H ) :   0.9236 B(  8-C , 20-H ) :   0.9241

MP2 TOTAL ENERGY:     -349.310670169 Eh
FINAL SINGLE POINT ENERGY      -349.310670168832

DIPOLE MOMENT
-------------
                                X             Y             Z
Electronic contribution:      0.91192      -1.68809      -1.36798
Nuclear contribution   :     -0.96891       1.74746       1.44700
                        -----------------------------------------
Total Dipole Moment    :     -0.05699       0.05937       0.07903
                        -----------------------------------------
Magnitude (a.u.)       :      0.11409
Magnitude (Debye)      :      0.29000

                             ****ORCA TERMINATED NORMALLY****
TOTAL RUN TIME: 0 days 0 hours 22 minutes 49 seconds 281 msec
