                         Program Version 3.0.3 - RELEASE   -
|  1> ! RI-MP2 RIJK def2-TZVP def2-TZVP/C def2-TZVP/JK TIGHTSCF
|  2> % maxcore 2000
|  3> % mp2 density relaxed end
|  4> *xyz 0 1
|  5>  C       -0.2643411379     1.6273736090    -0.2495584295
|  6>  C       -0.0315361450     0.1039588394    -0.0768983050
|  7>  C       -1.2942647143    -0.6076756664     0.1499787301
|  8>  C       -2.3392979407    -1.1653782362     0.3472690711
|  9>  C        0.7015940407    -0.4489156684    -1.2198411125
| 10>  C        1.3199033063    -0.8760095130    -2.1613628671
| 11>  C        2.1138082983    -1.3520481442    -3.2867410019
| 12>  N        1.5487909627    -2.4029097533    -3.9485746043
| 13>  O        3.1762413603    -0.8524028535    -3.6023377456
| 14>  H        0.6931352391     2.1374488956    -0.3769766856
| 15>  H       -0.8851994576     1.8185516048    -1.1272107877
| 16>  H       -0.7710587884     2.0247356107     0.6329157397
| 17>  H        0.5987064258    -0.0358402099     0.8136110253
| 18>  H       -3.2593657286    -1.6663562235     0.5216517795
| 19>  H        0.6816079965    -2.8115743356    -3.6476427014
| 20>  H        2.0474714326    -2.8020972056    -4.7266423451
| 21> *
| 22>
| 23>                          ****END OF INPUT****

CARTESIAN COORDINATES (ANGSTROEM)
---------------------------------
  C     -0.264341    1.627374   -0.249558
  C     -0.031536    0.103959   -0.076898
  C     -1.294265   -0.607676    0.149979
  C     -2.339298   -1.165378    0.347269
  C      0.701594   -0.448916   -1.219841
  C      1.319903   -0.876010   -2.161363
  C      2.113808   -1.352048   -3.286741
  N      1.548791   -2.402910   -3.948575
  O      3.176241   -0.852403   -3.602338
  H      0.693135    2.137449   -0.376977
  H     -0.885199    1.818552   -1.127211
  H     -0.771059    2.024736    0.632916
  H      0.598706   -0.035840    0.813611
  H     -3.259366   -1.666356    0.521652
  H      0.681608   -2.811574   -3.647643
  H      2.047471   -2.802097   -4.726642

 Total Charge           Charge          ....    0
 Multiplicity           Mult            ....    1
 Number of Electrons    NEL             ....   64
 Basis Dimension        Dim             ....  321

ORBITAL ENERGIES
----------------

  NO   OCC          E(Eh)            E(eV)
   0   2.0000     -20.528244      -558.6019
   1   2.0000     -15.591742      -424.2729
   2   2.0000     -11.379725      -309.6581
   3   2.0000     -11.303741      -307.5904
   4   2.0000     -11.264260      -306.5161
   5   2.0000     -11.249864      -306.1244
   6   2.0000     -11.244653      -305.9826
   7   2.0000     -11.244585      -305.9807
   8   2.0000     -11.237836      -305.7971
   9   2.0000      -1.392320       -37.8870
  10   2.0000      -1.221534       -33.2396
  11   2.0000      -1.134612       -30.8744
  12   2.0000      -1.044972       -28.4351
  13   2.0000      -1.011312       -27.5192
  14   2.0000      -0.916258       -24.9327
  15   2.0000      -0.872122       -23.7316
  16   2.0000      -0.763504       -20.7760
  17   2.0000      -0.744366       -20.2552
  18   2.0000      -0.701532       -19.0897
  19   2.0000      -0.685388       -18.6504
  20   2.0000      -0.671291       -18.2668
  21   2.0000      -0.622116       -16.9286
  22   2.0000      -0.593910       -16.1611
  23   2.0000      -0.582359       -15.8468
  24   2.0000      -0.557683       -15.1753
  25   2.0000      -0.544195       -14.8083
  26   2.0000      -0.457254       -12.4425
  27   2.0000      -0.423019       -11.5109
  28   2.0000      -0.417987       -11.3740
  29   2.0000      -0.414946       -11.2913
  30   2.0000      -0.398772       -10.8511
  31   2.0000      -0.394302       -10.7295
  32   0.0000       0.108161         2.9432
  33   0.0000       0.126049         3.4300
  34   0.0000       0.138236         3.7616
  35   0.0000       0.155193         4.2230
  36   0.0000       0.158624         4.3164

MULLIKEN ATOMIC CHARGES
-----------------------
   0 C :   -0.365792
   1 C :   -0.242833
   2 C :   -0.025643
   3 C :   -0.145152
   4 C :   -0.043830
   5 C :    0.081531
   6 C :    0.220803
   7 N :   -0.467856
   8 O :   -0.319247
   9 H :    0.150327
  10 H :    0.139307
  11 H :    0.145050
  12 H :    0.146125
  13 H :    0.195472
  14 H :    0.268357
  15 H :    0.263383
Sum of atomic charges:    0.0000000

LOEWDIN ATOMIC CHARGES
----------------------
   0 C :   -0.247125
   1 C :   -0.249857
   2 C :   -0.074087
   3 C :   -0.087922
   4 C :   -0.005645
   5 C :   -0.021355
   6 C :   -0.481531
   7 N :   -0.002534
   8 O :    0.105865
   9 H :    0.131236
  10 H :    0.131839
  11 H :    0.129747
  12 H :    0.190135
  13 H :    0.128661
  14 H :    0.176837
  15 H :    0.175736

  Mayer bond orders larger than 0.1
B(  0-C ,  1-C ) :   0.9182 B(  0-C ,  9-H ) :   0.9324 B(  0-C , 10-H ) :   0.9267
B(  0-C , 11-H ) :   0.9342 B(  1-C ,  2-C ) :   1.1253 B(  1-C ,  4-C ) :   1.0934
B(  1-C ,  5-C ) :  -0.1476 B(  1-C , 12-H ) :   0.9094 B(  2-C ,  3-C ) :   2.5890
B(  3-C , 13-H ) :   0.8967 B(  4-C ,  5-C ) :   2.6979 B(  5-C ,  6-C ) :   0.8509
B(  5-C ,  7-N ) :  -0.1144 B(  6-C ,  7-N ) :   1.2439 B(  6-C ,  8-O ) :   2.0465
B(  7-N , 14-H ) :   0.8659 B(  7-N , 15-H ) :   0.8590

MP2 TOTAL ENERGY:     -400.008545187 Eh
FINAL SINGLE POINT ENERGY      -400.008545187174

DIPOLE MOMENT
-------------
                                X             Y             Z
Electronic contribution:      3.58765      -3.70680      -3.01349
Nuclear contribution   :     -4.81243       3.14240       3.32275
                        -----------------------------------------
Total Dipole Moment    :     -1.22478      -0.56440       0.30926
                        -----------------------------------------
Magnitude (a.u.)       :      1.38357
Magnitude (Debye)      :      3.51676

                             ****ORCA TERMINATED NORMALLY****
TOTAL RUN TIME: 0 days 0 hours 13 minutes 18 seconds 569 msec
