                         Program Version 3.0.3 - RELEASE   -
|  1> ! RI-MP2 RIJK def2-TZVP def2-TZVP/C def2-TZVP/JK TIGHTSCF
|  2> % maxcore 2000
|  3> % mp2 density relaxed end
|  4> *xyz 0 1
|  5>  C        3.1592415357    -1.3427675082     1.1231483335
|  6>  N        1.8563494193    -1.3132353389     0.4734582270
|  7>  C        0.7463810061    -1.9236930569     1.1904370060
|  8>  C        0.8156440276    -0.4396435519     1.0307327554
|  9>  C        1.0894859283     0.5035430851     2.1806198935
| 10>  C       -0.0489074819     1.3632561901     2.8030725020
| 11>  C       -0.6302176417     0.1176043058     3.5116638071
| 12>  C        0.9082207058     0.1427157051     3.6873526894
| 13>  O        0.8195941804     1.5907037469     3.9810962293
| 14>  H        3.1230960311    -1.2781887330     2.2223223952
| 15>  H        3.6612161380    -2.2776463105     0.8554130672
| 16>  H        3.7705274658    -0.5138778578     0.7520403002
| 17>  H        0.0574805090    -2.5186049068     0.5959059007
| 18>  H        0.9436940922    -2.3222083359     2.1855538819
| 19>  H        0.1994987913     0.0062115411     0.2496982393
| 20>  H        1.9874165146     1.1066750701     2.0171336113
| 21>  H       -0.5626584541     2.2285072660     2.3823374522
| 22>  H       -1.1963431237     0.3299270418     4.4190225772
| 23>  H       -1.0742957516    -0.6695361407     2.9005868420
| 24>  H        1.5436357580    -0.4596624516     4.3377953596
| 25> *
| 26>
| 27>                          ****END OF INPUT****

CARTESIAN COORDINATES (ANGSTROEM)
---------------------------------
  C      3.159242   -1.342768    1.123148
  N      1.856349   -1.313235    0.473458
  C      0.746381   -1.923693    1.190437
  C      0.815644   -0.439644    1.030733
  C      1.089486    0.503543    2.180620
  C     -0.048907    1.363256    2.803073
  C     -0.630218    0.117604    3.511664
  C      0.908221    0.142716    3.687353
  O      0.819594    1.590704    3.981096
  H      3.123096   -1.278189    2.222322
  H      3.661216   -2.277646    0.855413
  H      3.770527   -0.513878    0.752040
  H      0.057481   -2.518605    0.595906
  H      0.943694   -2.322208    2.185554
  H      0.199499    0.006212    0.249698
  H      1.987417    1.106675    2.017134
  H     -0.562658    2.228507    2.382337
  H     -1.196343    0.329927    4.419023
  H     -1.074296   -0.669536    2.900587
  H      1.543636   -0.459662    4.337795

 Total Charge           Charge          ....    0
 Multiplicity           Mult            ....    1
 Number of Electrons    NEL             ....   68
 Basis Dimension        Dim             ....  345

ORBITAL ENERGIES
----------------

  NO   OCC          E(Eh)            E(eV)
   0   2.0000     -20.550519      -559.2081
   1   2.0000     -15.561902      -423.4609
   2   2.0000     -11.304785      -307.6188
   3   2.0000     -11.303872      -307.5940
   4   2.0000     -11.265516      -306.5503
   5   2.0000     -11.258331      -306.3548
   6   2.0000     -11.249351      -306.1104
   7   2.0000     -11.248662      -306.0916
   8   2.0000     -11.239039      -305.8298
   9   2.0000      -1.398731       -38.0614
  10   2.0000      -1.276534       -34.7363
  11   2.0000      -1.082902       -29.4673
  12   2.0000      -0.996862       -27.1260
  13   2.0000      -0.948587       -25.8124
  14   2.0000      -0.888184       -24.1687
  15   2.0000      -0.840978       -22.8842
  16   2.0000      -0.819510       -22.3000
  17   2.0000      -0.728479       -19.8229
  18   2.0000      -0.707939       -19.2640
  19   2.0000      -0.674870       -18.3641
  20   2.0000      -0.649193       -17.6654
  21   2.0000      -0.634348       -17.2615
  22   2.0000      -0.596078       -16.2201
  23   2.0000      -0.568256       -15.4630
  24   2.0000      -0.557314       -15.1653
  25   2.0000      -0.548028       -14.9126
  26   2.0000      -0.512216       -13.9381
  27   2.0000      -0.494326       -13.4513
  28   2.0000      -0.475770       -12.9464
  29   2.0000      -0.462587       -12.5876
  30   2.0000      -0.454249       -12.3607
  31   2.0000      -0.442001       -12.0275
  32   2.0000      -0.416605       -11.3364
  33   2.0000      -0.369148       -10.0450
  34   0.0000       0.138766         3.7760
  35   0.0000       0.154024         4.1912
  36   0.0000       0.158184         4.3044
  37   0.0000       0.176804         4.8111
  38   0.0000       0.183013         4.9800

MULLIKEN ATOMIC CHARGES
-----------------------
   0 C :   -0.299426
   1 N :   -0.198874
   2 C :   -0.178120
   3 C :   -0.113109
   4 C :   -0.041521
   5 C :   -0.048121
   6 C :   -0.153575
   7 C :   -0.067311
   8 O :   -0.308973
   9 H :    0.108831
  10 H :    0.144572
  11 H :    0.138526
  12 H :    0.129959
  13 H :    0.117884
  14 H :    0.124828
  15 H :    0.121530
  16 H :    0.137654
  17 H :    0.121824
  18 H :    0.124545
  19 H :    0.138876
Sum of atomic charges:   -0.0000000

LOEWDIN ATOMIC CHARGES
----------------------
   0 C :   -0.330312
   1 N :    0.089097
   2 C :   -0.250701
   3 C :   -0.242220
   4 C :   -0.184101
   5 C :   -0.207901
   6 C :   -0.197656
   7 C :   -0.219623
   8 O :    0.130542
   9 H :    0.107637
  10 H :    0.120121
  11 H :    0.119355
  12 H :    0.124121
  13 H :    0.125331
  14 H :    0.147643
  15 H :    0.156748
  16 H :    0.124819
  17 H :    0.132950
  18 H :    0.131725
  19 H :    0.122425

  Mayer bond orders larger than 0.1
B(  0-C ,  1-N ) :   0.8845 B(  0-C ,  9-H ) :   0.9275 B(  0-C , 10-H ) :   0.9365
B(  0-C , 11-H ) :   0.9387 B(  1-N ,  2-C ) :   0.9004 B(  1-N ,  3-C ) :   0.9236
B(  2-C ,  3-C ) :   0.9396 B(  2-C , 12-H ) :   0.9204 B(  2-C , 13-H ) :   0.9141
B(  3-C ,  4-C ) :   0.8906 B(  3-C , 14-H ) :   0.9153 B(  4-C ,  5-C ) :   0.9042
B(  4-C ,  7-C ) :   0.9014 B(  4-C , 15-H ) :   0.9208 B(  5-C ,  6-C ) :   0.9185
B(  5-C ,  7-C ) :   0.1093 B(  5-C ,  8-O ) :   0.9117 B(  5-C , 16-H ) :   0.8872
B(  6-C ,  7-C ) :   0.9119 B(  6-C , 17-H ) :   0.9231 B(  6-C , 18-H ) :   0.9107
B(  7-C ,  8-O ) :   0.9227 B(  7-C , 19-H ) :   0.8872

MP2 TOTAL ENERGY:     -402.340807843 Eh
FINAL SINGLE POINT ENERGY      -402.340807842657

DIPOLE MOMENT
-------------
                                X             Y             Z
Electronic contribution:     -1.72149       3.92850       1.53045
Nuclear contribution   :      1.44468      -4.44422      -1.56157
                        -----------------------------------------
Total Dipole Moment    :     -0.27680      -0.51572      -0.03112
                        -----------------------------------------
Magnitude (a.u.)       :      0.58614
Magnitude (Debye)      :      1.48984

                             ****ORCA TERMINATED NORMALLY****
TOTAL RUN TIME: 0 days 0 hours 18 minutes 11 seconds 112 msec
