                         Program Version 3.0.3 - RELEASE   -
|  1> ! RI-MP2 RIJK def2-TZVP def2-TZVP/C def2-TZVP/JK TIGHTSCF
|  2> % maxcore 2000
|  3> % mp2 density relaxed end
|  4> *xyz 0 1
|  5>  C       -0.1664134830    -1.2694991288    -0.0982428950
|  6>  C       -0.0804305900    -0.0715459184    -0.0343717765
|  7>  C        0.0534153194     1.3676596756     0.0473494015
|  8>  N       -0.2801632677     2.0207773884     1.3869143967
|  9>  C        0.7174107323     1.5211486212     2.3498058298
| 10>  C        1.1299010154     2.5956672918     1.4215747938
| 11>  C        1.4626577959     2.0032148018     0.0773092909
| 12>  C        2.7263088526     1.6314256118    -0.5532517657
| 13>  O        1.9462868005     2.7560522507    -1.0076231952
| 14>  H       -0.2591546664    -2.3258664256    -0.1596475307
| 15>  H       -0.5495374346     1.8613729507    -0.7202595305
| 16>  H        0.4853007365     1.8021231937     3.3722871046
| 17>  H        1.1099880918     0.5147572632     2.2292354415
| 18>  H        1.3288557463     3.6189041662     1.7199436905
| 19>  H        3.6686396164     1.8842139763    -0.0700928439
| 20>  H        2.7558633845     0.7827915215    -1.2341796919
| 21> *
| 22>
| 23>                          ****END OF INPUT****

CARTESIAN COORDINATES (ANGSTROEM)
---------------------------------
  C     -0.166413   -1.269499   -0.098243
  C     -0.080431   -0.071546   -0.034372
  C      0.053415    1.367660    0.047349
  N     -0.280163    2.020777    1.386914
  C      0.717411    1.521149    2.349806
  C      1.129901    2.595667    1.421575
  C      1.462658    2.003215    0.077309
  C      2.726309    1.631426   -0.553252
  O      1.946287    2.756052   -1.007623
  H     -0.259155   -2.325866   -0.159648
  H     -0.549537    1.861373   -0.720260
  H      0.485301    1.802123    3.372287
  H      1.109988    0.514757    2.229235
  H      1.328856    3.618904    1.719944
  H      3.668640    1.884214   -0.070093
  H      2.755863    0.782792   -1.234180

 Total Charge           Charge          ....    0
 Multiplicity           Mult            ....    1
 Number of Electrons    NEL             ....   64
 Basis Dimension        Dim             ....  321

ORBITAL ENERGIES
----------------

  NO   OCC          E(Eh)            E(eV)
   0   2.0000     -20.582200      -560.0701
   1   2.0000     -15.581084      -423.9828
   2   2.0000     -11.313327      -307.8513
   3   2.0000     -11.297436      -307.4189
   4   2.0000     -11.293819      -307.3204
   5   2.0000     -11.277021      -306.8633
   6   2.0000     -11.270355      -306.6820
   7   2.0000     -11.245319      -306.0007
   8   2.0000     -11.238018      -305.8020
   9   2.0000      -1.430643       -38.9298
  10   2.0000      -1.304888       -35.5078
  11   2.0000      -1.069107       -29.0919
  12   2.0000      -0.994604       -27.0646
  13   2.0000      -0.949392       -25.8343
  14   2.0000      -0.909249       -24.7419
  15   2.0000      -0.856976       -23.3195
  16   2.0000      -0.777522       -21.1574
  17   2.0000      -0.727677       -19.8011
  18   2.0000      -0.714183       -19.4339
  19   2.0000      -0.697074       -18.9683
  20   2.0000      -0.671757       -18.2794
  21   2.0000      -0.621489       -16.9116
  22   2.0000      -0.602982       -16.4080
  23   2.0000      -0.566048       -15.4029
  24   2.0000      -0.523599       -14.2478
  25   2.0000      -0.493512       -13.4291
  26   2.0000      -0.492410       -13.3992
  27   2.0000      -0.462452       -12.5840
  28   2.0000      -0.456580       -12.4242
  29   2.0000      -0.403626       -10.9832
  30   2.0000      -0.400356       -10.8943
  31   2.0000      -0.373074       -10.1519
  32   0.0000       0.144197         3.9238
  33   0.0000       0.150282         4.0894
  34   0.0000       0.158751         4.3198
  35   0.0000       0.163249         4.4422
  36   0.0000       0.175062         4.7637

MULLIKEN ATOMIC CHARGES
-----------------------
   0 C :   -0.146631
   1 C :   -0.100506
   2 C :    0.013274
   3 N :   -0.227267
   4 C :   -0.172243
   5 C :   -0.101820
   6 C :    0.100385
   7 C :   -0.056089
   8 O :   -0.324302
   9 H :    0.195752
  10 H :    0.139047
  11 H :    0.136658
  12 H :    0.143812
  13 H :    0.148030
  14 H :    0.123780
  15 H :    0.128121
Sum of atomic charges:    0.0000000

LOEWDIN ATOMIC CHARGES
----------------------
   0 C :   -0.080483
   1 C :   -0.089006
   2 C :   -0.190873
   3 N :    0.135575
   4 C :   -0.235557
   5 C :   -0.172019
   6 C :   -0.292358
   7 C :   -0.222330
   8 O :    0.182176
   9 H :    0.129154
  10 H :    0.173860
  11 H :    0.135776
  12 H :    0.134425
  13 H :    0.140590
  14 H :    0.124061
  15 H :    0.127009

  Mayer bond orders larger than 0.1
B(  0-C ,  1-C ) :   2.5472 B(  0-C ,  9-H ) :   0.8944 B(  1-C ,  2-C ) :   1.2162
B(  2-C ,  3-N ) :   0.8877 B(  2-C ,  6-C ) :   0.9459 B(  2-C , 10-H ) :   0.8918
B(  3-N ,  4-C ) :   0.8879 B(  3-N ,  5-C ) :   0.9156 B(  4-C ,  5-C ) :   0.9295
B(  4-C , 11-H ) :   0.9254 B(  4-C , 12-H ) :   0.9068 B(  5-C ,  6-C ) :   0.9378
B(  5-C , 13-H ) :   0.8898 B(  6-C ,  7-C ) :   0.9812 B(  6-C ,  8-O ) :   0.9071
B(  7-C ,  8-O ) :   0.8913 B(  7-C , 14-H ) :   0.9133 B(  7-C , 15-H ) :   0.9006

MP2 TOTAL ENERGY:     -399.931963650 Eh
FINAL SINGLE POINT ENERGY      -399.931963649631

DIPOLE MOMENT
-------------
                                X             Y             Z
Electronic contribution:     -1.56635       1.10657      -1.89221
Nuclear contribution   :      2.27489      -1.77642       2.25431
                        -----------------------------------------
Total Dipole Moment    :      0.70854      -0.66985       0.36210
                        -----------------------------------------
Magnitude (a.u.)       :      1.04011
Magnitude (Debye)      :      2.64376

                             ****ORCA TERMINATED NORMALLY****
TOTAL RUN TIME: 0 days 0 hours 16 minutes 36 seconds 19 msec
