                         Program Version 3.0.3 - RELEASE   -
|  1> ! RI-MP2 RIJK def2-TZVP def2-TZVP/C def2-TZVP/JK TIGHTSCF
|  2> % maxcore 2000
|  3> % mp2 density relaxed end
|  4> *xyz 0 1
|  5>  C       -0.1625651031     1.6022750232     0.1691166333
|  6>  C        0.0170792288     0.0996911425    -0.0125477394
|  7>  C        0.8008409881    -0.4710854907    -1.2453797115
|  8>  C        1.3963729149     0.5037486766    -2.2453759998
|  9>  O        2.1860240399    -0.2585915064    -3.1495847954
| 10>  N        1.7568908863    -1.0400727301    -0.2886381369
| 11>  C        2.8796994737    -1.9295485939    -0.4543626122
| 12>  C        1.1209417928    -0.5792473256     0.8357892688
| 13>  O        1.3678421330    -0.6909597601     2.0102903151
| 14>  H        0.7813967712     2.1451359400     0.0646242414
| 15>  H       -0.8769802894     2.0135852633    -0.5512930242
| 16>  H       -0.5451164002     1.8034913177     1.1739786818
| 17>  H       -0.9412538954    -0.4121909162     0.1184457452
| 18>  H        0.2507019466    -1.2426164507    -1.8001775171
| 19>  H        0.5819504661     1.0300748169    -2.7685658007
| 20>  H        2.0048645883     1.2541234386    -1.7209922503
| 21>  H        2.6117221611     0.3455422951    -3.7650045789
| 22>  H        3.6343074445    -1.4931878970    -1.1142700983
| 23>  H        3.3116178682    -2.1027284700     0.5342842151
| 24>  H        2.5680680145    -2.8923201132    -0.8791276759
| 25> *
| 26>
| 27>                          ****END OF INPUT****

CARTESIAN COORDINATES (ANGSTROEM)
---------------------------------
  C     -0.162565    1.602275    0.169117
  C      0.017079    0.099691   -0.012548
  C      0.800841   -0.471085   -1.245380
  C      1.396373    0.503749   -2.245376
  O      2.186024   -0.258592   -3.149585
  N      1.756891   -1.040073   -0.288638
  C      2.879699   -1.929549   -0.454363
  C      1.120942   -0.579247    0.835789
  O      1.367842   -0.690960    2.010290
  H      0.781397    2.145136    0.064624
  H     -0.876980    2.013585   -0.551293
  H     -0.545116    1.803491    1.173979
  H     -0.941254   -0.412191    0.118446
  H      0.250702   -1.242616   -1.800178
  H      0.581950    1.030075   -2.768566
  H      2.004865    1.254123   -1.720992
  H      2.611722    0.345542   -3.765005
  H      3.634307   -1.493188   -1.114270
  H      3.311618   -2.102728    0.534284
  H      2.568068   -2.892320   -0.879128

 Total Charge           Charge          ....    0
 Multiplicity           Mult            ....    1
 Number of Electrons    NEL             ....   70
 Basis Dimension        Dim             ....  345

ORBITAL ENERGIES
----------------

  NO   OCC          E(Eh)            E(eV)
   0   2.0000     -20.571898      -559.7898
   1   2.0000     -20.515316      -558.2501
   2   2.0000     -15.578558      -423.9141
   3   2.0000     -11.338365      -308.5326
   4   2.0000     -11.290716      -307.2360
   5   2.0000     -11.278403      -306.9010
   6   2.0000     -11.254939      -306.2625
   7   2.0000     -11.251480      -306.1683
   8   2.0000     -11.231771      -305.6320
   9   2.0000      -1.380383       -37.5621
  10   2.0000      -1.374401       -37.3993
  11   2.0000      -1.271607       -34.6022
  12   2.0000      -1.074513       -29.2390
  13   2.0000      -0.993815       -27.0431
  14   2.0000      -0.970611       -26.4117
  15   2.0000      -0.862680       -23.4747
  16   2.0000      -0.828173       -22.5357
  17   2.0000      -0.716935       -19.5088
  18   2.0000      -0.703405       -19.1406
  19   2.0000      -0.699208       -19.0264
  20   2.0000      -0.652763       -17.7626
  21   2.0000      -0.648178       -17.6378
  22   2.0000      -0.626358       -17.0441
  23   2.0000      -0.592559       -16.1243
  24   2.0000      -0.583355       -15.8739
  25   2.0000      -0.571792       -15.5593
  26   2.0000      -0.559179       -15.2160
  27   2.0000      -0.546714       -14.8768
  28   2.0000      -0.519260       -14.1298
  29   2.0000      -0.509418       -13.8620
  30   2.0000      -0.496835       -13.5196
  31   2.0000      -0.479978       -13.0609
  32   2.0000      -0.460939       -12.5428
  33   2.0000      -0.404208       -10.9991
  34   2.0000      -0.370911       -10.0930
  35   0.0000       0.121630         3.3097
  36   0.0000       0.134881         3.6703
  37   0.0000       0.153106         4.1662
  38   0.0000       0.169998         4.6259
  39   0.0000       0.182730         4.9723

MULLIKEN ATOMIC CHARGES
-----------------------
   0 C :   -0.428868
   1 C :   -0.030096
   2 C :    0.008055
   3 C :   -0.084738
   4 O :   -0.471149
   5 N :   -0.095623
   6 C :   -0.323623
   7 C :    0.149094
   8 O :   -0.337204
   9 H :    0.128059
  10 H :    0.135242
  11 H :    0.155128
  12 H :    0.120097
  13 H :    0.105143
  14 H :    0.101413
  15 H :    0.103450
  16 H :    0.319934
  17 H :    0.146501
  18 H :    0.165495
  19 H :    0.133690
Sum of atomic charges:    0.0000000

LOEWDIN ATOMIC CHARGES
----------------------
   0 C :   -0.289978
   1 C :   -0.191123
   2 C :   -0.213520
   3 C :   -0.329154
   4 O :   -0.044168
   5 N :    0.212244
   6 C :   -0.295654
   7 C :   -0.413253
   8 O :    0.088666
   9 H :    0.125249
  10 H :    0.124277
  11 H :    0.135265
  12 H :    0.156421
  13 H :    0.144265
  14 H :    0.122698
  15 H :    0.120818
  16 H :    0.174234
  17 H :    0.120331
  18 H :    0.133200
  19 H :    0.119183

  Mayer bond orders larger than 0.1
B(  0-C ,  1-C ) :   0.8833 B(  0-C ,  9-H ) :   0.9376 B(  0-C , 10-H ) :   0.9384
B(  0-C , 11-H ) :   0.9315 B(  1-C ,  2-C ) :   0.8860 B(  1-C ,  7-C ) :   0.8627
B(  1-C , 12-H ) :   0.9057 B(  2-C ,  3-C ) :   0.8957 B(  2-C ,  5-N ) :   0.9297
B(  2-C , 13-H ) :   0.9171 B(  3-C ,  4-O ) :   1.0118 B(  3-C , 14-H ) :   0.9291
B(  3-C , 15-H ) :   0.9275 B(  4-O , 16-H ) :   0.8457 B(  5-N ,  6-C ) :   0.8750
B(  5-N ,  7-C ) :   1.1446 B(  6-C , 17-H ) :   0.9286 B(  6-C , 18-H ) :   0.9241
B(  6-C , 19-H ) :   0.9324 B(  7-C ,  8-O ) :   2.0084

MP2 TOTAL ENERGY:     -439.586422412 Eh
FINAL SINGLE POINT ENERGY      -439.586422412469

DIPOLE MOMENT
-------------
                                X             Y             Z
Electronic contribution:      0.75500      -2.90939       2.98579
Nuclear contribution   :     -0.82475       3.49655      -4.57030
                        -----------------------------------------
Total Dipole Moment    :     -0.06975       0.58715      -1.58450
                        -----------------------------------------
Magnitude (a.u.)       :      1.69123
Magnitude (Debye)      :      4.29877

                             ****ORCA TERMINATED NORMALLY****
TOTAL RUN TIME: 0 days 0 hours 19 minutes 52 seconds 100 msec
