                         Program Version 3.0.3 - RELEASE   -
|  1> ! RI-MP2 RIJK def2-TZVP def2-TZVP/C def2-TZVP/JK TIGHTSCF
|  2> % maxcore 2000
|  3> % mp2 density relaxed end
|  4> *xyz 0 1
|  5>  C        0.0029311637     1.5694596956     0.1407268906
|  6>  C       -0.1166630425     0.0576095106    -0.0815418169
|  7>  C        0.6721372218    -0.4508224725    -1.2939687713
|  8>  O        0.2557133132     0.1699329997    -2.4961589127
|  9>  C        2.2162348522    -0.5483725992    -1.0540493012
| 10>  C        2.0439542641    -2.0594834306    -0.7395487714
| 11>  C        0.6554541294    -1.9903347490    -1.4357492997
| 12>  O       -0.4435730180    -2.6361873639    -0.8557061431
| 13>  C       -0.4422206855    -4.0314253040    -1.0543806482
| 14>  H        1.0457350717     1.8871397773     0.2522482994
| 15>  H       -0.4376485509     2.1385158376    -0.6863123493
| 16>  H       -0.5308623075     1.8703324955     1.0468311045
| 17>  H        0.2263790788    -0.4734876555     0.8131083089
| 18>  H       -1.1662764652    -0.2192672961    -0.2196653840
| 19>  H        0.3395148656     1.1231109434    -2.3901774734
| 20>  H        2.7567648393    -0.3781567973    -1.9879517187
| 21>  H        2.6464424360     0.0793999533    -0.2702971909
| 22>  H        2.7846809266    -2.7483512790    -1.1493444605
| 23>  H        1.9339563294    -2.2485227500     0.3316809018
| 24>  H        0.7403970993    -2.2471896882    -2.5025201644
| 25>  H       -0.4486112397    -4.2878135546    -2.1254726128
| 26>  H        0.4314605086    -4.5140133768    -0.5907738360
| 27>  H       -1.3488453204    -4.4278961465    -0.5907519806
| 28> *
| 29>
| 30>                          ****END OF INPUT****

CARTESIAN COORDINATES (ANGSTROEM)
---------------------------------
  C      0.002931    1.569460    0.140727
  C     -0.116663    0.057610   -0.081542
  C      0.672137   -0.450822   -1.293969
  O      0.255713    0.169933   -2.496159
  C      2.216235   -0.548373   -1.054049
  C      2.043954   -2.059483   -0.739549
  C      0.655454   -1.990335   -1.435749
  O     -0.443573   -2.636187   -0.855706
  C     -0.442221   -4.031425   -1.054381
  H      1.045735    1.887140    0.252248
  H     -0.437649    2.138516   -0.686312
  H     -0.530862    1.870332    1.046831
  H      0.226379   -0.473488    0.813108
  H     -1.166276   -0.219267   -0.219665
  H      0.339515    1.123111   -2.390177
  H      2.756765   -0.378157   -1.987952
  H      2.646442    0.079400   -0.270297
  H      2.784681   -2.748351   -1.149344
  H      1.933956   -2.248523    0.331681
  H      0.740397   -2.247190   -2.502520
  H     -0.448611   -4.287814   -2.125473
  H      0.431461   -4.514013   -0.590774
  H     -1.348845   -4.427896   -0.590752

 Total Charge           Charge          ....    0
 Multiplicity           Mult            ....    1
 Number of Electrons    NEL             ....   72
 Basis Dimension        Dim             ....  363

ORBITAL ENERGIES
----------------

  NO   OCC          E(Eh)            E(eV)
   0   2.0000     -20.552059      -559.2500
   1   2.0000     -20.549705      -559.1859
   2   2.0000     -11.278569      -306.9055
   3   2.0000     -11.271205      -306.7051
   4   2.0000     -11.268724      -306.6376
   5   2.0000     -11.220341      -305.3210
   6   2.0000     -11.219475      -305.2974
   7   2.0000     -11.218949      -305.2831
   8   2.0000     -11.216631      -305.2200
   9   2.0000      -1.378320       -37.5060
  10   2.0000      -1.357080       -36.9280
  11   2.0000      -1.120187       -30.4818
  12   2.0000      -1.028048       -27.9746
  13   2.0000      -0.945719       -25.7343
  14   2.0000      -0.898235       -24.4422
  15   2.0000      -0.865425       -23.5494
  16   2.0000      -0.830211       -22.5912
  17   2.0000      -0.735941       -20.0260
  18   2.0000      -0.693598       -18.8738
  19   2.0000      -0.668687       -18.1959
  20   2.0000      -0.650263       -17.6946
  21   2.0000      -0.633226       -17.2310
  22   2.0000      -0.622022       -16.9261
  23   2.0000      -0.589560       -16.0427
  24   2.0000      -0.583714       -15.8837
  25   2.0000      -0.555449       -15.1145
  26   2.0000      -0.538492       -14.6531
  27   2.0000      -0.522731       -14.2242
  28   2.0000      -0.511583       -13.9209
  29   2.0000      -0.500833       -13.6284
  30   2.0000      -0.487816       -13.2742
  31   2.0000      -0.480615       -13.0782
  32   2.0000      -0.471565       -12.8319
  33   2.0000      -0.425122       -11.5682
  34   2.0000      -0.418085       -11.3767
  35   2.0000      -0.399413       -10.8686
  36   0.0000       0.134847         3.6694
  37   0.0000       0.143344         3.9006
  38   0.0000       0.165061         4.4916
  39   0.0000       0.173301         4.7158
  40   0.0000       0.187747         5.1089

MULLIKEN ATOMIC CHARGES
-----------------------
   0 C :   -0.430275
   1 C :   -0.261894
   2 C :    0.296564
   3 O :   -0.468393
   4 C :   -0.275832
   5 C :   -0.263363
   6 C :    0.034697
   7 O :   -0.294065
   8 C :   -0.226091
   9 H :    0.131376
  10 H :    0.118283
  11 H :    0.142469
  12 H :    0.112119
  13 H :    0.134844
  14 H :    0.312741
  15 H :    0.119925
  16 H :    0.116838
  17 H :    0.124862
  18 H :    0.121530
  19 H :    0.085935
  20 H :    0.113633
  21 H :    0.114226
  22 H :    0.139871
Sum of atomic charges:    0.0000000

LOEWDIN ATOMIC CHARGES
----------------------
   0 C :   -0.323333
   1 C :   -0.253871
   2 C :   -0.342951
   3 O :    0.011273
   4 C :   -0.207595
   5 C :   -0.228037
   6 C :   -0.278652
   7 O :    0.164836
   8 C :   -0.353889
   9 H :    0.120222
  10 H :    0.116129
  11 H :    0.125261
  12 H :    0.145805
  13 H :    0.146901
  14 H :    0.172379
  15 H :    0.137358
  16 H :    0.126019
  17 H :    0.123942
  18 H :    0.136870
  19 H :    0.142835
  20 H :    0.103049
  21 H :    0.102220
  22 H :    0.113228

  Mayer bond orders larger than 0.1
B(  0-C ,  1-C ) :   0.8925 B(  0-C ,  9-H ) :   0.9370 B(  0-C , 10-H ) :   0.9404
B(  0-C , 11-H ) :   0.9433 B(  1-C ,  2-C ) :   0.9410 B(  1-C , 12-H ) :   0.9159
B(  1-C , 13-H ) :   0.9334 B(  2-C ,  3-O ) :   0.9696 B(  2-C ,  4-C ) :   0.8900
B(  2-C ,  6-C ) :   0.8702 B(  3-O , 14-H ) :   0.8415 B(  4-C ,  5-C ) :   0.9424
B(  4-C , 15-H ) :   0.9181 B(  4-C , 16-H ) :   0.9236 B(  5-C ,  6-C ) :   0.9121
B(  5-C , 17-H ) :   0.9258 B(  5-C , 18-H ) :   0.9153 B(  6-C ,  7-O ) :   1.0140
B(  6-C , 19-H ) :   0.9464 B(  7-O ,  8-C ) :   0.9137 B(  8-C , 20-H ) :   0.9353
B(  8-C , 21-H ) :   0.9356 B(  8-C , 22-H ) :   0.9410

MP2 TOTAL ENERGY:     -424.707831178 Eh
FINAL SINGLE POINT ENERGY      -424.707831177616

DIPOLE MOMENT
-------------
                                X             Y             Z
Electronic contribution:     -1.26999      -0.90516      -3.32395
Nuclear contribution   :      1.69368       0.92488       3.65469
                        -----------------------------------------
Total Dipole Moment    :      0.42369       0.01972       0.33074
                        -----------------------------------------
Magnitude (a.u.)       :      0.53786
Magnitude (Debye)      :      1.36713

                             ****ORCA TERMINATED NORMALLY****
TOTAL RUN TIME: 0 days 0 hours 19 minutes 5 seconds 861 msec
