                         Program Version 3.0.3 - RELEASE   -
|  1> ! RI-MP2 RIJK def2-TZVP def2-TZVP/C def2-TZVP/JK TIGHTSCF
|  2> % maxcore 2000
|  3> % mp2 density relaxed end
|  4> *xyz 0 1
|  5>  C       -0.0100132819     1.4606717183     0.0236542378
|  6>  C        0.0103924057     0.0049470577     0.0166008782
|  7>  C        0.0348482670    -1.1980892951     0.0235604896
|  8>  C        0.0373623012    -2.6651503193    -0.0141834442
|  9>  C       -1.4097001219    -3.1937455650     0.0173300564
| 10>  C        0.7761672837    -3.1567722334    -1.2738886002
| 11>  O        0.7384657596    -3.1009820475     1.1602282950
| 12>  H        1.0049588991     1.8729596845     0.0199093932
| 13>  H       -0.5303458948     1.8536763415    -0.8568544666
| 14>  H       -0.5226724363     1.8474018959     0.9112315419
| 15>  H       -1.9813629691    -2.8315158174    -0.8416166494
| 16>  H       -1.4089723563    -4.2900744028    -0.0102424243
| 17>  H       -1.9052179531    -2.8662344040     0.9337636203
| 18>  H        1.8094186327    -2.8034012418    -1.2605422004
| 19>  H        0.7791468209    -4.2530668058    -1.3028296253
| 20>  H        0.2906848477    -2.7930864236    -2.1837413747
| 21>  H        0.7438047260    -4.0647539024     1.1403356227
| 22> *
| 23>
| 24>                          ****END OF INPUT****

CARTESIAN COORDINATES (ANGSTROEM)
---------------------------------
  C     -0.010013    1.460672    0.023654
  C      0.010392    0.004947    0.016601
  C      0.034848   -1.198089    0.023560
  C      0.037362   -2.665150   -0.014183
  C     -1.409700   -3.193746    0.017330
  C      0.776167   -3.156772   -1.273889
  O      0.738466   -3.100982    1.160228
  H      1.004959    1.872960    0.019909
  H     -0.530346    1.853676   -0.856854
  H     -0.522672    1.847402    0.911232
  H     -1.981363   -2.831516   -0.841617
  H     -1.408972   -4.290074   -0.010242
  H     -1.905218   -2.866234    0.933764
  H      1.809419   -2.803401   -1.260542
  H      0.779147   -4.253067   -1.302830
  H      0.290685   -2.793086   -2.183741
  H      0.743805   -4.064754    1.140336

 Total Charge           Charge          ....    0
 Multiplicity           Mult            ....    1
 Number of Electrons    NEL             ....   54
 Basis Dimension        Dim             ....  277

ORBITAL ENERGIES
----------------

  NO   OCC          E(Eh)            E(eV)
   0   2.0000     -20.555290      -559.3379
   1   2.0000     -11.311077      -307.7901
   2   2.0000     -11.243655      -305.9554
   3   2.0000     -11.222050      -305.3675
   4   2.0000     -11.222030      -305.3669
   5   2.0000     -11.221019      -305.3395
   6   2.0000     -11.210133      -305.0432
   7   2.0000      -1.363462       -37.1017
   8   2.0000      -1.078644       -29.3514
   9   2.0000      -1.034431       -28.1483
  10   2.0000      -0.947906       -25.7938
  11   2.0000      -0.944343       -25.6969
  12   2.0000      -0.836261       -22.7558
  13   2.0000      -0.672793       -18.3076
  14   2.0000      -0.669847       -18.2275
  15   2.0000      -0.623094       -16.9553
  16   2.0000      -0.613292       -16.6885
  17   2.0000      -0.583426       -15.8758
  18   2.0000      -0.582649       -15.8547
  19   2.0000      -0.582614       -15.8537
  20   2.0000      -0.551273       -15.0009
  21   2.0000      -0.533613       -14.5204
  22   2.0000      -0.514656       -14.0045
  23   2.0000      -0.496064       -13.4986
  24   2.0000      -0.449280       -12.2255
  25   2.0000      -0.372384       -10.1331
  26   2.0000      -0.363759        -9.8984
  27   0.0000       0.125679         3.4199
  28   0.0000       0.145180         3.9505
  29   0.0000       0.174430         4.7465
  30   0.0000       0.179149         4.8749
  31   0.0000       0.187941         5.1141

MULLIKEN ATOMIC CHARGES
-----------------------
   0 C :   -0.484863
   1 C :    0.093643
   2 C :    0.020788
   3 C :    0.035703
   4 C :   -0.405264
   5 C :   -0.405335
   6 O :   -0.446732
   7 H :    0.163611
   8 H :    0.160218
   9 H :    0.163576
  10 H :    0.128511
  11 H :    0.121686
  12 H :    0.147177
  13 H :    0.147194
  14 H :    0.121701
  15 H :    0.128529
  16 H :    0.309856
Sum of atomic charges:    0.0000000

LOEWDIN ATOMIC CHARGES
----------------------
   0 C :   -0.294346
   1 C :   -0.090948
   2 C :   -0.038674
   3 C :   -0.416668
   4 C :   -0.264407
   5 C :   -0.264418
   6 O :    0.007650
   7 H :    0.141393
   8 H :    0.140575
   9 H :    0.141368
  10 H :    0.129952
  11 H :    0.121058
  12 H :    0.131337
  13 H :    0.131337
  14 H :    0.121059
  15 H :    0.129960
  16 H :    0.173771

  Mayer bond orders larger than 0.1
B(  0-C ,  1-C ) :   0.8454 B(  0-C ,  7-H ) :   0.9470 B(  0-C ,  8-H ) :   0.9511
B(  0-C ,  9-H ) :   0.9470 B(  1-C ,  2-C ) :   2.6975 B(  1-C ,  3-C ) :  -0.1372
B(  2-C ,  3-C ) :   1.0260 B(  2-C ,  6-O ) :  -0.1104 B(  3-C ,  4-C ) :   0.9526
B(  3-C ,  5-C ) :   0.9526 B(  3-C ,  6-O ) :   1.0574 B(  4-C , 10-H ) :   0.9255
B(  4-C , 11-H ) :   0.9286 B(  4-C , 12-H ) :   0.9402 B(  5-C , 13-H ) :   0.9402
B(  5-C , 14-H ) :   0.9286 B(  5-C , 15-H ) :   0.9255 B(  6-O , 16-H ) :   0.8444

MP2 TOTAL ENERGY:     -309.158992546 Eh
FINAL SINGLE POINT ENERGY      -309.158992546132

DIPOLE MOMENT
-------------
                                X             Y             Z
Electronic contribution:      1.63606       0.48879       2.78421
Nuclear contribution   :     -1.92332      -0.66213      -3.27639
                        -----------------------------------------
Total Dipole Moment    :     -0.28726      -0.17333      -0.49217
                        -----------------------------------------
Magnitude (a.u.)       :      0.59565
Magnitude (Debye)      :      1.51401

                             ****ORCA TERMINATED NORMALLY****
TOTAL RUN TIME: 0 days 0 hours 8 minutes 28 seconds 776 msec
