                         Program Version 3.0.3 - RELEASE   -
|  1> ! RI-MP2 RIJK def2-TZVP def2-TZVP/C def2-TZVP/JK TIGHTSCF
|  2> % maxcore 2000
|  3> % mp2 density relaxed end
|  4> *xyz 0 1
|  5>  N       -0.2814023463     1.2983092339    -0.2471813684
|  6>  C       -0.2020264796     0.0431572070    -0.3320005933
|  7>  O       -1.2597279689    -0.7206067585     0.0145306700
|  8>  C       -1.0706494050    -2.1375289121    -0.0090676613
|  9>  C       -2.4477655897    -2.7743415992     0.0298485127
| 10>  N       -3.1936039120    -2.4192114387    -1.1707604382
| 11>  C       -4.5549802563    -2.9372409402    -1.1606619337
| 12>  C       -5.2744891057    -2.5561591754    -2.3795683215
| 13>  N       -5.8523614472    -2.2449341034    -3.3296756870
| 14>  H        0.5877553374     1.7253255346    -0.5602698502
| 15>  H        0.6632650916    -0.5385134869    -0.6785996722
| 16>  H       -0.5464550737    -2.4343477077    -0.9257937889
| 17>  H       -0.4812976405    -2.4523902601     0.8613153372
| 18>  H       -2.3261010216    -3.8643372874     0.0655710600
| 19>  H       -2.9547740460    -2.4717718716     0.9638256984
| 20>  H       -3.2114955976    -1.4073593246    -1.2559522739
| 21>  H       -4.5170907360    -4.0332297042    -1.1153720581
| 22>  H       -5.1575636931    -2.6106453854    -0.2930593314
| 23> *
| 24>
| 25>                          ****END OF INPUT****

CARTESIAN COORDINATES (ANGSTROEM)
---------------------------------
  N     -0.281402    1.298309   -0.247181
  C     -0.202026    0.043157   -0.332001
  O     -1.259728   -0.720607    0.014531
  C     -1.070649   -2.137529   -0.009068
  C     -2.447766   -2.774342    0.029849
  N     -3.193604   -2.419211   -1.170760
  C     -4.554980   -2.937241   -1.160662
  C     -5.274489   -2.556159   -2.379568
  N     -5.852361   -2.244934   -3.329676
  H      0.587755    1.725326   -0.560270
  H      0.663265   -0.538513   -0.678600
  H     -0.546455   -2.434348   -0.925794
  H     -0.481298   -2.452390    0.861315
  H     -2.326101   -3.864337    0.065571
  H     -2.954774   -2.471772    0.963826
  H     -3.211496   -1.407359   -1.255952
  H     -4.517091   -4.033230   -1.115372
  H     -5.157564   -2.610645   -0.293059

 Total Charge           Charge          ....    0
 Multiplicity           Mult            ....    1
 Number of Electrons    NEL             ....   68
 Basis Dimension        Dim             ....  333

ORBITAL ENERGIES
----------------

  NO   OCC          E(Eh)            E(eV)
   0   2.0000     -20.604662      -560.6813
   1   2.0000     -15.577630      -423.8889
   2   2.0000     -15.573012      -423.7632
   3   2.0000     -15.549341      -423.1191
   4   2.0000     -11.347686      -308.7862
   5   2.0000     -11.315947      -307.9226
   6   2.0000     -11.311894      -307.8123
   7   2.0000     -11.282346      -307.0083
   8   2.0000     -11.274899      -306.8056
   9   2.0000      -1.440313       -39.1929
  10   2.0000      -1.253466       -34.1085
  11   2.0000      -1.215789       -33.0833
  12   2.0000      -1.206221       -32.8230
  13   2.0000      -1.054025       -28.6815
  14   2.0000      -0.969437       -26.3797
  15   2.0000      -0.870099       -23.6766
  16   2.0000      -0.836743       -22.7689
  17   2.0000      -0.738819       -20.1043
  18   2.0000      -0.725003       -19.7283
  19   2.0000      -0.702194       -19.1077
  20   2.0000      -0.685304       -18.6481
  21   2.0000      -0.666756       -18.1433
  22   2.0000      -0.625771       -17.0281
  23   2.0000      -0.606048       -16.4914
  24   2.0000      -0.588657       -16.0182
  25   2.0000      -0.560358       -15.2481
  26   2.0000      -0.551798       -15.0152
  27   2.0000      -0.530869       -14.4457
  28   2.0000      -0.526799       -14.3349
  29   2.0000      -0.467679       -12.7262
  30   2.0000      -0.464450       -12.6383
  31   2.0000      -0.446411       -12.1475
  32   2.0000      -0.414739       -11.2856
  33   2.0000      -0.407936       -11.1005
  34   0.0000       0.118605         3.2274
  35   0.0000       0.133650         3.6368
  36   0.0000       0.143651         3.9089
  37   0.0000       0.148662         4.0453
  38   0.0000       0.163364         4.4454

MULLIKEN ATOMIC CHARGES
-----------------------
   0 N :   -0.341863
   1 C :    0.068231
   2 O :   -0.233392
   3 C :   -0.068039
   4 C :   -0.139167
   5 N :   -0.338222
   6 C :   -0.057232
   7 C :   -0.158377
   8 N :   -0.056184
   9 H :    0.227778
  10 H :    0.085420
  11 H :    0.122762
  12 H :    0.125052
  13 H :    0.120985
  14 H :    0.115501
  15 H :    0.234164
  16 H :    0.149509
  17 H :    0.143075
Sum of atomic charges:   -0.0000000

LOEWDIN ATOMIC CHARGES
----------------------
   0 N :   -0.076241
   1 C :   -0.400010
   2 O :    0.230625
   3 C :   -0.302778
   4 C :   -0.310827
   5 N :   -0.012952
   6 C :   -0.293529
   7 C :   -0.187224
   8 N :    0.065158
   9 H :    0.169694
  10 H :    0.107849
  11 H :    0.129712
  12 H :    0.128894
  13 H :    0.139424
  14 H :    0.127060
  15 H :    0.183193
  16 H :    0.157465
  17 H :    0.144488

  Mayer bond orders larger than 0.1
B(  0-N ,  1-C ) :   1.9584 B(  0-N ,  9-H ) :   0.8502 B(  1-C ,  2-O ) :   1.0417
B(  1-C , 10-H ) :   0.9295 B(  2-O ,  3-C ) :   0.8759 B(  3-C ,  4-C ) :   0.9665
B(  3-C , 11-H ) :   0.9248 B(  3-C , 12-H ) :   0.9208 B(  4-C ,  5-N ) :   0.9462
B(  4-C , 13-H ) :   0.9170 B(  4-C , 14-H ) :   0.9195 B(  5-N ,  6-C ) :   0.9714
B(  5-N , 15-H ) :   0.8651 B(  6-C ,  7-C ) :   0.9319 B(  6-C , 16-H ) :   0.9014
B(  6-C , 17-H ) :   0.9077 B(  7-C ,  8-N ) :   2.8644

MP2 TOTAL ENERGY:     -434.533092309 Eh
FINAL SINGLE POINT ENERGY      -434.533092309207

DIPOLE MOMENT
-------------
                                X             Y             Z
Electronic contribution:     -3.71667       2.37782      -3.70501
Nuclear contribution   :      5.20071      -3.57636       4.91524
                        -----------------------------------------
Total Dipole Moment    :      1.48404      -1.19854       1.21023
                        -----------------------------------------
Magnitude (a.u.)       :      2.25910
Magnitude (Debye)      :      5.74217

                             ****ORCA TERMINATED NORMALLY****
TOTAL RUN TIME: 0 days 0 hours 12 minutes 54 seconds 576 msec
