                         Program Version 3.0.3 - RELEASE   -
|  1> ! RI-MP2 RIJK def2-TZVP def2-TZVP/C def2-TZVP/JK TIGHTSCF
|  2> % maxcore 2000
|  3> % mp2 density relaxed end
|  4> *xyz 0 1
|  5>  C       -0.1322973824     1.4876235681    -0.0298702453
|  6>  C       -0.0144910913    -0.0190073619     0.0402175915
|  7>  C        1.3286625106    -0.6906641122    -0.1697937241
|  8>  C        0.6866477789    -0.6956110720     1.1863226068
|  9>  C        1.2786112711    -0.0759230690     2.4720911623
| 10>  C        0.8253503191    -1.3317672063     3.2438988413
| 11>  C        1.6203943768    -1.9827636738     4.3386038005
| 12>  C       -0.6612433030    -1.5084026328     3.0866369319
| 13>  C        0.2436319500    -1.9248299627     1.9532386344
| 14>  H        0.7473890379     1.9736239163     0.4051049024
| 15>  H       -0.2202105515     1.8321026579    -1.0665959997
| 16>  H       -1.0117328871     1.8481016432     0.5159257106
| 17>  H       -0.8716737672    -0.5569592281    -0.3599721379
| 18>  H        1.3618667157    -1.6214173662    -0.7282517742
| 19>  H        2.1945992588    -0.0515686374    -0.3220132839
| 20>  H        2.3680130461     0.0184709165     2.4267592305
| 21>  H        0.8575794553     0.8768620168     2.8136225005
| 22>  H        1.6122218009    -1.3750677436     5.2522494668
| 23>  H        1.2112463877    -2.9657708007     4.5949839964
| 24>  H        2.6673276803    -2.1221795232     4.0447622359
| 25>  H       -1.0893068436    -2.3233213324     3.6634270191
| 26>  H       -1.3204050588    -0.6502040386     2.9719464832
| 27>  H        0.2845957856    -2.9457886081     1.5889726610
| 28> *
| 29>
| 30>                          ****END OF INPUT****

CARTESIAN COORDINATES (ANGSTROEM)
---------------------------------
  C     -0.132297    1.487624   -0.029870
  C     -0.014491   -0.019007    0.040218
  C      1.328663   -0.690664   -0.169794
  C      0.686648   -0.695611    1.186323
  C      1.278611   -0.075923    2.472091
  C      0.825350   -1.331767    3.243899
  C      1.620394   -1.982764    4.338604
  C     -0.661243   -1.508403    3.086637
  C      0.243632   -1.924830    1.953239
  H      0.747389    1.973624    0.405105
  H     -0.220211    1.832103   -1.066596
  H     -1.011733    1.848102    0.515926
  H     -0.871674   -0.556959   -0.359972
  H      1.361867   -1.621417   -0.728252
  H      2.194599   -0.051569   -0.322013
  H      2.368013    0.018471    2.426759
  H      0.857579    0.876862    2.813623
  H      1.612222   -1.375068    5.252249
  H      1.211246   -2.965771    4.594984
  H      2.667328   -2.122180    4.044762
  H     -1.089307   -2.323321    3.663427
  H     -1.320405   -0.650204    2.971946
  H      0.284596   -2.945789    1.588973

 Total Charge           Charge          ....    0
 Multiplicity           Mult            ....    1
 Number of Electrons    NEL             ....   68
 Basis Dimension        Dim             ....  363

ORBITAL ENERGIES
----------------

  NO   OCC          E(Eh)            E(eV)
   0   2.0000     -11.232985      -305.6651
   1   2.0000     -11.229874      -305.5804
   2   2.0000     -11.223118      -305.3966
   3   2.0000     -11.220824      -305.3341
   4   2.0000     -11.219789      -305.3060
   5   2.0000     -11.218778      -305.2785
   6   2.0000     -11.215612      -305.1923
   7   2.0000     -11.214348      -305.1579
   8   2.0000     -11.212661      -305.1120
   9   2.0000      -1.196795       -32.5664
  10   2.0000      -1.117316       -30.4037
  11   2.0000      -0.972165       -26.4540
  12   2.0000      -0.961823       -26.1725
  13   2.0000      -0.939338       -25.5607
  14   2.0000      -0.832282       -22.6475
  15   2.0000      -0.789116       -21.4729
  16   2.0000      -0.745657       -20.2904
  17   2.0000      -0.702042       -19.1035
  18   2.0000      -0.663786       -18.0625
  19   2.0000      -0.628180       -17.0937
  20   2.0000      -0.603347       -16.4179
  21   2.0000      -0.589695       -16.0464
  22   2.0000      -0.567218       -15.4348
  23   2.0000      -0.560180       -15.2433
  24   2.0000      -0.546119       -14.8607
  25   2.0000      -0.532654       -14.4942
  26   2.0000      -0.524676       -14.2772
  27   2.0000      -0.496004       -13.4970
  28   2.0000      -0.482150       -13.1200
  29   2.0000      -0.452069       -12.3014
  30   2.0000      -0.436098       -11.8668
  31   2.0000      -0.403795       -10.9878
  32   2.0000      -0.372770       -10.1436
  33   2.0000      -0.346110        -9.4181
  34   0.0000       0.137534         3.7425
  35   0.0000       0.151798         4.1306
  36   0.0000       0.165488         4.5032
  37   0.0000       0.170954         4.6519
  38   0.0000       0.187572         5.1041

MULLIKEN ATOMIC CHARGES
-----------------------
   0 C :   -0.425577
   1 C :   -0.063199
   2 C :   -0.317548
   3 C :   -0.018959
   4 C :   -0.208557
   5 C :    0.077429
   6 C :   -0.413837
   7 C :   -0.284227
   8 C :   -0.086345
   9 H :    0.128823
  10 H :    0.133924
  11 H :    0.129430
  12 H :    0.114474
  13 H :    0.125064
  14 H :    0.121787
  15 H :    0.109825
  16 H :    0.114813
  17 H :    0.132527
  18 H :    0.126947
  19 H :    0.128474
  20 H :    0.124147
  21 H :    0.124449
  22 H :    0.126138
Sum of atomic charges:    0.0000000

LOEWDIN ATOMIC CHARGES
----------------------
   0 C :   -0.295702
   1 C :   -0.216650
   2 C :   -0.189581
   3 C :   -0.191729
   4 C :   -0.148047
   5 C :   -0.218239
   6 C :   -0.277330
   7 C :   -0.185639
   8 C :   -0.128438
   9 H :    0.126365
  10 H :    0.124411
  11 H :    0.123791
  12 H :    0.148621
  13 H :    0.133038
  14 H :    0.134137
  15 H :    0.138484
  16 H :    0.130899
  17 H :    0.128167
  18 H :    0.128997
  19 H :    0.126429
  20 H :    0.138765
  21 H :    0.132394
  22 H :    0.136856

  Mayer bond orders larger than 0.1
B(  0-C ,  1-C ) :   0.8883 B(  0-C ,  9-H ) :   0.9372 B(  0-C , 10-H ) :   0.9396
B(  0-C , 11-H ) :   0.9418 B(  1-C ,  2-C ) :   0.9247 B(  1-C ,  3-C ) :   0.8347
B(  1-C , 12-H ) :   0.9210 B(  2-C ,  3-C ) :   0.8552 B(  2-C , 13-H ) :   0.9219
B(  2-C , 14-H ) :   0.9211 B(  3-C ,  4-C ) :   0.9525 B(  3-C ,  8-C ) :   0.8945
B(  4-C ,  5-C ) :   0.9493 B(  4-C , 15-H ) :   0.9148 B(  4-C , 16-H ) :   0.9101
B(  5-C ,  6-C ) :   0.8918 B(  5-C ,  7-C ) :   0.8953 B(  5-C ,  8-C ) :   0.8351
B(  6-C , 17-H ) :   0.9397 B(  6-C , 18-H ) :   0.9371 B(  6-C , 19-H ) :   0.9417
B(  7-C ,  8-C ) :   0.8756 B(  7-C , 20-H ) :   0.9312 B(  7-C , 21-H ) :   0.9106
B(  8-C , 22-H ) :   0.9089

MP2 TOTAL ENERGY:     -350.466328381 Eh
FINAL SINGLE POINT ENERGY      -350.466328380577

DIPOLE MOMENT
-------------
                                X             Y             Z
Electronic contribution:     -0.56104      -2.06827      -0.52270
Nuclear contribution   :      0.61499       2.01106       0.60020
                        -----------------------------------------
Total Dipole Moment    :      0.05395      -0.05722       0.07750
                        -----------------------------------------
Magnitude (a.u.)       :      0.11041
Magnitude (Debye)      :      0.28064

                             ****ORCA TERMINATED NORMALLY****
TOTAL RUN TIME: 0 days 0 hours 20 minutes 2 seconds 927 msec
