                         Program Version 3.0.3 - RELEASE   -
|  1> ! RI-MP2 RIJK def2-TZVP def2-TZVP/C def2-TZVP/JK TIGHTSCF
|  2> % maxcore 2000
|  3> % mp2 density relaxed end
|  4> *xyz 0 1
|  5>  C       -0.4392004402     1.8089032882    -0.5451084505
|  6>  N       -0.0853107934     0.4432971572    -0.8753380973
|  7>  C       -0.5640178407    -0.4789492046    -0.1340012664
|  8>  N       -1.3987201631    -0.3760578417     0.9409850376
|  9>  N       -0.2212711267    -1.8009958575    -0.5035472848
| 10>  C       -0.4711329906    -2.9674632996     0.1519439827
| 11>  O       -1.0805833835    -3.0914063603     1.1985359052
| 12>  H        0.0020254337     2.4846447189    -1.2819334581
| 13>  H       -1.5280178458     1.9781730356    -0.5481777965
| 14>  H       -0.0624416028     2.1196727316     0.4443412421
| 15>  H       -1.4728434708     0.5239070425     1.3821450545
| 16>  H       -1.5327873368    -1.2078890138     1.5027940515
| 17>  H        0.3281903148    -1.8272491284    -1.3503683961
| 18>  H       -0.0458262042    -3.8324074382    -0.3883389438
| 19> *
| 20>
| 21>                          ****END OF INPUT****

CARTESIAN COORDINATES (ANGSTROEM)
---------------------------------
  C     -0.439200    1.808903   -0.545108
  N     -0.085311    0.443297   -0.875338
  C     -0.564018   -0.478949   -0.134001
  N     -1.398720   -0.376058    0.940985
  N     -0.221271   -1.800996   -0.503547
  C     -0.471133   -2.967463    0.151944
  O     -1.080583   -3.091406    1.198536
  H      0.002025    2.484645   -1.281933
  H     -1.528018    1.978173   -0.548178
  H     -0.062442    2.119673    0.444341
  H     -1.472843    0.523907    1.382145
  H     -1.532787   -1.207889    1.502794
  H      0.328190   -1.827249   -1.350368
  H     -0.045826   -3.832407   -0.388339

 Total Charge           Charge          ....    0
 Multiplicity           Mult            ....    1
 Number of Electrons    NEL             ....   54
 Basis Dimension        Dim             ....  259

ORBITAL ENERGIES
----------------

  NO   OCC          E(Eh)            E(eV)
   0   2.0000     -20.550975      -559.2205
   1   2.0000     -15.616977      -424.9595
   2   2.0000     -15.577756      -423.8923
   3   2.0000     -15.523800      -422.4241
   4   2.0000     -11.378099      -309.6138
   5   2.0000     -11.357542      -309.0544
   6   2.0000     -11.243980      -305.9643
   7   2.0000      -1.412250       -38.4293
   8   2.0000      -1.315267       -35.7902
   9   2.0000      -1.215314       -33.0704
  10   2.0000      -1.167186       -31.7608
  11   2.0000      -0.960692       -26.1418
  12   2.0000      -0.869595       -23.6629
  13   2.0000      -0.807547       -21.9745
  14   2.0000      -0.753596       -20.5064
  15   2.0000      -0.707674       -19.2568
  16   2.0000      -0.685059       -18.6414
  17   2.0000      -0.636140       -17.3103
  18   2.0000      -0.627757       -17.0821
  19   2.0000      -0.612281       -16.6610
  20   2.0000      -0.581987       -15.8367
  21   2.0000      -0.553091       -15.0504
  22   2.0000      -0.517466       -14.0810
  23   2.0000      -0.459335       -12.4991
  24   2.0000      -0.439137       -11.9495
  25   2.0000      -0.411898       -11.2083
  26   2.0000      -0.351272        -9.5586
  27   0.0000       0.132768         3.6128
  28   0.0000       0.134757         3.6669
  29   0.0000       0.141807         3.8588
  30   0.0000       0.186702         5.0804
  31   0.0000       0.198180         5.3927

MULLIKEN ATOMIC CHARGES
-----------------------
   0 C :   -0.348758
   1 N :   -0.312985
   2 C :    0.307592
   3 N :   -0.522631
   4 N :   -0.266620
   5 C :    0.217801
   6 O :   -0.391199
   7 H :    0.147882
   8 H :    0.134453
   9 H :    0.123410
  10 H :    0.258467
  11 H :    0.285613
  12 H :    0.262603
  13 H :    0.104373
Sum of atomic charges:    0.0000000

LOEWDIN ATOMIC CHARGES
----------------------
   0 C :   -0.354200
   1 N :    0.019278
   2 C :   -0.438013
   3 N :   -0.024647
   4 N :    0.142774
   5 C :   -0.406273
   6 O :    0.052197
   7 H :    0.117622
   8 H :    0.110228
   9 H :    0.107241
  10 H :    0.173060
  11 H :    0.175837
  12 H :    0.205986
  13 H :    0.118908

  Mayer bond orders larger than 0.1
B(  0-C ,  1-N ) :   0.9169 B(  0-C ,  7-H ) :   0.9470 B(  0-C ,  8-H ) :   0.9299
B(  0-C ,  9-H ) :   0.9261 B(  1-N ,  2-C ) :   1.8488 B(  2-C ,  3-N ) :   1.1645
B(  2-C ,  4-N ) :   0.9447 B(  3-N , 10-H ) :   0.8711 B(  3-N , 11-H ) :   0.8206
B(  4-N ,  5-C ) :   1.1497 B(  4-N , 12-H ) :   0.8515 B(  5-C ,  6-O ) :   1.8072
B(  5-C , 13-H ) :   0.9282

MP2 TOTAL ENERGY:     -357.353811330 Eh
FINAL SINGLE POINT ENERGY      -357.353811329975

DIPOLE MOMENT
-------------
                                X             Y             Z
Electronic contribution:      0.11718      -5.99882       0.55652
Nuclear contribution   :      0.05593       6.24935      -0.63156
                        -----------------------------------------
Total Dipole Moment    :      0.17311       0.25053      -0.07504
                        -----------------------------------------
Magnitude (a.u.)       :      0.31362
Magnitude (Debye)      :      0.79717

                             ****ORCA TERMINATED NORMALLY****
TOTAL RUN TIME: 0 days 0 hours 6 minutes 26 seconds 720 msec
