                         Program Version 3.0.3 - RELEASE   -
|  1> ! RI-MP2 RIJK def2-TZVP def2-TZVP/C def2-TZVP/JK TIGHTSCF
|  2> % maxcore 2000
|  3> % mp2 density relaxed end
|  4> *xyz 0 1
|  5>  C        0.0510511473     1.5470852807     0.0269779344
|  6>  C       -0.0036976512     0.0187866930     0.0505137011
|  7>  O        0.6816844009    -0.4957776819     1.1928516646
|  8>  C       -1.4296348887    -0.5345692343    -0.0317828396
|  9>  C       -2.1947557355    -0.1728113366    -1.3370937790
| 10>  C       -3.0130115328    -1.4088811476    -1.6150502188
| 11>  C       -2.6473526940    -2.4506787492    -0.8654951181
| 12>  C       -3.2043463172    -3.8385052726    -0.9066405875
| 13>  C       -1.5061658935    -2.0815623190     0.0587160901
| 14>  H        1.0857620821     1.8877966667     0.1204245031
| 15>  H       -0.3658556040     1.9529227586    -0.8997984101
| 16>  H       -0.5236730949     1.9673526841     0.8625109567
| 17>  H        0.5677576317    -0.3729708874    -0.8017692032
| 18>  H        0.2301592834    -0.1605182004     1.9756798738
| 19>  H       -1.9963516542    -0.1168169632     0.8132462112
| 20>  H       -2.8038212732     0.7317920993    -1.2261612628
| 21>  H       -1.5002128137     0.0300793038    -2.1676766886
| 22>  H       -3.7843624988    -1.4376956831    -2.3783296364
| 23>  H       -4.0083230678    -3.9315472947    -1.6420533016
| 24>  H       -2.4257850720    -4.5702150491    -1.1592238859
| 25>  H       -3.6007446087    -4.1367704894     0.0725776576
| 26>  H       -0.5684017980    -2.5491645244    -0.2755224727
| 27>  H       -1.6612282574    -2.4343086232     1.0847995618
| 28> *
| 29>
| 30>                          ****END OF INPUT****

CARTESIAN COORDINATES (ANGSTROEM)
---------------------------------
  C      0.051051    1.547085    0.026978
  C     -0.003698    0.018787    0.050514
  O      0.681684   -0.495778    1.192852
  C     -1.429635   -0.534569   -0.031783
  C     -2.194756   -0.172811   -1.337094
  C     -3.013012   -1.408881   -1.615050
  C     -2.647353   -2.450679   -0.865495
  C     -3.204346   -3.838505   -0.906641
  C     -1.506166   -2.081562    0.058716
  H      1.085762    1.887797    0.120425
  H     -0.365856    1.952923   -0.899798
  H     -0.523673    1.967353    0.862511
  H      0.567758   -0.372971   -0.801769
  H      0.230159   -0.160518    1.975680
  H     -1.996352   -0.116817    0.813246
  H     -2.803821    0.731792   -1.226161
  H     -1.500213    0.030079   -2.167677
  H     -3.784362   -1.437696   -2.378330
  H     -4.008323   -3.931547   -1.642053
  H     -2.425785   -4.570215   -1.159224
  H     -3.600745   -4.136770    0.072578
  H     -0.568402   -2.549165   -0.275522
  H     -1.661228   -2.434309    1.084800

 Total Charge           Charge          ....    0
 Multiplicity           Mult            ....    1
 Number of Electrons    NEL             ....   70
 Basis Dimension        Dim             ....  363

ORBITAL ENERGIES
----------------

  NO   OCC          E(Eh)            E(eV)
   0   2.0000     -20.549023      -559.1673
   1   2.0000     -11.275422      -306.8198
   2   2.0000     -11.225356      -305.4575
   3   2.0000     -11.225309      -305.4562
   4   2.0000     -11.222505      -305.3799
   5   2.0000     -11.219465      -305.2972
   6   2.0000     -11.216768      -305.2238
   7   2.0000     -11.215640      -305.1931
   8   2.0000     -11.211375      -305.0770
   9   2.0000      -1.355110       -36.8744
  10   2.0000      -1.136690       -30.9309
  11   2.0000      -1.039251       -28.2795
  12   2.0000      -0.987487       -26.8709
  13   2.0000      -0.956610       -26.0307
  14   2.0000      -0.902260       -24.5518
  15   2.0000      -0.839427       -22.8420
  16   2.0000      -0.777678       -21.1617
  17   2.0000      -0.704986       -19.1837
  18   2.0000      -0.664906       -18.0930
  19   2.0000      -0.651540       -17.7293
  20   2.0000      -0.624047       -16.9812
  21   2.0000      -0.605423       -16.4744
  22   2.0000      -0.575860       -15.6700
  23   2.0000      -0.570654       -15.5283
  24   2.0000      -0.556804       -15.1514
  25   2.0000      -0.545068       -14.8321
  26   2.0000      -0.542233       -14.7549
  27   2.0000      -0.516086       -14.0434
  28   2.0000      -0.505693       -13.7606
  29   2.0000      -0.488868       -13.3028
  30   2.0000      -0.475225       -12.9315
  31   2.0000      -0.465477       -12.6663
  32   2.0000      -0.451529       -12.2867
  33   2.0000      -0.425984       -11.5916
  34   2.0000      -0.330999        -9.0069
  35   0.0000       0.130561         3.5528
  36   0.0000       0.144897         3.9428
  37   0.0000       0.153969         4.1897
  38   0.0000       0.167405         4.5553
  39   0.0000       0.174300         4.7429

MULLIKEN ATOMIC CHARGES
-----------------------
   0 C :   -0.390308
   1 C :    0.077292
   2 O :   -0.465962
   3 C :   -0.111906
   4 C :   -0.206392
   5 C :   -0.198391
   6 C :    0.034841
   7 C :   -0.426972
   8 C :   -0.173101
   9 H :    0.147664
  10 H :    0.131053
  11 H :    0.112996
  12 H :    0.090848
  13 H :    0.308041
  14 H :    0.081352
  15 H :    0.122176
  16 H :    0.108690
  17 H :    0.119015
  18 H :    0.134690
  19 H :    0.137192
  20 H :    0.136706
  21 H :    0.118125
  22 H :    0.112352
Sum of atomic charges:   -0.0000000

LOEWDIN ATOMIC CHARGES
----------------------
   0 C :   -0.302205
   1 C :   -0.359209
   2 O :   -0.021937
   3 C :   -0.218727
   4 C :   -0.220485
   5 C :   -0.148362
   6 C :   -0.192801
   7 C :   -0.275724
   8 C :   -0.190407
   9 H :    0.126233
  10 H :    0.126304
  11 H :    0.120867
  12 H :    0.145349
  13 H :    0.172688
  14 H :    0.151404
  15 H :    0.135334
  16 H :    0.140982
  17 H :    0.135643
  18 H :    0.129098
  19 H :    0.131160
  20 H :    0.130156
  21 H :    0.147497
  22 H :    0.137143

  Mayer bond orders larger than 0.1
B(  0-C ,  1-C ) :   0.9416 B(  0-C ,  9-H ) :   0.9426 B(  0-C , 10-H ) :   0.9329
B(  0-C , 11-H ) :   0.9212 B(  1-C ,  2-O ) :   0.8912 B(  1-C ,  3-C ) :   0.9567
B(  1-C , 12-H ) :   0.9106 B(  2-O , 13-H ) :   0.8449 B(  3-C ,  4-C ) :   0.9399
B(  3-C ,  8-C ) :   0.9288 B(  3-C , 14-H ) :   0.9170 B(  4-C ,  5-C ) :   0.9488
B(  4-C , 15-H ) :   0.9241 B(  4-C , 16-H ) :   0.9067 B(  5-C ,  6-C ) :   1.7506
B(  5-C , 17-H ) :   0.9276 B(  6-C ,  7-C ) :   0.8926 B(  6-C ,  8-C ) :   0.9320
B(  7-C , 18-H ) :   0.9486 B(  7-C , 19-H ) :   0.9280 B(  7-C , 20-H ) :   0.9357
B(  8-C , 21-H ) :   0.9008 B(  8-C , 22-H ) :   0.9274

MP2 TOTAL ENERGY:     -387.636673682 Eh
FINAL SINGLE POINT ENERGY      -387.636673681820

DIPOLE MOMENT
-------------
                                X             Y             Z
Electronic contribution:      0.99042      -0.75929       0.89804
Nuclear contribution   :     -1.46268       1.03615      -0.87256
                        -----------------------------------------
Total Dipole Moment    :     -0.47226       0.27686       0.02548
                        -----------------------------------------
Magnitude (a.u.)       :      0.54802
Magnitude (Debye)      :      1.39296

                             ****ORCA TERMINATED NORMALLY****
TOTAL RUN TIME: 0 days 0 hours 22 minutes 58 seconds 286 msec
