                         Program Version 3.0.3 - RELEASE   -
|  1> ! RI-MP2 RIJK def2-TZVP def2-TZVP/C def2-TZVP/JK TIGHTSCF
|  2> % maxcore 2000
|  3> % mp2 density relaxed end
|  4> *xyz 0 1
|  5>  C        0.2082951625     1.4497607395     0.2498400382
|  6>  C       -0.1661799718    -0.0015675985    -0.0785891971
|  7>  C        0.6286212734    -0.5659865071    -1.2430912155
|  8>  O        0.3862879244     0.1290820805    -2.4500318030
|  9>  C        2.0441840209    -1.0942433735    -1.1498184732
| 10>  C        2.2841449786    -1.8641547690     0.1508216395
| 11>  C        1.0843549851    -2.8013042012    -0.2023956602
| 12>  C        0.8644410287    -2.0307525455    -1.5153378532
| 13>  C        0.4893982964    -2.6939823002    -2.8099862022
| 14>  H        1.2701262913     1.5364500287     0.5061898850
| 15>  H        0.0090449859     2.1127760719    -0.5989697855
| 16>  H       -0.3723064114     1.8254183961     1.0974872588
| 17>  H       -0.0268134993    -0.6203306583     0.8121249645
| 18>  H       -1.2310419011    -0.0571778418    -0.3357693061
| 19>  H        0.8718862441     0.9593232570    -2.4127628392
| 20>  H        2.8126224457    -0.6894284435    -1.8006124922
| 21>  H        3.2351878603    -2.4015270616     0.1530948778
| 22>  H        2.2151941702    -1.2912604216     1.0816160879
| 23>  H        1.4104888271    -3.8277768728    -0.3885679578
| 24>  H        0.2443061426    -2.8345217217     0.4987866142
| 25>  H       -0.5145541945    -3.1326801842    -2.7448610878
| 26>  H        0.4883870838    -1.9753107742    -3.6311202196
| 27>  H        1.1855869372    -3.5050390189    -3.0533100334
| 28> *
| 29>
| 30>                          ****END OF INPUT****

CARTESIAN COORDINATES (ANGSTROEM)
---------------------------------
  C      0.208295    1.449761    0.249840
  C     -0.166180   -0.001568   -0.078589
  C      0.628621   -0.565987   -1.243091
  O      0.386288    0.129082   -2.450032
  C      2.044184   -1.094243   -1.149818
  C      2.284145   -1.864155    0.150822
  C      1.084355   -2.801304   -0.202396
  C      0.864441   -2.030753   -1.515338
  C      0.489398   -2.693982   -2.809986
  H      1.270126    1.536450    0.506190
  H      0.009045    2.112776   -0.598970
  H     -0.372306    1.825418    1.097487
  H     -0.026813   -0.620331    0.812125
  H     -1.231042   -0.057178   -0.335769
  H      0.871886    0.959323   -2.412763
  H      2.812622   -0.689428   -1.800612
  H      3.235188   -2.401527    0.153095
  H      2.215194   -1.291260    1.081616
  H      1.410489   -3.827777   -0.388568
  H      0.244306   -2.834522    0.498787
  H     -0.514554   -3.132680   -2.744861
  H      0.488387   -1.975311   -3.631120
  H      1.185587   -3.505039   -3.053310

 Total Charge           Charge          ....    0
 Multiplicity           Mult            ....    1
 Number of Electrons    NEL             ....   70
 Basis Dimension        Dim             ....  363

ORBITAL ENERGIES
----------------

  NO   OCC          E(Eh)            E(eV)
   0   2.0000     -20.555513      -559.3439
   1   2.0000     -11.280614      -306.9611
   2   2.0000     -11.230960      -305.6100
   3   2.0000     -11.224075      -305.4226
   4   2.0000     -11.222544      -305.3809
   5   2.0000     -11.221519      -305.3531
   6   2.0000     -11.219551      -305.2995
   7   2.0000     -11.216266      -305.2101
   8   2.0000     -11.206081      -304.9330
   9   2.0000      -1.367954       -37.2239
  10   2.0000      -1.176750       -32.0210
  11   2.0000      -1.036070       -28.1929
  12   2.0000      -0.983375       -26.7590
  13   2.0000      -0.952782       -25.9265
  14   2.0000      -0.879325       -23.9276
  15   2.0000      -0.851656       -23.1748
  16   2.0000      -0.755550       -20.5595
  17   2.0000      -0.714166       -19.4334
  18   2.0000      -0.681601       -18.5473
  19   2.0000      -0.653039       -17.7701
  20   2.0000      -0.619024       -16.8445
  21   2.0000      -0.597021       -16.2458
  22   2.0000      -0.596197       -16.2233
  23   2.0000      -0.567295       -15.4369
  24   2.0000      -0.555728       -15.1221
  25   2.0000      -0.537917       -14.6375
  26   2.0000      -0.527156       -14.3446
  27   2.0000      -0.514169       -13.9913
  28   2.0000      -0.499606       -13.5950
  29   2.0000      -0.491295       -13.3688
  30   2.0000      -0.475369       -12.9355
  31   2.0000      -0.464203       -12.6316
  32   2.0000      -0.447127       -12.1669
  33   2.0000      -0.378342       -10.2952
  34   2.0000      -0.355341        -9.6693
  35   0.0000       0.131162         3.5691
  36   0.0000       0.149595         4.0707
  37   0.0000       0.159645         4.3441
  38   0.0000       0.168129         4.5750
  39   0.0000       0.188700         5.1348

MULLIKEN ATOMIC CHARGES
-----------------------
   0 C :   -0.440756
   1 C :   -0.188548
   2 C :    0.192974
   3 O :   -0.476497
   4 C :   -0.198145
   5 C :   -0.257658
   6 C :   -0.248257
   7 C :    0.087502
   8 C :   -0.428484
   9 H :    0.133252
  10 H :    0.119892
  11 H :    0.138334
  12 H :    0.112167
  13 H :    0.118294
  14 H :    0.325264
  15 H :    0.128796
  16 H :    0.119391
  17 H :    0.115477
  18 H :    0.117555
  19 H :    0.119925
  20 H :    0.127347
  21 H :    0.158029
  22 H :    0.124144
Sum of atomic charges:   -0.0000000

LOEWDIN ATOMIC CHARGES
----------------------
   0 C :   -0.319108
   1 C :   -0.252575
   2 C :   -0.308585
   3 O :    0.030730
   4 C :   -0.148016
   5 C :   -0.218409
   6 C :   -0.192170
   7 C :   -0.188282
   8 C :   -0.275256
   9 H :    0.122125
  10 H :    0.117516
  11 H :    0.122594
  12 H :    0.143842
  13 H :    0.144090
  14 H :    0.178021
  15 H :    0.134920
  16 H :    0.134049
  17 H :    0.124113
  18 H :    0.136112
  19 H :    0.125738
  20 H :    0.128911
  21 H :    0.134584
  22 H :    0.125058

  Mayer bond orders larger than 0.1
B(  0-C ,  1-C ) :   0.8972 B(  0-C ,  9-H ) :   0.9383 B(  0-C , 10-H ) :   0.9420
B(  0-C , 11-H ) :   0.9396 B(  1-C ,  2-C ) :   0.9153 B(  1-C , 12-H ) :   0.9276
B(  1-C , 13-H ) :   0.9308 B(  2-C ,  3-O ) :   0.9365 B(  2-C ,  4-C ) :   0.8667
B(  2-C ,  7-C ) :   0.8812 B(  3-O , 14-H ) :   0.8393 B(  4-C ,  5-C ) :   0.9153
B(  4-C ,  7-C ) :   0.8141 B(  4-C , 15-H ) :   0.9095 B(  5-C ,  6-C ) :   0.9728
B(  5-C , 16-H ) :   0.9126 B(  5-C , 17-H ) :   0.9337 B(  6-C ,  7-C ) :   0.9158
B(  6-C , 18-H ) :   0.9202 B(  6-C , 19-H ) :   0.9275 B(  7-C ,  8-C ) :   0.8903
B(  8-C , 20-H ) :   0.9340 B(  8-C , 21-H ) :   0.9369 B(  8-C , 22-H ) :   0.9373

MP2 TOTAL ENERGY:     -387.591767223 Eh
FINAL SINGLE POINT ENERGY      -387.591767222679

DIPOLE MOMENT
-------------
                                X             Y             Z
Electronic contribution:      0.60554      -0.07025      -2.93158
Nuclear contribution   :     -0.28288       0.22208       3.29407
                        -----------------------------------------
Total Dipole Moment    :      0.32266       0.15183       0.36250
                        -----------------------------------------
Magnitude (a.u.)       :      0.50850
Magnitude (Debye)      :      1.29250

                             ****ORCA TERMINATED NORMALLY****
TOTAL RUN TIME: 0 days 0 hours 20 minutes 46 seconds 398 msec
