                         Program Version 3.0.3 - RELEASE   -
|  1> ! RI-MP2 RIJK def2-TZVP def2-TZVP/C def2-TZVP/JK TIGHTSCF
|  2> % maxcore 2000
|  3> % mp2 density relaxed end
|  4> *xyz 0 1
|  5>  C       -0.4322717945     1.4164068118     0.3136056435
|  6>  N        0.0931978962     0.0920399971    -0.0189585861
|  7>  C       -0.9419569251    -0.8549422749    -0.4377181645
|  8>  C       -1.5545968678    -1.4389249479     0.8614482172
|  9>  C       -0.3633512020    -1.4010518655     1.8688221346
| 10>  C        0.7463997401    -0.5758453461     1.0987487918
| 11>  C       -0.7240087375    -0.8065860373     3.1503844359
| 12>  N       -1.0025515386    -0.3218546482     4.1633413713
| 13>  H        0.3935837930     2.0649582530     0.6189167554
| 14>  H       -0.8883750435     1.8546080170    -0.5789700334
| 15>  H       -1.1839547938     1.4254094772     1.1212528493
| 16>  H       -1.6807505841    -0.3686002151    -1.0785899623
| 17>  H       -0.4710637726    -1.6570933732    -1.0200410037
| 18>  H       -2.3737294870    -0.8131560768     1.2216147278
| 19>  H       -1.9453030947    -2.4501243986     0.7310298341
| 20>  H        0.0072590554    -2.4102913348     2.0698508808
| 21>  H        1.4842450183    -1.2885057453     0.7137090193
| 22>  H        1.2654285082     0.1360139873     1.7420604489
| 23> *
| 24>
| 25>                          ****END OF INPUT****

CARTESIAN COORDINATES (ANGSTROEM)
---------------------------------
  C     -0.432272    1.416407    0.313606
  N      0.093198    0.092040   -0.018959
  C     -0.941957   -0.854942   -0.437718
  C     -1.554597   -1.438925    0.861448
  C     -0.363351   -1.401052    1.868822
  C      0.746400   -0.575845    1.098749
  C     -0.724009   -0.806586    3.150384
  N     -1.002552   -0.321855    4.163341
  H      0.393584    2.064958    0.618917
  H     -0.888375    1.854608   -0.578970
  H     -1.183955    1.425409    1.121253
  H     -1.680751   -0.368600   -1.078590
  H     -0.471064   -1.657093   -1.020041
  H     -2.373729   -0.813156    1.221615
  H     -1.945303   -2.450124    0.731030
  H      0.007259   -2.410291    2.069851
  H      1.484245   -1.288506    0.713709
  H      1.265429    0.136014    1.742060

 Total Charge           Charge          ....    0
 Multiplicity           Mult            ....    1
 Number of Electrons    NEL             ....   60
 Basis Dimension        Dim             ....  308

ORBITAL ENERGIES
----------------

  NO   OCC          E(Eh)            E(eV)
   0   2.0000     -15.564404      -423.5290
   1   2.0000     -15.560515      -423.4231
   2   2.0000     -11.282664      -307.0169
   3   2.0000     -11.273818      -306.7762
   4   2.0000     -11.269126      -306.6485
   5   2.0000     -11.264488      -306.5223
   6   2.0000     -11.252622      -306.1994
   7   2.0000     -11.248660      -306.0916
   8   2.0000      -1.258259       -34.2390
   9   2.0000      -1.213274       -33.0149
  10   2.0000      -1.080993       -29.4153
  11   2.0000      -1.004463       -27.3328
  12   2.0000      -0.949622       -25.8405
  13   2.0000      -0.850267       -23.1370
  14   2.0000      -0.804968       -21.9043
  15   2.0000      -0.714771       -19.4499
  16   2.0000      -0.686865       -18.6905
  17   2.0000      -0.649291       -17.6681
  18   2.0000      -0.627664       -17.0796
  19   2.0000      -0.583371       -15.8743
  20   2.0000      -0.572886       -15.5890
  21   2.0000      -0.558995       -15.2110
  22   2.0000      -0.537815       -14.6347
  23   2.0000      -0.520340       -14.1592
  24   2.0000      -0.519127       -14.1262
  25   2.0000      -0.513309       -13.9679
  26   2.0000      -0.498207       -13.5569
  27   2.0000      -0.454919       -12.3790
  28   2.0000      -0.447927       -12.1887
  29   2.0000      -0.370038       -10.0693
  30   0.0000       0.117857         3.2070
  31   0.0000       0.146340         3.9821
  32   0.0000       0.156847         4.2680
  33   0.0000       0.161324         4.3898
  34   0.0000       0.185054         5.0356

MULLIKEN ATOMIC CHARGES
-----------------------
   0 C :   -0.342211
   1 N :   -0.139001
   2 C :   -0.158955
   3 C :   -0.286357
   4 C :    0.044158
   5 C :   -0.190029
   6 C :   -0.236618
   7 N :   -0.060563
   8 H :    0.140263
   9 H :    0.138867
  10 H :    0.127545
  11 H :    0.133675
  12 H :    0.123971
  13 H :    0.150507
  14 H :    0.134478
  15 H :    0.138323
  16 H :    0.130687
  17 H :    0.151260
Sum of atomic charges:   -0.0000000

LOEWDIN ATOMIC CHARGES
----------------------
   0 C :   -0.322000
   1 N :    0.061761
   2 C :   -0.273889
   3 C :   -0.220177
   4 C :   -0.226628
   5 C :   -0.234596
   6 C :   -0.186922
   7 N :    0.052078
   8 H :    0.120893
   9 H :    0.119363
  10 H :    0.109026
  11 H :    0.134872
  12 H :    0.134463
  13 H :    0.144290
  14 H :    0.137966
  15 H :    0.171872
  16 H :    0.136275
  17 H :    0.141353

  Mayer bond orders larger than 0.1
B(  0-C ,  1-N ) :   0.9014 B(  0-C ,  8-H ) :   0.9378 B(  0-C ,  9-H ) :   0.9366
B(  0-C , 10-H ) :   0.9269 B(  1-N ,  2-C ) :   0.9329 B(  1-N ,  5-C ) :   0.9455
B(  2-C ,  3-C ) :   0.9211 B(  2-C , 11-H ) :   0.9359 B(  2-C , 12-H ) :   0.9289
B(  3-C ,  4-C ) :   0.8893 B(  3-C , 13-H ) :   0.9342 B(  3-C , 14-H ) :   0.9251
B(  4-C ,  5-C ) :   0.8717 B(  4-C ,  6-C ) :   0.9412 B(  4-C , 15-H ) :   0.9026
B(  5-C , 16-H ) :   0.9274 B(  5-C , 17-H ) :   0.9348 B(  6-C ,  7-N ) :   2.8732

MP2 TOTAL ENERGY:     -343.393769077 Eh
FINAL SINGLE POINT ENERGY      -343.393769076632

DIPOLE MOMENT
-------------
                                X             Y             Z
Electronic contribution:      0.26358      -1.55925       5.95763
Nuclear contribution   :     -0.16610       1.03385      -7.22539
                        -----------------------------------------
Total Dipole Moment    :      0.09747      -0.52540      -1.26776
                        -----------------------------------------
Magnitude (a.u.)       :      1.37578
Magnitude (Debye)      :      3.49695

                             ****ORCA TERMINATED NORMALLY****
TOTAL RUN TIME: 0 days 0 hours 13 minutes 47 seconds 738 msec
