                         Program Version 3.0.3 - RELEASE   -
|  1> ! RI-MP2 RIJK def2-TZVP def2-TZVP/C def2-TZVP/JK TIGHTSCF
|  2> % maxcore 2000
|  3> % mp2 density relaxed end
|  4> *xyz 0 1
|  5>  C       -0.0364600008     1.5369644922     0.1736240035
|  6>  C       -0.1213215037     0.0211747056     0.1477470649
|  7>  O        0.8812954253    -0.4960087508     1.0175710342
|  8>  C        0.8870008774    -1.8700374414     1.1000927341
|  9>  C       -0.0860828150    -2.6371649637     1.9497225883
| 10>  C        1.3956379575    -2.7033540915     2.2653804364
| 11>  C        2.0883915328    -3.6512497658     1.2941600062
| 12>  O        1.6517383594    -4.9888152480     1.4076836712
| 13>  C        1.5610769382    -2.7986446084     0.0809315645
| 14>  H        0.9492488097     1.8729397954    -0.1606494128
| 15>  H       -0.7938452358     1.9722235963    -0.4852170314
| 16>  H       -0.1998521296     1.9129010262     1.1876732707
| 17>  H       -1.1126010223    -0.3240172585     0.4781418069
| 18>  H        0.0336280521    -0.3585602107    -0.8740241091
| 19>  H       -0.6513597188    -2.0207565946     2.6411851455
| 20>  H       -0.6055945362    -3.5163654179     1.5804448193
| 21>  H        1.7868121231    -2.3866217360     3.2237851410
| 22>  H        3.1813756798    -3.5852208523     1.3732519322
| 23>  H        2.0845301885    -5.5043590544     0.7197323515
| 24>  H        0.9038285841    -3.3221875583    -0.6207580094
| 25>  H        2.3713677443    -2.3092639135    -0.4650595778
| 26> *
| 27>
| 28>                          ****END OF INPUT****

CARTESIAN COORDINATES (ANGSTROEM)
---------------------------------
  C     -0.036460    1.536964    0.173624
  C     -0.121322    0.021175    0.147747
  O      0.881295   -0.496009    1.017571
  C      0.887001   -1.870037    1.100093
  C     -0.086083   -2.637165    1.949723
  C      1.395638   -2.703354    2.265380
  C      2.088392   -3.651250    1.294160
  O      1.651738   -4.988815    1.407684
  C      1.561077   -2.798645    0.080932
  H      0.949249    1.872940   -0.160649
  H     -0.793845    1.972224   -0.485217
  H     -0.199852    1.912901    1.187673
  H     -1.112601   -0.324017    0.478142
  H      0.033628   -0.358560   -0.874024
  H     -0.651360   -2.020757    2.641185
  H     -0.605595   -3.516365    1.580445
  H      1.786812   -2.386622    3.223785
  H      3.181376   -3.585221    1.373252
  H      2.084530   -5.504359    0.719732
  H      0.903829   -3.322188   -0.620758
  H      2.371368   -2.309264   -0.465060

 Total Charge           Charge          ....    0
 Multiplicity           Mult            ....    1
 Number of Electrons    NEL             ....   70
 Basis Dimension        Dim             ....  351

ORBITAL ENERGIES
----------------

  NO   OCC          E(Eh)            E(eV)
   0   2.0000     -20.559708      -559.4581
   1   2.0000     -20.554713      -559.3222
   2   2.0000     -11.284900      -307.0777
   3   2.0000     -11.284660      -307.0712
   4   2.0000     -11.275866      -306.8319
   5   2.0000     -11.224808      -305.4426
   6   2.0000     -11.224585      -305.4365
   7   2.0000     -11.221361      -305.3488
   8   2.0000     -11.215379      -305.1860
   9   2.0000      -1.386072       -37.7169
  10   2.0000      -1.362277       -37.0694
  11   2.0000      -1.175785       -31.9947
  12   2.0000      -1.016873       -27.6705
  13   2.0000      -0.979603       -26.6563
  14   2.0000      -0.885331       -24.0911
  15   2.0000      -0.848888       -23.0994
  16   2.0000      -0.785898       -21.3854
  17   2.0000      -0.738183       -20.0870
  18   2.0000      -0.709074       -19.2949
  19   2.0000      -0.686177       -18.6718
  20   2.0000      -0.661542       -18.0015
  21   2.0000      -0.619526       -16.8582
  22   2.0000      -0.607803       -16.5392
  23   2.0000      -0.595660       -16.2087
  24   2.0000      -0.563956       -15.3460
  25   2.0000      -0.553113       -15.0510
  26   2.0000      -0.539475       -14.6799
  27   2.0000      -0.528315       -14.3762
  28   2.0000      -0.513575       -13.9751
  29   2.0000      -0.496442       -13.5089
  30   2.0000      -0.472768       -12.8647
  31   2.0000      -0.452073       -12.3015
  32   2.0000      -0.430915       -11.7258
  33   2.0000      -0.388007       -10.5582
  34   2.0000      -0.372993       -10.1497
  35   0.0000       0.133237         3.6256
  36   0.0000       0.144103         3.9212
  37   0.0000       0.165586         4.5058
  38   0.0000       0.173461         4.7201
  39   0.0000       0.178002         4.8437

MULLIKEN ATOMIC CHARGES
-----------------------
   0 C :   -0.360396
   1 C :   -0.040387
   2 O :   -0.283345
   3 C :    0.144620
   4 C :   -0.298468
   5 C :   -0.104429
   6 C :    0.025581
   7 O :   -0.456436
   8 C :   -0.244138
   9 H :    0.129561
  10 H :    0.122986
  11 H :    0.129575
  12 H :    0.100724
  13 H :    0.097273
  14 H :    0.131804
  15 H :    0.138271
  16 H :    0.137717
  17 H :    0.089790
  18 H :    0.314366
  19 H :    0.111147
  20 H :    0.114185
Sum of atomic charges:    0.0000000

LOEWDIN ATOMIC CHARGES
----------------------
   0 C :   -0.317204
   1 C :   -0.330363
   2 O :    0.215640
   3 C :   -0.323185
   4 C :   -0.188097
   5 C :   -0.144549
   6 C :   -0.305111
   7 O :   -0.018057
   8 C :   -0.189280
   9 H :    0.124035
  10 H :    0.124641
  11 H :    0.124132
  12 H :    0.119458
  13 H :    0.118798
  14 H :    0.144271
  15 H :    0.134256
  16 H :    0.138674
  17 H :    0.131978
  18 H :    0.175127
  19 H :    0.128117
  20 H :    0.136718

  Mayer bond orders larger than 0.1
B(  0-C ,  1-C ) :   0.9525 B(  0-C ,  9-H ) :   0.9356 B(  0-C , 10-H ) :   0.9323
B(  0-C , 11-H ) :   0.9364 B(  1-C ,  2-O ) :   0.8748 B(  1-C , 12-H ) :   0.9231
B(  1-C , 13-H ) :   0.9215 B(  2-O ,  3-C ) :   1.0439 B(  3-C ,  4-C ) :   0.9163
B(  3-C ,  5-C ) :   0.8362 B(  3-C ,  8-C ) :   0.9527 B(  4-C ,  5-C ) :   0.8763
B(  4-C , 14-H ) :   0.9267 B(  4-C , 15-H ) :   0.8977 B(  5-C ,  6-C ) :   0.9196
B(  5-C , 16-H ) :   0.9107 B(  6-C ,  7-O ) :   1.0807 B(  6-C ,  8-C ) :   0.9446
B(  6-C , 17-H ) :   0.9488 B(  7-O , 18-H ) :   0.8453 B(  8-C , 19-H ) :   0.8945
B(  8-C , 20-H ) :   0.9111

MP2 TOTAL ENERGY:     -423.479041448 Eh
FINAL SINGLE POINT ENERGY      -423.479041447659

DIPOLE MOMENT
-------------
                                X             Y             Z
Electronic contribution:      2.87229      -5.46492       2.81037
Nuclear contribution   :     -2.79779       5.52509      -3.49447
                        -----------------------------------------
Total Dipole Moment    :      0.07450       0.06016      -0.68410
                        -----------------------------------------
Magnitude (a.u.)       :      0.69077
Magnitude (Debye)      :      1.75580

                             ****ORCA TERMINATED NORMALLY****
TOTAL RUN TIME: 0 days 0 hours 16 minutes 36 seconds 599 msec
