                         Program Version 3.0.3 - RELEASE   -
|  1> ! RI-MP2 RIJK def2-TZVP def2-TZVP/C def2-TZVP/JK TIGHTSCF
|  2> % maxcore 2000
|  3> % mp2 density relaxed end
|  4> *xyz 0 1
|  5>  C       -0.2845142784     1.5248628525     0.0981138589
|  6>  C        0.1418886410     0.0622020405    -0.0235827405
|  7>  C        1.2323616864    -0.2233610231    -1.0745583610
|  8>  C        1.6843169379    -1.6618747945    -0.7557435772
|  9>  C        2.9704889265    -2.1134867773    -1.4469845012
| 10>  C        1.6936854849    -1.7076542346     0.7890332765
| 11>  C        2.8531985477    -0.9698757345     1.5246679548
| 12>  C        1.8659892519     0.1335157746     1.9933083389
| 13>  C        0.6949228642    -0.5913092244     1.2631207869
| 14>  H        0.5568538244     2.1723416135     0.3658391750
| 15>  H       -0.6923843321     1.8937427251    -0.8492230096
| 16>  H       -1.0581227384     1.6517769028     0.8634753136
| 17>  H       -0.7441232177    -0.5209010277    -0.3140566479
| 18>  H        0.8732524632    -0.1080516521    -2.1026131239
| 19>  H        2.0721852957     0.4752301645    -0.9503502997
| 20>  H        0.8761722473    -2.3320213674    -1.0831689971
| 21>  H        3.8194984652    -1.4745541629    -1.1828750250
| 22>  H        3.2303347069    -3.1417524761    -1.1722025519
| 23>  H        2.8620529038    -2.0792898827    -2.5364566830
| 24>  H        1.5135337289    -2.7189466942     1.1621055615
| 25>  H        3.3041259025    -1.5481559268     2.3348154646
| 26>  H        3.6629961737    -0.6161495624     0.8808843083
| 27>  H        1.7408840120     0.1989683410     3.0768893774
| 28>  H        2.0938448733     1.1377092969     1.6258464214
| 29>  H       -0.1100841107    -0.9042128909     1.9327513301
| 30> *
| 31>
| 32>                          ****END OF INPUT****

CARTESIAN COORDINATES (ANGSTROEM)
---------------------------------
  C     -0.284514    1.524863    0.098114
  C      0.141889    0.062202   -0.023583
  C      1.232362   -0.223361   -1.074558
  C      1.684317   -1.661875   -0.755744
  C      2.970489   -2.113487   -1.446985
  C      1.693685   -1.707654    0.789033
  C      2.853199   -0.969876    1.524668
  C      1.865989    0.133516    1.993308
  C      0.694923   -0.591309    1.263121
  H      0.556854    2.172342    0.365839
  H     -0.692384    1.893743   -0.849223
  H     -1.058123    1.651777    0.863475
  H     -0.744123   -0.520901   -0.314057
  H      0.873252   -0.108052   -2.102613
  H      2.072185    0.475230   -0.950350
  H      0.876172   -2.332021   -1.083169
  H      3.819498   -1.474554   -1.182875
  H      3.230335   -3.141752   -1.172203
  H      2.862053   -2.079290   -2.536457
  H      1.513534   -2.718947    1.162106
  H      3.304126   -1.548156    2.334815
  H      3.662996   -0.616150    0.880884
  H      1.740884    0.198968    3.076889
  H      2.093845    1.137709    1.625846
  H     -0.110084   -0.904213    1.932751

 Total Charge           Charge          ....    0
 Multiplicity           Mult            ....    1
 Number of Electrons    NEL             ....   70
 Basis Dimension        Dim             ....  375

ORBITAL ENERGIES
----------------

  NO   OCC          E(Eh)            E(eV)
   0   2.0000     -11.217835      -305.2528
   1   2.0000     -11.217828      -305.2526
   2   2.0000     -11.213991      -305.1482
   3   2.0000     -11.213473      -305.1341
   4   2.0000     -11.210477      -305.0526
   5   2.0000     -11.209934      -305.0378
   6   2.0000     -11.208908      -305.0099
   7   2.0000     -11.207691      -304.9768
   8   2.0000     -11.207690      -304.9767
   9   2.0000      -1.150246       -31.2998
  10   2.0000      -1.047222       -28.4964
  11   2.0000      -1.024193       -27.8697
  12   2.0000      -0.927579       -25.2407
  13   2.0000      -0.888944       -24.1894
  14   2.0000      -0.887742       -24.1567
  15   2.0000      -0.811886       -22.0925
  16   2.0000      -0.748577       -20.3698
  17   2.0000      -0.696355       -18.9488
  18   2.0000      -0.675635       -18.3850
  19   2.0000      -0.625279       -17.0147
  20   2.0000      -0.597948       -16.2710
  21   2.0000      -0.580608       -15.7992
  22   2.0000      -0.574997       -15.6465
  23   2.0000      -0.564523       -15.3615
  24   2.0000      -0.545704       -14.8494
  25   2.0000      -0.528606       -14.3841
  26   2.0000      -0.498677       -13.5697
  27   2.0000      -0.498140       -13.5551
  28   2.0000      -0.486534       -13.2393
  29   2.0000      -0.455547       -12.3961
  30   2.0000      -0.449851       -12.2411
  31   2.0000      -0.439422       -11.9573
  32   2.0000      -0.424421       -11.5491
  33   2.0000      -0.404668       -11.0116
  34   2.0000      -0.404216       -10.9993
  35   0.0000       0.133256         3.6261
  36   0.0000       0.148237         4.0337
  37   0.0000       0.149708         4.0738
  38   0.0000       0.168712         4.5909
  39   0.0000       0.189416         5.1543

MULLIKEN ATOMIC CHARGES
-----------------------
   0 C :   -0.389071
   1 C :   -0.082506
   2 C :   -0.281714
   3 C :   -0.082519
   4 C :   -0.389067
   5 C :   -0.010357
   6 C :   -0.273047
   7 C :   -0.273030
   8 C :   -0.010376
   9 H :    0.116821
  10 H :    0.130833
  11 H :    0.131078
  12 H :    0.080547
  13 H :    0.122034
  14 H :    0.105653
  15 H :    0.080547
  16 H :    0.116821
  17 H :    0.131077
  18 H :    0.130832
  19 H :    0.102801
  20 H :    0.113603
  21 H :    0.106320
  22 H :    0.113602
  23 H :    0.106318
  24 H :    0.102801
Sum of atomic charges:   -0.0000000

LOEWDIN ATOMIC CHARGES
----------------------
   0 C :   -0.295302
   1 C :   -0.257125
   2 C :   -0.211121
   3 C :   -0.257126
   4 C :   -0.295302
   5 C :   -0.173212
   6 C :   -0.220476
   7 C :   -0.220476
   8 C :   -0.173212
   9 H :    0.119922
  10 H :    0.123426
  11 H :    0.123939
  12 H :    0.154430
  13 H :    0.134106
  14 H :    0.139778
  15 H :    0.154430
  16 H :    0.119923
  17 H :    0.123939
  18 H :    0.123426
  19 H :    0.138561
  20 H :    0.127722
  21 H :    0.126734
  22 H :    0.127724
  23 H :    0.126733
  24 H :    0.138560

  Mayer bond orders larger than 0.1
B(  0-C ,  1-C ) :   0.9078 B(  0-C ,  9-H ) :   0.9326 B(  0-C , 10-H ) :   0.9413
B(  0-C , 11-H ) :   0.9433 B(  1-C ,  2-C ) :   0.9371 B(  1-C ,  8-C ) :   0.9138
B(  1-C , 12-H ) :   0.9241 B(  2-C ,  3-C ) :   0.9371 B(  2-C , 13-H ) :   0.9250
B(  2-C , 14-H ) :   0.9215 B(  3-C ,  4-C ) :   0.9078 B(  3-C ,  5-C ) :   0.9138
B(  3-C , 15-H ) :   0.9241 B(  4-C , 16-H ) :   0.9326 B(  4-C , 17-H ) :   0.9433
B(  4-C , 18-H ) :   0.9413 B(  5-C ,  6-C ) :   0.9231 B(  5-C ,  8-C ) :   0.9367
B(  5-C , 19-H ) :   0.9125 B(  6-C ,  7-C ) :   0.9732 B(  6-C , 20-H ) :   0.9201
B(  6-C , 21-H ) :   0.9185 B(  7-C ,  8-C ) :   0.9231 B(  7-C , 22-H ) :   0.9201
B(  7-C , 23-H ) :   0.9185 B(  8-C , 24-H ) :   0.9125

MP2 TOTAL ENERGY:     -351.724630069 Eh
FINAL SINGLE POINT ENERGY      -351.724630069338

DIPOLE MOMENT
-------------
                                X             Y             Z
Electronic contribution:     -1.02372      -1.65604       1.74292
Nuclear contribution   :      0.94081       1.58951      -1.76093
                        -----------------------------------------
Total Dipole Moment    :     -0.08291      -0.06653      -0.01801
                        -----------------------------------------
Magnitude (a.u.)       :      0.10782
Magnitude (Debye)      :      0.27406

                             ****ORCA TERMINATED NORMALLY****
TOTAL RUN TIME: 0 days 0 hours 24 minutes 7 seconds 825 msec
