                         Program Version 3.0.3 - RELEASE   -
|  1> ! RI-MP2 RIJK def2-TZVP def2-TZVP/C def2-TZVP/JK TIGHTSCF
|  2> % maxcore 2000
|  3> % mp2 density relaxed end
|  4> *xyz 0 1
|  5>  C       -0.0116003761     1.5424883007     0.0625867782
|  6>  C        0.0263331027     0.0227634881     0.0498122189
|  7>  C       -1.1914360207    -0.5829480357    -0.6293847330
|  8>  C        1.3707456376    -0.6632329066    -0.1398706983
|  9>  O        2.5506910857     0.0839863924    -0.2479969460
| 10>  C        0.7049150379    -0.7199145214     1.2133818120
| 11>  C        1.3109174541     0.0813531758     2.3551307907
| 12>  C        0.1496965836    -2.0556708253     1.6839816152
| 13>  H        0.9468698279     1.9807158545     0.3426977186
| 14>  H       -0.2701652182     1.9222839296    -0.9335914024
| 15>  H       -0.7731653943     1.9158072511     0.7569911847
| 16>  H       -1.3268728035    -0.1452372081    -1.6258692098
| 17>  H       -1.1130523220    -1.6645308000    -0.7585897971
| 18>  H       -2.1071981946    -0.3834723735    -0.0594484240
| 19>  H        1.3748638308    -1.5854069570    -0.7249695819
| 20>  H        2.5675387217     0.4891799340    -1.1214548138
| 21>  H        1.8787579865     0.9436856863     2.0084786915
| 22>  H        0.5331095131     0.4292421582     3.0450287752
| 23>  H        1.9992138516    -0.5497064938     2.9289214412
| 24>  H        0.9207274161    -2.6117826719     2.2298630796
| 25>  H       -0.6969219220    -1.9133053780     2.3663765157
| 26>  H       -0.1895183179    -2.6909808497     0.8632869048
| 27> *
| 28>
| 29>                          ****END OF INPUT****

CARTESIAN COORDINATES (ANGSTROEM)
---------------------------------
  C     -0.011600    1.542488    0.062587
  C      0.026333    0.022763    0.049812
  C     -1.191436   -0.582948   -0.629385
  C      1.370746   -0.663233   -0.139871
  O      2.550691    0.083986   -0.247997
  C      0.704915   -0.719915    1.213382
  C      1.310917    0.081353    2.355131
  C      0.149697   -2.055671    1.683982
  H      0.946870    1.980716    0.342698
  H     -0.270165    1.922284   -0.933591
  H     -0.773165    1.915807    0.756991
  H     -1.326873   -0.145237   -1.625869
  H     -1.113052   -1.664531   -0.758590
  H     -2.107198   -0.383472   -0.059448
  H      1.374864   -1.585407   -0.724970
  H      2.567539    0.489180   -1.121455
  H      1.878758    0.943686    2.008479
  H      0.533110    0.429242    3.045029
  H      1.999214   -0.549706    2.928921
  H      0.920727   -2.611783    2.229863
  H     -0.696922   -1.913305    2.366377
  H     -0.189518   -2.690981    0.863287

 Total Charge           Charge          ....    0
 Multiplicity           Mult            ....    1
 Number of Electrons    NEL             ....   64
 Basis Dimension        Dim             ....  332

ORBITAL ENERGIES
----------------

  NO   OCC          E(Eh)            E(eV)
   0   2.0000     -20.558421      -559.4231
   1   2.0000     -11.270071      -306.6742
   2   2.0000     -11.231395      -305.6218
   3   2.0000     -11.230053      -305.5853
   4   2.0000     -11.215540      -305.1903
   5   2.0000     -11.212466      -305.1067
   6   2.0000     -11.212366      -305.1040
   7   2.0000     -11.205713      -304.9230
   8   2.0000      -1.366683       -37.1893
   9   2.0000      -1.149590       -31.2819
  10   2.0000      -1.012894       -27.5623
  11   2.0000      -0.945295       -25.7228
  12   2.0000      -0.937879       -25.5210
  13   2.0000      -0.914973       -24.8977
  14   2.0000      -0.776975       -21.1426
  15   2.0000      -0.710958       -19.3461
  16   2.0000      -0.683330       -18.5944
  17   2.0000      -0.643161       -17.5013
  18   2.0000      -0.616283       -16.7699
  19   2.0000      -0.603170       -16.4131
  20   2.0000      -0.570145       -15.5144
  21   2.0000      -0.551128       -14.9970
  22   2.0000      -0.544744       -14.8233
  23   2.0000      -0.536317       -14.5939
  24   2.0000      -0.533727       -14.5234
  25   2.0000      -0.527520       -14.3546
  26   2.0000      -0.513496       -13.9729
  27   2.0000      -0.507402       -13.8071
  28   2.0000      -0.480440       -13.0734
  29   2.0000      -0.457935       -12.4611
  30   2.0000      -0.381395       -10.3783
  31   2.0000      -0.366632        -9.9766
  32   0.0000       0.126080         3.4308
  33   0.0000       0.152223         4.1422
  34   0.0000       0.170088         4.6283
  35   0.0000       0.176671         4.8075
  36   0.0000       0.190585         5.1861

MULLIKEN ATOMIC CHARGES
-----------------------
   0 C :   -0.433989
   1 C :    0.038493
   2 C :   -0.392109
   3 C :   -0.054054
   4 O :   -0.471710
   5 C :    0.106654
   6 C :   -0.409932
   7 C :   -0.385431
   8 H :    0.146409
   9 H :    0.127456
  10 H :    0.133327
  11 H :    0.127448
  12 H :    0.122475
  13 H :    0.130273
  14 H :    0.102323
  15 H :    0.323415
  16 H :    0.150243
  17 H :    0.127492
  18 H :    0.128595
  19 H :    0.133112
  20 H :    0.129619
  21 H :    0.119893
Sum of atomic charges:   -0.0000000

LOEWDIN ATOMIC CHARGES
----------------------
   0 C :   -0.271260
   1 C :   -0.248929
   2 C :   -0.269250
   3 C :   -0.272155
   4 O :   -0.000704
   5 C :   -0.242360
   6 C :   -0.262375
   7 C :   -0.266041
   8 H :    0.127665
   9 H :    0.125342
  10 H :    0.128480
  11 H :    0.125816
  12 H :    0.123331
  13 H :    0.127370
  14 H :    0.133186
  15 H :    0.180233
  16 H :    0.129236
  17 H :    0.126184
  18 H :    0.128506
  19 H :    0.128094
  20 H :    0.127151
  21 H :    0.122481

  Mayer bond orders larger than 0.1
B(  0-C ,  1-C ) :   0.8999 B(  0-C ,  8-H ) :   0.9365 B(  0-C ,  9-H ) :   0.9360
B(  0-C , 10-H ) :   0.9383 B(  1-C ,  2-C ) :   0.8964 B(  1-C ,  3-C ) :   0.8876
B(  1-C ,  5-C ) :   0.8326 B(  2-C , 11-H ) :   0.9368 B(  2-C , 12-H ) :   0.9372
B(  2-C , 13-H ) :   0.9367 B(  3-C ,  4-O ) :   1.0245 B(  3-C ,  5-C ) :   0.8423
B(  3-C , 14-H ) :   0.9704 B(  4-O , 15-H ) :   0.8426 B(  5-C ,  6-C ) :   0.9194
B(  5-C ,  7-C ) :   0.8985 B(  6-C , 16-H ) :   0.9320 B(  6-C , 17-H ) :   0.9389
B(  6-C , 18-H ) :   0.9354 B(  7-C , 19-H ) :   0.9381 B(  7-C , 20-H ) :   0.9405
B(  7-C , 21-H ) :   0.9353

MP2 TOTAL ENERGY:     -349.595780580 Eh
FINAL SINGLE POINT ENERGY      -349.595780579823

DIPOLE MOMENT
-------------
                                X             Y             Z
Electronic contribution:      4.48468       0.08643      -2.16713
Nuclear contribution   :     -4.84703      -0.04455       1.75702
                        -----------------------------------------
Total Dipole Moment    :     -0.36235       0.04188      -0.41011
                        -----------------------------------------
Magnitude (a.u.)       :      0.54886
Magnitude (Debye)      :      1.39509

                             ****ORCA TERMINATED NORMALLY****
TOTAL RUN TIME: 0 days 0 hours 15 minutes 48 seconds 22 msec
