                         Program Version 3.0.3 - RELEASE   -
|  1> ! RI-MP2 RIJK def2-TZVP def2-TZVP/C def2-TZVP/JK TIGHTSCF
|  2> % maxcore 2000
|  3> % mp2 density relaxed end
|  4> *xyz 0 1
|  5>  O       -0.4861863792     0.4838346174     0.6751149852
|  6>  C        0.0309453592     1.0568115417    -0.2476236137
|  7>  C        1.3681356675     1.7778198411    -0.1768718275
|  8>  N        1.3699939881     2.9430570846    -1.0375373270
|  9>  C        0.7679431675     4.2218972874    -0.5490457338
| 10>  C        2.0594128813     4.9599504860    -0.9078022881
| 11>  C        3.2118003281     4.3540551021    -0.1461744371
| 12>  C        2.6339096945     3.6181898042    -1.3278331866
| 13>  H       -0.4365415353     1.0966148375    -1.2575536326
| 14>  H        1.6107957986     1.9661687065     0.8816503482
| 15>  H        2.1202268833     1.0737507139    -0.5635114069
| 16>  H       -0.1068921142     4.5095644765    -1.1401022056
| 17>  H        0.4979343321     4.2279745508     0.5159262837
| 18>  H        2.1202325159     5.9128534555    -1.4147816141
| 19>  H        4.1769465865     4.8177879946    -0.3249272969
| 20>  H        3.0709429888     3.9888465611     0.8678716979
| 21>  H        3.2188536473     3.3405702693    -2.1984098849
| 22> *
| 23>
| 24>                          ****END OF INPUT****

CARTESIAN COORDINATES (ANGSTROEM)
---------------------------------
  O     -0.486186    0.483835    0.675115
  C      0.030945    1.056812   -0.247624
  C      1.368136    1.777820   -0.176872
  N      1.369994    2.943057   -1.037537
  C      0.767943    4.221897   -0.549046
  C      2.059413    4.959950   -0.907802
  C      3.211800    4.354055   -0.146174
  C      2.633910    3.618190   -1.327833
  H     -0.436542    1.096615   -1.257554
  H      1.610796    1.966169    0.881650
  H      2.120227    1.073751   -0.563511
  H     -0.106892    4.509564   -1.140102
  H      0.497934    4.227975    0.515926
  H      2.120233    5.912853   -1.414782
  H      4.176947    4.817788   -0.324927
  H      3.070943    3.988847    0.867872
  H      3.218854    3.340570   -2.198410

 Total Charge           Charge          ....    0
 Multiplicity           Mult            ....    1
 Number of Electrons    NEL             ....   60
 Basis Dimension        Dim             ....  302

ORBITAL ENERGIES
----------------

  NO   OCC          E(Eh)            E(eV)
   0   2.0000     -20.555928      -559.3552
   1   2.0000     -15.565152      -423.5493
   2   2.0000     -11.327672      -308.2416
   3   2.0000     -11.271615      -306.7162
   4   2.0000     -11.267110      -306.5936
   5   2.0000     -11.266303      -306.5717
   6   2.0000     -11.244718      -305.9843
   7   2.0000     -11.239502      -305.8424
   8   2.0000      -1.394940       -37.9582
   9   2.0000      -1.283770       -34.9332
  10   2.0000      -1.111854       -30.2551
  11   2.0000      -0.990255       -26.9462
  12   2.0000      -0.924954       -25.1693
  13   2.0000      -0.826108       -22.4795
  14   2.0000      -0.792227       -21.5576
  15   2.0000      -0.750659       -20.4265
  16   2.0000      -0.711390       -19.3579
  17   2.0000      -0.665513       -18.1095
  18   2.0000      -0.654841       -17.8191
  19   2.0000      -0.641300       -17.4506
  20   2.0000      -0.603310       -16.4169
  21   2.0000      -0.596517       -16.2320
  22   2.0000      -0.557779       -15.1779
  23   2.0000      -0.523751       -14.2520
  24   2.0000      -0.509271       -13.8580
  25   2.0000      -0.495281       -13.4773
  26   2.0000      -0.467319       -12.7164
  27   2.0000      -0.421160       -11.4603
  28   2.0000      -0.400187       -10.8896
  29   2.0000      -0.362861        -9.8740
  30   0.0000       0.127565         3.4712
  31   0.0000       0.144555         3.9335
  32   0.0000       0.156876         4.2688
  33   0.0000       0.161841         4.4039
  34   0.0000       0.168811         4.5936

MULLIKEN ATOMIC CHARGES
-----------------------
   0 O :   -0.262592
   1 C :    0.091764
   2 C :   -0.099331
   3 N :   -0.175533
   4 C :   -0.177162
   5 C :   -0.152427
   6 C :   -0.264698
   7 C :   -0.069141
   8 H :    0.079356
   9 H :    0.100631
  10 H :    0.137283
  11 H :    0.126622
  12 H :    0.123110
  13 H :    0.141393
  14 H :    0.132702
  15 H :    0.137858
  16 H :    0.130165
Sum of atomic charges:   -0.0000000

LOEWDIN ATOMIC CHARGES
----------------------
   0 O :    0.131885
   1 C :   -0.293082
   2 C :   -0.298306
   3 N :    0.111385
   4 C :   -0.215805
   5 C :   -0.189217
   6 C :   -0.215514
   7 C :   -0.221219
   8 H :    0.111296
   9 H :    0.129311
  10 H :    0.153316
  11 H :    0.129192
  12 H :    0.125741
  13 H :    0.136120
  14 H :    0.141579
  15 H :    0.130971
  16 H :    0.132346

  Mayer bond orders larger than 0.1
B(  0-O ,  1-C ) :   2.0094 B(  1-C ,  2-C ) :   0.8840 B(  1-C ,  8-H ) :   0.9337
B(  2-C ,  3-N ) :   0.8773 B(  2-C ,  9-H ) :   0.8862 B(  2-C , 10-H ) :   0.9039
B(  3-N ,  4-C ) :   0.9184 B(  3-N ,  7-C ) :   0.9691 B(  4-C ,  5-C ) :   0.9479
B(  4-C , 11-H ) :   0.9244 B(  4-C , 12-H ) :   0.9204 B(  5-C ,  6-C ) :   0.8709
B(  5-C ,  7-C ) :   0.8723 B(  5-C , 13-H ) :   0.9214 B(  6-C ,  7-C ) :   0.8802
B(  6-C , 14-H ) :   0.9273 B(  6-C , 15-H ) :   0.9250 B(  7-C , 16-H ) :   0.9244

MP2 TOTAL ENERGY:     -363.185728081 Eh
FINAL SINGLE POINT ENERGY      -363.185728080621

DIPOLE MOMENT
-------------
                                X             Y             Z
Electronic contribution:     -3.15742      -3.85612       0.17589
Nuclear contribution   :      3.93609       4.65871      -0.63419
                        -----------------------------------------
Total Dipole Moment    :      0.77868       0.80260      -0.45830
                        -----------------------------------------
Magnitude (a.u.)       :      1.20853
Magnitude (Debye)      :      3.07183

                             ****ORCA TERMINATED NORMALLY****
TOTAL RUN TIME: 0 days 0 hours 11 minutes 31 seconds 415 msec
