                         Program Version 3.0.3 - RELEASE   -
|  1> ! RI-MP2 RIJK def2-TZVP def2-TZVP/C def2-TZVP/JK TIGHTSCF
|  2> % maxcore 2000
|  3> % mp2 density relaxed end
|  4> *xyz 0 1
|  5>  C       -0.2689262571     1.4952004680    -0.4195070043
|  6>  C       -0.1533551751    -0.0313764789    -0.4235534533
|  7>  C        1.1006452127    -0.5694110341    -1.1608742607
|  8>  C        2.4142374019    -0.1920620482    -0.4611426028
|  9>  C        0.9575801130    -2.0819025373    -1.2441308533
| 10>  O        1.1425515108    -2.7978428197    -0.2797639290
| 11>  C        0.5238933895    -2.7233631782    -2.5638855039
| 12>  C        1.6347292669    -2.6033753964    -3.6234909473
| 13>  O        0.1921118722    -4.0694025422    -2.3523031410
| 14>  H        0.5573895252     1.9682366251     0.1188929771
| 15>  H       -0.2772477539     1.8959721633    -1.4392706183
| 16>  H       -1.1980709759     1.8069487044     0.0672155445
| 17>  H       -0.1381029326    -0.4163411762     0.6025818913
| 18>  H       -1.0500942449    -0.4531477920    -0.8952342379
| 19>  H        1.0936278594    -0.1596130699    -2.1782751455
| 20>  H        2.4485428057    -0.6344045991     0.5378240289
| 21>  H        3.2792269243    -0.5607244311    -1.0210807255
| 22>  H        2.5146854991     0.8921441066    -0.3706692880
| 23>  H       -0.3627203560    -2.1746499834    -2.9238841936
| 24>  H        2.5496676418    -3.0867031251    -3.2678032961
| 25>  H        1.3091002377    -3.1172988805    -4.5310764543
| 26>  H        1.8567976415    -1.5624677717    -3.8767078155
| 27>  H        0.4590771737    -4.2511877834    -1.4360516216
| 28> *
| 29>
| 30>                          ****END OF INPUT****

CARTESIAN COORDINATES (ANGSTROEM)
---------------------------------
  C     -0.268926    1.495200   -0.419507
  C     -0.153355   -0.031376   -0.423553
  C      1.100645   -0.569411   -1.160874
  C      2.414237   -0.192062   -0.461143
  C      0.957580   -2.081903   -1.244131
  O      1.142552   -2.797843   -0.279764
  C      0.523893   -2.723363   -2.563886
  C      1.634729   -2.603375   -3.623491
  O      0.192112   -4.069403   -2.352303
  H      0.557390    1.968237    0.118893
  H     -0.277248    1.895972   -1.439271
  H     -1.198071    1.806949    0.067216
  H     -0.138103   -0.416341    0.602582
  H     -1.050094   -0.453148   -0.895234
  H      1.093628   -0.159613   -2.178275
  H      2.448543   -0.634405    0.537824
  H      3.279227   -0.560724   -1.021081
  H      2.514685    0.892144   -0.370669
  H     -0.362720   -2.174650   -2.923884
  H      2.549668   -3.086703   -3.267803
  H      1.309100   -3.117299   -4.531076
  H      1.856798   -1.562468   -3.876708
  H      0.459077   -4.251188   -1.436052

 Total Charge           Charge          ....    0
 Multiplicity           Mult            ....    1
 Number of Electrons    NEL             ....   72
 Basis Dimension        Dim             ....  363

ORBITAL ENERGIES
----------------

  NO   OCC          E(Eh)            E(eV)
   0   2.0000     -20.558338      -559.4208
   1   2.0000     -20.548742      -559.1597
   2   2.0000     -11.335391      -308.4517
   3   2.0000     -11.294542      -307.3401
   4   2.0000     -11.251396      -306.1661
   5   2.0000     -11.239487      -305.8420
   6   2.0000     -11.229815      -305.5788
   7   2.0000     -11.226500      -305.4886
   8   2.0000     -11.226187      -305.4801
   9   2.0000      -1.411132       -38.3989
  10   2.0000      -1.354779       -36.8654
  11   2.0000      -1.105812       -30.0907
  12   2.0000      -1.036156       -28.1952
  13   2.0000      -0.996886       -27.1266
  14   2.0000      -0.921075       -25.0637
  15   2.0000      -0.873390       -23.7661
  16   2.0000      -0.814359       -22.1598
  17   2.0000      -0.750650       -20.4262
  18   2.0000      -0.716545       -19.4982
  19   2.0000      -0.667087       -18.1524
  20   2.0000      -0.640560       -17.4305
  21   2.0000      -0.638038       -17.3619
  22   2.0000      -0.599407       -16.3107
  23   2.0000      -0.589368       -16.0375
  24   2.0000      -0.573213       -15.5979
  25   2.0000      -0.567589       -15.4449
  26   2.0000      -0.549286       -14.9468
  27   2.0000      -0.537878       -14.6364
  28   2.0000      -0.533834       -14.5264
  29   2.0000      -0.521142       -14.1810
  30   2.0000      -0.516784       -14.0624
  31   2.0000      -0.507963       -13.8224
  32   2.0000      -0.482610       -13.1325
  33   2.0000      -0.472097       -12.8464
  34   2.0000      -0.443909       -12.0794
  35   2.0000      -0.413405       -11.2493
  36   0.0000       0.117884         3.2078
  37   0.0000       0.135182         3.6785
  38   0.0000       0.151560         4.1242
  39   0.0000       0.158174         4.3041
  40   0.0000       0.166866         4.5407

MULLIKEN ATOMIC CHARGES
-----------------------
   0 C :   -0.408617
   1 C :   -0.216967
   2 C :   -0.066261
   3 C :   -0.426191
   4 C :    0.214573
   5 O :   -0.328962
   6 C :    0.097997
   7 C :   -0.383400
   8 O :   -0.481706
   9 H :    0.132397
  10 H :    0.125454
  11 H :    0.142372
  12 H :    0.132205
  13 H :    0.120637
  14 H :    0.097074
  15 H :    0.150055
  16 H :    0.136149
  17 H :    0.138721
  18 H :    0.092320
  19 H :    0.128521
  20 H :    0.148072
  21 H :    0.120222
  22 H :    0.335334
Sum of atomic charges:   -0.0000000

LOEWDIN ATOMIC CHARGES
----------------------
   0 C :   -0.315439
   1 C :   -0.258731
   2 C :   -0.252954
   3 C :   -0.281226
   4 C :   -0.284091
   5 O :    0.146652
   6 C :   -0.360363
   7 C :   -0.287089
   8 O :   -0.009595
   9 H :    0.120767
  10 H :    0.121910
  11 H :    0.124858
  12 H :    0.144900
  13 H :    0.140874
  14 H :    0.156276
  15 H :    0.132676
  16 H :    0.126667
  17 H :    0.124078
  18 H :    0.148116
  19 H :    0.127290
  20 H :    0.130996
  21 H :    0.121528
  22 H :    0.181902

  Mayer bond orders larger than 0.1
B(  0-C ,  1-C ) :   0.9102 B(  0-C ,  9-H ) :   0.9421 B(  0-C , 10-H ) :   0.9369
B(  0-C , 11-H ) :   0.9410 B(  1-C ,  2-C ) :   0.9019 B(  1-C , 12-H ) :   0.9302
B(  1-C , 13-H ) :   0.9283 B(  2-C ,  3-C ) :   0.8933 B(  2-C ,  4-C ) :   0.8823
B(  2-C , 14-H ) :   0.9287 B(  3-C , 15-H ) :   0.9296 B(  3-C , 16-H ) :   0.9367
B(  3-C , 17-H ) :   0.9402 B(  4-C ,  5-O ) :   1.8968 B(  4-C ,  6-C ) :   0.9391
B(  6-C ,  7-C ) :   0.8662 B(  6-C ,  8-O ) :   1.0658 B(  6-C , 18-H ) :   0.9111
B(  7-C , 19-H ) :   0.9333 B(  7-C , 20-H ) :   0.9326 B(  7-C , 21-H ) :   0.9201
B(  8-O , 22-H ) :   0.7999

MP2 TOTAL ENERGY:     -424.751906207 Eh
FINAL SINGLE POINT ENERGY      -424.751906207332

DIPOLE MOMENT
-------------
                                X             Y             Z
Electronic contribution:     -1.08744      -9.72536       0.76257
Nuclear contribution   :      1.22620      10.91308      -0.99946
                        -----------------------------------------
Total Dipole Moment    :      0.13877       1.18773      -0.23689
                        -----------------------------------------
Magnitude (a.u.)       :      1.21904
Magnitude (Debye)      :      3.09856

                             ****ORCA TERMINATED NORMALLY****
TOTAL RUN TIME: 0 days 0 hours 20 minutes 38 seconds 581 msec
