                         Program Version 3.0.3 - RELEASE   -
|  1> ! RI-MP2 RIJK def2-TZVP def2-TZVP/C def2-TZVP/JK TIGHTSCF
|  2> % maxcore 2000
|  3> % mp2 density relaxed end
|  4> *xyz 0 1
|  5>  C       -0.0489648846     1.4771696805     0.0347319895
|  6>  C        0.0700444492    -0.0142848930    -0.0061418068
|  7>  O       -0.8041613582    -0.7970448507     0.8324275829
|  8>  C        0.6201600943    -0.9123881623     1.0090677867
|  9>  C        1.3060340272    -1.9538283161     0.0889468365
| 10>  C        0.2368227208    -2.2586715693    -0.9835069190
| 11>  C        0.5615380292    -0.7779027884    -1.2740213474
| 12>  O        1.9554768430    -1.0572347939    -0.8860296312
| 13>  H        0.8622432434     1.9380491850    -0.3599616465
| 14>  H       -0.8935965030     1.8212769982    -0.5724613076
| 15>  H       -0.2032733129     1.8234848318     1.0596632109
| 16>  H        1.0210892790    -0.6120566668     1.9709227889
| 17>  H        1.9748769832    -2.6945957975     0.5244750453
| 18>  H        0.6403615347    -2.9060825838    -1.7609770944
| 19>  H       -0.7686265540    -2.5398882287    -0.6782704161
| 20>  H        0.4599242986    -0.3010451549    -2.2485395716
| 21> *
| 22>
| 23>                          ****END OF INPUT****

CARTESIAN COORDINATES (ANGSTROEM)
---------------------------------
  C     -0.048965    1.477170    0.034732
  C      0.070044   -0.014285   -0.006142
  O     -0.804161   -0.797045    0.832428
  C      0.620160   -0.912388    1.009068
  C      1.306034   -1.953828    0.088947
  C      0.236823   -2.258672   -0.983507
  C      0.561538   -0.777903   -1.274021
  O      1.955477   -1.057235   -0.886030
  H      0.862243    1.938049   -0.359962
  H     -0.893597    1.821277   -0.572461
  H     -0.203273    1.823485    1.059663
  H      1.021089   -0.612057    1.970923
  H      1.974877   -2.694596    0.524475
  H      0.640362   -2.906083   -1.760977
  H     -0.768627   -2.539888   -0.678270
  H      0.459924   -0.301045   -2.248540

 Total Charge           Charge          ....    0
 Multiplicity           Mult            ....    1
 Number of Electrons    NEL             ....   60
 Basis Dimension        Dim             ....  296

ORBITAL ENERGIES
----------------

  NO   OCC          E(Eh)            E(eV)
   0   2.0000     -20.571064      -559.7671
   1   2.0000     -20.554992      -559.3298
   2   2.0000     -11.299915      -307.4863
   3   2.0000     -11.298435      -307.4460
   4   2.0000     -11.294247      -307.3321
   5   2.0000     -11.286388      -307.1182
   6   2.0000     -11.234015      -305.6931
   7   2.0000     -11.231459      -305.6235
   8   2.0000      -1.429564       -38.9004
   9   2.0000      -1.373061       -37.3629
  10   2.0000      -1.042774       -28.3753
  11   2.0000      -1.018563       -27.7165
  12   2.0000      -0.955030       -25.9877
  13   2.0000      -0.909161       -24.7395
  14   2.0000      -0.781860       -21.2755
  15   2.0000      -0.759195       -20.6587
  16   2.0000      -0.712836       -19.3973
  17   2.0000      -0.678464       -18.4619
  18   2.0000      -0.633909       -17.2495
  19   2.0000      -0.595683       -16.2094
  20   2.0000      -0.578528       -15.7425
  21   2.0000      -0.568103       -15.4589
  22   2.0000      -0.552088       -15.0231
  23   2.0000      -0.529101       -14.3976
  24   2.0000      -0.519370       -14.1328
  25   2.0000      -0.507994       -13.8232
  26   2.0000      -0.469787       -12.7836
  27   2.0000      -0.462486       -12.5849
  28   2.0000      -0.424290       -11.5455
  29   2.0000      -0.395829       -10.7711
  30   0.0000       0.142708         3.8833
  31   0.0000       0.160272         4.3612
  32   0.0000       0.166302         4.5253
  33   0.0000       0.185212         5.0399
  34   0.0000       0.193596         5.2680

MULLIKEN ATOMIC CHARGES
-----------------------
   0 C :   -0.430090
   1 C :    0.184760
   2 O :   -0.329912
   3 C :   -0.039854
   4 C :    0.029170
   5 C :   -0.225110
   6 C :    0.008075
   7 O :   -0.313080
   8 H :    0.148128
   9 H :    0.139318
  10 H :    0.145971
  11 H :    0.135698
  12 H :    0.137169
  13 H :    0.131737
  14 H :    0.143021
  15 H :    0.135001
Sum of atomic charges:    0.0000000

LOEWDIN ATOMIC CHARGES
----------------------
   0 C :   -0.267487
   1 C :   -0.291936
   2 O :    0.179387
   3 C :   -0.212991
   4 C :   -0.228487
   5 C :   -0.198677
   6 C :   -0.206985
   7 O :    0.143298
   8 H :    0.138395
   9 H :    0.131861
  10 H :    0.135551
  11 H :    0.136872
  12 H :    0.131709
  13 H :    0.141147
  14 H :    0.134800
  15 H :    0.133543

  Mayer bond orders larger than 0.1
B(  0-C ,  1-C ) :   0.8753 B(  0-C ,  8-H ) :   0.9331 B(  0-C ,  9-H ) :   0.9378
B(  0-C , 10-H ) :   0.9400 B(  1-C ,  2-O ) :   0.9171 B(  1-C ,  3-C ) :   0.9262
B(  1-C ,  6-C ) :   0.9217 B(  2-O ,  3-C ) :   0.9243 B(  3-C ,  4-C ) :   0.8616
B(  3-C , 11-H ) :   0.9242 B(  4-C ,  5-C ) :   0.9530 B(  4-C ,  7-O ) :   0.9206
B(  4-C , 12-H ) :   0.9096 B(  5-C ,  6-C ) :   0.9485 B(  5-C , 13-H ) :   0.9346
B(  5-C , 14-H ) :   0.9030 B(  6-C ,  7-O ) :   0.9221 B(  6-C , 15-H ) :   0.9035

MP2 TOTAL ENERGY:     -383.048801545 Eh
FINAL SINGLE POINT ENERGY      -383.048801544643

DIPOLE MOMENT
-------------
                                X             Y             Z
Electronic contribution:      0.71703      -2.44535       0.79201
Nuclear contribution   :     -0.74463       2.52862      -0.82794
                        -----------------------------------------
Total Dipole Moment    :     -0.02759       0.08327      -0.03592
                        -----------------------------------------
Magnitude (a.u.)       :      0.09479
Magnitude (Debye)      :      0.24095

                             ****ORCA TERMINATED NORMALLY****
TOTAL RUN TIME: 0 days 0 hours 12 minutes 24 seconds 964 msec
