                         Program Version 3.0.3 - RELEASE   -
|  1> ! RI-MP2 RIJK def2-TZVP def2-TZVP/C def2-TZVP/JK TIGHTSCF
|  2> % maxcore 2000
|  3> % mp2 density relaxed end
|  4> *xyz 0 1
|  5>  C        0.1223086977     1.5441580565     0.0362180580
|  6>  N       -0.0993010966     0.1078784289    -0.0408258562
|  7>  C       -0.2393193638    -0.6116719688     1.2376753313
|  8>  C       -1.6648536019    -1.0827475269     1.5613713098
|  9>  O       -2.0107714949    -2.3037693254     0.9590470686
| 10>  C       -0.1092341039    -0.5874965278    -1.1969315151
| 11>  O       -0.3459131199    -1.7986386061    -1.2391602237
| 12>  C        0.1915953709     0.1230203509    -2.5239341794
| 13>  O        0.1763927630    -0.8006087994    -3.5686517441
| 14>  H        0.0790366112     2.0023225839    -0.9502873736
| 15>  H       -0.6542964657     2.0080681138     0.6535064296
| 16>  H        1.0980101444     1.7720547878     0.4832362570
| 17>  H        0.4232925658    -1.4832301155     1.2276721256
| 18>  H        0.1090932714     0.0722512375     2.0169045917
| 19>  H       -1.7380027700    -1.2263004216     2.6472329023
| 20>  H       -2.3695921055    -0.2733980049     1.2972639284
| 21>  H       -1.5751519723    -2.3336300406     0.0926834650
| 22>  H       -0.5599835672     0.9126198078    -2.6876423523
| 23>  H        1.1705325088     0.6225439747    -2.4566191120
| 24>  H       -0.0592040814    -1.6450285648    -3.1478413308
| 25> *
| 26>
| 27>                          ****END OF INPUT****

CARTESIAN COORDINATES (ANGSTROEM)
---------------------------------
  C      0.122309    1.544158    0.036218
  N     -0.099301    0.107878   -0.040826
  C     -0.239319   -0.611672    1.237675
  C     -1.664854   -1.082748    1.561371
  O     -2.010771   -2.303769    0.959047
  C     -0.109234   -0.587497   -1.196932
  O     -0.345913   -1.798639   -1.239160
  C      0.191595    0.123020   -2.523934
  O      0.176393   -0.800609   -3.568652
  H      0.079037    2.002323   -0.950287
  H     -0.654296    2.008068    0.653506
  H      1.098010    1.772055    0.483236
  H      0.423293   -1.483230    1.227672
  H      0.109093    0.072251    2.016905
  H     -1.738003   -1.226300    2.647233
  H     -2.369592   -0.273398    1.297264
  H     -1.575152   -2.333630    0.092683
  H     -0.559984    0.912620   -2.687642
  H      1.170533    0.622544   -2.456619
  H     -0.059204   -1.645029   -3.147841

 Total Charge           Charge          ....    0
 Multiplicity           Mult            ....    1
 Number of Electrons    NEL             ....   72
 Basis Dimension        Dim             ....  345

ORBITAL ENERGIES
----------------

  NO   OCC          E(Eh)            E(eV)
   0   2.0000     -20.556313      -559.3657
   1   2.0000     -20.545480      -559.0709
   2   2.0000     -20.534212      -558.7643
   3   2.0000     -15.614084      -424.8808
   4   2.0000     -11.373506      -309.4888
   5   2.0000     -11.304381      -307.6078
   6   2.0000     -11.292150      -307.2750
   7   2.0000     -11.279848      -306.9403
   8   2.0000     -11.278531      -306.9044
   9   2.0000      -1.419576       -38.6286
  10   2.0000      -1.363405       -37.1001
  11   2.0000      -1.345639       -36.6167
  12   2.0000      -1.272757       -34.6335
  13   2.0000      -1.034797       -28.1583
  14   2.0000      -0.993932       -27.0463
  15   2.0000      -0.953942       -25.9581
  16   2.0000      -0.866139       -23.5689
  17   2.0000      -0.765914       -20.8416
  18   2.0000      -0.743306       -20.2264
  19   2.0000      -0.703515       -19.1436
  20   2.0000      -0.696075       -18.9412
  21   2.0000      -0.661735       -18.0067
  22   2.0000      -0.646673       -17.5969
  23   2.0000      -0.631035       -17.1713
  24   2.0000      -0.622810       -16.9475
  25   2.0000      -0.602966       -16.4076
  26   2.0000      -0.591082       -16.0842
  27   2.0000      -0.572677       -15.5833
  28   2.0000      -0.560474       -15.2513
  29   2.0000      -0.536942       -14.6109
  30   2.0000      -0.528651       -14.3853
  31   2.0000      -0.498349       -13.5608
  32   2.0000      -0.460259       -12.5243
  33   2.0000      -0.456703       -12.4275
  34   2.0000      -0.435012       -11.8373
  35   2.0000      -0.396496       -10.7892
  36   0.0000       0.112761         3.0684
  37   0.0000       0.149774         4.0756
  38   0.0000       0.153695         4.1823
  39   0.0000       0.166024         4.5177
  40   0.0000       0.172920         4.7054

MULLIKEN ATOMIC CHARGES
-----------------------
   0 C :   -0.353060
   1 N :   -0.085899
   2 C :   -0.220147
   3 C :    0.004334
   4 O :   -0.486352
   5 C :    0.293481
   6 O :   -0.491513
   7 C :   -0.061876
   8 O :   -0.482888
   9 H :    0.154944
  10 H :    0.156299
  11 H :    0.157326
  12 H :    0.153867
  13 H :    0.136356
  14 H :    0.110308
  15 H :    0.082009
  16 H :    0.344807
  17 H :    0.119205
  18 H :    0.125648
  19 H :    0.343151
Sum of atomic charges:   -0.0000000

LOEWDIN ATOMIC CHARGES
----------------------
   0 C :   -0.283919
   1 N :    0.176303
   2 C :   -0.252153
   3 C :   -0.359616
   4 O :   -0.046841
   5 C :   -0.430428
   6 O :    0.042639
   7 C :   -0.337328
   8 O :   -0.032960
   9 H :    0.129564
  10 H :    0.124606
  11 H :    0.121836
  12 H :    0.147295
  13 H :    0.142573
  14 H :    0.128098
  15 H :    0.116102
  16 H :    0.169022
  17 H :    0.130181
  18 H :    0.131507
  19 H :    0.183520

  Mayer bond orders larger than 0.1
B(  0-C ,  1-N ) :   0.8801 B(  0-C ,  9-H ) :   0.9281 B(  0-C , 10-H ) :   0.9285
B(  0-C , 11-H ) :   0.9301 B(  1-N ,  2-C ) :   0.8333 B(  1-N ,  5-C ) :   1.2663
B(  2-C ,  3-C ) :   0.9328 B(  2-C , 12-H ) :   0.9236 B(  2-C , 13-H ) :   0.9172
B(  3-C ,  4-O ) :   0.9840 B(  3-C , 14-H ) :   0.9298 B(  3-C , 15-H ) :   0.9227
B(  4-O , 16-H ) :   0.8011 B(  5-C ,  6-O ) :   1.6242 B(  5-C ,  7-C ) :   0.9254
B(  7-C ,  8-O ) :   1.0404 B(  7-C , 17-H ) :   0.9120 B(  7-C , 18-H ) :   0.9145
B(  8-O , 19-H ) :   0.7956

MP2 TOTAL ENERGY:     -476.696137219 Eh
FINAL SINGLE POINT ENERGY      -476.696137218597

DIPOLE MOMENT
-------------
                                X             Y             Z
Electronic contribution:     -0.24726      -5.03396      -3.95095
Nuclear contribution   :      0.87782       6.86299       4.90327
                        -----------------------------------------
Total Dipole Moment    :      0.63056       1.82903       0.95232
                        -----------------------------------------
Magnitude (a.u.)       :      2.15635
Magnitude (Debye)      :      5.48101

                             ****ORCA TERMINATED NORMALLY****
TOTAL RUN TIME: 0 days 0 hours 16 minutes 32 seconds 263 msec
