                         Program Version 3.0.3 - RELEASE   -
|  1> ! RI-MP2 RIJK def2-TZVP def2-TZVP/C def2-TZVP/JK TIGHTSCF
|  2> % maxcore 2000
|  3> % mp2 density relaxed end
|  4> *xyz 0 1
|  5>  C       -0.3631962875     1.4735664892    -0.1592147617
|  6>  C       -0.0529377470     0.0007445691    -0.0116555597
|  7>  C        1.3318372246    -0.5514923151    -0.3098415940
|  8>  O        2.3540360933     0.3539243473    -0.6140816994
|  9>  C        3.2663124703     0.4696244904     0.4724957967
| 10>  C        2.5549984708     1.0567991111     1.6792369371
| 11>  O        1.4046472074     0.3057040735     2.0623819042
| 12>  C        0.8202081910    -0.5332311781     1.1065383761
| 13>  H        0.5492940022     2.0721132292    -0.1817785184
| 14>  H       -0.8982130082     1.6597500035    -1.0958663507
| 15>  H       -0.9891081627     1.8311002054     0.6645737491
| 16>  H       -0.8665593732    -0.6660449218    -0.2872154863
| 17>  H        1.4257605433    -1.4996646282    -0.8379012516
| 18>  H        3.7020265241    -0.5115732234     0.7131699058
| 19>  H        4.0684688856     1.1374099212     0.1460939570
| 20>  H        3.2238171840     1.0793489441     2.5473851539
| 21>  H        2.2580401984     2.0905340041     1.4512788540
| 22>  H        0.5313563638    -1.4755601115     1.5632632380
| 23> *
| 24>
| 25>                          ****END OF INPUT****

CARTESIAN COORDINATES (ANGSTROEM)
---------------------------------
  C     -0.363196    1.473566   -0.159215
  C     -0.052938    0.000745   -0.011656
  C      1.331837   -0.551492   -0.309842
  O      2.354036    0.353924   -0.614082
  C      3.266312    0.469624    0.472496
  C      2.554998    1.056799    1.679237
  O      1.404647    0.305704    2.062382
  C      0.820208   -0.533231    1.106538
  H      0.549294    2.072113   -0.181779
  H     -0.898213    1.659750   -1.095866
  H     -0.989108    1.831100    0.664574
  H     -0.866559   -0.666045   -0.287215
  H      1.425761   -1.499665   -0.837901
  H      3.702027   -0.511573    0.713170
  H      4.068469    1.137410    0.146094
  H      3.223817    1.079349    2.547385
  H      2.258040    2.090534    1.451279
  H      0.531356   -1.475560    1.563263

 Total Charge           Charge          ....    0
 Multiplicity           Mult            ....    1
 Number of Electrons    NEL             ....   62
 Basis Dimension        Dim             ....  308

ORBITAL ENERGIES
----------------

  NO   OCC          E(Eh)            E(eV)
   0   2.0000     -20.564662      -559.5929
   1   2.0000     -20.560825      -559.4885
   2   2.0000     -11.282498      -307.0124
   3   2.0000     -11.281170      -306.9762
   4   2.0000     -11.280245      -306.9511
   5   2.0000     -11.279966      -306.9435
   6   2.0000     -11.228868      -305.5530
   7   2.0000     -11.213546      -305.1361
   8   2.0000      -1.405343       -38.2413
   9   2.0000      -1.362084       -37.0642
  10   2.0000      -1.132761       -30.8240
  11   2.0000      -1.004573       -27.3358
  12   2.0000      -0.956064       -26.0158
  13   2.0000      -0.893369       -24.3098
  14   2.0000      -0.781506       -21.2659
  15   2.0000      -0.754693       -20.5362
  16   2.0000      -0.716324       -19.4922
  17   2.0000      -0.670286       -18.2394
  18   2.0000      -0.664908       -18.0931
  19   2.0000      -0.635086       -17.2816
  20   2.0000      -0.617705       -16.8086
  21   2.0000      -0.565513       -15.3884
  22   2.0000      -0.559395       -15.2219
  23   2.0000      -0.553541       -15.0626
  24   2.0000      -0.545432       -14.8420
  25   2.0000      -0.521844       -14.2001
  26   2.0000      -0.492108       -13.3909
  27   2.0000      -0.472983       -12.8705
  28   2.0000      -0.446805       -12.1582
  29   2.0000      -0.394003       -10.7214
  30   2.0000      -0.366909        -9.9841
  31   0.0000       0.143167         3.8958
  32   0.0000       0.158096         4.3020
  33   0.0000       0.162315         4.4168
  34   0.0000       0.189059         5.1446
  35   0.0000       0.200294         5.4503

MULLIKEN ATOMIC CHARGES
-----------------------
   0 C :   -0.400193
   1 C :   -0.104398
   2 C :    0.013829
   3 O :   -0.316855
   4 C :   -0.067613
   5 C :   -0.058586
   6 O :   -0.313538
   7 C :    0.031742
   8 H :    0.134135
   9 H :    0.134401
  10 H :    0.137877
  11 H :    0.117241
  12 H :    0.114607
  13 H :    0.103739
  14 H :    0.127982
  15 H :    0.117669
  16 H :    0.105080
  17 H :    0.122883
Sum of atomic charges:    0.0000000

LOEWDIN ATOMIC CHARGES
----------------------
   0 C :   -0.289500
   1 C :   -0.219704
   2 C :   -0.278142
   3 O :    0.187640
   4 C :   -0.313862
   5 C :   -0.312465
   6 O :    0.186086
   7 C :   -0.277159
   8 H :    0.126740
   9 H :    0.127144
  10 H :    0.128054
  11 H :    0.150383
  12 H :    0.132764
  13 H :    0.125209
  14 H :    0.134485
  15 H :    0.130415
  16 H :    0.122877
  17 H :    0.139035

  Mayer bond orders larger than 0.1
B(  0-C ,  1-C ) :   0.8945 B(  0-C ,  8-H ) :   0.9314 B(  0-C ,  9-H ) :   0.9375
B(  0-C , 10-H ) :   0.9375 B(  1-C ,  2-C ) :   0.8638 B(  1-C ,  7-C ) :   0.8575
B(  1-C , 11-H ) :   0.9169 B(  2-C ,  3-O ) :   0.9561 B(  2-C ,  7-C ) :   0.8781
B(  2-C , 12-H ) :   0.9336 B(  3-O ,  4-C ) :   0.9121 B(  4-C ,  5-C ) :   0.9501
B(  4-C , 13-H ) :   0.9319 B(  4-C , 14-H ) :   0.9223 B(  5-C ,  6-O ) :   0.9140
B(  5-C , 15-H ) :   0.9174 B(  5-C , 16-H ) :   0.9309 B(  6-O ,  7-C ) :   0.9808
B(  7-C , 17-H ) :   0.9452

MP2 TOTAL ENERGY:     -384.269687578 Eh
FINAL SINGLE POINT ENERGY      -384.269687578141

DIPOLE MOMENT
-------------
                                X             Y             Z
Electronic contribution:      1.51015      -2.30306       0.65872
Nuclear contribution   :     -1.26673       2.13090      -0.63551
                        -----------------------------------------
Total Dipole Moment    :      0.24342      -0.17216       0.02322
                        -----------------------------------------
Magnitude (a.u.)       :      0.29905
Magnitude (Debye)      :      0.76012

                             ****ORCA TERMINATED NORMALLY****
TOTAL RUN TIME: 0 days 0 hours 12 minutes 22 seconds 96 msec
