                         Program Version 3.0.3 - RELEASE   -
|  1> ! RI-MP2 RIJK def2-TZVP def2-TZVP/C def2-TZVP/JK TIGHTSCF
|  2> % maxcore 2000
|  3> % mp2 density relaxed end
|  4> *xyz 0 1
|  5>  O        0.0273928435     1.3692517210    -0.0616470509
|  6>  C        0.0366155095    -0.0346476379     0.0309705495
|  7>  C        0.1133211597    -0.5871379348     1.5169672211
|  8>  C       -1.3966571955    -0.6446276605     1.4508521883
|  9>  C       -2.5311719518    -0.2290000339     2.0020056654
| 10>  C       -3.5535270150     0.0823722016     0.9078413978
| 11>  C       -2.6838460799     0.2067996828    -0.3877475013
| 12>  C       -1.4210310128    -0.6046181368    -0.0546720261
| 13>  O       -1.3157033522    -1.8702793818    -0.6991449685
| 14>  H        0.9018630044     1.6926274493     0.1754990645
| 15>  H        0.7336644216    -0.4964545470    -0.6791387935
| 16>  H        0.6001704076    -1.5659094088     1.5476913774
| 17>  H        0.5612641558     0.0716446521     2.2656248622
| 18>  H       -2.7186166189    -0.0242776454     3.0507833120
| 19>  H       -4.3273771003    -0.6934005693     0.8211825498
| 20>  H       -4.0862162806     1.0142106895     1.1263528185
| 21>  H       -3.1810581238    -0.1610642175    -1.2892031699
| 22>  H       -2.4164611714     1.2545477405    -0.5475091326
| 23>  H       -2.0368487598    -2.4216952532    -0.3760983536
| 24> *
| 25>
| 26>                          ****END OF INPUT****

CARTESIAN COORDINATES (ANGSTROEM)
---------------------------------
  O      0.027393    1.369252   -0.061647
  C      0.036616   -0.034648    0.030971
  C      0.113321   -0.587138    1.516967
  C     -1.396657   -0.644628    1.450852
  C     -2.531172   -0.229000    2.002006
  C     -3.553527    0.082372    0.907841
  C     -2.683846    0.206800   -0.387748
  C     -1.421031   -0.604618   -0.054672
  O     -1.315703   -1.870279   -0.699145
  H      0.901863    1.692627    0.175499
  H      0.733664   -0.496455   -0.679139
  H      0.600170   -1.565909    1.547691
  H      0.561264    0.071645    2.265625
  H     -2.718617   -0.024278    3.050783
  H     -4.327377   -0.693401    0.821183
  H     -4.086216    1.014211    1.126353
  H     -3.181058   -0.161064   -1.289203
  H     -2.416461    1.254548   -0.547509
  H     -2.036849   -2.421695   -0.376098

 Total Charge           Charge          ....    0
 Multiplicity           Mult            ....    1
 Number of Electrons    NEL             ....   68
 Basis Dimension        Dim             ....  339

ORBITAL ENERGIES
----------------

  NO   OCC          E(Eh)            E(eV)
   0   2.0000     -20.562015      -559.5209
   1   2.0000     -20.554723      -559.3224
   2   2.0000     -11.286510      -307.1216
   3   2.0000     -11.274629      -306.7982
   4   2.0000     -11.235796      -305.7415
   5   2.0000     -11.227678      -305.5207
   6   2.0000     -11.227041      -305.5033
   7   2.0000     -11.221940      -305.3645
   8   2.0000     -11.215516      -305.1897
   9   2.0000      -1.375493       -37.4291
  10   2.0000      -1.357581       -36.9417
  11   2.0000      -1.148334       -31.2478
  12   2.0000      -1.048806       -28.5395
  13   2.0000      -0.962958       -26.2034
  14   2.0000      -0.891590       -24.2614
  15   2.0000      -0.854051       -23.2399
  16   2.0000      -0.777469       -21.1560
  17   2.0000      -0.732991       -19.9457
  18   2.0000      -0.689479       -18.7617
  19   2.0000      -0.662718       -18.0335
  20   2.0000      -0.640171       -17.4199
  21   2.0000      -0.621739       -16.9184
  22   2.0000      -0.616878       -16.7861
  23   2.0000      -0.574447       -15.6315
  24   2.0000      -0.562140       -15.2966
  25   2.0000      -0.536117       -14.5885
  26   2.0000      -0.527324       -14.3492
  27   2.0000      -0.510310       -13.8862
  28   2.0000      -0.489687       -13.3251
  29   2.0000      -0.482904       -13.1405
  30   2.0000      -0.442743       -12.0476
  31   2.0000      -0.432869       -11.7790
  32   2.0000      -0.403844       -10.9892
  33   2.0000      -0.340206        -9.2575
  34   0.0000       0.130134         3.5411
  35   0.0000       0.139159         3.7867
  36   0.0000       0.150987         4.1086
  37   0.0000       0.172193         4.6856
  38   0.0000       0.173070         4.7095

MULLIKEN ATOMIC CHARGES
-----------------------
   0 O :   -0.457454
   1 C :    0.006892
   2 C :   -0.213388
   3 C :   -0.149366
   4 C :   -0.184510
   5 C :   -0.183787
   6 C :   -0.310089
   7 C :    0.344612
   8 O :   -0.464747
   9 H :    0.320181
  10 H :    0.097322
  11 H :    0.125994
  12 H :    0.118026
  13 H :    0.126241
  14 H :    0.114692
  15 H :    0.120697
  16 H :    0.130584
  17 H :    0.141593
  18 H :    0.316507
Sum of atomic charges:   -0.0000000

LOEWDIN ATOMIC CHARGES
----------------------
   0 O :   -0.004956
   1 C :   -0.265088
   2 C :   -0.186180
   3 C :   -0.143508
   4 C :   -0.127473
   5 C :   -0.232824
   6 C :   -0.203345
   7 C :   -0.295229
   8 O :    0.010519
   9 H :    0.178615
  10 H :    0.127572
  11 H :    0.144170
  12 H :    0.130717
  13 H :    0.134960
  14 H :    0.133188
  15 H :    0.136761
  16 H :    0.134308
  17 H :    0.148956
  18 H :    0.178836

  Mayer bond orders larger than 0.1
B(  0-O ,  1-C ) :   1.0640 B(  0-O ,  9-H ) :   0.8416 B(  1-C ,  2-C ) :   0.9405
B(  1-C ,  7-C ) :   0.8454 B(  1-C , 10-H ) :   0.9409 B(  2-C ,  3-C ) :   0.9300
B(  2-C , 11-H ) :   0.8933 B(  2-C , 12-H ) :   0.9095 B(  3-C ,  4-C ) :   1.7564
B(  3-C ,  7-C ) :   0.8852 B(  4-C ,  5-C ) :   0.9169 B(  4-C , 13-H ) :   0.9155
B(  5-C ,  6-C ) :   0.9446 B(  5-C , 14-H ) :   0.9121 B(  5-C , 15-H ) :   0.9272
B(  6-C ,  7-C ) :   0.8966 B(  6-C , 16-H ) :   0.9411 B(  6-C , 17-H ) :   0.9079
B(  7-C ,  8-O ) :   1.0168 B(  8-O , 18-H ) :   0.8421

MP2 TOTAL ENERGY:     -422.297656110 Eh
FINAL SINGLE POINT ENERGY      -422.297656109991

DIPOLE MOMENT
-------------
                                X             Y             Z
Electronic contribution:      2.15796      -0.99962      -0.72747
Nuclear contribution   :     -2.01547       1.06563       1.25886
                        -----------------------------------------
Total Dipole Moment    :      0.14249       0.06600       0.53139
                        -----------------------------------------
Magnitude (a.u.)       :      0.55411
Magnitude (Debye)      :      1.40843

                             ****ORCA TERMINATED NORMALLY****
TOTAL RUN TIME: 0 days 0 hours 18 minutes 50 seconds 613 msec
