                         Program Version 3.0.3 - RELEASE   -
|  1> ! RI-MP2 RIJK def2-TZVP def2-TZVP/C def2-TZVP/JK TIGHTSCF
|  2> % maxcore 2000
|  3> % mp2 density relaxed end
|  4> *xyz 0 1
|  5>  C        0.0899008695     1.6071137295     0.0845211831
|  6>  C        0.0714554793     0.1095771209     0.0107901202
|  7>  C       -0.9322096154    -0.7786120292     0.7402713458
|  8>  C        0.5400323435    -0.9395641221     1.0254799875
|  9>  N        1.1900365231    -1.6616527845    -0.0853179228
| 10>  C        1.5238573430    -2.8214843167    -0.7226746688
| 11>  N        1.4140251215    -2.6631432113    -2.0284458805
| 12>  C        0.8760189615    -1.4041995332    -2.2458776238
| 13>  C        0.7440448143    -0.7712972859    -1.0368128557
| 14>  H        1.1010489500     1.9981363213    -0.0649158922
| 15>  H       -0.5557790531     2.0432690794    -0.6858980539
| 16>  H       -0.2736642514     1.9565480716     1.0558212169
| 17>  H       -1.5040190947    -0.2892459615     1.5260054166
| 18>  H       -1.4640447546    -1.5616515916     0.2089061635
| 19>  H        1.0191231413    -0.8258090995     1.9882840226
| 20>  H        1.9144632984    -3.6961081522    -0.2256691755
| 21>  H        0.6685599336    -1.0541298150    -3.2446279832
| 22> *
| 23>
| 24>                          ****END OF INPUT****

CARTESIAN COORDINATES (ANGSTROEM)
---------------------------------
  C      0.089901    1.607114    0.084521
  C      0.071455    0.109577    0.010790
  C     -0.932210   -0.778612    0.740271
  C      0.540032   -0.939564    1.025480
  N      1.190037   -1.661653   -0.085318
  C      1.523857   -2.821484   -0.722675
  N      1.414025   -2.663143   -2.028446
  C      0.876019   -1.404200   -2.245878
  C      0.744045   -0.771297   -1.036813
  H      1.101049    1.998136   -0.064916
  H     -0.555779    2.043269   -0.685898
  H     -0.273664    1.956548    1.055821
  H     -1.504019   -0.289246    1.526005
  H     -1.464045   -1.561652    0.208906
  H      1.019123   -0.825809    1.988284
  H      1.914463   -3.696108   -0.225669
  H      0.668560   -1.054130   -3.244628

 Total Charge           Charge          ....    0
 Multiplicity           Mult            ....    1
 Number of Electrons    NEL             ....   64
 Basis Dimension        Dim             ....  327

ORBITAL ENERGIES
----------------

  NO   OCC          E(Eh)            E(eV)
   0   2.0000     -15.601918      -424.5498
   1   2.0000     -15.539782      -422.8590
   2   2.0000     -11.299698      -307.4804
   3   2.0000     -11.289677      -307.2077
   4   2.0000     -11.275889      -306.8325
   5   2.0000     -11.256322      -306.3001
   6   2.0000     -11.256017      -306.2918
   7   2.0000     -11.239828      -305.8513
   8   2.0000     -11.237084      -305.7766
   9   2.0000      -1.357443       -36.9379
  10   2.0000      -1.222178       -33.2571
  11   2.0000      -1.101651       -29.9775
  12   2.0000      -0.999721       -27.2038
  13   2.0000      -0.985272       -26.8106
  14   2.0000      -0.876122       -23.8405
  15   2.0000      -0.843958       -22.9653
  16   2.0000      -0.773063       -21.0361
  17   2.0000      -0.722993       -19.6737
  18   2.0000      -0.710381       -19.3304
  19   2.0000      -0.663242       -18.0477
  20   2.0000      -0.629770       -17.1369
  21   2.0000      -0.591339       -16.0911
  22   2.0000      -0.572657       -15.5828
  23   2.0000      -0.569184       -15.4883
  24   2.0000      -0.562202       -15.2983
  25   2.0000      -0.544004       -14.8031
  26   2.0000      -0.511193       -13.9103
  27   2.0000      -0.469947       -12.7879
  28   2.0000      -0.444596       -12.0981
  29   2.0000      -0.409481       -11.1425
  30   2.0000      -0.363467        -9.8904
  31   2.0000      -0.306882        -8.3507
  32   0.0000       0.133225         3.6252
  33   0.0000       0.147747         4.0204
  34   0.0000       0.160276         4.3613
  35   0.0000       0.169090         4.6012
  36   0.0000       0.175083         4.7642

MULLIKEN ATOMIC CHARGES
-----------------------
   0 C :   -0.409723
   1 C :    0.009572
   2 C :   -0.235758
   3 C :   -0.051029
   4 N :   -0.098773
   5 C :    0.006245
   6 N :   -0.275518
   7 C :   -0.150747
   8 C :    0.056191
   9 H :    0.147024
  10 H :    0.145499
  11 H :    0.132501
  12 H :    0.133938
  13 H :    0.157394
  14 H :    0.155406
  15 H :    0.145133
  16 H :    0.132644
Sum of atomic charges:   -0.0000000

LOEWDIN ATOMIC CHARGES
----------------------
   0 C :   -0.267067
   1 C :   -0.191070
   2 C :   -0.161424
   3 C :   -0.147654
   4 N :    0.298447
   5 C :   -0.308262
   6 N :    0.087805
   7 C :   -0.239343
   8 C :   -0.155986
   9 H :    0.133388
  10 H :    0.134187
  11 H :    0.131243
  12 H :    0.142826
  13 H :    0.142409
  14 H :    0.139621
  15 H :    0.129715
  16 H :    0.131167

  Mayer bond orders larger than 0.1
B(  0-C ,  1-C ) :   0.8957 B(  0-C ,  9-H ) :   0.9397 B(  0-C , 10-H ) :   0.9387
B(  0-C , 11-H ) :   0.9304 B(  1-C ,  2-C ) :   0.8677 B(  1-C ,  3-C ) :   0.8639
B(  1-C ,  8-C ) :   0.8981 B(  2-C ,  3-C ) :   0.8782 B(  2-C , 12-H ) :   0.9158
B(  2-C , 13-H ) :   0.9107 B(  3-C ,  4-N ) :   0.8686 B(  3-C , 14-H ) :   0.9078
B(  4-N ,  5-C ) :   1.1472 B(  4-N ,  8-C ) :   1.0743 B(  5-C ,  6-N ) :   1.5254
B(  5-C , 15-H ) :   0.9252 B(  6-N ,  7-C ) :   1.2850 B(  7-C ,  8-C ) :   1.4700
B(  7-C , 16-H ) :   0.9449

MP2 TOTAL ENERGY:     -380.158785473 Eh
FINAL SINGLE POINT ENERGY      -380.158785473297

DIPOLE MOMENT
-------------
                                X             Y             Z
Electronic contribution:      3.04886      -5.36212      -2.59176
Nuclear contribution   :     -3.66360       6.27078       3.93987
                        -----------------------------------------
Total Dipole Moment    :     -0.61474       0.90867       1.34811
                        -----------------------------------------
Magnitude (a.u.)       :      1.73810
Magnitude (Debye)      :      4.41789

                             ****ORCA TERMINATED NORMALLY****
TOTAL RUN TIME: 0 days 0 hours 23 minutes 47 seconds 840 msec
