                         Program Version 3.0.3 - RELEASE   -
|  1> ! RI-MP2 RIJK def2-TZVP def2-TZVP/C def2-TZVP/JK TIGHTSCF
|  2> % maxcore 2000
|  3> % mp2 density relaxed end
|  4> *xyz 0 1
|  5>  C       -0.0168566974     1.5322352578    -0.0252432405
|  6>  C       -0.0068246692     0.0385247353     0.0466719980
|  7>  C       -0.0323322194    -0.8240532190    -1.0098727891
|  8>  O       -0.0136630469    -2.1635221387    -0.6140379865
|  9>  C        0.0238673949    -2.0749077108     0.7145399850
| 10>  C        0.0313901651    -0.8099528264     1.2182440851
| 11>  C        0.0732479901    -1.0099804376     2.6451980441
| 12>  C        0.0856994416    -2.3593628048     2.8296466737
| 13>  O        0.0550130081    -3.0524659952     1.6209068411
| 14>  H        0.8771538985     1.9597785294     0.4428513694
| 15>  H       -0.0508729013     1.8777996815    -1.0620198498
| 16>  H       -0.8844974242     1.9505163010     0.4975970782
| 17>  H       -0.0637364992    -0.6742039463    -2.0757489999
| 18>  H        0.0918631077    -0.2751735378     3.4348607211
| 19>  H        0.1139873115    -2.9881448485     3.7026079001
| 20> *
| 21>
| 22>                          ****END OF INPUT****

CARTESIAN COORDINATES (ANGSTROEM)
---------------------------------
  C     -0.016857    1.532235   -0.025243
  C     -0.006825    0.038525    0.046672
  C     -0.032332   -0.824053   -1.009873
  O     -0.013663   -2.163522   -0.614038
  C      0.023867   -2.074908    0.714540
  C      0.031390   -0.809953    1.218244
  C      0.073248   -1.009980    2.645198
  C      0.085699   -2.359363    2.829647
  O      0.055013   -3.052466    1.620907
  H      0.877154    1.959779    0.442851
  H     -0.050873    1.877800   -1.062020
  H     -0.884497    1.950516    0.497597
  H     -0.063736   -0.674204   -2.075749
  H      0.091863   -0.275174    3.434861
  H      0.113987   -2.988145    3.702608

 Total Charge           Charge          ....    0
 Multiplicity           Mult            ....    1
 Number of Electrons    NEL             ....   64
 Basis Dimension        Dim             ....  315

ORBITAL ENERGIES
----------------

  NO   OCC          E(Eh)            E(eV)
   0   2.0000     -20.635630      -561.5240
   1   2.0000     -20.631325      -561.4069
   2   2.0000     -11.342535      -308.6461
   3   2.0000     -11.292114      -307.2741
   4   2.0000     -11.283559      -307.0413
   5   2.0000     -11.253183      -306.2147
   6   2.0000     -11.247797      -306.0681
   7   2.0000     -11.235366      -305.7299
   8   2.0000     -11.222965      -305.3924
   9   2.0000      -1.495296       -40.6891
  10   2.0000      -1.441423       -39.2231
  11   2.0000      -1.130539       -30.7635
  12   2.0000      -1.054257       -28.6878
  13   2.0000      -0.999281       -27.1918
  14   2.0000      -0.950980       -25.8775
  15   2.0000      -0.841075       -22.8868
  16   2.0000      -0.792282       -21.5591
  17   2.0000      -0.775487       -21.1021
  18   2.0000      -0.692929       -18.8555
  19   2.0000      -0.684899       -18.6371
  20   2.0000      -0.656639       -17.8680
  21   2.0000      -0.652461       -17.7544
  22   2.0000      -0.599440       -16.3116
  23   2.0000      -0.586615       -15.9626
  24   2.0000      -0.581289       -15.8177
  25   2.0000      -0.574453       -15.6317
  26   2.0000      -0.555953       -15.1283
  27   2.0000      -0.535435       -14.5699
  28   2.0000      -0.509390       -13.8612
  29   2.0000      -0.431582       -11.7440
  30   2.0000      -0.346637        -9.4325
  31   2.0000      -0.293957        -7.9990
  32   0.0000       0.139087         3.7847
  33   0.0000       0.145967         3.9720
  34   0.0000       0.165338         4.4991
  35   0.0000       0.174114         4.7379
  36   0.0000       0.177080         4.8186

MULLIKEN ATOMIC CHARGES
-----------------------
   0 C :   -0.420573
   1 C :   -0.023956
   2 C :   -0.040479
   3 O :   -0.221665
   4 C :    0.288712
   5 C :    0.031829
   6 C :   -0.285876
   7 C :    0.024474
   8 O :   -0.221565
   9 H :    0.145872
  10 H :    0.136675
  11 H :    0.145849
  12 H :    0.145894
  13 H :    0.141653
  14 H :    0.153156
Sum of atomic charges:    0.0000000

LOEWDIN ATOMIC CHARGES
----------------------
   0 C :   -0.266550
   1 C :   -0.182596
   2 C :   -0.192215
   3 O :    0.344485
   4 C :   -0.351119
   5 C :   -0.138152
   6 C :   -0.159377
   7 C :   -0.212538
   8 O :    0.347998
   9 H :    0.132671
  10 H :    0.132445
  11 H :    0.132669
  12 H :    0.134392
  13 H :    0.144930
  14 H :    0.132957

  Mayer bond orders larger than 0.1
B(  0-C ,  1-C ) :   0.8578 B(  0-C ,  9-H ) :   0.9379 B(  0-C , 10-H ) :   0.9474
B(  0-C , 11-H ) :   0.9381 B(  1-C ,  2-C ) :   1.5801 B(  1-C ,  5-C ) :   1.0856
B(  2-C ,  3-O ) :   0.9724 B(  2-C , 12-H ) :   0.9394 B(  3-O ,  4-C ) :   1.0904
B(  4-C ,  5-C ) :   1.4085 B(  4-C ,  8-O ) :   1.0911 B(  5-C ,  6-C ) :   1.0804
B(  6-C ,  7-C ) :   1.6036 B(  6-C , 13-H ) :   0.9166 B(  7-C ,  8-O ) :   0.9740
B(  7-C , 14-H ) :   0.9347

MP2 TOTAL ENERGY:     -419.935096199 Eh
FINAL SINGLE POINT ENERGY      -419.935096198907

DIPOLE MOMENT
-------------
                                X             Y             Z
Electronic contribution:      0.04566      -7.86185       0.10507
Nuclear contribution   :     -0.04329       8.50444       0.09996
                        -----------------------------------------
Total Dipole Moment    :      0.00237       0.64259       0.20503
                        -----------------------------------------
Magnitude (a.u.)       :      0.67451
Magnitude (Debye)      :      1.71446

                             ****ORCA TERMINATED NORMALLY****
TOTAL RUN TIME: 0 days 0 hours 15 minutes 9 seconds 893 msec
