                         Program Version 3.0.3 - RELEASE   -
|  1> ! RI-MP2 RIJK def2-TZVP def2-TZVP/C def2-TZVP/JK TIGHTSCF
|  2> % maxcore 2000
|  3> % mp2 density relaxed end
|  4> *xyz 0 1
|  5>  C       -0.2836837488     1.5155609072     0.0974587544
|  6>  C        0.0390111289     0.0195784460    -0.0172073230
|  7>  C        0.7499668138    -0.4502199471    -1.3138991405
|  8>  C        0.7360032969    -2.0017916851    -1.3095824389
|  9>  C        1.5872617610    -2.7090732840    -2.3727656744
| 10>  C        0.0257601892     0.0775528701    -2.5709148651
| 11>  O       -1.3337421217    -0.3255093238    -2.6620910482
| 12>  C        2.1935850749     0.0955856929    -1.3480548275
| 13>  O        2.9956089080    -0.3332454711    -0.2563230718
| 14>  H        0.6108890472     2.1388845931     0.0058583302
| 15>  H       -0.9973073944     1.8565293872    -0.6615274133
| 16>  H       -0.7284024889     1.7302566786     1.0740857283
| 17>  H        0.6816982083    -0.2660640421     0.8217964706
| 18>  H       -0.8874278668    -0.5567612768     0.1000659798
| 19>  H        1.0429746834    -2.3498087948    -0.3151655252
| 20>  H       -0.3066097062    -2.3129384986    -1.4308687379
| 21>  H        1.3097601801    -2.4116339499    -3.3884951111
| 22>  H        2.6598730262    -2.5143754823    -2.2579826144
| 23>  H        1.4496962766    -3.7926241616    -2.3044876757
| 24>  H        0.1156581359     1.1730848539    -2.6221783135
| 25>  H        0.5043034670    -0.3165483937    -3.4731847898
| 26>  H       -1.8218932254     0.1114267500    -1.9575138886
| 27>  H        2.6671948196    -0.1590466271    -2.3081378966
| 28>  H        2.1833268125     1.1885113569    -1.2862650626
| 29>  H        3.1421530026    -1.2796883975    -0.3480138651
| 30> *
| 31>
| 32>                          ****END OF INPUT****

CARTESIAN COORDINATES (ANGSTROEM)
---------------------------------
  C     -0.283684    1.515561    0.097459
  C      0.039011    0.019578   -0.017207
  C      0.749967   -0.450220   -1.313899
  C      0.736003   -2.001792   -1.309582
  C      1.587262   -2.709073   -2.372766
  C      0.025760    0.077553   -2.570915
  O     -1.333742   -0.325509   -2.662091
  C      2.193585    0.095586   -1.348055
  O      2.995609   -0.333245   -0.256323
  H      0.610889    2.138885    0.005858
  H     -0.997307    1.856529   -0.661527
  H     -0.728402    1.730257    1.074086
  H      0.681698   -0.266064    0.821796
  H     -0.887428   -0.556761    0.100066
  H      1.042975   -2.349809   -0.315166
  H     -0.306610   -2.312938   -1.430869
  H      1.309760   -2.411634   -3.388495
  H      2.659873   -2.514375   -2.257983
  H      1.449696   -3.792624   -2.304488
  H      0.115658    1.173085   -2.622178
  H      0.504303   -0.316548   -3.473185
  H     -1.821893    0.111427   -1.957514
  H      2.667195   -0.159047   -2.308138
  H      2.183327    1.188511   -1.286265
  H      3.142153   -1.279688   -0.348014

 Total Charge           Charge          ....    0
 Multiplicity           Mult            ....    1
 Number of Electrons    NEL             ....   74
 Basis Dimension        Dim             ....  375

ORBITAL ENERGIES
----------------

  NO   OCC          E(Eh)            E(eV)
   0   2.0000     -20.557085      -559.3867
   1   2.0000     -20.557084      -559.3867
   2   2.0000     -11.274134      -306.7848
   3   2.0000     -11.274130      -306.7847
   4   2.0000     -11.234973      -305.7192
   5   2.0000     -11.221309      -305.3473
   6   2.0000     -11.221289      -305.3468
   7   2.0000     -11.220072      -305.3137
   8   2.0000     -11.220069      -305.3136
   9   2.0000      -1.362659       -37.0798
  10   2.0000      -1.359934       -37.0057
  11   2.0000      -1.107397       -30.1338
  12   2.0000      -1.021667       -27.8010
  13   2.0000      -0.978890       -26.6369
  14   2.0000      -0.903653       -24.5896
  15   2.0000      -0.894658       -24.3449
  16   2.0000      -0.827483       -22.5170
  17   2.0000      -0.751133       -20.4394
  18   2.0000      -0.696258       -18.9462
  19   2.0000      -0.684226       -18.6187
  20   2.0000      -0.664994       -18.0954
  21   2.0000      -0.623179       -16.9576
  22   2.0000      -0.622422       -16.9370
  23   2.0000      -0.579748       -15.7757
  24   2.0000      -0.578737       -15.7482
  25   2.0000      -0.569949       -15.5091
  26   2.0000      -0.559361       -15.2210
  27   2.0000      -0.554276       -15.0826
  28   2.0000      -0.529520       -14.4090
  29   2.0000      -0.515089       -14.0163
  30   2.0000      -0.496678       -13.5153
  31   2.0000      -0.492445       -13.4001
  32   2.0000      -0.485719       -13.2171
  33   2.0000      -0.478810       -13.0291
  34   2.0000      -0.439762       -11.9665
  35   2.0000      -0.428825       -11.6689
  36   2.0000      -0.424806       -11.5596
  37   0.0000       0.123945         3.3727
  38   0.0000       0.141109         3.8398
  39   0.0000       0.154863         4.2140
  40   0.0000       0.173840         4.7304
  41   0.0000       0.184357         5.0166

MULLIKEN ATOMIC CHARGES
-----------------------
   0 C :   -0.417170
   1 C :   -0.290965
   2 C :    0.117765
   3 C :   -0.290985
   4 C :   -0.417166
   5 C :   -0.105257
   6 O :   -0.469654
   7 C :   -0.105217
   8 O :   -0.469651
   9 H :    0.137116
  10 H :    0.113883
  11 H :    0.144408
  12 H :    0.132003
  13 H :    0.133939
  14 H :    0.133934
  15 H :    0.132018
  16 H :    0.137112
  17 H :    0.113893
  18 H :    0.144408
  19 H :    0.126380
  20 H :    0.118124
  21 H :    0.318297
  22 H :    0.126373
  23 H :    0.118120
  24 H :    0.318294
Sum of atomic charges:   -0.0000000

LOEWDIN ATOMIC CHARGES
----------------------
   0 C :   -0.318612
   1 C :   -0.260749
   2 C :   -0.306963
   3 C :   -0.260750
   4 C :   -0.318613
   5 C :   -0.304070
   6 O :   -0.037257
   7 C :   -0.304071
   8 O :   -0.037259
   9 H :    0.122770
  10 H :    0.114237
  11 H :    0.125106
  12 H :    0.147267
  13 H :    0.139110
  14 H :    0.139108
  15 H :    0.147270
  16 H :    0.122769
  17 H :    0.114240
  18 H :    0.125106
  19 H :    0.122938
  20 H :    0.131213
  21 H :    0.171531
  22 H :    0.122937
  23 H :    0.131213
  24 H :    0.171532

  Mayer bond orders larger than 0.1
B(  0-C ,  1-C ) :   0.9118 B(  0-C ,  9-H ) :   0.9404 B(  0-C , 10-H ) :   0.9349
B(  0-C , 11-H ) :   0.9414 B(  1-C ,  2-C ) :   0.8506 B(  1-C , 12-H ) :   0.9225
B(  1-C , 13-H ) :   0.9400 B(  2-C ,  3-C ) :   0.8507 B(  2-C ,  5-C ) :   0.8949
B(  2-C ,  7-C ) :   0.8950 B(  3-C ,  4-C ) :   0.9118 B(  3-C , 14-H ) :   0.9400
B(  3-C , 15-H ) :   0.9225 B(  4-C , 16-H ) :   0.9404 B(  4-C , 17-H ) :   0.9349
B(  4-C , 18-H ) :   0.9414 B(  5-C ,  6-O ) :   0.9260 B(  5-C , 19-H ) :   0.9439
B(  5-C , 20-H ) :   0.9229 B(  6-O , 21-H ) :   0.8465 B(  7-C ,  8-O ) :   0.9260
B(  7-C , 22-H ) :   0.9439 B(  7-C , 23-H ) :   0.9229 B(  8-O , 24-H ) :   0.8465

MP2 TOTAL ENERGY:     -425.930105868 Eh
FINAL SINGLE POINT ENERGY      -425.930105867956

DIPOLE MOMENT
-------------
                                X             Y             Z
Electronic contribution:      0.27915       0.41661      -0.50104
Nuclear contribution   :     -0.32416      -0.48358       0.58161
                        -----------------------------------------
Total Dipole Moment    :     -0.04501      -0.06697       0.08058
                        -----------------------------------------
Magnitude (a.u.)       :      0.11403
Magnitude (Debye)      :      0.28984

                             ****ORCA TERMINATED NORMALLY****
TOTAL RUN TIME: 0 days 0 hours 21 minutes 30 seconds 704 msec
