                         Program Version 3.0.3 - RELEASE   -
|  1> ! RI-MP2 RIJK def2-TZVP def2-TZVP/C def2-TZVP/JK TIGHTSCF
|  2> % maxcore 2000
|  3> % mp2 density relaxed end
|  4> *xyz 0 1
|  5>  C        0.0381318237     1.3816170710     0.0487748917
|  6>  N       -0.1571921929    -0.0564563399    -0.0246359776
|  7>  C        0.2070078351    -0.8277417884     1.1509032115
|  8>  C       -0.0610606859    -0.6265616798    -1.2620286705
|  9>  N       -0.0178519554    -0.0261366765    -2.4160415756
| 10>  C       -0.0082601415    -1.0788419523    -3.3301062396
| 11>  C       -0.0301470472    -2.2661272051    -2.6893455115
| 12>  C       -0.0186356674    -3.6934980585    -3.0868612512
| 13>  O       -0.0617341137    -1.9817538564    -1.3266791439
| 14>  H        1.1030026404     1.6571869900     0.0912874387
| 15>  H       -0.4005142889     1.8471475607    -0.8334367703
| 16>  H       -0.4560876677     1.7625376254     0.9474536694
| 17>  H       -0.2785924602    -0.3875358009     2.0266926320
| 18>  H       -0.1356981821    -1.8565081797     1.0432211728
| 19>  H        1.2940418817    -0.8377016009     1.3297059060
| 20>  H        0.0211209847    -0.8980966857    -4.3936168508
| 21>  H        0.8551888054    -4.2228018689    -2.6879441089
| 22>  H       -0.9113978519    -4.2243386588    -2.7349158529
| 23>  H        0.0104291439    -3.7662026952    -4.1767867593
| 24> *
| 25>
| 26>                          ****END OF INPUT****

CARTESIAN COORDINATES (ANGSTROEM)
---------------------------------
  C      0.038132    1.381617    0.048775
  N     -0.157192   -0.056456   -0.024636
  C      0.207008   -0.827742    1.150903
  C     -0.061061   -0.626562   -1.262029
  N     -0.017852   -0.026137   -2.416042
  C     -0.008260   -1.078842   -3.330106
  C     -0.030147   -2.266127   -2.689346
  C     -0.018636   -3.693498   -3.086861
  O     -0.061734   -1.981754   -1.326679
  H      1.103003    1.657187    0.091287
  H     -0.400514    1.847148   -0.833437
  H     -0.456088    1.762538    0.947454
  H     -0.278592   -0.387536    2.026693
  H     -0.135698   -1.856508    1.043221
  H      1.294042   -0.837702    1.329706
  H      0.021121   -0.898097   -4.393617
  H      0.855189   -4.222802   -2.687944
  H     -0.911398   -4.224339   -2.734916
  H      0.010429   -3.766203   -4.176787

 Total Charge           Charge          ....    0
 Multiplicity           Mult            ....    1
 Number of Electrons    NEL             ....   68
 Basis Dimension        Dim             ....  339

ORBITAL ENERGIES
----------------

  NO   OCC          E(Eh)            E(eV)
   0   2.0000     -20.618189      -561.0494
   1   2.0000     -15.583451      -424.0473
   2   2.0000     -15.530125      -422.5962
   3   2.0000     -11.357699      -309.0587
   4   2.0000     -11.277034      -306.8637
   5   2.0000     -11.261999      -306.4546
   6   2.0000     -11.254283      -306.2446
   7   2.0000     -11.243526      -305.9519
   8   2.0000     -11.234182      -305.6976
   9   2.0000      -1.471885       -40.0520
  10   2.0000      -1.267014       -34.4772
  11   2.0000      -1.204781       -32.7837
  12   2.0000      -1.051456       -28.6116
  13   2.0000      -0.973536       -26.4913
  14   2.0000      -0.954532       -25.9741
  15   2.0000      -0.892145       -24.2765
  16   2.0000      -0.804005       -21.8781
  17   2.0000      -0.767336       -20.8803
  18   2.0000      -0.715941       -19.4817
  19   2.0000      -0.675729       -18.3875
  20   2.0000      -0.628749       -17.1091
  21   2.0000      -0.625465       -17.0198
  22   2.0000      -0.616354       -16.7718
  23   2.0000      -0.580493       -15.7960
  24   2.0000      -0.565788       -15.3959
  25   2.0000      -0.563477       -15.3330
  26   2.0000      -0.555252       -15.1092
  27   2.0000      -0.547812       -14.9067
  28   2.0000      -0.545818       -14.8525
  29   2.0000      -0.528935       -14.3931
  30   2.0000      -0.454353       -12.3636
  31   2.0000      -0.438372       -11.9287
  32   2.0000      -0.407775       -11.0961
  33   2.0000      -0.289223        -7.8702
  34   0.0000       0.135147         3.6775
  35   0.0000       0.148859         4.0507
  36   0.0000       0.171767         4.6740
  37   0.0000       0.181282         4.9329
  38   0.0000       0.190993         5.1972

MULLIKEN ATOMIC CHARGES
-----------------------
   0 C :   -0.300347
   1 N :   -0.144408
   2 C :   -0.308596
   3 C :    0.349299
   4 N :   -0.333946
   5 C :   -0.154477
   6 C :    0.148144
   7 C :   -0.415750
   8 O :   -0.258779
   9 H :    0.122464
  10 H :    0.172925
  11 H :    0.131257
  12 H :    0.136244
  13 H :    0.160798
  14 H :    0.125074
  15 H :    0.131434
  16 H :    0.145304
  17 H :    0.146841
  18 H :    0.146518
Sum of atomic charges:    0.0000000

LOEWDIN ATOMIC CHARGES
----------------------
   0 C :   -0.290829
   1 N :    0.123455
   2 C :   -0.297378
   3 C :   -0.413372
   4 N :    0.079904
   5 C :   -0.243081
   6 C :   -0.280813
   7 C :   -0.279215
   8 O :    0.335770
   9 H :    0.112542
  10 H :    0.132628
  11 H :    0.118196
  12 H :    0.120719
  13 H :    0.126675
  14 H :    0.112049
  15 H :    0.136193
  16 H :    0.132943
  17 H :    0.133188
  18 H :    0.140426

  Mayer bond orders larger than 0.1
B(  0-C ,  1-N ) :   0.8877 B(  0-C ,  9-H ) :   0.9296 B(  0-C , 10-H ) :   0.9272
B(  0-C , 11-H ) :   0.9334 B(  1-N ,  2-C ) :   0.8957 B(  1-N ,  3-C ) :   1.1406
B(  2-C , 12-H ) :   0.9354 B(  2-C , 13-H ) :   0.9318 B(  2-C , 14-H ) :   0.9265
B(  3-C ,  4-N ) :   1.5794 B(  3-C ,  8-O ) :   1.0621 B(  4-N ,  5-C ) :   1.1823
B(  5-C ,  6-C ) :   1.6226 B(  5-C , 15-H ) :   0.9393 B(  6-C ,  7-C ) :   0.8793
B(  6-C ,  8-O ) :   0.9511 B(  7-C , 16-H ) :   0.9284 B(  7-C , 17-H ) :   0.9310
B(  7-C , 18-H ) :   0.9475

MP2 TOTAL ENERGY:     -418.527952691 Eh
FINAL SINGLE POINT ENERGY      -418.527952691433

DIPOLE MOMENT
-------------
                                X             Y             Z
Electronic contribution:     -0.95905       0.15747      -3.63279
Nuclear contribution   :      1.09143      -0.63962       4.20865
                        -----------------------------------------
Total Dipole Moment    :      0.13238      -0.48215       0.57585
                        -----------------------------------------
Magnitude (a.u.)       :      0.76263
Magnitude (Debye)      :      1.93845

                             ****ORCA TERMINATED NORMALLY****
TOTAL RUN TIME: 0 days 0 hours 18 minutes 4 seconds 558 msec
