                         Program Version 3.0.3 - RELEASE   -
|  1> ! RI-MP2 RIJK def2-TZVP def2-TZVP/C def2-TZVP/JK TIGHTSCF
|  2> % maxcore 2000
|  3> % mp2 density relaxed end
|  4> *xyz 0 1
|  5>  C        0.1834570071     1.5164576747    -0.2349698741
|  6>  C        0.0492396188     0.0410077022     0.0664582173
|  7>  O        0.8165120159    -0.7859941954    -0.8337750348
|  8>  C        1.4077088128    -1.5362297801     0.2482068993
|  9>  C        2.9107165610    -1.6497685699     0.1301271308
| 10>  C        0.7759837072    -0.5738947663     1.3096564407
| 11>  C        1.6722065401     0.2837807860     2.0553356481
| 12>  C        2.4152366461     0.9955557603     2.6787216734
| 13>  H        1.2249771564     1.8387721087    -0.1651820293
| 14>  H       -0.1798835108     1.7175681827    -1.2476539429
| 15>  H       -0.4122232314     2.1074546570     0.4684821639
| 16>  H       -1.0095628902    -0.2552906006     0.0489614700
| 17>  H        0.9551424064    -2.5363715797     0.3117963463
| 18>  H        3.3800092935    -0.6632542763     0.1234536976
| 19>  H        3.3190166881    -2.2243325019     0.9680492233
| 20>  H        3.1666715347    -2.1673975333    -0.7996858025
| 21>  H        0.0950253665    -1.0811194507     1.9979211054
| 22>  H        3.0689166378     1.6224434325     3.2332864273
| 23> *
| 24>
| 25>                          ****END OF INPUT****

CARTESIAN COORDINATES (ANGSTROEM)
---------------------------------
  C      0.183457    1.516458   -0.234970
  C      0.049240    0.041008    0.066458
  O      0.816512   -0.785994   -0.833775
  C      1.407709   -1.536230    0.248207
  C      2.910717   -1.649769    0.130127
  C      0.775984   -0.573895    1.309656
  C      1.672207    0.283781    2.055336
  C      2.415237    0.995556    2.678722
  H      1.224977    1.838772   -0.165182
  H     -0.179884    1.717568   -1.247654
  H     -0.412223    2.107455    0.468482
  H     -1.009563   -0.255291    0.048961
  H      0.955142   -2.536372    0.311796
  H      3.380009   -0.663254    0.123454
  H      3.319017   -2.224333    0.968049
  H      3.166672   -2.167398   -0.799686
  H      0.095025   -1.081119    1.997921
  H      3.068917    1.622443    3.233286

 Total Charge           Charge          ....    0
 Multiplicity           Mult            ....    1
 Number of Electrons    NEL             ....   60
 Basis Dimension        Dim             ....  308

ORBITAL ENERGIES
----------------

  NO   OCC          E(Eh)            E(eV)
   0   2.0000     -20.547225      -559.1184
   1   2.0000     -11.291509      -307.2576
   2   2.0000     -11.291504      -307.2574
   3   2.0000     -11.259893      -306.3973
   4   2.0000     -11.237787      -305.7957
   5   2.0000     -11.226261      -305.4821
   6   2.0000     -11.215210      -305.1814
   7   2.0000     -11.215207      -305.1813
   8   2.0000      -1.382806       -37.6281
   9   2.0000      -1.080304       -29.3966
  10   2.0000      -1.031474       -28.0678
  11   2.0000      -1.001214       -27.2444
  12   2.0000      -0.953648       -25.9501
  13   2.0000      -0.828905       -22.5557
  14   2.0000      -0.797203       -21.6930
  15   2.0000      -0.710492       -19.3335
  16   2.0000      -0.698608       -19.0101
  17   2.0000      -0.640243       -17.4219
  18   2.0000      -0.639063       -17.3898
  19   2.0000      -0.599432       -16.3114
  20   2.0000      -0.581670       -15.8280
  21   2.0000      -0.558381       -15.1943
  22   2.0000      -0.535891       -14.5823
  23   2.0000      -0.516939       -14.0666
  24   2.0000      -0.516169       -14.0457
  25   2.0000      -0.478415       -13.0183
  26   2.0000      -0.467589       -12.7238
  27   2.0000      -0.416676       -11.3383
  28   2.0000      -0.386663       -10.5216
  29   2.0000      -0.382707       -10.4140
  30   0.0000       0.135474         3.6864
  31   0.0000       0.150053         4.0831
  32   0.0000       0.155453         4.2301
  33   0.0000       0.167407         4.5554
  34   0.0000       0.173448         4.7198

MULLIKEN ATOMIC CHARGES
-----------------------
   0 C :   -0.388677
   1 C :    0.091616
   2 O :   -0.323503
   3 C :    0.091607
   4 C :   -0.388662
   5 C :   -0.169756
   6 C :   -0.067925
   7 C :   -0.154435
   8 H :    0.137457
   9 H :    0.140923
  10 H :    0.128977
  11 H :    0.082109
  12 H :    0.082114
  13 H :    0.137457
  14 H :    0.128980
  15 H :    0.140917
  16 H :    0.140542
  17 H :    0.190258
Sum of atomic charges:   -0.0000000

LOEWDIN ATOMIC CHARGES
----------------------
   0 C :   -0.290736
   1 C :   -0.274485
   2 O :    0.159296
   3 C :   -0.274479
   4 C :   -0.290728
   5 C :   -0.183569
   6 C :   -0.093472
   7 C :   -0.096026
   8 H :    0.130255
   9 H :    0.130597
  10 H :    0.130502
  11 H :    0.135203
  12 H :    0.135195
  13 H :    0.130260
  14 H :    0.130505
  15 H :    0.130591
  16 H :    0.163877
  17 H :    0.127215

  Mayer bond orders larger than 0.1
B(  0-C ,  1-C ) :   0.9192 B(  0-C ,  8-H ) :   0.9320 B(  0-C ,  9-H ) :   0.9345
B(  0-C , 10-H ) :   0.9266 B(  1-C ,  2-O ) :   0.9583 B(  1-C ,  5-C ) :   0.9062
B(  1-C , 11-H ) :   0.9249 B(  2-O ,  3-C ) :   0.9583 B(  3-C ,  4-C ) :   0.9192
B(  3-C ,  5-C ) :   0.9062 B(  3-C , 12-H ) :   0.9249 B(  4-C , 13-H ) :   0.9320
B(  4-C , 14-H ) :   0.9266 B(  4-C , 15-H ) :   0.9345 B(  5-C ,  6-C ) :   1.0787
B(  5-C , 16-H ) :   0.9328 B(  6-C ,  7-C ) :   2.5928 B(  7-C , 17-H ) :   0.9002

MP2 TOTAL ENERGY:     -347.147874997 Eh
FINAL SINGLE POINT ENERGY      -347.147874997383

DIPOLE MOMENT
-------------
                                X             Y             Z
Electronic contribution:     -0.93290      -0.62110       1.58732
Nuclear contribution   :      0.84862       0.60793      -1.07225
                        -----------------------------------------
Total Dipole Moment    :     -0.08428      -0.01317       0.51506
                        -----------------------------------------
Magnitude (a.u.)       :      0.52208
Magnitude (Debye)      :      1.32702

                             ****ORCA TERMINATED NORMALLY****
TOTAL RUN TIME: 0 days 0 hours 13 minutes 50 seconds 241 msec
