                         Program Version 3.0.3 - RELEASE   -
|  1> ! RI-MP2 RIJK def2-TZVP def2-TZVP/C def2-TZVP/JK TIGHTSCF
|  2> % maxcore 2000
|  3> % mp2 density relaxed end
|  4> *xyz 0 1
|  5>  C       -0.0118670583     1.6359419160    -0.1889989980
|  6>  C       -0.0482970657     0.1190497751     0.0762452797
|  7>  C       -1.4285580743    -0.4682743401     0.0660110791
|  8>  C       -2.1869531908    -0.8797921934     1.1427966474
|  9>  O       -1.9353066243    -0.9273507488     2.4779325059
| 10>  N       -3.3998546916    -1.3105564632     0.7126377804
| 11>  C       -3.4661534780    -1.2022517160    -0.6755000226
| 12>  C       -2.2673528751    -0.6823788318    -1.0809264440
| 13>  O       -1.9480336978    -0.3919001521    -2.3804466950
| 14>  H        1.0156900307     2.0146495231    -0.2046671444
| 15>  H       -0.4778086176     1.8712780106    -1.1510797913
| 16>  H       -0.5681901624     2.1782002583     0.5815917087
| 17>  H        0.5864399266    -0.3889218965    -0.6661006851
| 18>  H        0.4408547658    -0.0914886763     1.0378936532
| 19>  H       -1.0485253287    -0.5869413772     2.6302670986
| 20>  H       -4.1154308365    -1.6756808463     1.3146041485
| 21>  H       -4.3423417438    -1.4902229475    -1.2282209890
| 22>  H       -0.9929344982    -0.3006536938    -2.4444458321
| 23> *
| 24>
| 25>                          ****END OF INPUT****

CARTESIAN COORDINATES (ANGSTROEM)
---------------------------------
  C     -0.011867    1.635942   -0.188999
  C     -0.048297    0.119050    0.076245
  C     -1.428558   -0.468274    0.066011
  C     -2.186953   -0.879792    1.142797
  O     -1.935307   -0.927351    2.477933
  N     -3.399855   -1.310556    0.712638
  C     -3.466153   -1.202252   -0.675500
  C     -2.267353   -0.682379   -1.080926
  O     -1.948034   -0.391900   -2.380447
  H      1.015690    2.014650   -0.204667
  H     -0.477809    1.871278   -1.151080
  H     -0.568190    2.178200    0.581592
  H      0.586440   -0.388922   -0.666101
  H      0.440855   -0.091489    1.037894
  H     -1.048525   -0.586941    2.630267
  H     -4.115431   -1.675681    1.314604
  H     -4.342342   -1.490223   -1.228221
  H     -0.992934   -0.300654   -2.444446

 Total Charge           Charge          ....    0
 Multiplicity           Mult            ....    1
 Number of Electrons    NEL             ....   68
 Basis Dimension        Dim             ....  333

ORBITAL ENERGIES
----------------

  NO   OCC          E(Eh)            E(eV)
   0   2.0000     -20.601311      -560.5902
   1   2.0000     -20.574007      -559.8472
   2   2.0000     -15.593950      -424.3329
   3   2.0000     -11.321729      -308.0799
   4   2.0000     -11.271602      -306.7159
   5   2.0000     -11.241983      -305.9099
   6   2.0000     -11.229562      -305.5719
   7   2.0000     -11.219974      -305.3110
   8   2.0000     -11.208425      -304.9967
   9   2.0000      -1.422423       -38.7061
  10   2.0000      -1.386171       -37.7196
  11   2.0000      -1.275664       -34.7126
  12   2.0000      -1.079068       -29.3629
  13   2.0000      -1.007448       -27.4140
  14   2.0000      -0.961344       -26.1595
  15   2.0000      -0.867226       -23.5984
  16   2.0000      -0.799668       -21.7601
  17   2.0000      -0.784340       -21.3430
  18   2.0000      -0.731004       -19.8916
  19   2.0000      -0.716614       -19.5001
  20   2.0000      -0.635051       -17.2806
  21   2.0000      -0.619513       -16.8578
  22   2.0000      -0.616765       -16.7830
  23   2.0000      -0.606617       -16.5069
  24   2.0000      -0.595890       -16.2150
  25   2.0000      -0.583882       -15.8882
  26   2.0000      -0.568387       -15.4666
  27   2.0000      -0.527009       -14.3407
  28   2.0000      -0.522268       -14.2116
  29   2.0000      -0.509882       -13.8746
  30   2.0000      -0.499558       -13.5937
  31   2.0000      -0.478512       -13.0210
  32   2.0000      -0.326783        -8.8922
  33   2.0000      -0.274176        -7.4607
  34   0.0000       0.114632         3.1193
  35   0.0000       0.142121         3.8673
  36   0.0000       0.153191         4.1685
  37   0.0000       0.170784         4.6473
  38   0.0000       0.189906         5.1676

MULLIKEN ATOMIC CHARGES
-----------------------
   0 C :   -0.344029
   1 C :   -0.317000
   2 C :   -0.007584
   3 C :    0.170219
   4 O :   -0.428937
   5 N :   -0.260032
   6 C :   -0.148246
   7 C :    0.119097
   8 O :   -0.446336
   9 H :    0.128696
  10 H :    0.126404
  11 H :    0.125736
  12 H :    0.128752
  13 H :    0.094772
  14 H :    0.335947
  15 H :    0.248398
  16 H :    0.144619
  17 H :    0.329523
Sum of atomic charges:    0.0000000

LOEWDIN ATOMIC CHARGES
----------------------
   0 C :   -0.311046
   1 C :   -0.271567
   2 C :   -0.189650
   3 C :   -0.346952
   4 O :    0.059518
   5 N :    0.187936
   6 C :   -0.231117
   7 C :   -0.297313
   8 O :    0.052023
   9 H :    0.118138
  10 H :    0.122135
  11 H :    0.122598
  12 H :    0.140245
  13 H :    0.135855
  14 H :    0.195529
  15 H :    0.193316
  16 H :    0.133217
  17 H :    0.187133

  Mayer bond orders larger than 0.1
B(  0-C ,  1-C ) :   0.9270 B(  0-C ,  9-H ) :   0.9374 B(  0-C , 10-H ) :   0.9340
B(  0-C , 11-H ) :   0.9355 B(  1-C ,  2-C ) :   0.8502 B(  1-C , 12-H ) :   0.9466
B(  1-C , 13-H ) :   0.9400 B(  2-C ,  3-C ) :   1.3856 B(  2-C ,  7-C ) :   1.1443
B(  3-C ,  4-O ) :   1.1178 B(  3-C ,  5-N ) :   1.2070 B(  4-O , 14-H ) :   0.8291
B(  5-N ,  6-C ) :   1.0263 B(  5-N , 15-H ) :   0.8693 B(  6-C ,  7-C ) :   1.5736
B(  6-C , 16-H ) :   0.9121 B(  7-C ,  8-O ) :   1.0502 B(  8-O , 17-H ) :   0.8358

MP2 TOTAL ENERGY:     -438.393831210 Eh
FINAL SINGLE POINT ENERGY      -438.393831210004

DIPOLE MOMENT
-------------
                                X             Y             Z
Electronic contribution:     -5.95794      -5.10785       0.94640
Nuclear contribution   :      6.50313       5.12130      -0.34872
                        -----------------------------------------
Total Dipole Moment    :      0.54519       0.01345       0.59767
                        -----------------------------------------
Magnitude (a.u.)       :      0.80909
Magnitude (Debye)      :      2.05655

                             ****ORCA TERMINATED NORMALLY****
TOTAL RUN TIME: 0 days 0 hours 17 minutes 7 seconds 314 msec
