                         Program Version 3.0.3 - RELEASE   -
|  1> ! RI-MP2 RIJK def2-TZVP def2-TZVP/C def2-TZVP/JK TIGHTSCF
|  2> % maxcore 2000
|  3> % mp2 density relaxed end
|  4> *xyz 0 1
|  5>  C        0.0738274169    -1.2041102610    -0.0279393277
|  6>  C        0.0419504814    -0.0013635729    -0.0121019445
|  7>  C       -0.0088652070     1.4174444359     0.0353922570
|  8>  C        0.2711692391     2.2877701007    -1.1603475059
|  9>  C        1.1786840708     2.4496223343     0.0317374704
| 10>  C        0.4742521369     3.2676555865     1.1260244871
| 11>  C       -0.7066796170     2.2483951220     1.1295111532
| 12>  C        2.5780687279     2.1935656891    -0.0309682410
| 13>  N        3.7177187299     1.9906299567    -0.0612261781
| 14>  H        0.1093277619    -2.2653284603    -0.0476477096
| 15>  H        0.7083197757     1.7739813500    -2.0085145866
| 16>  H       -0.4123120791     3.0953001290    -1.4129559033
| 17>  H        1.0255105299     3.2688079218     2.0666089017
| 18>  H        0.2413905599     4.2990303099     0.8477650945
| 19>  H       -1.6936177187     2.6306391936     0.8552683660
| 20>  H       -0.7835621786     1.7065448447     2.0723285867
| 21> *
| 22>
| 23>                          ****END OF INPUT****

CARTESIAN COORDINATES (ANGSTROEM)
---------------------------------
  C      0.073827   -1.204110   -0.027939
  C      0.041950   -0.001364   -0.012102
  C     -0.008865    1.417444    0.035392
  C      0.271169    2.287770   -1.160348
  C      1.178684    2.449622    0.031737
  C      0.474252    3.267656    1.126024
  C     -0.706680    2.248395    1.129511
  C      2.578069    2.193566   -0.030968
  N      3.717719    1.990630   -0.061226
  H      0.109328   -2.265328   -0.047648
  H      0.708320    1.773981   -2.008515
  H     -0.412312    3.095300   -1.412956
  H      1.025511    3.268808    2.066609
  H      0.241391    4.299030    0.847765
  H     -1.693618    2.630639    0.855268
  H     -0.783562    1.706545    2.072329

 Total Charge           Charge          ....    0
 Multiplicity           Mult            ....    1
 Number of Electrons    NEL             ....   62
 Basis Dimension        Dim             ....  321

ORBITAL ENERGIES
----------------

  NO   OCC          E(Eh)            E(eV)
   0   2.0000     -15.569983      -423.6808
   1   2.0000     -11.298574      -307.4498
   2   2.0000     -11.297356      -307.4167
   3   2.0000     -11.274614      -306.7978
   4   2.0000     -11.272198      -306.7321
   5   2.0000     -11.261375      -306.4376
   6   2.0000     -11.258594      -306.3619
   7   2.0000     -11.249244      -306.1075
   8   2.0000     -11.240134      -305.8596
   9   2.0000      -1.245297       -33.8862
  10   2.0000      -1.207393       -32.8548
  11   2.0000      -1.052455       -28.6388
  12   2.0000      -1.023038       -27.8383
  13   2.0000      -0.958491       -26.0819
  14   2.0000      -0.877590       -23.8804
  15   2.0000      -0.825545       -22.4642
  16   2.0000      -0.773384       -21.0449
  17   2.0000      -0.710567       -19.3355
  18   2.0000      -0.662097       -18.0166
  19   2.0000      -0.652956       -17.7678
  20   2.0000      -0.587379       -15.9834
  21   2.0000      -0.572546       -15.5798
  22   2.0000      -0.562025       -15.2935
  23   2.0000      -0.534107       -14.5338
  24   2.0000      -0.531558       -14.4644
  25   2.0000      -0.505679       -13.7602
  26   2.0000      -0.491262       -13.3679
  27   2.0000      -0.454352       -12.3635
  28   2.0000      -0.435465       -11.8496
  29   2.0000      -0.393779       -10.7153
  30   2.0000      -0.361405        -9.8343
  31   0.0000       0.123168         3.3516
  32   0.0000       0.129168         3.5148
  33   0.0000       0.148737         4.0474
  34   0.0000       0.149171         4.0592
  35   0.0000       0.154667         4.2087

MULLIKEN ATOMIC CHARGES
-----------------------
   0 C :   -0.108662
   1 C :   -0.010673
   2 C :   -0.123090
   3 C :   -0.241193
   4 C :    0.182830
   5 C :   -0.214710
   6 C :   -0.211962
   7 C :   -0.266087
   8 N :   -0.045362
   9 H :    0.198034
  10 H :    0.162737
  11 H :    0.143489
  12 H :    0.140742
  13 H :    0.130364
  14 H :    0.128151
  15 H :    0.135391
Sum of atomic charges:    0.0000000

LOEWDIN ATOMIC CHARGES
----------------------
   0 C :   -0.067654
   1 C :   -0.072182
   2 C :   -0.157181
   3 C :   -0.112830
   4 C :   -0.165791
   5 C :   -0.165961
   6 C :   -0.163983
   7 C :   -0.155984
   8 N :    0.072358
   9 H :    0.129986
  10 H :    0.157064
  11 H :    0.142687
  12 H :    0.145491
  13 H :    0.134906
  14 H :    0.134260
  15 H :    0.144815

  Mayer bond orders larger than 0.1
B(  0-C ,  1-C ) :   2.5875 B(  0-C ,  2-C ) :  -0.1491 B(  0-C ,  9-H ) :   0.8700
B(  1-C ,  2-C ) :   1.2672 B(  2-C ,  3-C ) :   0.8543 B(  2-C ,  4-C ) :   0.6988
B(  2-C ,  6-C ) :   0.9344 B(  3-C ,  4-C ) :   0.8522 B(  3-C , 10-H ) :   0.9271
B(  3-C , 11-H ) :   0.9064 B(  4-C ,  5-C ) :   0.9101 B(  4-C ,  7-C ) :   0.9502
B(  5-C ,  6-C ) :   0.9954 B(  5-C , 12-H ) :   0.9139 B(  5-C , 13-H ) :   0.9124
B(  6-C , 14-H ) :   0.9170 B(  6-C , 15-H ) :   0.9130 B(  7-C ,  8-N ) :   2.8681

MP2 TOTAL ENERGY:     -362.896118173 Eh
FINAL SINGLE POINT ENERGY      -362.896118172923

DIPOLE MOMENT
-------------
                                X             Y             Z
Electronic contribution:      4.64988      -2.40520      -1.29210
Nuclear contribution   :     -6.24053       2.70747       1.40433
                        -----------------------------------------
Total Dipole Moment    :     -1.59065       0.30227       0.11223
                        -----------------------------------------
Magnitude (a.u.)       :      1.62300
Magnitude (Debye)      :      4.12533

                             ****ORCA TERMINATED NORMALLY****
TOTAL RUN TIME: 0 days 0 hours 16 minutes 59 seconds 86 msec
