                         Program Version 3.0.3 - RELEASE   -
|  1> ! RI-MP2 RIJK def2-TZVP def2-TZVP/C def2-TZVP/JK TIGHTSCF
|  2> % maxcore 2000
|  3> % mp2 density relaxed end
|  4> *xyz 0 1
|  5>  O       -0.1702692927     0.0157001842     0.1410506250
|  6>  C       -0.0127674602     1.1975029090    -0.0456384058
|  7>  C        1.2930520309     1.8820221471    -0.0586403204
|  8>  N        1.3706585633     3.3172334438     0.3089758269
|  9>  C        1.5635113683     2.9635478392    -1.0852948707
| 10>  C        3.0152014939     2.8290654601    -1.5503425026
| 11>  C        3.6080793417     1.6750796565    -0.7437540751
| 12>  O        3.6549022992     1.8848885593     0.6681140480
| 13>  C        2.5782033301     1.1094069816     0.1458152973
| 14>  H       -0.8778615286     1.8798900205    -0.2312141024
| 15>  H        0.4277303745     3.6812378274     0.4488148602
| 16>  H        0.8024337813     3.2481934727    -1.8074062127
| 17>  H        3.0358268539     2.5794613400    -2.6165421357
| 18>  H        3.5753514310     3.7580301401    -1.4076919518
| 19>  H        4.4307420538     1.0946271444    -1.1552528810
| 20>  H        2.5202936695     0.0701725241     0.4502941407
| 21> *
| 22>
| 23>                          ****END OF INPUT****

CARTESIAN COORDINATES (ANGSTROEM)
---------------------------------
  O     -0.170269    0.015700    0.141051
  C     -0.012767    1.197503   -0.045638
  C      1.293052    1.882022   -0.058640
  N      1.370659    3.317233    0.308976
  C      1.563511    2.963548   -1.085295
  C      3.015201    2.829065   -1.550343
  C      3.608079    1.675080   -0.743754
  O      3.654902    1.884889    0.668114
  C      2.578203    1.109407    0.145815
  H     -0.877862    1.879890   -0.231214
  H      0.427730    3.681238    0.448815
  H      0.802434    3.248193   -1.807406
  H      3.035827    2.579461   -2.616542
  H      3.575351    3.758030   -1.407692
  H      4.430742    1.094627   -1.155253
  H      2.520294    0.070173    0.450294

 Total Charge           Charge          ....    0
 Multiplicity           Mult            ....    1
 Number of Electrons    NEL             ....   66
 Basis Dimension        Dim             ....  321

ORBITAL ENERGIES
----------------

  NO   OCC          E(Eh)            E(eV)
   0   2.0000     -20.572028      -559.7934
   1   2.0000     -20.568377      -559.6940
   2   2.0000     -15.592045      -424.2811
   3   2.0000     -11.350020      -308.8497
   4   2.0000     -11.295017      -307.3530
   5   2.0000     -11.294460      -307.3379
   6   2.0000     -11.294091      -307.3278
   7   2.0000     -11.288948      -307.1879
   8   2.0000     -11.250124      -306.1314
   9   2.0000      -1.424590       -38.7651
  10   2.0000      -1.407648       -38.3041
  11   2.0000      -1.298380       -35.3307
  12   2.0000      -1.052611       -28.6430
  13   2.0000      -0.996823       -27.1249
  14   2.0000      -0.906166       -24.6580
  15   2.0000      -0.880167       -23.9506
  16   2.0000      -0.809007       -22.0142
  17   2.0000      -0.785901       -21.3855
  18   2.0000      -0.734636       -19.9905
  19   2.0000      -0.683590       -18.6014
  20   2.0000      -0.669733       -18.2244
  21   2.0000      -0.632668       -17.2158
  22   2.0000      -0.615443       -16.7470
  23   2.0000      -0.585467       -15.9314
  24   2.0000      -0.573938       -15.6177
  25   2.0000      -0.555512       -15.1163
  26   2.0000      -0.544953       -14.8289
  27   2.0000      -0.514589       -14.0027
  28   2.0000      -0.501386       -13.6434
  29   2.0000      -0.444430       -12.0935
  30   2.0000      -0.439516       -11.9599
  31   2.0000      -0.428386       -11.6570
  32   2.0000      -0.393070       -10.6960
  33   0.0000       0.108548         2.9537
  34   0.0000       0.124732         3.3941
  35   0.0000       0.149069         4.0564
  36   0.0000       0.178261         4.8507
  37   0.0000       0.183384         4.9901

MULLIKEN ATOMIC CHARGES
-----------------------
   0 O :   -0.268131
   1 C :    0.082631
   2 C :    0.209992
   3 N :   -0.335921
   4 C :   -0.120122
   5 C :   -0.158622
   6 C :    0.031240
   7 O :   -0.295957
   8 C :   -0.107144
   9 H :    0.065921
  10 H :    0.222370
  11 H :    0.139485
  12 H :    0.118729
  13 H :    0.128834
  14 H :    0.128831
  15 H :    0.157862
Sum of atomic charges:   -0.0000000

LOEWDIN ATOMIC CHARGES
----------------------
   0 O :    0.136245
   1 C :   -0.281248
   2 C :   -0.253293
   3 N :    0.067483
   4 C :   -0.209994
   5 C :   -0.209702
   6 C :   -0.246599
   7 O :    0.194270
   8 C :   -0.209541
   9 H :    0.116720
  10 H :    0.173969
  11 H :    0.138779
  12 H :    0.149701
  13 H :    0.151773
  14 H :    0.134784
  15 H :    0.146653

  Mayer bond orders larger than 0.1
B(  0-O ,  1-C ) :   2.0020 B(  1-C ,  2-C ) :   0.8719 B(  1-C ,  9-H ) :   0.9512
B(  2-C ,  3-N ) :   0.9131 B(  2-C ,  4-C ) :   0.8258 B(  2-C ,  8-C ) :   0.8909
B(  3-N ,  4-C ) :   1.0276 B(  3-N , 10-H ) :   0.8585 B(  4-C ,  5-C ) :   0.9601
B(  4-C , 11-H ) :   0.9143 B(  5-C ,  6-C ) :   0.9496 B(  5-C , 12-H ) :   0.9132
B(  5-C , 13-H ) :   0.8909 B(  6-C ,  7-O ) :   0.9193 B(  6-C ,  8-C ) :   0.9689
B(  6-C , 14-H ) :   0.9289 B(  7-O ,  8-C ) :   0.9508 B(  8-C , 15-H ) :   0.9265

MP2 TOTAL ENERGY:     -437.127788715 Eh
FINAL SINGLE POINT ENERGY      -437.127788715329

DIPOLE MOMENT
-------------
                                X             Y             Z
Electronic contribution:     -1.05468      -2.36802       3.20075
Nuclear contribution   :      0.78476       3.03833      -4.37462
                        -----------------------------------------
Total Dipole Moment    :     -0.26992       0.67031      -1.17387
                        -----------------------------------------
Magnitude (a.u.)       :      1.37846
Magnitude (Debye)      :      3.50376

                             ****ORCA TERMINATED NORMALLY****
TOTAL RUN TIME: 0 days 0 hours 17 minutes 30 seconds 7 msec
