                         Program Version 3.0.3 - RELEASE   -
|  1> ! RI-MP2 RIJK def2-TZVP def2-TZVP/C def2-TZVP/JK TIGHTSCF
|  2> % maxcore 2000
|  3> % mp2 density relaxed end
|  4> *xyz 0 1
|  5>  O        0.0039392691     0.6147140922    -1.5288263262
|  6>  C        0.0129500804     0.1326651308    -0.1915693722
|  7>  C       -1.3267755695    -0.5408108500     0.0027611518
|  8>  C       -1.6301804236    -1.9687394036    -0.1917749050
|  9>  C       -0.4985049607    -2.8824287358     0.2719972265
| 10>  C       -0.6544994962    -2.2079837030     1.6656850532
| 11>  C        0.4933727159    -1.5702749859     2.3011949623
| 12>  N        1.4050988829    -1.0738415801     2.8108133382
| 13>  N       -1.7742614135    -1.3065459946     1.1887527585
| 14>  H        0.8065975775     1.1269361906    -1.6644171701
| 15>  H        0.8540874383    -0.5508375315    -0.0231969281
| 16>  H        0.1118365024     0.9520211484     0.5358079756
| 17>  H       -2.1349760189     0.1208579438    -0.3024921482
| 18>  H       -2.5026514985    -2.3073883048    -0.7396064230
| 19>  H       -0.7657953018    -3.9386993444     0.3005754717
| 20>  H        0.4604414966    -2.7723432057    -0.2385097116
| 21>  H       -1.0919803004    -2.8988659165     2.3906860664
| 22> *
| 23>
| 24>                          ****END OF INPUT****

CARTESIAN COORDINATES (ANGSTROEM)
---------------------------------
  O      0.003939    0.614714   -1.528826
  C      0.012950    0.132665   -0.191569
  C     -1.326776   -0.540811    0.002761
  C     -1.630180   -1.968739   -0.191775
  C     -0.498505   -2.882429    0.271997
  C     -0.654499   -2.207984    1.665685
  C      0.493373   -1.570275    2.301195
  N      1.405099   -1.073842    2.810813
  N     -1.774261   -1.306546    1.188753
  H      0.806598    1.126936   -1.664417
  H      0.854087   -0.550838   -0.023197
  H      0.111837    0.952021    0.535808
  H     -2.134976    0.120858   -0.302492
  H     -2.502651   -2.307388   -0.739606
  H     -0.765795   -3.938699    0.300575
  H      0.460441   -2.772343   -0.238510
  H     -1.091980   -2.898866    2.390686

 Total Charge           Charge          ....    0
 Multiplicity           Mult            ....    1
 Number of Electrons    NEL             ....   66
 Basis Dimension        Dim             ....  327

ORBITAL ENERGIES
----------------

  NO   OCC          E(Eh)            E(eV)
   0   2.0000     -20.570601      -559.7545
   1   2.0000     -15.589250      -424.2051
   2   2.0000     -15.579056      -423.9277
   3   2.0000     -11.319395      -308.0164
   4   2.0000     -11.293665      -307.3163
   5   2.0000     -11.285212      -307.0862
   6   2.0000     -11.279243      -306.9238
   7   2.0000     -11.278853      -306.9132
   8   2.0000     -11.265727      -306.5560
   9   2.0000      -1.375594       -37.4318
  10   2.0000      -1.313871       -35.7522
  11   2.0000      -1.224384       -33.3172
  12   2.0000      -1.062288       -28.9063
  13   2.0000      -0.984306       -26.7843
  14   2.0000      -0.971113       -26.4253
  15   2.0000      -0.834350       -22.7038
  16   2.0000      -0.784148       -21.3377
  17   2.0000      -0.739985       -20.1360
  18   2.0000      -0.709186       -19.2979
  19   2.0000      -0.679373       -18.4867
  20   2.0000      -0.649527       -17.6745
  21   2.0000      -0.629008       -17.1162
  22   2.0000      -0.587423       -15.9846
  23   2.0000      -0.580658       -15.8005
  24   2.0000      -0.566316       -15.4102
  25   2.0000      -0.556606       -15.1460
  26   2.0000      -0.511251       -13.9118
  27   2.0000      -0.506227       -13.7751
  28   2.0000      -0.473525       -12.8853
  29   2.0000      -0.464071       -12.6280
  30   2.0000      -0.455346       -12.3906
  31   2.0000      -0.443834       -12.0773
  32   2.0000      -0.391199       -10.6451
  33   0.0000       0.122435         3.3316
  34   0.0000       0.131712         3.5841
  35   0.0000       0.142895         3.8884
  36   0.0000       0.154391         4.2012
  37   0.0000       0.170469         4.6387

MULLIKEN ATOMIC CHARGES
-----------------------
   0 O :   -0.461585
   1 C :   -0.071993
   2 C :   -0.027817
   3 C :   -0.032886
   4 C :   -0.277060
   5 C :    0.122257
   6 C :   -0.217077
   7 N :   -0.049846
   8 N :   -0.251917
   9 H :    0.322205
  10 H :    0.108463
  11 H :    0.122205
  12 H :    0.130073
  13 H :    0.140313
  14 H :    0.144548
  15 H :    0.149659
  16 H :    0.150458
Sum of atomic charges:   -0.0000000

LOEWDIN ATOMIC CHARGES
----------------------
   0 O :   -0.040062
   1 C :   -0.326188
   2 C :   -0.244930
   3 C :   -0.179025
   4 C :   -0.189013
   5 C :   -0.237894
   6 C :   -0.178886
   7 N :    0.069799
   8 N :    0.145112
   9 H :    0.176003
  10 H :    0.123771
  11 H :    0.128185
  12 H :    0.162944
  13 H :    0.136917
  14 H :    0.142184
  15 H :    0.138898
  16 H :    0.172186

  Mayer bond orders larger than 0.1
B(  0-O ,  1-C ) :   1.0121 B(  0-O ,  9-H ) :   0.8447 B(  1-C ,  2-C ) :   0.9158
B(  1-C , 10-H ) :   0.9139 B(  1-C , 11-H ) :   0.9299 B(  2-C ,  3-C ) :   0.9470
B(  2-C ,  8-N ) :   0.9077 B(  2-C , 12-H ) :   0.9221 B(  3-C ,  4-C ) :   0.9226
B(  3-C ,  8-N ) :   0.8360 B(  3-C , 13-H ) :   0.9001 B(  4-C ,  5-C ) :   0.9327
B(  4-C , 14-H ) :   0.9318 B(  4-C , 15-H ) :   0.9180 B(  5-C ,  6-C ) :   0.9529
B(  5-C ,  8-N ) :   0.8766 B(  5-C , 16-H ) :   0.8964 B(  6-C ,  7-N ) :   2.8408

MP2 TOTAL ENERGY:     -417.255374378 Eh
FINAL SINGLE POINT ENERGY      -417.255374378004

DIPOLE MOMENT
-------------
                                X             Y             Z
Electronic contribution:      0.64695       0.38721       3.64879
Nuclear contribution   :     -0.80456      -0.99824      -4.49968
                        -----------------------------------------
Total Dipole Moment    :     -0.15762      -0.61103      -0.85089
                        -----------------------------------------
Magnitude (a.u.)       :      1.05935
Magnitude (Debye)      :      2.69265

                             ****ORCA TERMINATED NORMALLY****
TOTAL RUN TIME: 0 days 0 hours 28 minutes 26 seconds 979 msec
