                         Program Version 3.0.3 - RELEASE   -
|  1> ! RI-MP2 RIJK def2-TZVP def2-TZVP/C def2-TZVP/JK TIGHTSCF
|  2> % maxcore 2000
|  3> % mp2 density relaxed end
|  4> *xyz 0 1
|  5>  C        0.0151166862     1.5202581613     0.0397249658
|  6>  C       -0.0411981181    -0.0049519146    -0.0227289586
|  7>  C       -1.4957566200    -0.4878257615     0.1088262649
|  8>  C        0.5985249939    -0.5078955423    -1.3341089213
|  9>  N        1.0543492715    -1.9099075792    -1.3130319334
| 10>  C        2.3897764841    -2.1507335577    -0.7626673952
| 11>  C        1.1880095490    -2.5809628267    -0.0094616274
| 12>  C        0.7852407686    -1.8501941365     1.2569057044
| 13>  O        0.7641134857    -0.4471623769     1.0840962801
| 14>  H        1.0548765251     1.8554703157     0.0821997845
| 15>  H       -0.4598934405     1.9621628016    -0.8417885945
| 16>  H       -0.5003523466     1.8878401286     0.9319113907
| 17>  H       -2.1236698673     0.0316434917    -0.6212011680
| 18>  H       -1.6004346550    -1.5601493017    -0.0772517253
| 19>  H       -1.8798559766    -0.2673875843     1.1094933186
| 20>  H       -0.1307206217    -0.4061390782    -2.1470170798
| 21>  H        1.4490765947     0.1350381154    -1.5862912861
| 22>  H        2.9976980110    -2.8735758507    -1.3010891487
| 23>  H        2.9327044909    -1.2930887168    -0.3685322290
| 24>  H        0.9047042438    -3.6328143257    -0.0265795681
| 25>  H       -0.1929763690    -2.2183586112     1.6000983700
| 26>  H        1.5042262805    -2.0466548202     2.0599084564
| 27> *
| 28>
| 29>                          ****END OF INPUT****

CARTESIAN COORDINATES (ANGSTROEM)
---------------------------------
  C      0.015117    1.520258    0.039725
  C     -0.041198   -0.004952   -0.022729
  C     -1.495757   -0.487826    0.108826
  C      0.598525   -0.507896   -1.334109
  N      1.054349   -1.909908   -1.313032
  C      2.389776   -2.150734   -0.762667
  C      1.188010   -2.580963   -0.009462
  C      0.785241   -1.850194    1.256906
  O      0.764113   -0.447162    1.084096
  H      1.054877    1.855470    0.082200
  H     -0.459893    1.962163   -0.841789
  H     -0.500352    1.887840    0.931911
  H     -2.123670    0.031643   -0.621201
  H     -1.600435   -1.560149   -0.077252
  H     -1.879856   -0.267388    1.109493
  H     -0.130721   -0.406139   -2.147017
  H      1.449077    0.135038   -1.586291
  H      2.997698   -2.873576   -1.301089
  H      2.932704   -1.293089   -0.368532
  H      0.904704   -3.632814   -0.026580
  H     -0.192976   -2.218359    1.600098
  H      1.504226   -2.046655    2.059908

 Total Charge           Charge          ....    0
 Multiplicity           Mult            ....    1
 Number of Electrons    NEL             ....   70
 Basis Dimension        Dim             ....  357

ORBITAL ENERGIES
----------------

  NO   OCC          E(Eh)            E(eV)
   0   2.0000     -20.552817      -559.2706
   1   2.0000     -15.555118      -423.2763
   2   2.0000     -11.286463      -307.1203
   3   2.0000     -11.276807      -306.8575
   4   2.0000     -11.257232      -306.3249
   5   2.0000     -11.247104      -306.0492
   6   2.0000     -11.246889      -306.0434
   7   2.0000     -11.216341      -305.2122
   8   2.0000     -11.213605      -305.1377
   9   2.0000      -1.378264       -37.5045
  10   2.0000      -1.261668       -34.3317
  11   2.0000      -1.083125       -29.4733
  12   2.0000      -0.979780       -26.6612
  13   2.0000      -0.952461       -25.9178
  14   2.0000      -0.930235       -25.3130
  15   2.0000      -0.834170       -22.6989
  16   2.0000      -0.820677       -22.3318
  17   2.0000      -0.716907       -19.5080
  18   2.0000      -0.690918       -18.8008
  19   2.0000      -0.671528       -18.2732
  20   2.0000      -0.645149       -17.5554
  21   2.0000      -0.623173       -16.9574
  22   2.0000      -0.607134       -16.5210
  23   2.0000      -0.572658       -15.5828
  24   2.0000      -0.559040       -15.2123
  25   2.0000      -0.543119       -14.7790
  26   2.0000      -0.533057       -14.5052
  27   2.0000      -0.528353       -14.3772
  28   2.0000      -0.511599       -13.9213
  29   2.0000      -0.503448       -13.6995
  30   2.0000      -0.479034       -13.0352
  31   2.0000      -0.456372       -12.4185
  32   2.0000      -0.441882       -12.0242
  33   2.0000      -0.405740       -11.0407
  34   2.0000      -0.358853        -9.7649
  35   0.0000       0.134716         3.6658
  36   0.0000       0.157307         4.2805
  37   0.0000       0.172792         4.7019
  38   0.0000       0.186636         5.0786
  39   0.0000       0.187924         5.1137

MULLIKEN ATOMIC CHARGES
-----------------------
   0 C :   -0.393290
   1 C :    0.205207
   2 C :   -0.464312
   3 C :   -0.162352
   4 N :   -0.222583
   5 C :   -0.194592
   6 C :   -0.078324
   7 C :   -0.059334
   8 O :   -0.311379
   9 H :    0.136051
  10 H :    0.127210
  11 H :    0.133721
  12 H :    0.137300
  13 H :    0.149952
  14 H :    0.142926
  15 H :    0.117927
  16 H :    0.123777
  17 H :    0.126300
  18 H :    0.127472
  19 H :    0.121180
  20 H :    0.107597
  21 H :    0.129547
Sum of atomic charges:   -0.0000000

LOEWDIN ATOMIC CHARGES
----------------------
   0 C :   -0.268884
   1 C :   -0.396434
   2 C :   -0.275136
   3 C :   -0.246967
   4 N :    0.110620
   5 C :   -0.246831
   6 C :   -0.264792
   7 C :   -0.310562
   8 O :    0.195737
   9 H :    0.128265
  10 H :    0.128810
  11 H :    0.128364
  12 H :    0.131167
  13 H :    0.128681
  14 H :    0.129204
  15 H :    0.138566
  16 H :    0.136989
  17 H :    0.122834
  18 H :    0.128231
  19 H :    0.142160
  20 H :    0.124569
  21 H :    0.135408

  Mayer bond orders larger than 0.1
B(  0-C ,  1-C ) :   0.8850 B(  0-C ,  9-H ) :   0.9379 B(  0-C , 10-H ) :   0.9336
B(  0-C , 11-H ) :   0.9376 B(  1-C ,  2-C ) :   0.9154 B(  1-C ,  3-C ) :   0.9180
B(  1-C ,  8-O ) :   0.9286 B(  2-C , 12-H ) :   0.9278 B(  2-C , 13-H ) :   0.9297
B(  2-C , 14-H ) :   0.9407 B(  3-C ,  4-N ) :   0.9129 B(  3-C , 15-H ) :   0.9167
B(  3-C , 16-H ) :   0.9354 B(  4-N ,  5-C ) :   0.8808 B(  4-N ,  6-C ) :   0.9110
B(  5-C ,  6-C ) :   0.9363 B(  5-C , 17-H ) :   0.9228 B(  5-C , 18-H ) :   0.9120
B(  6-C ,  7-C ) :   0.9430 B(  6-C , 19-H ) :   0.9119 B(  7-C ,  8-O ) :   0.9452
B(  7-C , 20-H ) :   0.9390 B(  7-C , 21-H ) :   0.9194

MP2 TOTAL ENERGY:     -403.636891335 Eh
FINAL SINGLE POINT ENERGY      -403.636891334557

DIPOLE MOMENT
-------------
                                X             Y             Z
Electronic contribution:      3.08406      -3.11834       0.20370
Nuclear contribution   :     -3.21612       3.14434      -0.05388
                        -----------------------------------------
Total Dipole Moment    :     -0.13206       0.02600       0.14982
                        -----------------------------------------
Magnitude (a.u.)       :      0.20140
Magnitude (Debye)      :      0.51191

                             ****ORCA TERMINATED NORMALLY****
TOTAL RUN TIME: 0 days 0 hours 21 minutes 4 seconds 874 msec
