                         Program Version 3.0.3 - RELEASE   -
|  1> ! RI-MP2 RIJK def2-TZVP def2-TZVP/C def2-TZVP/JK TIGHTSCF
|  2> % maxcore 2000
|  3> % mp2 density relaxed end
|  4> *xyz 0 1
|  5>  C        0.0540443160     1.5987905373    -0.1324094975
|  6>  C        0.1510277104     0.0790592630    -0.0448217962
|  7>  O       -1.1563575985    -0.5034983530    -0.0541208512
|  8>  C        1.0267521660    -0.5764110927    -1.1327309594
|  9>  C        1.3620292682    -1.9212385522    -0.4951390073
| 10>  O        1.5864889235    -1.6182654528     0.8816810729
| 11>  C        0.8079188685    -0.4917277316     1.2569095462
| 12>  C        1.7118434134     0.4752304877     2.0089670230
| 13>  O        1.3118903812     1.3945075512     2.6748411749
| 14>  H        1.0400089862     2.0700367119    -0.1667218557
| 15>  H       -0.4810043185     1.8808664892    -1.0468465436
| 16>  H       -0.4848995715     2.0024355313     0.7274355057
| 17>  H       -1.6177767658    -0.1762520754    -0.8342843174
| 18>  H        0.4958297479    -0.6620755514    -2.0848276695
| 19>  H        1.9380010510     0.0103081109    -1.2928353001
| 20>  H        0.5223256421    -2.6208582243    -0.6025392941
| 21>  H        2.2681773732    -2.3904343555    -0.8867719511
| 22>  H       -0.0106319296    -0.7795686355     1.9286082779
| 23>  H        2.7947392363     0.2431286619     1.8962126326
| 24> *
| 25>
| 26>                          ****END OF INPUT****

CARTESIAN COORDINATES (ANGSTROEM)
---------------------------------
  C      0.054044    1.598791   -0.132409
  C      0.151028    0.079059   -0.044822
  O     -1.156358   -0.503498   -0.054121
  C      1.026752   -0.576411   -1.132731
  C      1.362029   -1.921239   -0.495139
  O      1.586489   -1.618265    0.881681
  C      0.807919   -0.491728    1.256910
  C      1.711843    0.475230    2.008967
  O      1.311890    1.394508    2.674841
  H      1.040009    2.070037   -0.166722
  H     -0.481004    1.880866   -1.046847
  H     -0.484900    2.002436    0.727436
  H     -1.617777   -0.176252   -0.834284
  H      0.495830   -0.662076   -2.084828
  H      1.938001    0.010308   -1.292835
  H      0.522326   -2.620858   -0.602539
  H      2.268177   -2.390434   -0.886772
  H     -0.010632   -0.779569    1.928608
  H      2.794739    0.243129    1.896213

 Total Charge           Charge          ....    0
 Multiplicity           Mult            ....    1
 Number of Electrons    NEL             ....   70
 Basis Dimension        Dim             ....  339

ORBITAL ENERGIES
----------------

  NO   OCC          E(Eh)            E(eV)
   0   2.0000     -20.569963      -559.7372
   1   2.0000     -20.566680      -559.6478
   2   2.0000     -20.561082      -559.4955
   3   2.0000     -11.332187      -308.3645
   4   2.0000     -11.311046      -307.7892
   5   2.0000     -11.292978      -307.2976
   6   2.0000     -11.283808      -307.0480
   7   2.0000     -11.239972      -305.8552
   8   2.0000     -11.230434      -305.5956
   9   2.0000      -1.407556       -38.3015
  10   2.0000      -1.393790       -37.9270
  11   2.0000      -1.371119       -37.3100
  12   2.0000      -1.077244       -29.3133
  13   2.0000      -1.033645       -28.1269
  14   2.0000      -0.961604       -26.1666
  15   2.0000      -0.858938       -23.3729
  16   2.0000      -0.840153       -22.8617
  17   2.0000      -0.767224       -20.8772
  18   2.0000      -0.701885       -19.0993
  19   2.0000      -0.691464       -18.8157
  20   2.0000      -0.673401       -18.3242
  21   2.0000      -0.661300       -17.9949
  22   2.0000      -0.625490       -17.0205
  23   2.0000      -0.615186       -16.7401
  24   2.0000      -0.595232       -16.1971
  25   2.0000      -0.589521       -16.0417
  26   2.0000      -0.560069       -15.2402
  27   2.0000      -0.536380       -14.5956
  28   2.0000      -0.528354       -14.3772
  29   2.0000      -0.525514       -14.3000
  30   2.0000      -0.502067       -13.6619
  31   2.0000      -0.471515       -12.8306
  32   2.0000      -0.455971       -12.4076
  33   2.0000      -0.438951       -11.9445
  34   2.0000      -0.412863       -11.2346
  35   0.0000       0.115097         3.1319
  36   0.0000       0.125101         3.4042
  37   0.0000       0.156858         4.2683
  38   0.0000       0.162156         4.4125
  39   0.0000       0.185646         5.0517

MULLIKEN ATOMIC CHARGES
-----------------------
   0 C :   -0.400743
   1 C :    0.161330
   2 O :   -0.462267
   3 C :   -0.305877
   4 C :    0.002283
   5 O :   -0.322556
   6 C :    0.141829
   7 C :    0.045565
   8 O :   -0.257331
   9 H :    0.131143
  10 H :    0.123422
  11 H :    0.169286
  12 H :    0.314145
  13 H :    0.123037
  14 H :    0.113302
  15 H :    0.098240
  16 H :    0.119440
  17 H :    0.117924
  18 H :    0.087828
Sum of atomic charges:   -0.0000000

LOEWDIN ATOMIC CHARGES
----------------------
   0 C :   -0.275295
   1 C :   -0.368879
   2 O :    0.010316
   3 C :   -0.229285
   4 C :   -0.297096
   5 O :    0.174323
   6 C :   -0.266118
   7 C :   -0.270711
   8 O :    0.143084
   9 H :    0.131130
  10 H :    0.125385
  11 H :    0.136945
  12 H :    0.175347
  13 H :    0.139779
  14 H :    0.144068
  15 H :    0.125022
  16 H :    0.126174
  17 H :    0.161822
  18 H :    0.113990

  Mayer bond orders larger than 0.1
B(  0-C ,  1-C ) :   0.9456 B(  0-C ,  9-H ) :   0.9246 B(  0-C , 10-H ) :   0.9154
B(  0-C , 11-H ) :   0.9384 B(  1-C ,  2-O ) :   0.9461 B(  1-C ,  3-C ) :   0.9289
B(  1-C ,  6-C ) :   0.8649 B(  2-O , 12-H ) :   0.8406 B(  3-C ,  4-C ) :   0.9703
B(  3-C , 13-H ) :   0.9147 B(  3-C , 14-H ) :   0.9135 B(  4-C ,  5-O ) :   0.9185
B(  4-C , 15-H ) :   0.9231 B(  4-C , 16-H ) :   0.9256 B(  5-O ,  6-C ) :   0.9582
B(  6-C ,  7-C ) :   0.8319 B(  6-C , 17-H ) :   0.8908 B(  7-C ,  8-O ) :   1.9839
B(  7-C , 18-H ) :   0.9324

MP2 TOTAL ENERGY:     -459.443052700 Eh
FINAL SINGLE POINT ENERGY      -459.443052700098

DIPOLE MOMENT
-------------
                                X             Y             Z
Electronic contribution:      0.80393      -1.19466       5.81473
Nuclear contribution   :     -0.84833       1.19406      -7.32157
                        -----------------------------------------
Total Dipole Moment    :     -0.04440      -0.00060      -1.50685
                        -----------------------------------------
Magnitude (a.u.)       :      1.50750
Magnitude (Debye)      :      3.83176

                             ****ORCA TERMINATED NORMALLY****
TOTAL RUN TIME: 0 days 0 hours 19 minutes 18 seconds 958 msec
