                         Program Version 3.0.3 - RELEASE   -
|  1> ! RI-MP2 RIJK def2-TZVP def2-TZVP/C def2-TZVP/JK TIGHTSCF
|  2> % maxcore 2000
|  3> % mp2 density relaxed end
|  4> *xyz 0 1
|  5>  C       -0.1391742485     1.6328647953    -0.2009509992
|  6>  C       -0.0319637353     0.1237274366    -0.1335794272
|  7>  C       -1.2123436546    -0.5460761459     0.5761987154
|  8>  C       -1.4017152745    -0.0555261038     1.9420638539
|  9>  N       -1.5550962209     0.3499842619     3.0130123665
| 10>  C        0.5887363548    -0.7214578367    -1.1807666208
| 11>  C        1.7867528885    -0.0591787484    -1.8572286762
| 12>  C        2.3694373061     0.1262852951    -0.4332863510
| 13>  N        1.2147477940    -0.5992050297     0.2081647293
| 14>  H        0.6429273582     2.0910630830    -0.8067472995
| 15>  H       -1.1012484069     1.9168317318    -0.6409252342
| 16>  H       -0.0932173035     2.0659916803     0.8034290383
| 17>  H       -2.1377366150    -0.3730192904     0.0139285319
| 18>  H       -1.0447591404    -1.6263977620     0.6170069672
| 19>  H        0.1265354554    -1.6470036639    -1.5148176650
| 20>  H        2.3669503298    -0.7616151654    -2.4575703739
| 21>  H        1.5858759238     0.8304073007    -2.4610503589
| 22>  H        3.2846029842    -0.4420454442    -0.2600947109
| 23>  H        2.5172378948     1.1460724957    -0.0681875955
| 24> *
| 25>
| 26>                          ****END OF INPUT****

CARTESIAN COORDINATES (ANGSTROEM)
---------------------------------
  C     -0.139174    1.632865   -0.200951
  C     -0.031964    0.123727   -0.133579
  C     -1.212344   -0.546076    0.576199
  C     -1.401715   -0.055526    1.942064
  N     -1.555096    0.349984    3.013012
  C      0.588736   -0.721458   -1.180767
  C      1.786753   -0.059179   -1.857229
  C      2.369437    0.126285   -0.433286
  N      1.214748   -0.599205    0.208165
  H      0.642927    2.091063   -0.806747
  H     -1.101248    1.916832   -0.640925
  H     -0.093217    2.065992    0.803429
  H     -2.137737   -0.373019    0.013929
  H     -1.044759   -1.626398    0.617007
  H      0.126535   -1.647004   -1.514818
  H      2.366950   -0.761615   -2.457570
  H      1.585876    0.830407   -2.461050
  H      3.284603   -0.442045   -0.260095
  H      2.517238    1.146072   -0.068188

 Total Charge           Charge          ....    0
 Multiplicity           Mult            ....    1
 Number of Electrons    NEL             ....   66
 Basis Dimension        Dim             ....  339

ORBITAL ENERGIES
----------------

  NO   OCC          E(Eh)            E(eV)
   0   2.0000     -15.571523      -423.7227
   1   2.0000     -15.563277      -423.4983
   2   2.0000     -11.293378      -307.3084
   3   2.0000     -11.282009      -306.9991
   4   2.0000     -11.277208      -306.8684
   5   2.0000     -11.268589      -306.6339
   6   2.0000     -11.265978      -306.5629
   7   2.0000     -11.245682      -306.0106
   8   2.0000     -11.236335      -305.7562
   9   2.0000      -1.306474       -35.5510
  10   2.0000      -1.213098       -33.0101
  11   2.0000      -1.086173       -29.5563
  12   2.0000      -0.993466       -27.0336
  13   2.0000      -0.987143       -26.8615
  14   2.0000      -0.942310       -25.6416
  15   2.0000      -0.777350       -21.1528
  16   2.0000      -0.769934       -20.9510
  17   2.0000      -0.701332       -19.0842
  18   2.0000      -0.681389       -18.5415
  19   2.0000      -0.670816       -18.2538
  20   2.0000      -0.621435       -16.9101
  21   2.0000      -0.599563       -16.3149
  22   2.0000      -0.583348       -15.8737
  23   2.0000      -0.576122       -15.6771
  24   2.0000      -0.549600       -14.9554
  25   2.0000      -0.537720       -14.6321
  26   2.0000      -0.536048       -14.5866
  27   2.0000      -0.497413       -13.5353
  28   2.0000      -0.463809       -12.6209
  29   2.0000      -0.453666       -12.3449
  30   2.0000      -0.449941       -12.2435
  31   2.0000      -0.431226       -11.7343
  32   2.0000      -0.379979       -10.3397
  33   0.0000       0.123599         3.3633
  34   0.0000       0.146013         3.9732
  35   0.0000       0.149339         4.0637
  36   0.0000       0.159168         4.3312
  37   0.0000       0.174757         4.7554

MULLIKEN ATOMIC CHARGES
-----------------------
   0 C :   -0.420706
   1 C :    0.185773
   2 C :   -0.136727
   3 C :   -0.201378
   4 N :   -0.056899
   5 C :   -0.092575
   6 C :   -0.257333
   7 C :   -0.167066
   8 N :   -0.276098
   9 H :    0.143188
  10 H :    0.141551
  11 H :    0.171375
  12 H :    0.159918
  13 H :    0.160937
  14 H :    0.127190
  15 H :    0.131505
  16 H :    0.126808
  17 H :    0.134094
  18 H :    0.126442
Sum of atomic charges:   -0.0000000

LOEWDIN ATOMIC CHARGES
----------------------
   0 C :   -0.258044
   1 C :   -0.297236
   2 C :   -0.199690
   3 C :   -0.184389
   4 N :    0.057135
   5 C :   -0.179450
   6 C :   -0.235266
   7 C :   -0.242242
   8 N :    0.135283
   9 H :    0.131093
  10 H :    0.136626
  11 H :    0.140503
  12 H :    0.167017
  13 H :    0.174296
  14 H :    0.134461
  15 H :    0.138714
  16 H :    0.128822
  17 H :    0.129849
  18 H :    0.122518

  Mayer bond orders larger than 0.1
B(  0-C ,  1-C ) :   0.8894 B(  0-C ,  9-H ) :   0.9334 B(  0-C , 10-H ) :   0.9258
B(  0-C , 11-H ) :   0.9327 B(  1-C ,  2-C ) :   0.8643 B(  1-C ,  5-C ) :   0.9024
B(  1-C ,  8-N ) :   0.8820 B(  2-C ,  3-C ) :   0.9493 B(  2-C , 12-H ) :   0.9137
B(  2-C , 13-H ) :   0.9003 B(  3-C ,  4-N ) :   2.8707 B(  5-C ,  6-C ) :   0.9210
B(  5-C ,  8-N ) :   0.8638 B(  5-C , 14-H ) :   0.9000 B(  6-C ,  7-C ) :   0.9646
B(  6-C , 15-H ) :   0.9282 B(  6-C , 16-H ) :   0.9217 B(  7-C ,  8-N ) :   0.9218
B(  7-C , 17-H ) :   0.9227 B(  7-C , 18-H ) :   0.9366

MP2 TOTAL ENERGY:     -381.366715624 Eh
FINAL SINGLE POINT ENERGY      -381.366715624220

DIPOLE MOMENT
-------------
                                X             Y             Z
Electronic contribution:     -3.48499      -2.57911       6.08708
Nuclear contribution   :      3.84571       2.55912      -8.09327
                        -----------------------------------------
Total Dipole Moment    :      0.36072      -0.01999      -2.00619
                        -----------------------------------------
Magnitude (a.u.)       :      2.03846
Magnitude (Debye)      :      5.18136

                             ****ORCA TERMINATED NORMALLY****
TOTAL RUN TIME: 0 days 0 hours 19 minutes 9 seconds 684 msec
