                         Program Version 3.0.3 - RELEASE   -
|  1> ! RI-MP2 RIJK def2-TZVP def2-TZVP/C def2-TZVP/JK TIGHTSCF
|  2> % maxcore 2000
|  3> % mp2 density relaxed end
|  4> *xyz 0 1
|  5>  C       -0.0760545888     1.4786969989    -0.2661778664
|  6>  C        0.0425027468     0.0423880485     0.2375155416
|  7>  O        0.7197507073    -0.0412255913     1.4881870382
|  8>  C       -1.3195843986    -0.6214957065     0.3421301388
|  9>  O       -1.8675983997    -1.2112639813    -0.8434237007
| 10>  C       -1.5418515261    -2.0691979504     0.2498954960
| 11>  C       -0.4159729660    -3.0725888884     0.0513827219
| 12>  C       -0.8920656288    -4.3236684587    -0.5386621618
| 13>  N       -1.2786253847    -5.3123113560    -0.9942153463
| 14>  H        0.9122579605     1.9401693152    -0.3358755011
| 15>  H       -0.5488914149     1.5032132485    -1.2525805822
| 16>  H       -0.6916237752     2.0796313238     0.4154462179
| 17>  H        0.6605465032    -0.5276797886    -0.4623963690
| 18>  H        0.3107063917     0.5873867364     2.0933498036
| 19>  H       -2.0464539604    -0.0514951929     0.9285536362
| 20>  H       -2.4102702284    -2.4807588325     0.7649951684
| 21>  H        0.3616464860    -2.6538765491    -0.5917676856
| 22>  H        0.0466908461    -3.2930307454     1.0205420305
| 23> *
| 24>
| 25>                          ****END OF INPUT****

CARTESIAN COORDINATES (ANGSTROEM)
---------------------------------
  C     -0.076055    1.478697   -0.266178
  C      0.042503    0.042388    0.237516
  O      0.719751   -0.041226    1.488187
  C     -1.319584   -0.621496    0.342130
  O     -1.867598   -1.211264   -0.843424
  C     -1.541852   -2.069198    0.249895
  C     -0.415973   -3.072589    0.051383
  C     -0.892066   -4.323668   -0.538662
  N     -1.278625   -5.312311   -0.994215
  H      0.912258    1.940169   -0.335876
  H     -0.548891    1.503213   -1.252581
  H     -0.691624    2.079631    0.415446
  H      0.660547   -0.527680   -0.462396
  H      0.310706    0.587387    2.093350
  H     -2.046454   -0.051495    0.928554
  H     -2.410270   -2.480759    0.764995
  H      0.361646   -2.653877   -0.591768
  H      0.046691   -3.293031    1.020542

 Total Charge           Charge          ....    0
 Multiplicity           Mult            ....    1
 Number of Electrons    NEL             ....   68
 Basis Dimension        Dim             ....  333

ORBITAL ENERGIES
----------------

  NO   OCC          E(Eh)            E(eV)
   0   2.0000     -20.591428      -560.3212
   1   2.0000     -20.580258      -560.0173
   2   2.0000     -15.571950      -423.7343
   3   2.0000     -11.318607      -307.9950
   4   2.0000     -11.308535      -307.7209
   5   2.0000     -11.307874      -307.7029
   6   2.0000     -11.293377      -307.3084
   7   2.0000     -11.276315      -306.8441
   8   2.0000     -11.238960      -305.8276
   9   2.0000      -1.437832       -39.1254
  10   2.0000      -1.385193       -37.6930
  11   2.0000      -1.221304       -33.2334
  12   2.0000      -1.076057       -29.2810
  13   2.0000      -1.054605       -28.6973
  14   2.0000      -0.947069       -25.7710
  15   2.0000      -0.883092       -24.0302
  16   2.0000      -0.826151       -22.4807
  17   2.0000      -0.740999       -20.1636
  18   2.0000      -0.707694       -19.2573
  19   2.0000      -0.686557       -18.6822
  20   2.0000      -0.657074       -17.8799
  21   2.0000      -0.649529       -17.6746
  22   2.0000      -0.629474       -17.1289
  23   2.0000      -0.598248       -16.2792
  24   2.0000      -0.573421       -15.6036
  25   2.0000      -0.558622       -15.2009
  26   2.0000      -0.553647       -15.0655
  27   2.0000      -0.544481       -14.8161
  28   2.0000      -0.510241       -13.8844
  29   2.0000      -0.501491       -13.6463
  30   2.0000      -0.467030       -12.7085
  31   2.0000      -0.461733       -12.5644
  32   2.0000      -0.453209       -12.3324
  33   2.0000      -0.449139       -12.2217
  34   0.0000       0.116581         3.1723
  35   0.0000       0.133855         3.6424
  36   0.0000       0.147156         4.0043
  37   0.0000       0.160917         4.3788
  38   0.0000       0.169704         4.6179

MULLIKEN ATOMIC CHARGES
-----------------------
   0 C :   -0.415162
   1 C :    0.106601
   2 O :   -0.474696
   3 C :    0.015210
   4 O :   -0.324122
   5 C :    0.023048
   6 C :   -0.132856
   7 C :   -0.168671
   8 N :   -0.054716
   9 H :    0.155701
  10 H :    0.152192
  11 H :    0.120199
  12 H :    0.094665
  13 H :    0.316847
  14 H :    0.122639
  15 H :    0.135141
  16 H :    0.158527
  17 H :    0.169454
Sum of atomic charges:   -0.0000000

LOEWDIN ATOMIC CHARGES
----------------------
   0 C :   -0.295038
   1 C :   -0.362803
   2 O :   -0.015106
   3 C :   -0.253473
   4 O :    0.176794
   5 C :   -0.251018
   6 C :   -0.222230
   7 C :   -0.186544
   8 N :    0.062212
   9 H :    0.129522
  10 H :    0.136060
  11 H :    0.123169
  12 H :    0.148121
  13 H :    0.176685
  14 H :    0.141542
  15 H :    0.147301
  16 H :    0.169271
  17 H :    0.175536

  Mayer bond orders larger than 0.1
B(  0-C ,  1-C ) :   0.9475 B(  0-C ,  9-H ) :   0.9422 B(  0-C , 10-H ) :   0.9308
B(  0-C , 11-H ) :   0.9201 B(  1-C ,  2-O ) :   0.8886 B(  1-C ,  3-C ) :   0.8929
B(  1-C , 12-H ) :   0.9296 B(  2-O , 13-H ) :   0.8405 B(  3-C ,  4-O ) :   0.8981
B(  3-C ,  5-C ) :   0.9770 B(  3-C , 14-H ) :   0.8940 B(  4-O ,  5-C ) :   0.9059
B(  5-C ,  6-C ) :   0.8971 B(  5-C , 15-H ) :   0.9123 B(  6-C ,  7-C ) :   0.9311
B(  6-C , 16-H ) :   0.9153 B(  6-C , 17-H ) :   0.9028 B(  7-C ,  8-N ) :   2.8671

MP2 TOTAL ENERGY:     -438.357344914 Eh
FINAL SINGLE POINT ENERGY      -438.357344913842

DIPOLE MOMENT
-------------
                                X             Y             Z
Electronic contribution:     -2.46567      -8.80823      -1.34545
Nuclear contribution   :      2.79550      10.58890       2.43118
                        -----------------------------------------
Total Dipole Moment    :      0.32983       1.78067       1.08573
                        -----------------------------------------
Magnitude (a.u.)       :      2.11149
Magnitude (Debye)      :      5.36699

                             ****ORCA TERMINATED NORMALLY****
TOTAL RUN TIME: 0 days 0 hours 17 minutes 20 seconds 561 msec
