                         Program Version 3.0.3 - RELEASE   -
|  1> ! RI-MP2 RIJK def2-TZVP def2-TZVP/C def2-TZVP/JK TIGHTSCF
|  2> % maxcore 2000
|  3> % mp2 density relaxed end
|  4> *xyz 0 1
|  5>  C       -0.9881125850     1.2094891408    -0.2956727554
|  6>  C       -0.1012826630     0.0055924285     0.0452906508
|  7>  C        0.5589433073    -0.5810150961    -1.1880858184
|  8>  C        1.0169996406    -1.9950636484    -1.3556569960
|  9>  N       -0.0997481370    -1.3797883799    -2.2247181708
| 10>  C       -1.1193728072    -2.2726924724    -1.5465889536
| 11>  C       -1.7994830118    -3.2103200138    -2.5330289584
| 12>  C        0.0258014152    -2.9519840099    -0.7663506898
| 13>  O        0.1192535392    -3.9809991046    -0.1591027357
| 14>  H       -0.4155387396     1.9874363212    -0.8120721965
| 15>  H       -1.8140911471     0.9201376038    -0.9534172133
| 16>  H       -1.4142499299     1.6516433121     0.6093757447
| 17>  H        0.7010366661     0.3176482113     0.7248927197
| 18>  H       -0.6765852531    -0.7463495517     0.5919716296
| 19>  H        1.2441981585     0.1240656641    -1.6604610817
| 20>  H        2.0018790837    -2.2466983499    -1.7347868795
| 21>  H       -1.8625453679    -1.7208784625    -0.9646379434
| 22>  H       -1.0612832414    -3.7376626737    -3.1438422299
| 23>  H       -2.3920603295    -3.9522045418    -1.9902679776
| 24>  H       -2.4588656082    -2.6492816572    -3.2008750148
| 25> *
| 26>
| 27>                          ****END OF INPUT****

CARTESIAN COORDINATES (ANGSTROEM)
---------------------------------
  C     -0.988113    1.209489   -0.295673
  C     -0.101283    0.005592    0.045291
  C      0.558943   -0.581015   -1.188086
  C      1.017000   -1.995064   -1.355657
  N     -0.099748   -1.379788   -2.224718
  C     -1.119373   -2.272692   -1.546589
  C     -1.799483   -3.210320   -2.533029
  C      0.025801   -2.951984   -0.766351
  O      0.119254   -3.980999   -0.159103
  H     -0.415539    1.987436   -0.812072
  H     -1.814091    0.920138   -0.953417
  H     -1.414250    1.651643    0.609376
  H      0.701037    0.317648    0.724893
  H     -0.676585   -0.746350    0.591972
  H      1.244198    0.124066   -1.660461
  H      2.001879   -2.246698   -1.734787
  H     -1.862545   -1.720878   -0.964638
  H     -1.061283   -3.737663   -3.143842
  H     -2.392060   -3.952205   -1.990268
  H     -2.458866   -2.649282   -3.200875

 Total Charge           Charge          ....    0
 Multiplicity           Mult            ....    1
 Number of Electrons    NEL             ....   68
 Basis Dimension        Dim             ....  345

ORBITAL ENERGIES
----------------

  NO   OCC          E(Eh)            E(eV)
   0   2.0000     -20.556461      -559.3697
   1   2.0000     -15.584736      -424.0822
   2   2.0000     -11.338589      -308.5387
   3   2.0000     -11.286357      -307.1174
   4   2.0000     -11.277610      -306.8794
   5   2.0000     -11.276854      -306.8588
   6   2.0000     -11.244400      -305.9757
   7   2.0000     -11.229505      -305.5704
   8   2.0000     -11.227547      -305.5171
   9   2.0000      -1.401155       -38.1274
  10   2.0000      -1.307199       -35.5707
  11   2.0000      -1.072496       -29.1841
  12   2.0000      -1.036789       -28.2125
  13   2.0000      -0.934678       -25.4339
  14   2.0000      -0.915368       -24.9084
  15   2.0000      -0.879542       -23.9335
  16   2.0000      -0.778697       -21.1894
  17   2.0000      -0.723105       -19.6767
  18   2.0000      -0.690857       -18.7992
  19   2.0000      -0.667519       -18.1641
  20   2.0000      -0.665278       -18.1031
  21   2.0000      -0.615915       -16.7599
  22   2.0000      -0.584837       -15.9142
  23   2.0000      -0.578774       -15.7492
  24   2.0000      -0.556803       -15.1514
  25   2.0000      -0.545887       -14.8543
  26   2.0000      -0.535505       -14.5718
  27   2.0000      -0.529835       -14.4175
  28   2.0000      -0.516855       -14.0643
  29   2.0000      -0.505606       -13.7583
  30   2.0000      -0.471499       -12.8301
  31   2.0000      -0.443522       -12.0688
  32   2.0000      -0.419271       -11.4090
  33   2.0000      -0.382199       -10.4002
  34   0.0000       0.122598         3.3361
  35   0.0000       0.128338         3.4923
  36   0.0000       0.156346         4.2544
  37   0.0000       0.161105         4.3839
  38   0.0000       0.170283         4.6336

MULLIKEN ATOMIC CHARGES
-----------------------
   0 C :   -0.399903
   1 C :   -0.207882
   2 C :   -0.021925
   3 C :   -0.092686
   4 N :   -0.227587
   5 C :    0.003358
   6 C :   -0.408263
   7 C :    0.130685
   8 O :   -0.258553
   9 H :    0.129533
  10 H :    0.132742
  11 H :    0.140809
  12 H :    0.127601
  13 H :    0.133849
  14 H :    0.125964
  15 H :    0.152899
  16 H :    0.120267
  17 H :    0.135588
  18 H :    0.143626
  19 H :    0.139878
Sum of atomic charges:   -0.0000000

LOEWDIN ATOMIC CHARGES
----------------------
   0 C :   -0.310339
   1 C :   -0.276316
   2 C :   -0.243001
   3 C :   -0.146128
   4 N :    0.154057
   5 C :   -0.243946
   6 C :   -0.280824
   7 C :   -0.314455
   8 O :    0.163758
   9 H :    0.124028
  10 H :    0.123024
  11 H :    0.123529
  12 H :    0.147206
  13 H :    0.142723
  14 H :    0.157595
  15 H :    0.141350
  16 H :    0.144295
  17 H :    0.131575
  18 H :    0.133051
  19 H :    0.128818

  Mayer bond orders larger than 0.1
B(  0-C ,  1-C ) :   0.9217 B(  0-C ,  9-H ) :   0.9359 B(  0-C , 10-H ) :   0.9347
B(  0-C , 11-H ) :   0.9395 B(  1-C ,  2-C ) :   0.9027 B(  1-C , 12-H ) :   0.9238
B(  1-C , 13-H ) :   0.9349 B(  2-C ,  3-C ) :   0.8862 B(  2-C ,  4-N ) :   0.9211
B(  2-C , 14-H ) :   0.9183 B(  3-C ,  4-N ) :   0.8587 B(  3-C ,  5-C ) :  -0.1019
B(  3-C ,  7-C ) :   0.9433 B(  3-C , 15-H ) :   0.8932 B(  4-N ,  5-C ) :   0.9213
B(  5-C ,  6-C ) :   0.8969 B(  5-C ,  7-C ) :   0.8771 B(  5-C , 16-H ) :   0.9119
B(  6-C , 17-H ) :   0.9327 B(  6-C , 18-H ) :   0.9347 B(  6-C , 19-H ) :   0.9382
B(  7-C ,  8-O ) :   2.0434

MP2 TOTAL ENERGY:     -402.432018549 Eh
FINAL SINGLE POINT ENERGY      -402.432018548787

DIPOLE MOMENT
-------------
                                X             Y             Z
Electronic contribution:      4.49545      -6.96682       0.38776
Nuclear contribution   :     -4.61908       7.91770      -0.36498
                        -----------------------------------------
Total Dipole Moment    :     -0.12362       0.95088       0.02278
                        -----------------------------------------
Magnitude (a.u.)       :      0.95915
Magnitude (Debye)      :      2.43798

                             ****ORCA TERMINATED NORMALLY****
TOTAL RUN TIME: 0 days 0 hours 22 minutes 34 seconds 840 msec
