                         Program Version 3.0.3 - RELEASE   -
|  1> ! RI-MP2 RIJK def2-TZVP def2-TZVP/C def2-TZVP/JK TIGHTSCF
|  2> % maxcore 2000
|  3> % mp2 density relaxed end
|  4> *xyz 0 1
|  5>  C       -0.0464836426     1.7051309040    -0.3485363297
|  6>  C        0.0970533767     0.1871273056    -0.2097454216
|  7>  O        0.8704893407    -0.1453525525     0.9467024399
|  8>  C       -1.2633764119    -0.4876449487    -0.2062131021
|  9>  C       -1.9409102210    -1.1089116182    -1.3965470365
| 10>  C       -0.9509393640    -1.9017589002    -2.2648453051
| 11>  C       -0.6504346605    -2.8408140040    -1.0432224415
| 12>  C        0.7776413618    -3.1425008006    -0.5998493136
| 13>  C       -1.5729026942    -1.9666162891    -0.1768514338
| 14>  H        0.9372534109     2.1816773596    -0.3437403107
| 15>  H       -0.5598688151     1.9655497952    -1.2802096121
| 16>  H       -0.6289041852     2.1169809473     0.4846325546
| 17>  H        0.6944891811    -0.1811807732    -1.0483046693
| 18>  H        0.2819500012    -0.1275651730     1.7086200977
| 19>  H       -1.9793867579     0.0592317784     0.4109878397
| 20>  H       -2.9204939403    -0.7824371308    -1.7256457057
| 21>  H       -1.4333683216    -2.4317622875    -3.0888790701
| 22>  H       -0.1063623082    -1.3385413940    -2.6746992596
| 23>  H       -1.1646366692    -3.7904455796    -1.2272935206
| 24>  H        1.3114997726    -2.2487747971    -0.2714028523
| 25>  H        0.7727250359    -3.8411058302     0.2450135911
| 26>  H        1.3435658435    -3.6152159445    -1.4109717348
| 27>  H       -2.2335886627    -2.3589488369     0.5891542062
| 28> *
| 29>
| 30>                          ****END OF INPUT****

CARTESIAN COORDINATES (ANGSTROEM)
---------------------------------
  C     -0.046484    1.705131   -0.348536
  C      0.097053    0.187127   -0.209745
  O      0.870489   -0.145353    0.946702
  C     -1.263376   -0.487645   -0.206213
  C     -1.940910   -1.108912   -1.396547
  C     -0.950939   -1.901759   -2.264845
  C     -0.650435   -2.840814   -1.043222
  C      0.777641   -3.142501   -0.599849
  C     -1.572903   -1.966616   -0.176851
  H      0.937253    2.181677   -0.343740
  H     -0.559869    1.965550   -1.280210
  H     -0.628904    2.116981    0.484633
  H      0.694489   -0.181181   -1.048305
  H      0.281950   -0.127565    1.708620
  H     -1.979387    0.059232    0.410988
  H     -2.920494   -0.782437   -1.725646
  H     -1.433368   -2.431762   -3.088879
  H     -0.106362   -1.338541   -2.674699
  H     -1.164637   -3.790446   -1.227294
  H      1.311500   -2.248775   -0.271403
  H      0.772725   -3.841106    0.245014
  H      1.343566   -3.615216   -1.410972
  H     -2.233589   -2.358949    0.589154

 Total Charge           Charge          ....    0
 Multiplicity           Mult            ....    1
 Number of Electrons    NEL             ....   70
 Basis Dimension        Dim             ....  363

ORBITAL ENERGIES
----------------

  NO   OCC          E(Eh)            E(eV)
   0   2.0000     -20.546982      -559.1118
   1   2.0000     -11.276362      -306.8454
   2   2.0000     -11.232765      -305.6591
   3   2.0000     -11.231967      -305.6374
   4   2.0000     -11.229759      -305.5773
   5   2.0000     -11.228627      -305.5465
   6   2.0000     -11.222484      -305.3793
   7   2.0000     -11.212671      -305.1123
   8   2.0000     -11.200426      -304.7791
   9   2.0000      -1.352698       -36.8088
  10   2.0000      -1.187421       -32.3114
  11   2.0000      -1.034617       -28.1534
  12   2.0000      -0.997002       -27.1298
  13   2.0000      -0.937773       -25.5181
  14   2.0000      -0.868292       -23.6274
  15   2.0000      -0.839128       -22.8338
  16   2.0000      -0.770279       -20.9603
  17   2.0000      -0.720611       -19.6088
  18   2.0000      -0.693380       -18.8678
  19   2.0000      -0.652655       -17.7596
  20   2.0000      -0.627600       -17.0779
  21   2.0000      -0.597448       -16.2574
  22   2.0000      -0.586918       -15.9709
  23   2.0000      -0.565893       -15.3987
  24   2.0000      -0.559857       -15.2345
  25   2.0000      -0.551498       -15.0070
  26   2.0000      -0.523086       -14.2339
  27   2.0000      -0.522388       -14.2149
  28   2.0000      -0.496170       -13.5015
  29   2.0000      -0.475643       -12.9429
  30   2.0000      -0.453472       -12.3396
  31   2.0000      -0.446236       -12.1427
  32   2.0000      -0.434978       -11.8364
  33   2.0000      -0.401238       -10.9182
  34   2.0000      -0.370010       -10.0685
  35   0.0000       0.132659         3.6098
  36   0.0000       0.149475         4.0674
  37   0.0000       0.157713         4.2916
  38   0.0000       0.160194         4.3591
  39   0.0000       0.190359         5.1799

MULLIKEN ATOMIC CHARGES
-----------------------
   0 C :   -0.376157
   1 C :    0.122523
   2 O :   -0.481671
   3 C :   -0.216854
   4 C :   -0.137131
   5 C :   -0.264494
   6 C :   -0.042892
   7 C :   -0.426428
   8 C :   -0.074377
   9 H :    0.142289
  10 H :    0.129938
  11 H :    0.109498
  12 H :    0.087580
  13 H :    0.312632
  14 H :    0.116459
  15 H :    0.128911
  16 H :    0.123863
  17 H :    0.116237
  18 H :    0.096912
  19 H :    0.164429
  20 H :    0.120940
  21 H :    0.122327
  22 H :    0.125467
Sum of atomic charges:    0.0000000

LOEWDIN ATOMIC CHARGES
----------------------
   0 C :   -0.297185
   1 C :   -0.354442
   2 O :   -0.026312
   3 C :   -0.194417
   4 C :   -0.159929
   5 C :   -0.196423
   6 C :   -0.230992
   7 C :   -0.301013
   8 C :   -0.145014
   9 H :    0.125291
  10 H :    0.126988
  11 H :    0.120388
  12 H :    0.143934
  13 H :    0.173389
  14 H :    0.161048
  15 H :    0.133070
  16 H :    0.133419
  17 H :    0.126248
  18 H :    0.152894
  19 H :    0.128722
  20 H :    0.124320
  21 H :    0.121953
  22 H :    0.134063

  Mayer bond orders larger than 0.1
B(  0-C ,  1-C ) :   0.9184 B(  0-C ,  9-H ) :   0.9432 B(  0-C , 10-H ) :   0.9358
B(  0-C , 11-H ) :   0.9275 B(  1-C ,  2-O ) :   0.8859 B(  1-C ,  3-C ) :   0.9426
B(  1-C , 12-H ) :   0.9298 B(  2-O , 13-H ) :   0.8442 B(  3-C ,  4-C ) :   0.9045
B(  3-C ,  8-C ) :   0.8527 B(  3-C , 14-H ) :   0.9172 B(  4-C ,  5-C ) :   0.9289
B(  4-C ,  8-C ) :   0.8332 B(  4-C , 15-H ) :   0.9214 B(  5-C ,  6-C ) :   0.9555
B(  5-C , 16-H ) :   0.9264 B(  5-C , 17-H ) :   0.9236 B(  6-C ,  7-C ) :   0.9210
B(  6-C ,  8-C ) :   0.9260 B(  6-C , 18-H ) :   0.9300 B(  7-C , 19-H ) :   0.9247
B(  7-C , 20-H ) :   0.9379 B(  7-C , 21-H ) :   0.9341 B(  8-C , 22-H ) :   0.9231

MP2 TOTAL ENERGY:     -387.586123167 Eh
FINAL SINGLE POINT ENERGY      -387.586123166644

DIPOLE MOMENT
-------------
                                X             Y             Z
Electronic contribution:     -1.46080      -0.17171       1.72158
Nuclear contribution   :      0.77137       0.20818      -1.77314
                        -----------------------------------------
Total Dipole Moment    :     -0.68943       0.03648      -0.05156
                        -----------------------------------------
Magnitude (a.u.)       :      0.69231
Magnitude (Debye)      :      1.75972

                             ****ORCA TERMINATED NORMALLY****
TOTAL RUN TIME: 0 days 0 hours 23 minutes 12 seconds 552 msec
