                         Program Version 3.0.3 - RELEASE   -
|  1> ! RI-MP2 RIJK def2-TZVP def2-TZVP/C def2-TZVP/JK TIGHTSCF
|  2> % maxcore 2000
|  3> % mp2 density relaxed end
|  4> *xyz 0 1
|  5>  C       -0.0032230492     1.7948905602     0.1113902347
|  6>  C       -0.0464779769     0.2841360439    -0.0664713706
|  7>  O        0.6112410908    -0.0403337384    -1.2880950508
|  8>  C        0.0113609594    -0.8988787017    -2.1458290588
|  9>  N        0.5698794587    -1.1762768503    -3.2397836352
| 10>  C        0.6789111740    -0.4622490250     1.0845800075
| 11>  N        0.1032979434    -0.1031411505     2.3803187581
| 12>  C        0.6590217021    -1.9196204414     0.8340695922
| 13>  N        0.5861566347    -3.0648225700     0.6913336056
| 14>  H        1.0322934615     2.1469503982     0.0837008002
| 15>  H       -0.5500659753     2.2781118074    -0.7019123793
| 16>  H       -0.4441069886     2.0786981242     1.0677447179
| 17>  H       -1.0889757528    -0.0637771227    -0.1021009388
| 18>  H       -0.9518141788    -1.2789526789    -1.7811323654
| 19>  H       -0.0036856063    -1.8307202507    -3.7673127854
| 20>  H        1.7234802818    -0.1326656614     1.0683784365
| 21>  H       -0.8101982336    -0.5355566170     2.4888565942
| 22>  H        0.6825058551    -0.4657870960     3.1308579674
| 23> *
| 24>
| 25>                          ****END OF INPUT****

CARTESIAN COORDINATES (ANGSTROEM)
---------------------------------
  C     -0.003223    1.794891    0.111390
  C     -0.046478    0.284136   -0.066471
  O      0.611241   -0.040334   -1.288095
  C      0.011361   -0.898879   -2.145829
  N      0.569879   -1.176277   -3.239784
  C      0.678911   -0.462249    1.084580
  N      0.103298   -0.103141    2.380319
  C      0.659022   -1.919620    0.834070
  N      0.586157   -3.064823    0.691334
  H      1.032293    2.146950    0.083701
  H     -0.550066    2.278112   -0.701912
  H     -0.444107    2.078698    1.067745
  H     -1.088976   -0.063777   -0.102101
  H     -0.951814   -1.278953   -1.781132
  H     -0.003686   -1.830720   -3.767313
  H      1.723480   -0.132666    1.068378
  H     -0.810198   -0.535557    2.488857
  H      0.682506   -0.465787    3.130858

 Total Charge           Charge          ....    0
 Multiplicity           Mult            ....    1
 Number of Electrons    NEL             ....   68
 Basis Dimension        Dim             ....  333

ORBITAL ENERGIES
----------------

  NO   OCC          E(Eh)            E(eV)
   0   2.0000     -20.602466      -560.6216
   1   2.0000     -15.586016      -424.1171
   2   2.0000     -15.582858      -424.0311
   3   2.0000     -15.542305      -422.9276
   4   2.0000     -11.343156      -308.6630
   5   2.0000     -11.327446      -308.2355
   6   2.0000     -11.326675      -308.2145
   7   2.0000     -11.281153      -306.9758
   8   2.0000     -11.234828      -305.7152
   9   2.0000      -1.440102       -39.1872
  10   2.0000      -1.250136       -34.0179
  11   2.0000      -1.215383       -33.0722
  12   2.0000      -1.202801       -32.7299
  13   2.0000      -1.065101       -28.9829
  14   2.0000      -0.978169       -26.6173
  15   2.0000      -0.869064       -23.6484
  16   2.0000      -0.836825       -22.7712
  17   2.0000      -0.747615       -20.3436
  18   2.0000      -0.737581       -20.0706
  19   2.0000      -0.688820       -18.7437
  20   2.0000      -0.679011       -18.4768
  21   2.0000      -0.659144       -17.9362
  22   2.0000      -0.607783       -16.5386
  23   2.0000      -0.587952       -15.9990
  24   2.0000      -0.573517       -15.6062
  25   2.0000      -0.567323       -15.4376
  26   2.0000      -0.554393       -15.0858
  27   2.0000      -0.534485       -14.5441
  28   2.0000      -0.515090       -14.0163
  29   2.0000      -0.486818       -13.2470
  30   2.0000      -0.470204       -12.7949
  31   2.0000      -0.443564       -12.0700
  32   2.0000      -0.440518       -11.9871
  33   2.0000      -0.404958       -11.0195
  34   0.0000       0.108473         2.9517
  35   0.0000       0.133912         3.6439
  36   0.0000       0.146271         3.9802
  37   0.0000       0.154866         4.2141
  38   0.0000       0.161255         4.3880

MULLIKEN ATOMIC CHARGES
-----------------------
   0 C :   -0.358885
   1 C :    0.036000
   2 O :   -0.216641
   3 C :    0.066547
   4 N :   -0.339623
   5 C :    0.135055
   6 N :   -0.528648
   7 C :   -0.221330
   8 N :   -0.054255
   9 H :    0.134437
  10 H :    0.144662
  11 H :    0.152300
  12 H :    0.096967
  13 H :    0.090163
  14 H :    0.229010
  15 H :    0.145290
  16 H :    0.240791
  17 H :    0.248161
Sum of atomic charges:   -0.0000000

LOEWDIN ATOMIC CHARGES
----------------------
   0 C :   -0.281452
   1 C :   -0.307444
   2 O :    0.273360
   3 C :   -0.395668
   4 N :   -0.073688
   5 C :   -0.303867
   6 N :   -0.116091
   7 C :   -0.183087
   8 N :    0.065954
   9 H :    0.132500
  10 H :    0.130397
  11 H :    0.133321
  12 H :    0.142588
  13 H :    0.108673
  14 H :    0.170704
  15 H :    0.175694
  16 H :    0.163368
  17 H :    0.164737

  Mayer bond orders larger than 0.1
B(  0-C ,  1-C ) :   0.9424 B(  0-C ,  9-H ) :   0.9269 B(  0-C , 10-H ) :   0.9325
B(  0-C , 11-H ) :   0.9281 B(  1-C ,  2-O ) :   0.8753 B(  1-C ,  5-C ) :   0.9199
B(  1-C , 12-H ) :   0.9229 B(  2-O ,  3-C ) :   1.0316 B(  3-C ,  4-N ) :   1.9657
B(  3-C , 13-H ) :   0.9233 B(  4-N , 14-H ) :   0.8481 B(  5-C ,  6-N ) :   0.9414
B(  5-C ,  7-C ) :   0.9084 B(  5-C , 15-H ) :   0.8989 B(  6-N , 16-H ) :   0.8851
B(  6-N , 17-H ) :   0.8912 B(  7-C ,  8-N ) :   2.8609

MP2 TOTAL ENERGY:     -434.550364925 Eh
FINAL SINGLE POINT ENERGY      -434.550364924626

DIPOLE MOMENT
-------------
                                X             Y             Z
Electronic contribution:      2.15320      -6.15606      -1.87854
Nuclear contribution   :     -3.20964       6.94943       2.95177
                        -----------------------------------------
Total Dipole Moment    :     -1.05644       0.79337       1.07323
                        -----------------------------------------
Magnitude (a.u.)       :      1.70215
Magnitude (Debye)      :      4.32651

                             ****ORCA TERMINATED NORMALLY****
TOTAL RUN TIME: 0 days 0 hours 17 minutes 18 seconds 885 msec
