                         Program Version 3.0.3 - RELEASE   -
|  1> ! RI-MP2 RIJK def2-TZVP def2-TZVP/C def2-TZVP/JK TIGHTSCF
|  2> % maxcore 2000
|  3> % mp2 density relaxed end
|  4> *xyz 0 1
|  5>  O        0.0867976168     1.2801079070     0.1387277188
|  6>  C       -0.0094220086    -0.1132762096     0.0339436828
|  7>  C       -0.5131029326    -0.8258097826     1.2576780257
|  8>  C       -1.3689121732    -0.7551274104     0.0253157663
|  9>  C       -2.7562792758    -0.0907175349    -0.0840607245
| 10>  C       -3.2411015780    -1.3210076236    -0.8706279631
| 11>  C       -2.3881092869    -1.5208337830    -2.1070984518
| 12>  C       -1.8578680729    -1.9546429726    -0.7690009513
| 13>  O       -1.5325333914    -3.2658670105    -0.4703571154
| 14>  H       -0.1597718076     1.6587966807    -0.7115619167
| 15>  H        0.7888186340    -0.5890106022    -0.5393289411
| 16>  H       -0.0771148553    -1.7861028455     1.5127015044
| 17>  H       -0.7883005499    -0.2002700328     2.1006495032
| 18>  H       -3.2465520797     0.0269900337     0.8851825707
| 19>  H       -2.8011474205     0.8636906958    -0.6204248756
| 20>  H       -4.2136952346    -1.7868001611    -0.7778006964
| 21>  H       -2.7137464400    -2.3378444860    -2.7442444202
| 22>  H       -1.9638330977    -0.6706450939    -2.6383286211
| 23>  H       -0.8548424662    -3.5599473084    -1.0880537746
| 24> *
| 25>
| 26>                          ****END OF INPUT****

CARTESIAN COORDINATES (ANGSTROEM)
---------------------------------
  O      0.086798    1.280108    0.138728
  C     -0.009422   -0.113276    0.033944
  C     -0.513103   -0.825810    1.257678
  C     -1.368912   -0.755127    0.025316
  C     -2.756279   -0.090718   -0.084061
  C     -3.241102   -1.321008   -0.870628
  C     -2.388109   -1.520834   -2.107098
  C     -1.857868   -1.954643   -0.769001
  O     -1.532533   -3.265867   -0.470357
  H     -0.159772    1.658797   -0.711562
  H      0.788819   -0.589011   -0.539329
  H     -0.077115   -1.786103    1.512702
  H     -0.788301   -0.200270    2.100650
  H     -3.246552    0.026990    0.885183
  H     -2.801147    0.863691   -0.620425
  H     -4.213695   -1.786800   -0.777801
  H     -2.713746   -2.337844   -2.744244
  H     -1.963833   -0.670645   -2.638329
  H     -0.854842   -3.559947   -1.088054

 Total Charge           Charge          ....    0
 Multiplicity           Mult            ....    1
 Number of Electrons    NEL             ....   68
 Basis Dimension        Dim             ....  339

ORBITAL ENERGIES
----------------

  NO   OCC          E(Eh)            E(eV)
   0   2.0000     -20.571510      -559.7793
   1   2.0000     -20.561993      -559.5203
   2   2.0000     -11.291391      -307.2544
   3   2.0000     -11.278481      -306.9031
   4   2.0000     -11.236691      -305.7659
   5   2.0000     -11.234383      -305.7031
   6   2.0000     -11.232676      -305.6567
   7   2.0000     -11.230926      -305.6090
   8   2.0000     -11.219955      -305.3105
   9   2.0000      -1.382757       -37.6267
  10   2.0000      -1.369437       -37.2643
  11   2.0000      -1.192723       -32.4557
  12   2.0000      -1.107474       -30.1359
  13   2.0000      -0.960549       -26.1379
  14   2.0000      -0.854202       -23.2440
  15   2.0000      -0.817337       -22.2409
  16   2.0000      -0.802236       -21.8300
  17   2.0000      -0.740509       -20.1503
  18   2.0000      -0.711389       -19.3579
  19   2.0000      -0.696835       -18.9618
  20   2.0000      -0.655948       -17.8492
  21   2.0000      -0.628969       -17.1151
  22   2.0000      -0.612710       -16.6727
  23   2.0000      -0.595190       -16.1959
  24   2.0000      -0.561293       -15.2736
  25   2.0000      -0.544008       -14.8032
  26   2.0000      -0.530538       -14.4367
  27   2.0000      -0.511386       -13.9155
  28   2.0000      -0.506234       -13.7753
  29   2.0000      -0.469377       -12.7724
  30   2.0000      -0.430919       -11.7259
  31   2.0000      -0.424918       -11.5626
  32   2.0000      -0.384045       -10.4504
  33   2.0000      -0.355534        -9.6746
  34   0.0000       0.127501         3.4695
  35   0.0000       0.135670         3.6918
  36   0.0000       0.162868         4.4319
  37   0.0000       0.175051         4.7634
  38   0.0000       0.192663         5.2426

MULLIKEN ATOMIC CHARGES
-----------------------
   0 O :   -0.458010
   1 C :   -0.016085
   2 C :   -0.260398
   3 C :   -0.043416
   4 C :   -0.188526
   5 C :   -0.137003
   6 C :   -0.300594
   7 C :    0.219967
   8 O :   -0.456074
   9 H :    0.319724
  10 H :    0.099491
  11 H :    0.135335
  12 H :    0.134326
  13 H :    0.122707
  14 H :    0.105297
  15 H :    0.137931
  16 H :    0.135075
  17 H :    0.118579
  18 H :    0.331674
Sum of atomic charges:   -0.0000000

LOEWDIN ATOMIC CHARGES
----------------------
   0 O :   -0.003957
   1 C :   -0.304523
   2 C :   -0.177832
   3 C :   -0.185920
   4 C :   -0.167022
   5 C :   -0.152286
   6 C :   -0.196060
   7 C :   -0.301606
   8 O :    0.035321
   9 H :    0.179052
  10 H :    0.129658
  11 H :    0.139155
  12 H :    0.142361
  13 H :    0.140371
  14 H :    0.128322
  15 H :    0.137884
  16 H :    0.142074
  17 H :    0.129168
  18 H :    0.185840

  Mayer bond orders larger than 0.1
B(  0-O ,  1-C ) :   1.0387 B(  0-O ,  9-H ) :   0.8450 B(  1-C ,  2-C ) :   0.9014
B(  1-C ,  3-C ) :   0.8374 B(  1-C , 10-H ) :   0.9564 B(  2-C ,  3-C ) :   0.8733
B(  2-C , 11-H ) :   0.9112 B(  2-C , 12-H ) :   0.9154 B(  3-C ,  4-C ) :   0.9313
B(  3-C ,  7-C ) :   0.8848 B(  4-C ,  5-C ) :   0.9341 B(  4-C , 13-H ) :   0.9229
B(  4-C , 14-H ) :   0.9133 B(  5-C ,  6-C ) :   0.8779 B(  5-C ,  7-C ) :   0.8603
B(  5-C , 15-H ) :   0.9081 B(  6-C ,  7-C ) :   0.9072 B(  6-C , 16-H ) :   0.9281
B(  6-C , 17-H ) :   0.9031 B(  7-C ,  8-O ) :   1.0566 B(  8-O , 18-H ) :   0.8335

MP2 TOTAL ENERGY:     -422.262060452 Eh
FINAL SINGLE POINT ENERGY      -422.262060451552

DIPOLE MOMENT
-------------
                                X             Y             Z
Electronic contribution:      1.24963      -1.11593       0.45147
Nuclear contribution   :     -1.25629       1.00518      -1.34459
                        -----------------------------------------
Total Dipole Moment    :     -0.00666      -0.11075      -0.89311
                        -----------------------------------------
Magnitude (a.u.)       :      0.89998
Magnitude (Debye)      :      2.28756

                             ****ORCA TERMINATED NORMALLY****
TOTAL RUN TIME: 0 days 0 hours 16 minutes 23 seconds 513 msec
