                         Program Version 3.0.3 - RELEASE   -
|  1> ! RI-MP2 RIJK def2-TZVP def2-TZVP/C def2-TZVP/JK TIGHTSCF
|  2> % maxcore 2000
|  3> % mp2 density relaxed end
|  4> *xyz 0 1
|  5>  O        0.0341438030     1.4562064015     0.0994448380
|  6>  C        0.0591599715     0.0757161355     0.0282561061
|  7>  C       -0.1093638852    -0.6548182025     1.3793323959
|  8>  O       -1.5418293992    -0.2672235854     1.4058808063
|  9>  C       -1.3111487508    -0.7071082698     0.0221727041
| 10>  C       -2.3850293370    -0.6735457696    -0.9306723864
| 11>  N       -3.2060618465    -0.6689710382    -1.7454082833
| 12>  C       -0.5435365023    -1.9390066792     0.6377843018
| 13>  O        0.4215428505    -2.6298760093    -0.0824384707
| 14>  H        0.1716334844     1.8157490261    -0.7822129397
| 15>  H        0.8198566107    -0.3257985492    -0.6466852875
| 16>  H        0.4581852285    -0.5428754597     2.3004287427
| 17>  H       -1.2113605592    -2.5660722350     1.2342306284
| 18>  H        0.0103623618    -3.3909164852    -0.5049523755
| 19> *
| 20>
| 21>                          ****END OF INPUT****

CARTESIAN COORDINATES (ANGSTROEM)
---------------------------------
  O      0.034144    1.456206    0.099445
  C      0.059160    0.075716    0.028256
  C     -0.109364   -0.654818    1.379332
  O     -1.541829   -0.267224    1.405881
  C     -1.311149   -0.707108    0.022173
  C     -2.385029   -0.673546   -0.930672
  N     -3.206062   -0.668971   -1.745408
  C     -0.543537   -1.939007    0.637784
  O      0.421543   -2.629876   -0.082438
  H      0.171633    1.815749   -0.782213
  H      0.819857   -0.325799   -0.646685
  H      0.458185   -0.542875    2.300429
  H     -1.211361   -2.566072    1.234231
  H      0.010362   -3.390916   -0.504952

 Total Charge           Charge          ....    0
 Multiplicity           Mult            ....    1
 Number of Electrons    NEL             ....   66
 Basis Dimension        Dim             ....  309

ORBITAL ENERGIES
----------------

  NO   OCC          E(Eh)            E(eV)
   0   2.0000     -20.602806      -560.6309
   1   2.0000     -20.589338      -560.2644
   2   2.0000     -20.587836      -560.2235
   3   2.0000     -15.593136      -424.3108
   4   2.0000     -11.352209      -308.9093
   5   2.0000     -11.335321      -308.4498
   6   2.0000     -11.329357      -308.2875
   7   2.0000     -11.326559      -308.2113
   8   2.0000     -11.289356      -307.1990
   9   2.0000      -1.451468       -39.4965
  10   2.0000      -1.410219       -38.3740
  11   2.0000      -1.389627       -37.8137
  12   2.0000      -1.234383       -33.5893
  13   2.0000      -1.093288       -29.7499
  14   2.0000      -0.977343       -26.5949
  15   2.0000      -0.938057       -25.5258
  16   2.0000      -0.806742       -21.9526
  17   2.0000      -0.778334       -21.1795
  18   2.0000      -0.755123       -20.5479
  19   2.0000      -0.733472       -19.9588
  20   2.0000      -0.663714       -18.0606
  21   2.0000      -0.642274       -17.4772
  22   2.0000      -0.616111       -16.7652
  23   2.0000      -0.595014       -16.1911
  24   2.0000      -0.580284       -15.7903
  25   2.0000      -0.566749       -15.4220
  26   2.0000      -0.535639       -14.5755
  27   2.0000      -0.517522       -14.0825
  28   2.0000      -0.507672       -13.8145
  29   2.0000      -0.498264       -13.5585
  30   2.0000      -0.462834       -12.5944
  31   2.0000      -0.459310       -12.4984
  32   2.0000      -0.422765       -11.5040
  33   0.0000       0.109501         2.9797
  34   0.0000       0.121513         3.3065
  35   0.0000       0.137036         3.7289
  36   0.0000       0.159744         4.3468
  37   0.0000       0.163401         4.4464

MULLIKEN ATOMIC CHARGES
-----------------------
   0 O :   -0.439195
   1 C :    0.072253
   2 C :   -0.008121
   3 O :   -0.287090
   4 C :    0.175274
   5 C :   -0.216757
   6 N :   -0.017981
   7 C :    0.075838
   8 O :   -0.450234
   9 H :    0.334555
  10 H :    0.130092
  11 H :    0.163888
  12 H :    0.128908
  13 H :    0.338572
Sum of atomic charges:   -0.0000000

LOEWDIN ATOMIC CHARGES
----------------------
   0 O :    0.030631
   1 C :   -0.270235
   2 C :   -0.172926
   3 O :    0.188586
   4 C :   -0.260109
   5 C :   -0.147374
   6 N :    0.091993
   7 C :   -0.269483
   8 O :    0.014053
   9 H :    0.188007
  10 H :    0.140078
  11 H :    0.133447
  12 H :    0.143847
  13 H :    0.189484

  Mayer bond orders larger than 0.1
B(  0-O ,  1-C ) :   1.1664 B(  0-O ,  9-H ) :   0.8340 B(  1-C ,  2-C ) :   0.9362
B(  1-C ,  4-C ) :   0.7973 B(  1-C , 10-H ) :   0.9215 B(  2-C ,  3-O ) :   0.8794
B(  2-C ,  7-C ) :   0.9287 B(  2-C , 11-H ) :   0.8823 B(  3-O ,  4-C ) :   0.9165
B(  4-C ,  5-C ) :   0.8657 B(  4-C ,  7-C ) :   0.8208 B(  5-C ,  6-N ) :   2.8679
B(  7-C ,  8-O ) :   1.0991 B(  7-C , 12-H ) :   0.9386 B(  8-O , 13-H ) :   0.8312

MP2 TOTAL ENERGY:     -473.004529563 Eh
FINAL SINGLE POINT ENERGY      -473.004529562994

DIPOLE MOMENT
-------------
                                X             Y             Z
Electronic contribution:     -3.14126       0.82354      -1.05880
Nuclear contribution   :      4.43534      -1.58077       1.00654
                        -----------------------------------------
Total Dipole Moment    :      1.29408      -0.75722      -0.05226
                        -----------------------------------------
Magnitude (a.u.)       :      1.50026
Magnitude (Debye)      :      3.81335

                             ****ORCA TERMINATED NORMALLY****
TOTAL RUN TIME: 0 days 0 hours 13 minutes 42 seconds 801 msec
