                         Program Version 3.0.3 - RELEASE   -
|  1> ! RI-MP2 RIJK def2-TZVP def2-TZVP/C def2-TZVP/JK TIGHTSCF
|  2> % maxcore 2000
|  3> % mp2 density relaxed end
|  4> *xyz 0 1
|  5>  C       -0.4322153445     1.3005222339     0.0203166989
|  6>  C        0.0970545994    -0.1446938687    -0.0944080792
|  7>  C        0.9399339054    -0.2962013424    -1.2824381107
|  8>  C        1.6353954217    -0.3948660536    -2.2584727153
|  9>  C        0.8341679614    -0.6017581817     1.1741918844
| 10>  C        2.1496222311     0.0915012781     1.4722961782
| 11>  C       -0.0326033632    -1.0051258842     2.3566227815
| 12>  C        0.7129310484    -2.0511957471     1.5607266820
| 13>  O       -0.0001411183    -2.8965365108     0.7044238387
| 14>  H        0.3869194100     2.0192822454     0.1071844618
| 15>  H       -1.0138894434     1.5644492752    -0.8667351240
| 16>  H       -1.0740305259     1.3987977508     0.9009050024
| 17>  H       -0.7608341363    -0.8142834324    -0.2189829663
| 18>  H        2.2407567039    -0.5001529132    -3.1242646453
| 19>  H        2.0017380943     1.1561042764     1.6840147543
| 20>  H        2.6339203278    -0.3508071507     2.3483409504
| 21>  H        2.8355351770     0.0062703468     0.6239603070
| 22>  H        0.3035123353    -0.7603972423     3.3590089892
| 23>  H       -1.1092209036    -0.9749592680     2.2192404179
| 24>  H        1.5891124101    -2.5102624053     2.0196871752
| 25>  H       -0.5139062406    -3.5036478064     1.2468899888
| 26> *
| 27>
| 28>                          ****END OF INPUT****

CARTESIAN COORDINATES (ANGSTROEM)
---------------------------------
  C     -0.432215    1.300522    0.020317
  C      0.097055   -0.144694   -0.094408
  C      0.939934   -0.296201   -1.282438
  C      1.635395   -0.394866   -2.258473
  C      0.834168   -0.601758    1.174192
  C      2.149622    0.091501    1.472296
  C     -0.032603   -1.005126    2.356623
  C      0.712931   -2.051196    1.560727
  O     -0.000141   -2.896537    0.704424
  H      0.386919    2.019282    0.107184
  H     -1.013889    1.564449   -0.866735
  H     -1.074031    1.398798    0.900905
  H     -0.760834   -0.814283   -0.218983
  H      2.240757   -0.500153   -3.124265
  H      2.001738    1.156104    1.684015
  H      2.633920   -0.350807    2.348341
  H      2.835535    0.006270    0.623960
  H      0.303512   -0.760397    3.359009
  H     -1.109221   -0.974959    2.219240
  H      1.589112   -2.510262    2.019687
  H     -0.513906   -3.503648    1.246890

 Total Charge           Charge          ....    0
 Multiplicity           Mult            ....    1
 Number of Electrons    NEL             ....   68
 Basis Dimension        Dim             ....  351

ORBITAL ENERGIES
----------------

  NO   OCC          E(Eh)            E(eV)
   0   2.0000     -20.563736      -559.5677
   1   2.0000     -11.282561      -307.0141
   2   2.0000     -11.251666      -306.1734
   3   2.0000     -11.243216      -305.9435
   4   2.0000     -11.226214      -305.4808
   5   2.0000     -11.222516      -305.3802
   6   2.0000     -11.218527      -305.2716
   7   2.0000     -11.215914      -305.2005
   8   2.0000     -11.209671      -305.0307
   9   2.0000      -1.373555       -37.3763
  10   2.0000      -1.156324       -31.4652
  11   2.0000      -1.064590       -28.9690
  12   2.0000      -0.986779       -26.8516
  13   2.0000      -0.959133       -26.0993
  14   2.0000      -0.879599       -23.9351
  15   2.0000      -0.829100       -22.5609
  16   2.0000      -0.759172       -20.6581
  17   2.0000      -0.711627       -19.3643
  18   2.0000      -0.693579       -18.8733
  19   2.0000      -0.658996       -17.9322
  20   2.0000      -0.634582       -17.2679
  21   2.0000      -0.629124       -17.1193
  22   2.0000      -0.582640       -15.8544
  23   2.0000      -0.555970       -15.1287
  24   2.0000      -0.542950       -14.7744
  25   2.0000      -0.540606       -14.7106
  26   2.0000      -0.538731       -14.6596
  27   2.0000      -0.515807       -14.0358
  28   2.0000      -0.501164       -13.6374
  29   2.0000      -0.478388       -13.0176
  30   2.0000      -0.404224       -10.9995
  31   2.0000      -0.397841       -10.8258
  32   2.0000      -0.375045       -10.2055
  33   2.0000      -0.373410       -10.1610
  34   0.0000       0.134934         3.6717
  35   0.0000       0.145897         3.9701
  36   0.0000       0.159952         4.3525
  37   0.0000       0.167403         4.5553
  38   0.0000       0.179596         4.8871

MULLIKEN ATOMIC CHARGES
-----------------------
   0 C :   -0.402764
   1 C :   -0.041691
   2 C :   -0.075999
   3 C :   -0.175487
   4 C :    0.111774
   5 C :   -0.440394
   6 C :   -0.304938
   7 C :   -0.026041
   8 O :   -0.467040
   9 H :    0.131933
  10 H :    0.142196
  11 H :    0.133314
  12 H :    0.118063
  13 H :    0.184665
  14 H :    0.136267
  15 H :    0.126187
  16 H :    0.157407
  17 H :    0.129223
  18 H :    0.133984
  19 H :    0.105285
  20 H :    0.324055
Sum of atomic charges:    0.0000000

LOEWDIN ATOMIC CHARGES
----------------------
   0 C :   -0.264847
   1 C :   -0.225179
   2 C :   -0.077065
   3 C :   -0.105748
   4 C :   -0.228283
   5 C :   -0.257409
   6 C :   -0.201930
   7 C :   -0.298480
   8 O :    0.001137
   9 H :    0.125740
  10 H :    0.127690
  11 H :    0.124762
  12 H :    0.178574
  13 H :    0.125037
  14 H :    0.127195
  15 H :    0.128053
  16 H :    0.135563
  17 H :    0.133482
  18 H :    0.138495
  19 H :    0.132610
  20 H :    0.180602

  Mayer bond orders larger than 0.1
B(  0-C ,  1-C ) :   0.9063 B(  0-C ,  9-H ) :   0.9311 B(  0-C , 10-H ) :   0.9401
B(  0-C , 11-H ) :   0.9367 B(  1-C ,  2-C ) :   1.1637 B(  1-C ,  4-C ) :   0.8761
B(  1-C , 12-H ) :   0.9109 B(  2-C ,  3-C ) :   2.5877 B(  3-C , 13-H ) :   0.8978
B(  4-C ,  5-C ) :   0.9113 B(  4-C ,  6-C ) :   0.8503 B(  4-C ,  7-C ) :   0.8439
B(  5-C , 14-H ) :   0.9401 B(  5-C , 15-H ) :   0.9274 B(  5-C , 16-H ) :   0.9363
B(  6-C ,  7-C ) :   0.8989 B(  6-C , 17-H ) :   0.9188 B(  6-C , 18-H ) :   0.9194
B(  7-C ,  8-O ) :   1.0446 B(  7-C , 19-H ) :   0.9601 B(  8-O , 20-H ) :   0.8398

MP2 TOTAL ENERGY:     -386.362471839 Eh
FINAL SINGLE POINT ENERGY      -386.362471839166

DIPOLE MOMENT
-------------
                                X             Y             Z
Electronic contribution:     -0.11690      -4.84727      -3.73826
Nuclear contribution   :     -0.07068       4.77758       4.49230
                        -----------------------------------------
Total Dipole Moment    :     -0.18758      -0.06969       0.75403
                        -----------------------------------------
Magnitude (a.u.)       :      0.78014
Magnitude (Debye)      :      1.98295

                             ****ORCA TERMINATED NORMALLY****
TOTAL RUN TIME: 0 days 0 hours 22 minutes 42 seconds 345 msec
