                         Program Version 3.0.3 - RELEASE   -
|  1> ! RI-MP2 RIJK def2-TZVP def2-TZVP/C def2-TZVP/JK TIGHTSCF
|  2> % maxcore 2000
|  3> % mp2 density relaxed end
|  4> *xyz 0 1
|  5>  C        0.0070853572     1.5653154061     0.0106310272
|  6>  C        0.0081175950     0.0348662431     0.0024825059
|  7>  C       -1.4133461662    -0.5406171266     0.0121733054
|  8>  N       -1.4417894493    -1.9973864461     0.0047906219
|  9>  C       -1.4278625587    -2.8364453526    -1.0739953095
| 10>  N       -1.4010682201    -4.0894343286    -0.6969807057
| 11>  N       -1.3919306851    -4.0966012265     0.6842182526
| 12>  C       -1.4136521297    -2.8475987620     1.0745268543
| 13>  H        1.0279994497     1.9562215230     0.0031787571
| 14>  H       -0.5103428414     1.9686700579    -0.8666712464
| 15>  H       -0.4938494593     1.9593021630     0.9016507256
| 16>  H        0.5356912840    -0.3396532284    -0.8822603037
| 17>  H        0.5514205046    -0.3490788892     0.8735553793
| 18>  H       -1.9572730883    -0.1981517187     0.8985001253
| 19>  H       -1.9731265417    -0.1886943522    -0.8604871891
| 20>  H       -1.4463988365    -2.4812008736    -2.0931675613
| 21>  H       -1.4186592441    -2.5029113186     2.0974757610
| 22> *
| 23>
| 24>                          ****END OF INPUT****

CARTESIAN COORDINATES (ANGSTROEM)
---------------------------------
  C      0.007085    1.565315    0.010631
  C      0.008118    0.034866    0.002483
  C     -1.413346   -0.540617    0.012173
  N     -1.441789   -1.997386    0.004791
  C     -1.427863   -2.836445   -1.073995
  N     -1.401068   -4.089434   -0.696981
  N     -1.391931   -4.096601    0.684218
  C     -1.413652   -2.847599    1.074527
  H      1.027999    1.956222    0.003179
  H     -0.510343    1.968670   -0.866671
  H     -0.493849    1.959302    0.901651
  H      0.535691   -0.339653   -0.882260
  H      0.551421   -0.349079    0.873555
  H     -1.957273   -0.198152    0.898500
  H     -1.973127   -0.188694   -0.860487
  H     -1.446399   -2.481201   -2.093168
  H     -1.418659   -2.502911    2.097476

 Total Charge           Charge          ....    0
 Multiplicity           Mult            ....    1
 Number of Electrons    NEL             ....   60
 Basis Dimension        Dim             ....  302

ORBITAL ENERGIES
----------------

  NO   OCC          E(Eh)            E(eV)
   0   2.0000     -15.631561      -425.3564
   1   2.0000     -15.574227      -423.7963
   2   2.0000     -15.573573      -423.7785
   3   2.0000     -11.299570      -307.4769
   4   2.0000     -11.297843      -307.4299
   5   2.0000     -11.297803      -307.4288
   6   2.0000     -11.250341      -306.1373
   7   2.0000     -11.238608      -305.8181
   8   2.0000      -1.392344       -37.8876
   9   2.0000      -1.232624       -33.5414
  10   2.0000      -1.086720       -29.5712
  11   2.0000      -1.080394       -29.3990
  12   2.0000      -0.967614       -26.3301
  13   2.0000      -0.852441       -23.1961
  14   2.0000      -0.845254       -23.0005
  15   2.0000      -0.807098       -21.9622
  16   2.0000      -0.728588       -19.8259
  17   2.0000      -0.665298       -18.1037
  18   2.0000      -0.646451       -17.5908
  19   2.0000      -0.631254       -17.1773
  20   2.0000      -0.616472       -16.7751
  21   2.0000      -0.585747       -15.9390
  22   2.0000      -0.566498       -15.4152
  23   2.0000      -0.538266       -14.6470
  24   2.0000      -0.518199       -14.1009
  25   2.0000      -0.505276       -13.7492
  26   2.0000      -0.473237       -12.8774
  27   2.0000      -0.424301       -11.5458
  28   2.0000      -0.404381       -11.0038
  29   2.0000      -0.359348        -9.7784
  30   0.0000       0.113483         3.0880
  31   0.0000       0.137172         3.7326
  32   0.0000       0.148759         4.0479
  33   0.0000       0.152596         4.1524
  34   0.0000       0.178494         4.8571

MULLIKEN ATOMIC CHARGES
-----------------------
   0 C :   -0.394575
   1 C :   -0.181311
   2 C :   -0.242113
   3 N :   -0.027898
   4 C :   -0.020384
   5 N :   -0.184017
   6 N :   -0.184071
   7 C :   -0.020364
   8 H :    0.146799
   9 H :    0.129269
  10 H :    0.129291
  11 H :    0.124920
  12 H :    0.124964
  13 H :    0.147852
  14 H :    0.147919
  15 H :    0.151862
  16 H :    0.151857
Sum of atomic charges:    0.0000000

LOEWDIN ATOMIC CHARGES
----------------------
   0 C :   -0.314420
   1 C :   -0.289906
   2 C :   -0.241366
   3 N :    0.233779
   4 C :   -0.317578
   5 N :    0.016922
   6 N :    0.016909
   7 C :   -0.317600
   8 H :    0.127043
   9 H :    0.123178
  10 H :    0.123177
  11 H :    0.139941
  12 H :    0.139957
  13 H :    0.144351
  14 H :    0.144334
  15 H :    0.135641
  16 H :    0.135638

  Mayer bond orders larger than 0.1
B(  0-C ,  1-C ) :   0.9193 B(  0-C ,  8-H ) :   0.9382 B(  0-C ,  9-H ) :   0.9360
B(  0-C , 10-H ) :   0.9360 B(  1-C ,  2-C ) :   0.9124 B(  1-C , 11-H ) :   0.9288
B(  1-C , 12-H ) :   0.9287 B(  2-C ,  3-N ) :   0.8681 B(  2-C , 13-H ) :   0.9313
B(  2-C , 14-H ) :   0.9313 B(  3-N ,  4-C ) :   1.1381 B(  3-N ,  7-C ) :   1.1381
B(  4-C ,  5-N ) :   1.6195 B(  4-C , 15-H ) :   0.9231 B(  5-N ,  6-N ) :   1.0704
B(  6-N ,  7-C ) :   1.6194 B(  7-C , 16-H ) :   0.9231

MP2 TOTAL ENERGY:     -359.439939048 Eh
FINAL SINGLE POINT ENERGY      -359.439939047771

DIPOLE MOMENT
-------------
                                X             Y             Z
Electronic contribution:     -3.35452     -12.27792      -0.03422
Nuclear contribution   :      3.47066      14.87764       0.04668
                        -----------------------------------------
Total Dipole Moment    :      0.11613       2.59973       0.01246
                        -----------------------------------------
Magnitude (a.u.)       :      2.60235
Magnitude (Debye)      :      6.61464

                             ****ORCA TERMINATED NORMALLY****
TOTAL RUN TIME: 0 days 0 hours 11 minutes 20 seconds 177 msec
