                         Program Version 3.0.3 - RELEASE   -
|  1> ! RI-MP2 RIJK def2-TZVP def2-TZVP/C def2-TZVP/JK TIGHTSCF
|  2> % maxcore 2000
|  3> % mp2 density relaxed end
|  4> *xyz 0 1
|  5>  C        0.0339245117     1.5655474063    -0.0281203857
|  6>  C        0.0177972132     0.0412539621    -0.0379230305
|  7>  C       -1.3890363015    -0.5156973528     0.1566446140
|  8>  O       -1.8394360273    -0.1255387328     1.4503119393
|  9>  C        0.7657177589    -0.6957282191    -1.1591371421
| 10>  C        2.2247185212    -0.7779591132    -0.6665633405
| 11>  O        2.3169097823    -0.0917681681     0.5807923908
| 12>  C        1.0327097878    -0.6953778965     0.9037840779
| 13>  C        1.2402466811    -1.7923148998    -0.2085080985
| 14>  H        1.0600536577     1.9364741456    -0.0185498849
| 15>  H       -0.4698862779     1.9588984914    -0.9191958121
| 16>  H       -0.4922006807     1.9480369190     0.8508039595
| 17>  H       -2.0532916290    -0.1192628294    -0.6277769930
| 18>  H       -1.3770286002    -1.6117793209     0.0581994396
| 19>  H       -2.7568136134    -0.3964700990     1.5452887605
| 20>  H        0.5010021236    -0.7819574648    -2.2065610410
| 21>  H        3.0945223535    -0.8317137454    -1.3075824211
| 22>  H        0.8542062976    -0.8166515210     1.9688872492
| 23>  H        1.2021186915    -2.8717871116    -0.2381211215
| 24> *
| 25>
| 26>                          ****END OF INPUT****

CARTESIAN COORDINATES (ANGSTROEM)
---------------------------------
  C      0.033925    1.565547   -0.028120
  C      0.017797    0.041254   -0.037923
  C     -1.389036   -0.515697    0.156645
  O     -1.839436   -0.125539    1.450312
  C      0.765718   -0.695728   -1.159137
  C      2.224719   -0.777959   -0.666563
  O      2.316910   -0.091768    0.580792
  C      1.032710   -0.695378    0.903784
  C      1.240247   -1.792315   -0.208508
  H      1.060054    1.936474   -0.018550
  H     -0.469886    1.958898   -0.919196
  H     -0.492201    1.948037    0.850804
  H     -2.053292   -0.119263   -0.627777
  H     -1.377029   -1.611779    0.058199
  H     -2.756814   -0.396470    1.545289
  H      0.501002   -0.781957   -2.206561
  H      3.094522   -0.831714   -1.307582
  H      0.854206   -0.816652    1.968887
  H      1.202119   -2.871787   -0.238121

 Total Charge           Charge          ....    0
 Multiplicity           Mult            ....    1
 Number of Electrons    NEL             ....   68
 Basis Dimension        Dim             ....  339

ORBITAL ENERGIES
----------------

  NO   OCC          E(Eh)            E(eV)
   0   2.0000     -20.558830      -559.4342
   1   2.0000     -20.549563      -559.1820
   2   2.0000     -11.289799      -307.2110
   3   2.0000     -11.289495      -307.2028
   4   2.0000     -11.278313      -306.8985
   5   2.0000     -11.240440      -305.8679
   6   2.0000     -11.239688      -305.8475
   7   2.0000     -11.238409      -305.8126
   8   2.0000     -11.198975      -304.7396
   9   2.0000      -1.401450       -38.1354
  10   2.0000      -1.362646       -37.0795
  11   2.0000      -1.155933       -31.4545
  12   2.0000      -1.039013       -28.2730
  13   2.0000      -0.929291       -25.2873
  14   2.0000      -0.911254       -24.7965
  15   2.0000      -0.842139       -22.9158
  16   2.0000      -0.766174       -20.8487
  17   2.0000      -0.725939       -19.7538
  18   2.0000      -0.712756       -19.3951
  19   2.0000      -0.694866       -18.9083
  20   2.0000      -0.652440       -17.7538
  21   2.0000      -0.625854       -17.0303
  22   2.0000      -0.592151       -16.1133
  23   2.0000      -0.577539       -15.7156
  24   2.0000      -0.557735       -15.1767
  25   2.0000      -0.544044       -14.8042
  26   2.0000      -0.533829       -14.5262
  27   2.0000      -0.523635       -14.2488
  28   2.0000      -0.480651       -13.0792
  29   2.0000      -0.453420       -12.3382
  30   2.0000      -0.447735       -12.1835
  31   2.0000      -0.425442       -11.5769
  32   2.0000      -0.391219       -10.6456
  33   2.0000      -0.376032       -10.2324
  34   0.0000       0.130731         3.5574
  35   0.0000       0.159612         4.3433
  36   0.0000       0.163858         4.4588
  37   0.0000       0.175325         4.7708
  38   0.0000       0.186851         5.0845

MULLIKEN ATOMIC CHARGES
-----------------------
   0 C :   -0.467815
   1 C :    0.215818
   2 C :   -0.133477
   3 O :   -0.471639
   4 C :   -0.197244
   5 C :    0.008022
   6 O :   -0.329186
   7 C :    0.089663
   8 C :   -0.243379
   9 H :    0.155903
  10 H :    0.117969
  11 H :    0.149884
  12 H :    0.103963
  13 H :    0.113227
  14 H :    0.315884
  15 H :    0.133421
  16 H :    0.139035
  17 H :    0.145661
  18 H :    0.154287
Sum of atomic charges:   -0.0000000

LOEWDIN ATOMIC CHARGES
----------------------
   0 C :   -0.268015
   1 C :   -0.259563
   2 C :   -0.298906
   3 O :   -0.044163
   4 C :   -0.130126
   5 C :   -0.230608
   6 O :    0.172466
   7 C :   -0.152323
   8 C :   -0.137297
   9 H :    0.132087
  10 H :    0.125355
  11 H :    0.131474
  12 H :    0.121415
  13 H :    0.125552
  14 H :    0.172519
  15 H :    0.138259
  16 H :    0.134317
  17 H :    0.135384
  18 H :    0.132172

  Mayer bond orders larger than 0.1
B(  0-C ,  1-C ) :   0.8860 B(  0-C ,  9-H ) :   0.9368 B(  0-C , 10-H ) :   0.9302
B(  0-C , 11-H ) :   0.9344 B(  1-C ,  2-C ) :   0.9024 B(  1-C ,  3-O ) :  -0.1065
B(  1-C ,  4-C ) :   0.8942 B(  1-C ,  7-C ) :   0.9241 B(  2-C ,  3-O ) :   1.0462
B(  2-C , 12-H ) :   0.9208 B(  2-C , 13-H ) :   0.9214 B(  3-O , 14-H ) :   0.8472
B(  4-C ,  5-C ) :   0.8604 B(  4-C ,  8-C ) :   0.8234 B(  4-C , 15-H ) :   0.9148
B(  5-C ,  6-O ) :   0.9601 B(  5-C ,  8-C ) :   0.9123 B(  5-C , 16-H ) :   0.9238
B(  6-O ,  7-C ) :   0.8777 B(  7-C ,  8-C ) :   0.9315 B(  7-C , 17-H ) :   0.9022
B(  8-C , 18-H ) :   0.9009

MP2 TOTAL ENERGY:     -422.248402452 Eh
FINAL SINGLE POINT ENERGY      -422.248402451722

DIPOLE MOMENT
-------------
                                X             Y             Z
Electronic contribution:      3.62635      -2.17005       1.58121
Nuclear contribution   :     -4.45814       1.45916      -2.23449
                        -----------------------------------------
Total Dipole Moment    :     -0.83178      -0.71089      -0.65328
                        -----------------------------------------
Magnitude (a.u.)       :      1.27436
Magnitude (Debye)      :      3.23917

                             ****ORCA TERMINATED NORMALLY****
TOTAL RUN TIME: 0 days 0 hours 17 minutes 17 seconds 745 msec
