                         Program Version 3.0.3 - RELEASE   -
|  1> ! RI-MP2 RIJK def2-TZVP def2-TZVP/C def2-TZVP/JK TIGHTSCF
|  2> % maxcore 2000
|  3> % mp2 density relaxed end
|  4> *xyz 0 1
|  5>  C       -0.1394316069     1.5823771791    -0.0014319094
|  6>  C        0.0594268334     0.0756025121     0.0370113835
|  7>  C        1.1604181635    -0.5976037158    -0.8457564755
|  8>  O        2.3967559298     0.1540282607    -0.7440071491
|  9>  C        2.7098631475     0.4243780517     0.5478861076
| 10>  N        2.0322295532     0.1000479739     1.5688405537
| 11>  C        0.7709860426    -0.6167945291     1.2585190896
| 12>  C        1.1479310834    -1.6991551293     0.2434969197
| 13>  O        1.2287980569    -2.8910217179     0.2342766158
| 14>  H        0.7819863673     2.1275471140     0.2108109985
| 15>  H       -0.4973059141     1.8944576543    -0.9875926668
| 16>  H       -0.8854895588     1.8851818436     0.7394475065
| 17>  H       -0.8861240350    -0.4421641415    -0.1555202328
| 18>  H        1.0051936780    -0.8240590379    -1.8986279509
| 19>  H        3.6397847704     0.9818599876     0.6236251563
| 20>  H        0.2227921988    -0.8523416156     2.1686308432
| 21> *
| 22>
| 23>                          ****END OF INPUT****

CARTESIAN COORDINATES (ANGSTROEM)
---------------------------------
  C     -0.139432    1.582377   -0.001432
  C      0.059427    0.075603    0.037011
  C      1.160418   -0.597604   -0.845756
  O      2.396756    0.154028   -0.744007
  C      2.709863    0.424378    0.547886
  N      2.032230    0.100048    1.568841
  C      0.770986   -0.616795    1.258519
  C      1.147931   -1.699155    0.243497
  O      1.228798   -2.891022    0.234277
  H      0.781986    2.127547    0.210811
  H     -0.497306    1.894458   -0.987593
  H     -0.885490    1.885182    0.739448
  H     -0.886124   -0.442164   -0.155520
  H      1.005194   -0.824059   -1.898628
  H      3.639785    0.981860    0.623625
  H      0.222792   -0.852342    2.168631

 Total Charge           Charge          ....    0
 Multiplicity           Mult            ....    1
 Number of Electrons    NEL             ....   66
 Basis Dimension        Dim             ....  321

ORBITAL ENERGIES
----------------

  NO   OCC          E(Eh)            E(eV)
   0   2.0000     -20.621546      -561.1408
   1   2.0000     -20.571960      -559.7915
   2   2.0000     -15.570479      -423.6943
   3   2.0000     -11.352473      -308.9165
   4   2.0000     -11.348042      -308.7959
   5   2.0000     -11.323022      -308.1151
   6   2.0000     -11.288474      -307.1750
   7   2.0000     -11.268377      -306.6281
   8   2.0000     -11.237163      -305.7788
   9   2.0000      -1.458000       -39.6742
  10   2.0000      -1.410950       -38.3939
  11   2.0000      -1.244169       -33.8556
  12   2.0000      -1.147173       -31.2162
  13   2.0000      -1.005176       -27.3522
  14   2.0000      -0.927510       -25.2388
  15   2.0000      -0.883887       -24.0518
  16   2.0000      -0.818230       -22.2652
  17   2.0000      -0.750946       -20.4343
  18   2.0000      -0.700164       -19.0524
  19   2.0000      -0.682660       -18.5761
  20   2.0000      -0.670588       -18.2476
  21   2.0000      -0.639274       -17.3955
  22   2.0000      -0.635968       -17.3056
  23   2.0000      -0.609174       -16.5765
  24   2.0000      -0.589259       -16.0345
  25   2.0000      -0.567680       -15.4473
  26   2.0000      -0.539768       -14.6878
  27   2.0000      -0.530452       -14.4343
  28   2.0000      -0.509522       -13.8648
  29   2.0000      -0.489059       -13.3080
  30   2.0000      -0.471470       -12.8293
  31   2.0000      -0.417451       -11.3594
  32   2.0000      -0.374027       -10.1778
  33   0.0000       0.112904         3.0723
  34   0.0000       0.131780         3.5859
  35   0.0000       0.150330         4.0907
  36   0.0000       0.166733         4.5370
  37   0.0000       0.174355         4.7444

MULLIKEN ATOMIC CHARGES
-----------------------
   0 C :   -0.414345
   1 C :   -0.174791
   2 C :    0.108349
   3 O :   -0.263222
   4 C :    0.068603
   5 N :   -0.279354
   6 C :    0.121186
   7 C :    0.056068
   8 O :   -0.228235
   9 H :    0.148254
  10 H :    0.141112
  11 H :    0.144525
  12 H :    0.132364
  13 H :    0.148305
  14 H :    0.149325
  15 H :    0.141857
Sum of atomic charges:    0.0000000

LOEWDIN ATOMIC CHARGES
----------------------
   0 C :   -0.285502
   1 C :   -0.215901
   2 C :   -0.185456
   3 O :    0.245582
   4 C :   -0.352396
   5 N :    0.105073
   6 C :   -0.194283
   7 C :   -0.280756
   8 O :    0.183924
   9 H :    0.131352
  10 H :    0.130582
  11 H :    0.131677
  12 H :    0.165748
  13 H :    0.141050
  14 H :    0.138162
  15 H :    0.141144

  Mayer bond orders larger than 0.1
B(  0-C ,  1-C ) :   0.8932 B(  0-C ,  9-H ) :   0.9292 B(  0-C , 10-H ) :   0.9364
B(  0-C , 11-H ) :   0.9368 B(  1-C ,  2-C ) :   0.9004 B(  1-C ,  6-C ) :   0.9081
B(  1-C , 12-H ) :   0.9168 B(  2-C ,  3-O ) :   0.8241 B(  2-C ,  6-C ) :  -0.1141
B(  2-C ,  7-C ) :   0.8688 B(  2-C , 13-H ) :   0.9023 B(  3-O ,  4-C ) :   1.0653
B(  4-C ,  5-N ) :   1.8317 B(  4-C , 14-H ) :   0.9231 B(  5-N ,  6-C ) :   0.8559
B(  6-C ,  7-C ) :   0.8783 B(  6-C , 15-H ) :   0.9074 B(  7-C ,  8-O ) :   2.0518

MP2 TOTAL ENERGY:     -437.156847819 Eh
FINAL SINGLE POINT ENERGY      -437.156847818628

DIPOLE MOMENT
-------------
                                X             Y             Z
Electronic contribution:      4.48769      -6.04503       0.39150
Nuclear contribution   :     -5.12406       6.94527      -0.89360
                        -----------------------------------------
Total Dipole Moment    :     -0.63638       0.90024      -0.50210
                        -----------------------------------------
Magnitude (a.u.)       :      1.21141
Magnitude (Debye)      :      3.07915

                             ****ORCA TERMINATED NORMALLY****
TOTAL RUN TIME: 0 days 0 hours 17 minutes 44 seconds 215 msec
