                         Program Version 3.0.3 - RELEASE   -
|  1> ! RI-MP2 RIJK def2-TZVP def2-TZVP/C def2-TZVP/JK TIGHTSCF
|  2> % maxcore 2000
|  3> % mp2 density relaxed end
|  4> *xyz 0 1
|  5>  C       -0.0273606685     1.6374361697     0.0239431376
|  6>  C        0.1076593738     0.1329311397    -0.1525514418
|  7>  O        1.1762043791    -0.3595838015    -0.4534586095
|  8>  C       -1.0815523520    -0.7488180441     0.0790716637
|  9>  C       -2.2313318166    -0.2907396629     0.9604932901
| 10>  C       -2.4312315098    -0.3428053129    -0.5171778709
| 11>  C       -0.7472653456    -2.2161501683     0.0468822106
| 12>  C       -0.5630917037    -3.0089597471     1.2660096759
| 13>  O       -1.7687038185    -3.1086401893     0.4959438132
| 14>  H        0.8214236093     2.1219913490    -0.4598768659
| 15>  H       -0.9622626455     2.0393719617    -0.3744540387
| 16>  H        0.0012020350     1.8782124859     1.0931243578
| 17>  H       -2.7039280856    -1.0681547837     1.5490714920
| 18>  H       -2.1502119890     0.6745035721     1.4456515037
| 19>  H       -2.4896626956     0.5810817575    -1.0801474075
| 20>  H       -3.0257739788    -1.1575749507    -0.9144242401
| 21>  H       -0.2265053352    -2.5406837483    -0.8516357385
| 22>  H        0.0746000158    -3.8905064446     1.2471396172
| 23>  H       -0.6734986587    -2.5302856819     2.2376440911
| 24> *
| 25>
| 26>                          ****END OF INPUT****

CARTESIAN COORDINATES (ANGSTROEM)
---------------------------------
  C     -0.027361    1.637436    0.023943
  C      0.107659    0.132931   -0.152551
  O      1.176204   -0.359584   -0.453459
  C     -1.081552   -0.748818    0.079072
  C     -2.231332   -0.290740    0.960493
  C     -2.431232   -0.342805   -0.517178
  C     -0.747265   -2.216150    0.046882
  C     -0.563092   -3.008960    1.266010
  O     -1.768704   -3.108640    0.495944
  H      0.821424    2.121991   -0.459877
  H     -0.962263    2.039372   -0.374454
  H      0.001202    1.878212    1.093124
  H     -2.703928   -1.068155    1.549071
  H     -2.150212    0.674504    1.445652
  H     -2.489663    0.581082   -1.080147
  H     -3.025774   -1.157575   -0.914424
  H     -0.226505   -2.540684   -0.851636
  H      0.074600   -3.890506    1.247140
  H     -0.673499   -2.530286    2.237644

 Total Charge           Charge          ....    0
 Multiplicity           Mult            ....    1
 Number of Electrons    NEL             ....   68
 Basis Dimension        Dim             ....  339

ORBITAL ENERGIES
----------------

  NO   OCC          E(Eh)            E(eV)
   0   2.0000     -20.569939      -559.7365
   1   2.0000     -20.544024      -559.0313
   2   2.0000     -11.337738      -308.5155
   3   2.0000     -11.290057      -307.2181
   4   2.0000     -11.282187      -307.0039
   5   2.0000     -11.259334      -306.3821
   6   2.0000     -11.249164      -306.1053
   7   2.0000     -11.247479      -306.0595
   8   2.0000     -11.240138      -305.8597
   9   2.0000      -1.413635       -38.4670
  10   2.0000      -1.389460       -37.8091
  11   2.0000      -1.170496       -31.8508
  12   2.0000      -1.012334       -27.5470
  13   2.0000      -0.960082       -26.1252
  14   2.0000      -0.897843       -24.4315
  15   2.0000      -0.845324       -23.0024
  16   2.0000      -0.831343       -22.6220
  17   2.0000      -0.738987       -20.1089
  18   2.0000      -0.701292       -19.0831
  19   2.0000      -0.678645       -18.4669
  20   2.0000      -0.673800       -18.3350
  21   2.0000      -0.617970       -16.8158
  22   2.0000      -0.611419       -16.6376
  23   2.0000      -0.601965       -16.3803
  24   2.0000      -0.571029       -15.5385
  25   2.0000      -0.549234       -14.9454
  26   2.0000      -0.536056       -14.5868
  27   2.0000      -0.534235       -14.5373
  28   2.0000      -0.519426       -14.1343
  29   2.0000      -0.479027       -13.0350
  30   2.0000      -0.464831       -12.6487
  31   2.0000      -0.440822       -11.9954
  32   2.0000      -0.414854       -11.2888
  33   2.0000      -0.401542       -10.9265
  34   0.0000       0.131281         3.5723
  35   0.0000       0.139027         3.7831
  36   0.0000       0.157399         4.2831
  37   0.0000       0.167987         4.5712
  38   0.0000       0.177157         4.8207

MULLIKEN ATOMIC CHARGES
-----------------------
   0 C :   -0.433504
   1 C :    0.161154
   2 O :   -0.296942
   3 C :    0.086826
   4 C :   -0.277530
   5 C :   -0.304555
   6 C :    0.052969
   7 C :   -0.088194
   8 O :   -0.343530
   9 H :    0.160756
  10 H :    0.143741
  11 H :    0.151764
  12 H :    0.162984
  13 H :    0.142753
  14 H :    0.141634
  15 H :    0.158649
  16 H :    0.138272
  17 H :    0.123240
  18 H :    0.119513
Sum of atomic charges:    0.0000000

LOEWDIN ATOMIC CHARGES
----------------------
   0 C :   -0.273641
   1 C :   -0.309724
   2 O :    0.148135
   3 C :   -0.204195
   4 C :   -0.189304
   5 C :   -0.181790
   6 C :   -0.246172
   7 C :   -0.250577
   8 O :    0.146129
   9 H :    0.136918
  10 H :    0.130160
  11 H :    0.140662
  12 H :    0.146296
  13 H :    0.135838
  14 H :    0.133394
  15 H :    0.145937
  16 H :    0.148457
  17 H :    0.121890
  18 H :    0.121588

  Mayer bond orders larger than 0.1
B(  0-C ,  1-C ) :   0.9277 B(  0-C ,  9-H ) :   0.9331 B(  0-C , 10-H ) :   0.9322
B(  0-C , 11-H ) :   0.9069 B(  1-C ,  2-O ) :   1.9958 B(  1-C ,  3-C ) :   0.9109
B(  3-C ,  4-C ) :   0.8316 B(  3-C ,  5-C ) :   0.8203 B(  3-C ,  6-C ) :   0.9120
B(  4-C ,  5-C ) :   0.9197 B(  4-C , 12-H ) :   0.9124 B(  4-C , 13-H ) :   0.9206
B(  5-C , 14-H ) :   0.9259 B(  5-C , 15-H ) :   0.9213 B(  6-C ,  7-C ) :   0.9757
B(  6-C ,  8-O ) :   0.8921 B(  6-C , 16-H ) :   0.9162 B(  7-C ,  8-O ) :   0.8919
B(  7-C , 17-H ) :   0.9231 B(  7-C , 18-H ) :   0.9096

MP2 TOTAL ENERGY:     -422.298878468 Eh
FINAL SINGLE POINT ENERGY      -422.298878467695

DIPOLE MOMENT
-------------
                                X             Y             Z
Electronic contribution:      2.38475      -4.35117      -1.39405
Nuclear contribution   :     -2.83399       5.06368       1.77947
                        -----------------------------------------
Total Dipole Moment    :     -0.44924       0.71250       0.38542
                        -----------------------------------------
Magnitude (a.u.)       :      0.92630
Magnitude (Debye)      :      2.35446

                             ****ORCA TERMINATED NORMALLY****
TOTAL RUN TIME: 0 days 0 hours 20 minutes 40 seconds 611 msec
