                         Program Version 3.0.3 - RELEASE   -
|  1> ! RI-MP2 RIJK def2-TZVP def2-TZVP/C def2-TZVP/JK TIGHTSCF
|  2> % maxcore 2000
|  3> % mp2 density relaxed end
|  4> *xyz 0 1
|  5>  O        0.0955838246    -0.0081514004     0.1371766835
|  6>  C        0.1095839299     1.1741099198     0.2661100095
|  7>  O        1.0403751073     1.9570770789    -0.3567597239
|  8>  C        0.9249850412     3.3194041079    -0.1882667755
|  9>  C        2.0554887663     4.3077332152     0.0723007685
| 10>  C        1.2507034368     5.3824403062    -0.6993979731
| 11>  C        0.1477315798     4.4210641356    -0.9658845239
| 12>  N        0.1006193722     5.2820596063     0.2703082089
| 13>  C        0.8815845283     4.2108341255     1.0292299874
| 14>  H       -0.5867132424     1.7659816584     0.8860051131
| 15>  H        3.1062107474     4.1047107542     0.2175793085
| 16>  H        1.5271331475     6.3116757158    -1.1828234387
| 17>  H       -0.6525961972     4.4085955530    -1.6958668520
| 18>  H        0.8193256383     4.0322922735     2.0949024879
| 19> *
| 20>
| 21>                          ****END OF INPUT****

CARTESIAN COORDINATES (ANGSTROEM)
---------------------------------
  O      0.095584   -0.008151    0.137177
  C      0.109584    1.174110    0.266110
  O      1.040375    1.957077   -0.356760
  C      0.924985    3.319404   -0.188267
  C      2.055489    4.307733    0.072301
  C      1.250703    5.382440   -0.699398
  C      0.147732    4.421064   -0.965885
  N      0.100619    5.282060    0.270308
  C      0.881585    4.210834    1.029230
  H     -0.586713    1.765982    0.886005
  H      3.106211    4.104711    0.217579
  H      1.527133    6.311676   -1.182823
  H     -0.652596    4.408596   -1.695867
  H      0.819326    4.032292    2.094902

 Total Charge           Charge          ....    0
 Multiplicity           Mult            ....    1
 Number of Electrons    NEL             ....   64
 Basis Dimension        Dim             ....  309

ORBITAL ENERGIES
----------------

  NO   OCC          E(Eh)            E(eV)
   0   2.0000     -20.633213      -561.4583
   1   2.0000     -20.568473      -559.6966
   2   2.0000     -15.584658      -424.0801
   3   2.0000     -11.397463      -310.1407
   4   2.0000     -11.331816      -308.3544
   5   2.0000     -11.293705      -307.3173
   6   2.0000     -11.291251      -307.2506
   7   2.0000     -11.289842      -307.2122
   8   2.0000     -11.267775      -306.6118
   9   2.0000      -1.484195       -40.3870
  10   2.0000      -1.399241       -38.0753
  11   2.0000      -1.361157       -37.0390
  12   2.0000      -1.084480       -29.5102
  13   2.0000      -0.959773       -26.1167
  14   2.0000      -0.927003       -25.2250
  15   2.0000      -0.877954       -23.8903
  16   2.0000      -0.798747       -21.7350
  17   2.0000      -0.762050       -20.7364
  18   2.0000      -0.747239       -20.3334
  19   2.0000      -0.687434       -18.7060
  20   2.0000      -0.684182       -18.6175
  21   2.0000      -0.647932       -17.6311
  22   2.0000      -0.619298       -16.8520
  23   2.0000      -0.610989       -16.6259
  24   2.0000      -0.592219       -16.1151
  25   2.0000      -0.531603       -14.4657
  26   2.0000      -0.517353       -14.0779
  27   2.0000      -0.474696       -12.9171
  28   2.0000      -0.463753       -12.6193
  29   2.0000      -0.452660       -12.3175
  30   2.0000      -0.397251       -10.8098
  31   2.0000      -0.359172        -9.7736
  32   0.0000       0.132033         3.5928
  33   0.0000       0.146966         3.9992
  34   0.0000       0.152774         4.1572
  35   0.0000       0.158181         4.3043
  36   0.0000       0.171146         4.6571

MULLIKEN ATOMIC CHARGES
-----------------------
   0 O :   -0.243585
   1 C :    0.190623
   2 O :   -0.213067
   3 C :    0.084000
   4 C :   -0.070207
   5 C :   -0.143303
   6 C :   -0.024595
   7 N :   -0.176646
   8 C :   -0.152200
   9 H :    0.104382
  10 H :    0.169494
  11 H :    0.154510
  12 H :    0.158980
  13 H :    0.161614
Sum of atomic charges:    0.0000000

LOEWDIN ATOMIC CHARGES
----------------------
   0 O :    0.142980
   1 C :   -0.412888
   2 O :    0.294125
   3 C :   -0.264433
   4 C :   -0.113587
   5 C :   -0.155119
   6 C :   -0.144327
   7 N :    0.139844
   8 C :   -0.146128
   9 H :    0.112192
  10 H :    0.143378
  11 H :    0.132766
  12 H :    0.135428
  13 H :    0.135770

  Mayer bond orders larger than 0.1
B(  0-O ,  1-C ) :   2.0564 B(  1-C ,  2-O ) :   0.9863 B(  1-C ,  9-H ) :   0.9170
B(  2-O ,  3-C ) :   0.9554 B(  3-C ,  4-C ) :   0.8368 B(  3-C ,  6-C ) :   0.8710
B(  3-C ,  8-C ) :   0.9431 B(  4-C ,  5-C ) :   0.8801 B(  4-C ,  8-C ) :   0.8646
B(  4-C , 10-H ) :   0.9035 B(  5-C ,  6-C ) :   0.9572 B(  5-C ,  7-N ) :   0.9694
B(  5-C , 11-H ) :   0.8973 B(  6-C ,  7-N ) :   0.8473 B(  6-C , 12-H ) :   0.9087
B(  7-N ,  8-C ) :   0.9644 B(  8-C , 13-H ) :   0.8975

MP2 TOTAL ENERGY:     -435.833462413 Eh
FINAL SINGLE POINT ENERGY      -435.833462413066

DIPOLE MOMENT
-------------
                                X             Y             Z
Electronic contribution:     -0.26125      -3.13448      -0.42364
Nuclear contribution   :      0.57941       4.05129       0.49945
                        -----------------------------------------
Total Dipole Moment    :      0.31815       0.91681       0.07581
                        -----------------------------------------
Magnitude (a.u.)       :      0.97340
Magnitude (Debye)      :      2.47419

                             ****ORCA TERMINATED NORMALLY****
TOTAL RUN TIME: 0 days 0 hours 14 minutes 6 seconds 887 msec
