                         Program Version 3.0.3 - RELEASE   -
|  1> ! RI-MP2 RIJK def2-TZVP def2-TZVP/C def2-TZVP/JK TIGHTSCF
|  2> % maxcore 2000
|  3> % mp2 density relaxed end
|  4> *xyz 0 1
|  5>  C        0.1158696262     1.5815267288     0.0642058505
|  6>  C       -0.0032788695     0.0667670496    -0.0181582406
|  7>  C        0.6221141437    -0.5123693073    -1.3106171016
|  8>  C        0.9062944809    -2.0290751401    -1.1633391941
|  9>  C        1.8512590661    -2.1770739448     0.0493107260
| 10>  C        0.8457001880    -1.8656821646     1.1684895171
| 11>  O        0.5880535961    -0.4517949174     1.1804107407
| 12>  C       -0.3704124848    -2.6590845298     0.6965129170
| 13>  C       -0.3355313010    -2.7417517327    -0.6347020483
| 14>  H        1.1670395746     1.8860999417     0.0732738802
| 15>  H       -0.3761117039     2.0521280308    -0.7932576009
| 16>  H       -0.3544078850     1.9503501226     0.9799760628
| 17>  H       -1.0695045603    -0.2024745813    -0.0213482626
| 18>  H       -0.0620158818    -0.3091920401    -2.1430958591
| 19>  H        1.5650708325     0.0011648222    -1.5356322634
| 20>  H        1.2966136719    -2.4461539536    -2.0954247367
| 21>  H        2.2262985793    -3.2010327860     0.1355964154
| 22>  H        2.6920388579    -1.4783882681     0.0458538417
| 23>  H        1.1889525943    -2.1002854827     2.1779872325
| 24>  H       -1.1683797415    -2.9920273424     1.3487348398
| 25>  H       -1.0996773439    -3.1704391848    -1.2733854065
| 26> *
| 27>
| 28>                          ****END OF INPUT****

CARTESIAN COORDINATES (ANGSTROEM)
---------------------------------
  C      0.115870    1.581527    0.064206
  C     -0.003279    0.066767   -0.018158
  C      0.622114   -0.512369   -1.310617
  C      0.906294   -2.029075   -1.163339
  C      1.851259   -2.177074    0.049311
  C      0.845700   -1.865682    1.168490
  O      0.588054   -0.451795    1.180411
  C     -0.370412   -2.659085    0.696513
  C     -0.335531   -2.741752   -0.634702
  H      1.167040    1.886100    0.073274
  H     -0.376112    2.052128   -0.793258
  H     -0.354408    1.950350    0.979976
  H     -1.069505   -0.202475   -0.021348
  H     -0.062016   -0.309192   -2.143096
  H      1.565071    0.001165   -1.535632
  H      1.296614   -2.446154   -2.095425
  H      2.226299   -3.201033    0.135596
  H      2.692039   -1.478388    0.045854
  H      1.188953   -2.100285    2.177987
  H     -1.168380   -2.992027    1.348735
  H     -1.099677   -3.170439   -1.273385

 Total Charge           Charge          ....    0
 Multiplicity           Mult            ....    1
 Number of Electrons    NEL             ....   68
 Basis Dimension        Dim             ....  351

ORBITAL ENERGIES
----------------

  NO   OCC          E(Eh)            E(eV)
   0   2.0000     -20.541689      -558.9678
   1   2.0000     -11.276677      -306.8540
   2   2.0000     -11.270783      -306.6936
   3   2.0000     -11.234768      -305.7136
   4   2.0000     -11.230174      -305.5886
   5   2.0000     -11.222330      -305.3751
   6   2.0000     -11.221640      -305.3564
   7   2.0000     -11.216432      -305.2146
   8   2.0000     -11.207361      -304.9678
   9   2.0000      -1.360868       -37.0311
  10   2.0000      -1.138253       -30.9735
  11   2.0000      -1.056089       -28.7376
  12   2.0000      -0.981157       -26.6986
  13   2.0000      -0.943737       -25.6804
  14   2.0000      -0.886681       -24.1278
  15   2.0000      -0.821314       -22.3491
  16   2.0000      -0.746793       -20.3213
  17   2.0000      -0.733416       -19.9573
  18   2.0000      -0.694575       -18.9004
  19   2.0000      -0.645137       -17.5551
  20   2.0000      -0.630010       -17.1434
  21   2.0000      -0.593356       -16.1460
  22   2.0000      -0.576520       -15.6879
  23   2.0000      -0.567983       -15.4556
  24   2.0000      -0.542896       -14.7729
  25   2.0000      -0.533759       -14.5243
  26   2.0000      -0.519434       -14.1345
  27   2.0000      -0.515115       -14.0170
  28   2.0000      -0.490840       -13.3564
  29   2.0000      -0.462015       -12.5721
  30   2.0000      -0.457470       -12.4484
  31   2.0000      -0.439014       -11.9462
  32   2.0000      -0.397324       -10.8117
  33   2.0000      -0.353883        -9.6297
  34   0.0000       0.133920         3.6442
  35   0.0000       0.143229         3.8975
  36   0.0000       0.161084         4.3833
  37   0.0000       0.169706         4.6179
  38   0.0000       0.172390         4.6910

MULLIKEN ATOMIC CHARGES
-----------------------
   0 C :   -0.374667
   1 C :    0.088989
   2 C :   -0.303516
   3 C :    0.075147
   4 C :   -0.288085
   5 C :    0.138547
   6 O :   -0.311986
   7 C :   -0.238374
   8 C :   -0.208023
   9 H :    0.123086
  10 H :    0.120174
  11 H :    0.139721
  12 H :    0.079888
  13 H :    0.122147
  14 H :    0.112519
  15 H :    0.116299
  16 H :    0.114972
  17 H :    0.116202
  18 H :    0.114783
  19 H :    0.130950
  20 H :    0.131225
Sum of atomic charges:    0.0000000

LOEWDIN ATOMIC CHARGES
----------------------
   0 C :   -0.294042
   1 C :   -0.334805
   2 C :   -0.216990
   3 C :   -0.223253
   4 C :   -0.204127
   5 C :   -0.282166
   6 O :    0.184496
   7 C :   -0.136549
   8 C :   -0.123321
   9 H :    0.123711
  10 H :    0.125538
  11 H :    0.126710
  12 H :    0.138685
  13 H :    0.141016
  14 H :    0.141495
  15 H :    0.144665
  16 H :    0.141424
  17 H :    0.136292
  18 H :    0.139440
  19 H :    0.135517
  20 H :    0.136265

  Mayer bond orders larger than 0.1
B(  0-C ,  1-C ) :   0.9048 B(  0-C ,  9-H ) :   0.9391 B(  0-C , 10-H ) :   0.9336
B(  0-C , 11-H ) :   0.9406 B(  1-C ,  2-C ) :   0.9455 B(  1-C ,  6-O ) :   0.9519
B(  1-C , 12-H ) :   0.9309 B(  2-C ,  3-C ) :   0.8884 B(  2-C , 13-H ) :   0.9202
B(  2-C , 14-H ) :   0.9168 B(  3-C ,  4-C ) :   0.9214 B(  3-C ,  8-C ) :   0.8944
B(  3-C , 15-H ) :   0.9267 B(  4-C ,  5-C ) :   0.9463 B(  4-C , 16-H ) :   0.9121
B(  4-C , 17-H ) :   0.9290 B(  5-C ,  6-O ) :   0.9224 B(  5-C ,  7-C ) :   0.9059
B(  5-C , 18-H ) :   0.9362 B(  7-C ,  8-C ) :   1.7820 B(  7-C , 19-H ) :   0.9306
B(  8-C , 20-H ) :   0.9279

MP2 TOTAL ENERGY:     -386.430593762 Eh
FINAL SINGLE POINT ENERGY      -386.430593762351

DIPOLE MOMENT
-------------
                                X             Y             Z
Electronic contribution:     -0.38439      -3.68633       2.56884
Nuclear contribution   :      0.27965       3.44439      -3.07018
                        -----------------------------------------
Total Dipole Moment    :     -0.10474      -0.24194      -0.50134
                        -----------------------------------------
Magnitude (a.u.)       :      0.56644
Magnitude (Debye)      :      1.43977

                             ****ORCA TERMINATED NORMALLY****
TOTAL RUN TIME: 0 days 0 hours 22 minutes 27 seconds 586 msec
