                         Program Version 3.0.3 - RELEASE   -
|  1> ! RI-MP2 RIJK def2-TZVP def2-TZVP/C def2-TZVP/JK TIGHTSCF
|  2> % maxcore 2000
|  3> % mp2 density relaxed end
|  4> *xyz 0 1
|  5>  N        0.0328683087    -1.1599100808     0.0160185296
|  6>  C        0.0181235352    -0.0050320898     0.0256347387
|  7>  C       -0.0153997521     1.4557722393     0.0128613298
|  8>  C       -0.7185845804     2.0739466126     1.2372466176
|  9>  O       -0.0879397463     1.8347467897     2.4840553631
| 10>  C        0.1680943164     3.0834998637     1.8401537360
| 11>  C        1.4703079667     3.1065041797     1.0568563402
| 12>  O        2.1912842609     1.8750067161     1.1130687903
| 13>  C        1.3792300859     2.1110096822    -0.0246173800
| 14>  H       -0.5610016562     1.7749384303    -0.8848078198
| 15>  H       -1.8046786619     2.1163420953     1.2503524295
| 16>  H       -0.1875227989     3.9738674596     2.3491119321
| 17>  H        2.0632565952     4.0136271814     0.9952456915
| 18>  H        1.8983084469     2.1817591707    -0.9770468386
| 19> *
| 20>
| 21>                          ****END OF INPUT****

CARTESIAN COORDINATES (ANGSTROEM)
---------------------------------
  N      0.032868   -1.159910    0.016019
  C      0.018124   -0.005032    0.025635
  C     -0.015400    1.455772    0.012861
  C     -0.718585    2.073947    1.237247
  O     -0.087940    1.834747    2.484055
  C      0.168094    3.083500    1.840154
  C      1.470308    3.106504    1.056856
  O      2.191284    1.875007    1.113069
  C      1.379230    2.111010   -0.024617
  H     -0.561002    1.774938   -0.884808
  H     -1.804679    2.116342    1.250352
  H     -0.187523    3.973867    2.349112
  H      2.063257    4.013627    0.995246
  H      1.898308    2.181759   -0.977047

 Total Charge           Charge          ....    0
 Multiplicity           Mult            ....    1
 Number of Electrons    NEL             ....   64
 Basis Dimension        Dim             ....  309

ORBITAL ENERGIES
----------------

  NO   OCC          E(Eh)            E(eV)
   0   2.0000     -20.598276      -560.5076
   1   2.0000     -20.598269      -560.5074
   2   2.0000     -15.574257      -423.7971
   3   2.0000     -11.325094      -308.1715
   4   2.0000     -11.325091      -308.1714
   5   2.0000     -11.320513      -308.0468
   6   2.0000     -11.319888      -308.0298
   7   2.0000     -11.310106      -307.7636
   8   2.0000     -11.278163      -306.8944
   9   2.0000      -1.467757       -39.9397
  10   2.0000      -1.430412       -38.9235
  11   2.0000      -1.223055       -33.2810
  12   2.0000      -1.108390       -30.1608
  13   2.0000      -1.008838       -27.4519
  14   2.0000      -0.924095       -25.1459
  15   2.0000      -0.864978       -23.5372
  16   2.0000      -0.832151       -22.6440
  17   2.0000      -0.782902       -21.3039
  18   2.0000      -0.712775       -19.3956
  19   2.0000      -0.686224       -18.6731
  20   2.0000      -0.669671       -18.2227
  21   2.0000      -0.622199       -16.9309
  22   2.0000      -0.605507       -16.4767
  23   2.0000      -0.571393       -15.5484
  24   2.0000      -0.562641       -15.3102
  25   2.0000      -0.562278       -15.3003
  26   2.0000      -0.518273       -14.1029
  27   2.0000      -0.496177       -13.5017
  28   2.0000      -0.469444       -12.7742
  29   2.0000      -0.457586       -12.4516
  30   2.0000      -0.449293       -12.2259
  31   2.0000      -0.434365       -11.8197
  32   0.0000       0.119857         3.2615
  33   0.0000       0.146735         3.9929
  34   0.0000       0.153652         4.1811
  35   0.0000       0.158157         4.3037
  36   0.0000       0.168084         4.5738

MULLIKEN ATOMIC CHARGES
-----------------------
   0 N :   -0.047461
   1 C :   -0.211620
   2 C :    0.077662
   3 C :    0.017475
   4 O :   -0.288379
   5 C :   -0.001369
   6 C :   -0.001365
   7 O :   -0.288378
   8 C :    0.017474
   9 H :    0.142336
  10 H :    0.147767
  11 H :    0.144045
  12 H :    0.144045
  13 H :    0.147767
Sum of atomic charges:   -0.0000000

LOEWDIN ATOMIC CHARGES
----------------------
   0 N :    0.075065
   1 C :   -0.159319
   2 C :   -0.195631
   3 C :   -0.218923
   4 O :    0.213558
   5 C :   -0.230983
   6 C :   -0.230982
   7 O :    0.213559
   8 C :   -0.218923
   9 H :    0.187796
  10 H :    0.141373
  11 H :    0.141017
  12 H :    0.141017
  13 H :    0.141374

  Mayer bond orders larger than 0.1
B(  0-N ,  1-C ) :   2.8589 B(  1-C ,  2-C ) :   0.9244 B(  2-C ,  3-C ) :   0.8804
B(  2-C ,  8-C ) :   0.8804 B(  2-C ,  9-H ) :   0.8967 B(  3-C ,  4-O ) :   0.9523
B(  3-C ,  5-C ) :   0.9629 B(  3-C , 10-H ) :   0.9237 B(  4-O ,  5-C ) :   0.9102
B(  5-C ,  6-C ) :   0.9063 B(  5-C , 11-H ) :   0.9172 B(  6-C ,  7-O ) :   0.9102
B(  6-C ,  8-C ) :   0.9629 B(  6-C , 12-H ) :   0.9172 B(  7-O ,  8-C ) :   0.9523
B(  8-C , 13-H ) :   0.9237

MP2 TOTAL ENERGY:     -435.928170687 Eh
FINAL SINGLE POINT ENERGY      -435.928170687373

DIPOLE MOMENT
-------------
                                X             Y             Z
Electronic contribution:      0.58203      -3.25369       0.87202
Nuclear contribution   :     -1.07269       5.58839      -1.61902
                        -----------------------------------------
Total Dipole Moment    :     -0.49066       2.33470      -0.74700
                        -----------------------------------------
Magnitude (a.u.)       :      2.49991
Magnitude (Debye)      :      6.35428

                             ****ORCA TERMINATED NORMALLY****
TOTAL RUN TIME: 0 days 0 hours 14 minutes 44 seconds 189 msec
