                         Program Version 3.0.3 - RELEASE   -
|  1> ! RI-MP2 RIJK def2-TZVP def2-TZVP/C def2-TZVP/JK TIGHTSCF
|  2> % maxcore 2000
|  3> % mp2 density relaxed end
|  4> *xyz 0 1
|  5>  C        0.0551202775     1.4739613123     0.0680121188
|  6>  C       -0.0091957344    -0.0141565754    -0.0391180789
|  7>  C       -0.1256257742    -0.8257126194    -1.1584896599
|  8>  C       -0.0561881849    -2.1634380231    -0.6885448849
|  9>  C        0.1068366291    -2.1395792708     0.6681465131
| 10>  C       -0.0254058962    -3.5058963687     1.2610788129
| 11>  C        0.1635234405    -4.3513171297    -0.0402443444
| 12>  N       -0.2700810598    -3.4789727199    -1.1693042478
| 13>  N        0.0959956386    -0.8241644331     1.0740604782
| 14>  H        1.0463557107     1.8328627232     0.3763870450
| 15>  H       -0.1680401150     1.9251485518    -0.9017068485
| 16>  H       -0.6717090321     1.8678997484     0.7896689390
| 17>  H       -0.2396524357    -0.4720485264    -2.1720118337
| 18>  H        0.7171955577    -3.7773444279     2.0196354527
| 19>  H       -1.0184978280    -3.6777375635     1.7034292431
| 20>  H        1.2274707060    -4.6136655810    -0.1340872434
| 21>  H       -0.4162958770    -5.2781657808    -0.0254691232
| 22>  H        0.2337615680    -3.6955689107    -2.0217022386
| 23>  H        0.2498658891    -0.4875746753     2.0083064204
| 24> *
| 25>
| 26>                          ****END OF INPUT****

CARTESIAN COORDINATES (ANGSTROEM)
---------------------------------
  C      0.055120    1.473961    0.068012
  C     -0.009196   -0.014157   -0.039118
  C     -0.125626   -0.825713   -1.158490
  C     -0.056188   -2.163438   -0.688545
  C      0.106837   -2.139579    0.668147
  C     -0.025406   -3.505896    1.261079
  C      0.163523   -4.351317   -0.040244
  N     -0.270081   -3.478973   -1.169304
  N      0.095996   -0.824164    1.074060
  H      1.046356    1.832863    0.376387
  H     -0.168040    1.925149   -0.901707
  H     -0.671709    1.867900    0.789669
  H     -0.239652   -0.472049   -2.172012
  H      0.717196   -3.777344    2.019635
  H     -1.018498   -3.677738    1.703429
  H      1.227471   -4.613666   -0.134087
  H     -0.416296   -5.278166   -0.025469
  H      0.233762   -3.695569   -2.021702
  H      0.249866   -0.487575    2.008306

 Total Charge           Charge          ....    0
 Multiplicity           Mult            ....    1
 Number of Electrons    NEL             ....   66
 Basis Dimension        Dim             ....  339

ORBITAL ENERGIES
----------------

  NO   OCC          E(Eh)            E(eV)
   0   2.0000     -15.590713      -424.2449
   1   2.0000     -15.543989      -422.9734
   2   2.0000     -11.255429      -306.2758
   3   2.0000     -11.251482      -306.1684
   4   2.0000     -11.231711      -305.6304
   5   2.0000     -11.228145      -305.5334
   6   2.0000     -11.223876      -305.4172
   7   2.0000     -11.221917      -305.3639
   8   2.0000     -11.198861      -304.7365
   9   2.0000      -1.283962       -34.9384
  10   2.0000      -1.210444       -32.9378
  11   2.0000      -1.039754       -28.2931
  12   2.0000      -1.012995       -27.5650
  13   2.0000      -0.995501       -27.0890
  14   2.0000      -0.901560       -24.5327
  15   2.0000      -0.811220       -22.0744
  16   2.0000      -0.769564       -20.9409
  17   2.0000      -0.747688       -20.3456
  18   2.0000      -0.690428       -18.7875
  19   2.0000      -0.646674       -17.5969
  20   2.0000      -0.591890       -16.1062
  21   2.0000      -0.590485       -16.0679
  22   2.0000      -0.586988       -15.9728
  23   2.0000      -0.572847       -15.5880
  24   2.0000      -0.540861       -14.7176
  25   2.0000      -0.532351       -14.4860
  26   2.0000      -0.517007       -14.0685
  27   2.0000      -0.511210       -13.9107
  28   2.0000      -0.491490       -13.3741
  29   2.0000      -0.484532       -13.1848
  30   2.0000      -0.426671       -11.6103
  31   2.0000      -0.317675        -8.6444
  32   2.0000      -0.255384        -6.9493
  33   0.0000       0.131041         3.5658
  34   0.0000       0.146707         3.9921
  35   0.0000       0.160332         4.3629
  36   0.0000       0.168148         4.5755
  37   0.0000       0.179803         4.8927

MULLIKEN ATOMIC CHARGES
-----------------------
   0 C :   -0.451437
   1 C :    0.202174
   2 C :   -0.385451
   3 C :    0.133685
   4 C :    0.020781
   5 C :   -0.233932
   6 C :   -0.111221
   7 N :   -0.307101
   8 N :   -0.317301
   9 H :    0.138360
  10 H :    0.147654
  11 H :    0.138202
  12 H :    0.119319
  13 H :    0.123806
  14 H :    0.108559
  15 H :    0.098277
  16 H :    0.119940
  17 H :    0.217800
  18 H :    0.237886
Sum of atomic charges:    0.0000000

LOEWDIN ATOMIC CHARGES
----------------------
   0 C :   -0.286544
   1 C :   -0.252899
   2 C :   -0.162810
   3 C :   -0.234820
   4 C :   -0.229174
   5 C :   -0.224535
   6 C :   -0.248013
   7 N :    0.029485
   8 N :    0.204726
   9 H :    0.126754
  10 H :    0.137193
  11 H :    0.127484
  12 H :    0.137807
  13 H :    0.134646
  14 H :    0.136484
  15 H :    0.121618
  16 H :    0.122965
  17 H :    0.170227
  18 H :    0.189405

  Mayer bond orders larger than 0.1
B(  0-C ,  1-C ) :   0.8553 B(  0-C ,  9-H ) :   0.9289 B(  0-C , 10-H ) :   0.9546
B(  0-C , 11-H ) :   0.9422 B(  1-C ,  2-C ) :   1.4646 B(  1-C ,  8-N ) :   1.1183
B(  2-C ,  3-C ) :   1.2842 B(  2-C , 12-H ) :   0.9286 B(  3-C ,  4-C ) :   1.4566
B(  3-C ,  7-N ) :   1.0374 B(  4-C ,  5-C ) :   0.9559 B(  4-C ,  8-N ) :   1.0808
B(  5-C ,  6-C ) :   0.9706 B(  5-C , 13-H ) :   0.9242 B(  5-C , 14-H ) :   0.9016
B(  6-C ,  7-N ) :   0.9323 B(  6-C , 15-H ) :   0.9195 B(  6-C , 16-H ) :   0.9318
B(  7-N , 17-H ) :   0.8784 B(  8-N , 18-H ) :   0.8745

MP2 TOTAL ENERGY:     -381.421617628 Eh
FINAL SINGLE POINT ENERGY      -381.421617628087

DIPOLE MOMENT
-------------
                                X             Y             Z
Electronic contribution:     -0.45448      -1.00093      -0.82106
Nuclear contribution   :      0.91244       1.15927       1.45025
                        -----------------------------------------
Total Dipole Moment    :      0.45796       0.15833       0.62919
                        -----------------------------------------
Magnitude (a.u.)       :      0.79415
Magnitude (Debye)      :      2.01857

                             ****ORCA TERMINATED NORMALLY****
TOTAL RUN TIME: 0 days 0 hours 18 minutes 33 seconds 800 msec
