                         Program Version 3.0.3 - RELEASE   -
|  1> ! RI-MP2 RIJK def2-TZVP def2-TZVP/C def2-TZVP/JK TIGHTSCF
|  2> % maxcore 2000
|  3> % mp2 density relaxed end
|  4> *xyz 0 1
|  5>  C       -0.1035034825     1.5036295948    -0.0240257690
|  6>  C        0.0352283217    -0.0012375407     0.0267316395
|  7>  C        1.3355205411    -0.7016388936    -0.2377046079
|  8>  C        1.4080466909    -1.9513722366    -1.0891594683
|  9>  O        2.4882878407     0.0937920606    -0.3502612761
| 10>  C        0.7716804117    -0.7031343629     1.1917376911
| 11>  C        1.4682187290     0.0905495584     2.2795625946
| 12>  C        0.1076557204    -1.9423416826     1.6792932575
| 13>  O        0.1666419341    -2.3456113467     2.8158310241
| 14>  H        0.8501872476     1.9995163514     0.1649458781
| 15>  H       -0.4570444827     1.8192984603    -1.0120520576
| 16>  H       -0.8282189570     1.8620350674     0.7138838662
| 17>  H       -0.8471146899    -0.5413462598    -0.3135548668
| 18>  H        1.5370698251    -1.6739849091    -2.1432018176
| 19>  H        2.2631200300    -2.5686332331    -0.7974892839
| 20>  H        0.5016733638    -2.5566541862    -1.0216036330
| 21>  H        2.5269402811     0.4276602561    -1.2539157749
| 22>  H        2.0830635232     0.8877500279     1.8661846822
| 23>  H        0.7359089631     0.5209395073     2.9695593222
| 24>  H        2.1089493746    -0.5741679446     2.8645826445
| 25>  H       -0.4982417761    -2.4879447484     0.9204005753
| 26> *
| 27>
| 28>                          ****END OF INPUT****

CARTESIAN COORDINATES (ANGSTROEM)
---------------------------------
  C     -0.103503    1.503630   -0.024026
  C      0.035228   -0.001238    0.026732
  C      1.335521   -0.701639   -0.237705
  C      1.408047   -1.951372   -1.089159
  O      2.488288    0.093792   -0.350261
  C      0.771680   -0.703134    1.191738
  C      1.468219    0.090550    2.279563
  C      0.107656   -1.942342    1.679293
  O      0.166642   -2.345611    2.815831
  H      0.850187    1.999516    0.164946
  H     -0.457044    1.819298   -1.012052
  H     -0.828219    1.862035    0.713884
  H     -0.847115   -0.541346   -0.313555
  H      1.537070   -1.673985   -2.143202
  H      2.263120   -2.568633   -0.797489
  H      0.501673   -2.556654   -1.021604
  H      2.526940    0.427660   -1.253916
  H      2.083064    0.887750    1.866185
  H      0.735909    0.520940    2.969559
  H      2.108949   -0.574168    2.864583
  H     -0.498242   -2.487945    0.920401

 Total Charge           Charge          ....    0
 Multiplicity           Mult            ....    1
 Number of Electrons    NEL             ....   70
 Basis Dimension        Dim             ....  351

ORBITAL ENERGIES
----------------

  NO   OCC          E(Eh)            E(eV)
   0   2.0000     -20.575426      -559.8858
   1   2.0000     -20.547198      -559.1177
   2   2.0000     -11.325965      -308.1952
   3   2.0000     -11.309195      -307.7388
   4   2.0000     -11.250272      -306.1355
   5   2.0000     -11.248435      -306.0855
   6   2.0000     -11.236269      -305.7544
   7   2.0000     -11.229714      -305.5761
   8   2.0000     -11.210978      -305.0662
   9   2.0000      -1.390417       -37.8352
  10   2.0000      -1.385894       -37.7121
  11   2.0000      -1.164248       -31.6808
  12   2.0000      -1.006703       -27.3938
  13   2.0000      -0.998357       -27.1667
  14   2.0000      -0.930959       -25.3327
  15   2.0000      -0.875257       -23.8170
  16   2.0000      -0.793383       -21.5891
  17   2.0000      -0.735188       -20.0055
  18   2.0000      -0.690381       -18.7862
  19   2.0000      -0.678845       -18.4723
  20   2.0000      -0.655299       -17.8316
  21   2.0000      -0.622109       -16.9284
  22   2.0000      -0.607570       -16.5328
  23   2.0000      -0.580891       -15.8069
  24   2.0000      -0.569731       -15.5032
  25   2.0000      -0.559395       -15.2219
  26   2.0000      -0.553979       -15.0745
  27   2.0000      -0.546967       -14.8837
  28   2.0000      -0.531322       -14.4580
  29   2.0000      -0.519690       -14.1415
  30   2.0000      -0.509763       -13.8714
  31   2.0000      -0.495770       -13.4906
  32   2.0000      -0.428281       -11.6541
  33   2.0000      -0.395923       -10.7736
  34   2.0000      -0.394289       -10.7291
  35   0.0000       0.113888         3.0991
  36   0.0000       0.133869         3.6428
  37   0.0000       0.152498         4.1497
  38   0.0000       0.154929         4.2158
  39   0.0000       0.175760         4.7827

MULLIKEN ATOMIC CHARGES
-----------------------
   0 C :   -0.436996
   1 C :   -0.159289
   2 C :    0.163190
   3 C :   -0.388924
   4 O :   -0.469546
   5 C :    0.144370
   6 C :   -0.414447
   7 C :    0.052205
   8 O :   -0.274826
   9 H :    0.150703
  10 H :    0.138973
  11 H :    0.141978
  12 H :    0.121896
  13 H :    0.120217
  14 H :    0.153652
  15 H :    0.121361
  16 H :    0.323004
  17 H :    0.158242
  18 H :    0.131978
  19 H :    0.150537
  20 H :    0.071721
Sum of atomic charges:   -0.0000000

LOEWDIN ATOMIC CHARGES
----------------------
   0 C :   -0.289418
   1 C :   -0.176456
   2 C :   -0.327623
   3 C :   -0.270865
   4 O :    0.035536
   5 C :   -0.205596
   6 C :   -0.256570
   7 C :   -0.268518
   8 O :    0.131701
   9 H :    0.130588
  10 H :    0.127464
  11 H :    0.130377
  12 H :    0.153987
  13 H :    0.126446
  14 H :    0.133493
  15 H :    0.127129
  16 H :    0.183776
  17 H :    0.131203
  18 H :    0.131348
  19 H :    0.136923
  20 H :    0.115076

  Mayer bond orders larger than 0.1
B(  0-C ,  1-C ) :   0.8846 B(  0-C ,  9-H ) :   0.9403 B(  0-C , 10-H ) :   0.9370
B(  0-C , 11-H ) :   0.9381 B(  1-C ,  2-C ) :   0.8948 B(  1-C ,  5-C ) :   0.8011
B(  1-C , 12-H ) :   0.9130 B(  2-C ,  3-C ) :   0.9411 B(  2-C ,  4-O ) :   0.9684
B(  2-C ,  5-C ) :   0.7775 B(  3-C , 13-H ) :   0.9186 B(  3-C , 14-H ) :   0.9424
B(  3-C , 15-H ) :   0.9336 B(  4-O , 16-H ) :   0.8369 B(  5-C ,  6-C ) :   0.9116
B(  5-C ,  7-C ) :   0.8534 B(  5-C , 20-H ) :  -0.1002 B(  6-C , 17-H ) :   0.9350
B(  6-C , 18-H ) :   0.9291 B(  6-C , 19-H ) :   0.9264 B(  7-C ,  8-O ) :   2.0093
B(  7-C , 20-H ) :   0.9688

MP2 TOTAL ENERGY:     -423.524927804 Eh
FINAL SINGLE POINT ENERGY      -423.524927804272

DIPOLE MOMENT
-------------
                                X             Y             Z
Electronic contribution:      0.34992      -4.01386       3.44999
Nuclear contribution   :     -0.54066       4.60815      -4.97271
                        -----------------------------------------
Total Dipole Moment    :     -0.19074       0.59429      -1.52272
                        -----------------------------------------
Magnitude (a.u.)       :      1.64567
Magnitude (Debye)      :      4.18296

                             ****ORCA TERMINATED NORMALLY****
TOTAL RUN TIME: 0 days 0 hours 20 minutes 22 seconds 290 msec
