                         Program Version 3.0.3 - RELEASE   -
|  1> ! RI-MP2 RIJK def2-TZVP def2-TZVP/C def2-TZVP/JK TIGHTSCF
|  2> % maxcore 2000
|  3> % mp2 density relaxed end
|  4> *xyz 0 1
|  5>  O       -0.1458914386     0.0281479444    -0.0730435162
|  6>  C        0.0006255210     1.2248713837     0.0115792333
|  7>  C        1.3048798411     1.8987460014    -0.0037709702
|  8>  C        1.8653874518     2.9595857927     0.9275516958
|  9>  C        3.2084779971     2.2170019157     0.9892138221
| 10>  C        2.7338511985     1.3360779158    -0.2110169651
| 11>  C        3.1727111230     1.9720986751    -1.5325125253
| 12>  C        2.5229288535     3.3798193007    -1.4441966183
| 13>  N        1.4463961103     3.2975978803    -0.4236084308
| 14>  H       -0.8597913246     1.9207464736     0.1228109838
| 15>  H        1.3708728096     3.4745773347     1.7447594702
| 16>  H        4.1220835616     2.8055949539     0.8527155020
| 17>  H        3.2879948852     1.6426001184     1.9146523870
| 18>  H        2.8783501687     0.2616448706    -0.1235961214
| 19>  H        4.2609430744     2.0190562612    -1.6359526000
| 20>  H        2.7759571291     1.4098591077    -2.3842607888
| 21>  H        3.2363317529     4.1545955607    -1.1492144738
| 22>  H        2.0710082552     3.6885790194    -2.3898674444
| 23> *
| 24>
| 25>                          ****END OF INPUT****

CARTESIAN COORDINATES (ANGSTROEM)
---------------------------------
  O     -0.145891    0.028148   -0.073044
  C      0.000626    1.224871    0.011579
  C      1.304880    1.898746   -0.003771
  C      1.865387    2.959586    0.927552
  C      3.208478    2.217002    0.989214
  C      2.733851    1.336078   -0.211017
  C      3.172711    1.972099   -1.532513
  C      2.522929    3.379819   -1.444197
  N      1.446396    3.297598   -0.423608
  H     -0.859791    1.920746    0.122811
  H      1.370873    3.474577    1.744759
  H      4.122084    2.805595    0.852716
  H      3.287995    1.642600    1.914652
  H      2.878350    0.261645   -0.123596
  H      4.260943    2.019056   -1.635953
  H      2.775957    1.409859   -2.384261
  H      3.236332    4.154596   -1.149214
  H      2.071008    3.688579   -2.389867

 Total Charge           Charge          ....    0
 Multiplicity           Mult            ....    1
 Number of Electrons    NEL             ....   66
 Basis Dimension        Dim             ....  333

ORBITAL ENERGIES
----------------

  NO   OCC          E(Eh)            E(eV)
   0   2.0000     -20.552822      -559.2707
   1   2.0000     -15.581216      -423.9865
   2   2.0000     -11.332022      -308.3600
   3   2.0000     -11.283215      -307.0319
   4   2.0000     -11.271400      -306.7104
   5   2.0000     -11.261471      -306.4402
   6   2.0000     -11.247847      -306.0695
   7   2.0000     -11.243589      -305.9536
   8   2.0000     -11.233660      -305.6834
   9   2.0000      -1.391366       -37.8610
  10   2.0000      -1.320970       -35.9454
  11   2.0000      -1.071554       -29.1585
  12   2.0000      -1.052240       -28.6329
  13   2.0000      -0.960011       -26.1232
  14   2.0000      -0.871547       -23.7160
  15   2.0000      -0.845219       -22.9996
  16   2.0000      -0.776470       -21.1288
  17   2.0000      -0.731393       -19.9022
  18   2.0000      -0.708891       -19.2899
  19   2.0000      -0.663023       -18.0418
  20   2.0000      -0.657170       -17.8825
  21   2.0000      -0.631063       -17.1721
  22   2.0000      -0.587837       -15.9959
  23   2.0000      -0.569351       -15.4928
  24   2.0000      -0.555568       -15.1178
  25   2.0000      -0.540188       -14.6993
  26   2.0000      -0.510078       -13.8799
  27   2.0000      -0.495616       -13.4864
  28   2.0000      -0.476491       -12.9660
  29   2.0000      -0.447273       -12.1709
  30   2.0000      -0.427054       -11.6207
  31   2.0000      -0.422446       -11.4954
  32   2.0000      -0.385369       -10.4864
  33   0.0000       0.120709         3.2846
  34   0.0000       0.134844         3.6693
  35   0.0000       0.160707         4.3731
  36   0.0000       0.166944         4.5428
  37   0.0000       0.176320         4.7979

MULLIKEN ATOMIC CHARGES
-----------------------
   0 O :   -0.274618
   1 C :    0.030194
   2 C :    0.159636
   3 C :   -0.106370
   4 C :   -0.261547
   5 C :   -0.011657
   6 C :   -0.286975
   7 C :   -0.151563
   8 N :   -0.231700
   9 H :    0.089841
  10 H :    0.137959
  11 H :    0.119569
  12 H :    0.132451
  13 H :    0.142574
  14 H :    0.126129
  15 H :    0.127383
  16 H :    0.124735
  17 H :    0.133959
Sum of atomic charges:   -0.0000000

LOEWDIN ATOMIC CHARGES
----------------------
   0 O :    0.127260
   1 C :   -0.272802
   2 C :   -0.213405
   3 C :   -0.181376
   4 C :   -0.195060
   5 C :   -0.169408
   6 C :   -0.235115
   7 C :   -0.250053
   8 N :    0.166297
   9 H :    0.121506
  10 H :    0.135932
  11 H :    0.128739
  12 H :    0.143979
  13 H :    0.150145
  14 H :    0.137929
  15 H :    0.140474
  16 H :    0.131827
  17 H :    0.133130

  Mayer bond orders larger than 0.1
B(  0-O ,  1-C ) :   2.0077 B(  0-O ,  2-C ) :  -0.1006 B(  1-C ,  2-C ) :   0.8193
B(  1-C ,  9-H ) :   0.9743 B(  2-C ,  3-C ) :   0.7502 B(  2-C ,  5-C ) :   0.8078
B(  2-C ,  8-N ) :   0.8210 B(  2-C ,  9-H ) :  -0.1035 B(  3-C ,  4-C ) :   0.9287
B(  3-C ,  8-N ) :   0.9447 B(  3-C , 10-H ) :   0.9238 B(  4-C ,  5-C ) :   0.9473
B(  4-C , 11-H ) :   0.9223 B(  4-C , 12-H ) :   0.9124 B(  5-C ,  6-C ) :   0.9266
B(  5-C , 13-H ) :   0.9083 B(  6-C ,  7-C ) :   0.9483 B(  6-C , 14-H ) :   0.9253
B(  6-C , 15-H ) :   0.9242 B(  7-C ,  8-N ) :   0.8917 B(  7-C , 16-H ) :   0.9329
B(  7-C , 17-H ) :   0.9304

MP2 TOTAL ENERGY:     -401.234874338 Eh
FINAL SINGLE POINT ENERGY      -401.234874338276

DIPOLE MOMENT
-------------
                                X             Y             Z
Electronic contribution:     -5.67230      -2.34372       1.23233
Nuclear contribution   :      6.65935       3.01577      -1.12100
                        -----------------------------------------
Total Dipole Moment    :      0.98706       0.67206       0.11133
                        -----------------------------------------
Magnitude (a.u.)       :      1.19931
Magnitude (Debye)      :      3.04839

                             ****ORCA TERMINATED NORMALLY****
TOTAL RUN TIME: 0 days 0 hours 18 minutes 44 seconds 305 msec
