                         Program Version 3.0.3 - RELEASE   -
|  1> ! RI-MP2 RIJK def2-TZVP def2-TZVP/C def2-TZVP/JK TIGHTSCF
|  2> % maxcore 2000
|  3> % mp2 density relaxed end
|  4> *xyz 0 1
|  5>  C       -0.0755775123     1.8684357393     0.6297756243
|  6>  C        0.0050148552     0.4210011512     0.1493065910
|  7>  N        0.8089358997    -0.4425637867     1.0238385140
|  8>  C        0.5093201252    -1.8514652549     0.8115948795
|  9>  C       -0.8505050113    -2.2234336214     1.3854626999
| 10>  O       -1.5660903414    -3.0798309253     0.9391337044
| 11>  C        2.2371279352    -0.1716789032     0.9714095655
| 12>  C        2.9439142260    -0.6839026895     2.2175346544
| 13>  O        4.0729814019    -1.0960142311     2.2404573098
| 14>  H        0.8906713817     2.3801926320     0.5854139560
| 15>  H       -0.7666091548     2.4314734718    -0.0045984650
| 16>  H       -0.4366675399     1.9105039423     1.6612369673
| 17>  H       -1.0086249101     0.0046781019     0.1294394503
| 18>  H        0.3695394122     0.3842164087    -0.8939919960
| 19>  H        0.5569206276    -2.1728297957    -0.2429310997
| 20>  H        1.2438076939    -2.4593540554     1.3596150153
| 21>  H       -1.1211322395    -1.6349943681     2.2917526937
| 22>  H        2.7451800701    -0.5711978417     0.0774095552
| 23>  H        2.3930628796     0.9145249353     0.9694411220
| 24>  H        2.3149037907    -0.6227906894     3.1350608081
| 25> *
| 26>
| 27>                          ****END OF INPUT****

CARTESIAN COORDINATES (ANGSTROEM)
---------------------------------
  C     -0.075578    1.868436    0.629776
  C      0.005015    0.421001    0.149307
  N      0.808936   -0.442564    1.023839
  C      0.509320   -1.851465    0.811595
  C     -0.850505   -2.223434    1.385463
  O     -1.566090   -3.079831    0.939134
  C      2.237128   -0.171679    0.971410
  C      2.943914   -0.683903    2.217535
  O      4.072981   -1.096014    2.240457
  H      0.890671    2.380193    0.585414
  H     -0.766609    2.431473   -0.004598
  H     -0.436668    1.910504    1.661237
  H     -1.008625    0.004678    0.129439
  H      0.369539    0.384216   -0.893992
  H      0.556921   -2.172830   -0.242931
  H      1.243808   -2.459354    1.359615
  H     -1.121132   -1.634994    2.291753
  H      2.745180   -0.571198    0.077410
  H      2.393063    0.914525    0.969441
  H      2.314904   -0.622791    3.135061

 Total Charge           Charge          ....    0
 Multiplicity           Mult            ....    1
 Number of Electrons    NEL             ....   70
 Basis Dimension        Dim             ....  345

ORBITAL ENERGIES
----------------

  NO   OCC          E(Eh)            E(eV)
   0   2.0000     -20.569110      -559.7139
   1   2.0000     -20.567973      -559.6830
   2   2.0000     -15.583488      -424.0483
   3   2.0000     -11.341716      -308.6238
   4   2.0000     -11.340943      -308.6028
   5   2.0000     -11.282775      -307.0199
   6   2.0000     -11.282118      -307.0020
   7   2.0000     -11.276732      -306.8555
   8   2.0000     -11.235101      -305.7226
   9   2.0000      -1.408581       -38.3294
  10   2.0000      -1.407469       -38.2992
  11   2.0000      -1.265611       -34.4390
  12   2.0000      -1.047098       -28.4930
  13   2.0000      -1.031651       -28.0727
  14   2.0000      -0.940884       -25.6027
  15   2.0000      -0.846260       -23.0279
  16   2.0000      -0.811739       -22.0885
  17   2.0000      -0.802673       -21.8418
  18   2.0000      -0.705055       -19.1855
  19   2.0000      -0.686991       -18.6940
  20   2.0000      -0.672354       -18.2957
  21   2.0000      -0.655563       -17.8388
  22   2.0000      -0.643737       -17.5170
  23   2.0000      -0.619855       -16.8671
  24   2.0000      -0.613062       -16.6823
  25   2.0000      -0.589315       -16.0361
  26   2.0000      -0.580497       -15.7961
  27   2.0000      -0.546623       -14.8744
  28   2.0000      -0.535308       -14.5665
  29   2.0000      -0.529185       -14.3999
  30   2.0000      -0.507029       -13.7970
  31   2.0000      -0.501989       -13.6598
  32   2.0000      -0.436307       -11.8725
  33   2.0000      -0.429536       -11.6883
  34   2.0000      -0.393129       -10.6976
  35   0.0000       0.111745         3.0407
  36   0.0000       0.126494         3.4421
  37   0.0000       0.129926         3.5355
  38   0.0000       0.141460         3.8493
  39   0.0000       0.153804         4.1852

MULLIKEN ATOMIC CHARGES
-----------------------
   0 C :   -0.391048
   1 C :   -0.156075
   2 N :   -0.206392
   3 C :   -0.100347
   4 C :    0.052196
   5 O :   -0.251874
   6 C :   -0.085102
   7 C :    0.052158
   8 O :   -0.251785
   9 H :    0.124205
  10 H :    0.139416
  11 H :    0.133720
  12 H :    0.132396
  13 H :    0.108236
  14 H :    0.120839
  15 H :    0.149914
  16 H :    0.089161
  17 H :    0.119101
  18 H :    0.134779
  19 H :    0.086502
Sum of atomic charges:   -0.0000000

LOEWDIN ATOMIC CHARGES
----------------------
   0 C :   -0.316191
   1 C :   -0.304253
   2 N :    0.079334
   3 C :   -0.286012
   4 C :   -0.300844
   5 O :    0.139128
   6 C :   -0.286843
   7 C :   -0.301747
   8 O :    0.138626
   9 H :    0.117802
  10 H :    0.127659
  11 H :    0.124900
  12 H :    0.140265
  13 H :    0.124548
  14 H :    0.135809
  15 H :    0.155642
  16 H :    0.112693
  17 H :    0.134664
  18 H :    0.152410
  19 H :    0.112411

  Mayer bond orders larger than 0.1
B(  0-C ,  1-C ) :   0.9361 B(  0-C ,  9-H ) :   0.9361 B(  0-C , 10-H ) :   0.9353
B(  0-C , 11-H ) :   0.9350 B(  1-C ,  2-N ) :   0.8817 B(  1-C , 12-H ) :   0.9253
B(  1-C , 13-H ) :   0.9214 B(  2-N ,  3-C ) :   0.8638 B(  2-N ,  6-C ) :   0.8709
B(  3-C ,  4-C ) :   0.8734 B(  3-C , 14-H ) :   0.8869 B(  3-C , 15-H ) :   0.9061
B(  4-C ,  5-O ) :   2.0116 B(  4-C , 16-H ) :   0.9360 B(  6-C ,  7-C ) :   0.8758
B(  6-C , 17-H ) :   0.8857 B(  6-C , 18-H ) :   0.9060 B(  7-C ,  8-O ) :   2.0114
B(  7-C , 19-H ) :   0.9355

MP2 TOTAL ENERGY:     -439.552910301 Eh
FINAL SINGLE POINT ENERGY      -439.552910300959

DIPOLE MOMENT
-------------
                                X             Y             Z
Electronic contribution:      2.29140      -7.70199       3.09811
Nuclear contribution   :     -2.51828       8.81620      -3.33776
                        -----------------------------------------
Total Dipole Moment    :     -0.22688       1.11421      -0.23965
                        -----------------------------------------
Magnitude (a.u.)       :      1.16205
Magnitude (Debye)      :      2.95370

                             ****ORCA TERMINATED NORMALLY****
TOTAL RUN TIME: 0 days 0 hours 16 minutes 26 seconds 275 msec
