                         Program Version 3.0.3 - RELEASE   -
|  1> ! RI-MP2 RIJK def2-TZVP def2-TZVP/C def2-TZVP/JK TIGHTSCF
|  2> % maxcore 2000
|  3> % mp2 density relaxed end
|  4> *xyz 0 1
|  5>  C        0.0180297702     1.5389829764     0.0832393141
|  6>  C       -0.0401305843     0.0088155059    -0.0416255309
|  7>  C       -1.4862126186    -0.4866610330     0.0992912360
|  8>  C        0.6825007033    -0.5118970272    -1.3144332435
|  9>  C        0.6927272637    -2.0480948882    -1.3615120370
| 10>  C        0.1014952431     0.0545669319    -2.6191376965
| 11>  O        2.0344420895    -0.0510290725    -1.1565556514
| 12>  H        1.0343799558     1.9053673680    -0.0711477189
| 13>  H       -0.6407059054     2.0289863607    -0.6424693557
| 14>  H       -0.3139669618     1.8486904439     1.0796712188
| 15>  H        0.5413577213    -0.4074491473     0.7919786453
| 16>  H       -2.1187973275    -0.1267695116    -0.7199314406
| 17>  H       -1.5554157290    -1.5774706589     0.1249378280
| 18>  H       -1.9203188335    -0.1088496473     1.0306501378
| 19>  H       -0.3021742192    -2.4645816366    -1.5422877977
| 20>  H        1.3421077293    -2.3924576206    -2.1752772976
| 21>  H        1.0798802716    -2.4590665327    -0.4243599178
| 22>  H        0.1813104020     1.1436366420    -2.6420188951
| 23>  H        0.6531907808    -0.3420329790    -3.4800377295
| 24>  H       -0.9487953666    -0.2218607400    -2.7527398293
| 25>  H        2.5317157052    -0.3318358140    -1.9317714984
| 26> *
| 27>
| 28>                          ****END OF INPUT****

CARTESIAN COORDINATES (ANGSTROEM)
---------------------------------
  C      0.018030    1.538983    0.083239
  C     -0.040131    0.008816   -0.041626
  C     -1.486213   -0.486661    0.099291
  C      0.682501   -0.511897   -1.314433
  C      0.692727   -2.048095   -1.361512
  C      0.101495    0.054567   -2.619138
  O      2.034442   -0.051029   -1.156556
  H      1.034380    1.905367   -0.071148
  H     -0.640706    2.028986   -0.642469
  H     -0.313967    1.848690    1.079671
  H      0.541358   -0.407449    0.791979
  H     -2.118797   -0.126770   -0.719931
  H     -1.555416   -1.577471    0.124938
  H     -1.920319   -0.108850    1.030650
  H     -0.302174   -2.464582   -1.542288
  H      1.342108   -2.392458   -2.175277
  H      1.079880   -2.459067   -0.424360
  H      0.181310    1.143637   -2.642019
  H      0.653191   -0.342033   -3.480038
  H     -0.948795   -0.221861   -2.752740
  H      2.531716   -0.331836   -1.931771

 Total Charge           Charge          ....    0
 Multiplicity           Mult            ....    1
 Number of Electrons    NEL             ....   58
 Basis Dimension        Dim             ....  301

ORBITAL ENERGIES
----------------

  NO   OCC          E(Eh)            E(eV)
   0   2.0000     -20.545898      -559.0823
   1   2.0000     -11.282879      -307.0227
   2   2.0000     -11.221606      -305.3554
   3   2.0000     -11.214064      -305.1502
   4   2.0000     -11.213654      -305.1390
   5   2.0000     -11.210574      -305.0552
   6   2.0000     -11.200657      -304.7854
   7   2.0000      -1.354655       -36.8620
   8   2.0000      -1.084716       -29.5166
   9   2.0000      -1.006384       -27.3851
  10   2.0000      -0.941261       -25.6130
  11   2.0000      -0.919339       -25.0165
  12   2.0000      -0.844546       -22.9813
  13   2.0000      -0.733967       -19.9723
  14   2.0000      -0.666600       -18.1391
  15   2.0000      -0.643754       -17.5174
  16   2.0000      -0.613170       -16.6852
  17   2.0000      -0.593290       -16.1442
  18   2.0000      -0.580216       -15.7885
  19   2.0000      -0.551512       -15.0074
  20   2.0000      -0.540845       -14.7171
  21   2.0000      -0.529930       -14.4201
  22   2.0000      -0.523544       -14.2464
  23   2.0000      -0.505937       -13.7673
  24   2.0000      -0.503572       -13.7029
  25   2.0000      -0.471238       -12.8230
  26   2.0000      -0.466173       -12.6852
  27   2.0000      -0.437259       -11.8984
  28   2.0000      -0.426978       -11.6187
  29   0.0000       0.127114         3.4589
  30   0.0000       0.156766         4.2658
  31   0.0000       0.172116         4.6835
  32   0.0000       0.176697         4.8082
  33   0.0000       0.192644         5.2421

MULLIKEN ATOMIC CHARGES
-----------------------
   0 C :   -0.443958
   1 C :    0.026327
   2 C :   -0.442833
   3 C :    0.247717
   4 C :   -0.431268
   5 C :   -0.482920
   6 O :   -0.471968
   7 H :    0.159808
   8 H :    0.118873
   9 H :    0.129265
  10 H :    0.087957
  11 H :    0.123872
  12 H :    0.136389
  13 H :    0.136051
  14 H :    0.130549
  15 H :    0.118186
  16 H :    0.142721
  17 H :    0.154540
  18 H :    0.123750
  19 H :    0.129499
  20 H :    0.307443
Sum of atomic charges:    0.0000000

LOEWDIN ATOMIC CHARGES
----------------------
   0 C :   -0.294845
   1 C :   -0.270657
   2 C :   -0.292483
   3 C :   -0.401993
   4 C :   -0.281637
   5 C :   -0.280439
   6 O :    0.000889
   7 H :    0.128875
   8 H :    0.119683
   9 H :    0.122235
  10 H :    0.157804
  11 H :    0.121576
  12 H :    0.121699
  13 H :    0.126091
  14 H :    0.125150
  15 H :    0.121189
  16 H :    0.128340
  17 H :    0.128485
  18 H :    0.122835
  19 H :    0.126627
  20 H :    0.170576

  Mayer bond orders larger than 0.1
B(  0-C ,  1-C ) :   0.9172 B(  0-C ,  7-H ) :   0.9366 B(  0-C ,  8-H ) :   0.9341
B(  0-C ,  9-H ) :   0.9390 B(  1-C ,  2-C ) :   0.8962 B(  1-C ,  3-C ) :   0.8691
B(  1-C , 10-H ) :   0.9269 B(  2-C , 11-H ) :   0.9313 B(  2-C , 12-H ) :   0.9411
B(  2-C , 13-H ) :   0.9398 B(  3-C ,  4-C ) :   0.9076 B(  3-C ,  5-C ) :   0.9188
B(  3-C ,  6-O ) :   0.9053 B(  4-C , 14-H ) :   0.9334 B(  4-C , 15-H ) :   0.9271
B(  4-C , 16-H ) :   0.9418 B(  5-C , 17-H ) :   0.9443 B(  5-C , 18-H ) :   0.9283
B(  5-C , 19-H ) :   0.9310 B(  6-O , 20-H ) :   0.8455

MP2 TOTAL ENERGY:     -311.606588383 Eh
FINAL SINGLE POINT ENERGY      -311.606588382816

DIPOLE MOMENT
-------------
                                X             Y             Z
Electronic contribution:      4.26691       0.17752       0.02947
Nuclear contribution   :     -4.46252      -0.49744      -0.46576
                        -----------------------------------------
Total Dipole Moment    :     -0.19562      -0.31993      -0.43629
                        -----------------------------------------
Magnitude (a.u.)       :      0.57530
Magnitude (Debye)      :      1.46228

                             ****ORCA TERMINATED NORMALLY****
TOTAL RUN TIME: 0 days 0 hours 11 minutes 8 seconds 31 msec
