                         Program Version 3.0.3 - RELEASE   -
|  1> ! RI-MP2 RIJK def2-TZVP def2-TZVP/C def2-TZVP/JK TIGHTSCF
|  2> % maxcore 2000
|  3> % mp2 density relaxed end
|  4> *xyz 0 1
|  5>  O        0.0146291296     1.4002178477    -0.1216686755
|  6>  C        0.0195608625     0.0071766410     0.0255579490
|  7>  C        0.2555472308    -0.8529442661    -1.2378785650
|  8>  O       -1.0124635638    -1.5194907324    -1.0610876018
|  9>  C       -1.3643301400    -0.6687245650     0.0583991387
| 10>  C       -1.4096763270    -1.4505780402     1.3477949788
| 11>  N       -2.4279518249    -2.0130906095     1.8306703436
| 12>  O       -0.1519309540    -1.4886383126     1.8950854256
| 13>  C        0.6976683702    -0.4857936587     1.3213343076
| 14>  H        0.9205651971     1.7050444782    -0.2447950337
| 15>  H        0.2822195870    -0.2601526377    -2.1601040902
| 16>  H        1.0981437339    -1.5542468927    -1.2177715091
| 17>  H       -2.2535381609    -0.0646266879    -0.1265390565
| 18>  H       -2.1962670385    -2.4987243002     2.6998509416
| 19>  H        1.6841196360    -0.9314803974     1.1626319077
| 20>  H        0.7866076919     0.3544592835     2.0199791794
| 21> *
| 22>
| 23>                          ****END OF INPUT****

CARTESIAN COORDINATES (ANGSTROEM)
---------------------------------
  O      0.014629    1.400218   -0.121669
  C      0.019561    0.007177    0.025558
  C      0.255547   -0.852944   -1.237879
  O     -1.012464   -1.519491   -1.061088
  C     -1.364330   -0.668725    0.058399
  C     -1.409676   -1.450578    1.347795
  N     -2.427952   -2.013091    1.830670
  O     -0.151931   -1.488638    1.895085
  C      0.697668   -0.485794    1.321334
  H      0.920565    1.705044   -0.244795
  H      0.282220   -0.260153   -2.160104
  H      1.098144   -1.554247   -1.217772
  H     -2.253538   -0.064627   -0.126539
  H     -2.196267   -2.498724    2.699851
  H      1.684120   -0.931480    1.162632
  H      0.786608    0.354459    2.019979

 Total Charge           Charge          ....    0
 Multiplicity           Mult            ....    1
 Number of Electrons    NEL             ....   68
 Basis Dimension        Dim             ....  321

ORBITAL ENERGIES
----------------

  NO   OCC          E(Eh)            E(eV)
   0   2.0000     -20.603231      -560.6424
   1   2.0000     -20.593780      -560.3852
   2   2.0000     -20.572342      -559.8019
   3   2.0000     -15.542157      -422.9236
   4   2.0000     -11.339956      -308.5759
   5   2.0000     -11.319241      -308.0122
   6   2.0000     -11.309735      -307.7535
   7   2.0000     -11.305089      -307.6271
   8   2.0000     -11.298857      -307.4575
   9   2.0000      -1.445959       -39.3466
  10   2.0000      -1.409053       -38.3423
  11   2.0000      -1.385818       -37.7100
  12   2.0000      -1.202950       -32.7339
  13   2.0000      -1.054868       -28.7044
  14   2.0000      -0.988899       -26.9093
  15   2.0000      -0.945198       -25.7201
  16   2.0000      -0.818360       -22.2687
  17   2.0000      -0.787486       -21.4286
  18   2.0000      -0.742913       -20.2157
  19   2.0000      -0.700283       -19.0557
  20   2.0000      -0.691173       -18.8078
  21   2.0000      -0.669872       -18.2281
  22   2.0000      -0.647904       -17.6304
  23   2.0000      -0.633919       -17.2498
  24   2.0000      -0.617556       -16.8045
  25   2.0000      -0.585013       -15.9190
  26   2.0000      -0.577394       -15.7117
  27   2.0000      -0.532111       -14.4795
  28   2.0000      -0.522704       -14.2235
  29   2.0000      -0.483288       -13.1509
  30   2.0000      -0.456084       -12.4107
  31   2.0000      -0.449688       -12.2366
  32   2.0000      -0.429031       -11.6745
  33   2.0000      -0.407445       -11.0871
  34   0.0000       0.108715         2.9583
  35   0.0000       0.144947         3.9442
  36   0.0000       0.149539         4.0692
  37   0.0000       0.171353         4.6627
  38   0.0000       0.183281         4.9873

MULLIKEN ATOMIC CHARGES
-----------------------
   0 O :   -0.452241
   1 C :    0.142585
   2 C :   -0.056918
   3 O :   -0.317690
   4 C :    0.175028
   5 C :    0.071948
   6 N :   -0.358537
   7 O :   -0.268825
   8 C :   -0.062709
   9 H :    0.327661
  10 H :    0.104173
  11 H :    0.102115
  12 H :    0.128997
  13 H :    0.226310
  14 H :    0.120046
  15 H :    0.118055
Sum of atomic charges:    0.0000000

LOEWDIN ATOMIC CHARGES
----------------------
   0 O :    0.026661
   1 C :   -0.352628
   2 C :   -0.233184
   3 O :    0.154538
   4 C :   -0.186683
   5 C :   -0.384306
   6 N :   -0.033508
   7 O :    0.232886
   8 C :   -0.237540
   9 H :    0.183898
  10 H :    0.124034
  11 H :    0.120979
  12 H :    0.152297
  13 H :    0.171142
  14 H :    0.129551
  15 H :    0.131865

  Mayer bond orders larger than 0.1
B(  0-O ,  1-C ) :   1.0328 B(  0-O ,  9-H ) :   0.8342 B(  1-C ,  2-C ) :   0.9858
B(  1-C ,  4-C ) :   0.9374 B(  1-C ,  8-C ) :   0.9518 B(  2-C ,  3-O ) :   0.9633
B(  2-C , 10-H ) :   0.9034 B(  2-C , 11-H ) :   0.9015 B(  3-O ,  4-C ) :   0.9577
B(  4-C ,  5-C ) :   0.8637 B(  4-C , 12-H ) :   0.9040 B(  5-C ,  6-N ) :   2.0562
B(  5-C ,  7-O ) :   1.0640 B(  6-N , 13-H ) :   0.8529 B(  7-O ,  8-C ) :   0.9066
B(  8-C , 14-H ) :   0.9084 B(  8-C , 15-H ) :   0.9214

MP2 TOTAL ENERGY:     -474.254915843 Eh
FINAL SINGLE POINT ENERGY      -474.254915842883

DIPOLE MOMENT
-------------
                                X             Y             Z
Electronic contribution:     -2.30050      -1.13014       0.88658
Nuclear contribution   :      4.04938       1.97192      -0.91915
                        -----------------------------------------
Total Dipole Moment    :      1.74888       0.84178      -0.03257
                        -----------------------------------------
Magnitude (a.u.)       :      1.94119
Magnitude (Debye)      :      4.93411

                             ****ORCA TERMINATED NORMALLY****
TOTAL RUN TIME: 0 days 0 hours 15 minutes 21 seconds 267 msec
