                         Program Version 3.0.3 - RELEASE   -
|  1> ! RI-MP2 RIJK def2-TZVP def2-TZVP/C def2-TZVP/JK TIGHTSCF
|  2> % maxcore 2000
|  3> % mp2 density relaxed end
|  4> *xyz 0 1
|  5>  C        0.0463688175     1.6058305482     0.1176505226
|  6>  C       -0.0061495558     0.0779574404     0.0214324457
|  7>  C       -1.4274757229    -0.4423206560    -0.2117839748
|  8>  C       -2.0471050693     0.0182680026    -1.5495550616
|  9>  C       -3.3572364855    -0.5815681858    -1.7900634264
| 10>  N       -4.3924191510    -1.0654514543    -1.9633109377
| 11>  C        1.1043237191    -0.4908181259    -0.9251404899
| 12>  C        1.9936911237    -0.7690873549     0.3160278105
| 13>  C        0.7431212715    -0.5951389254     1.2181934625
| 14>  H        1.0590733635     1.9487862856     0.3525911645
| 15>  H       -0.2449578914     2.0880472914    -0.8218648415
| 16>  H       -0.6190563800     1.9732670547     0.9074304168
| 17>  H       -1.4170743572    -1.5377798180    -0.1964714143
| 18>  H       -2.0799806388    -0.1256758388     0.6112196252
| 19>  H       -2.1607442191     1.1069725754    -1.5738332371
| 20>  H       -1.3866272641    -0.2484777577    -2.3832050062
| 21>  H        0.7885174015    -1.4159544788    -1.4178163415
| 22>  H        1.5012020626     0.1869022361    -1.6861398046
| 23>  H        2.5009957370    -1.7351141937     0.3541495741
| 24>  H        2.7395480167     0.0130061673     0.4781491010
| 25>  H        0.8535182579     0.0043317224     2.1259796910
| 26>  H        0.2949251139    -1.5549766148     1.4915282816
| 27> *
| 28>
| 29>                          ****END OF INPUT****

CARTESIAN COORDINATES (ANGSTROEM)
---------------------------------
  C      0.046369    1.605831    0.117651
  C     -0.006150    0.077957    0.021432
  C     -1.427476   -0.442321   -0.211784
  C     -2.047105    0.018268   -1.549555
  C     -3.357236   -0.581568   -1.790063
  N     -4.392419   -1.065451   -1.963311
  C      1.104324   -0.490818   -0.925140
  C      1.993691   -0.769087    0.316028
  C      0.743121   -0.595139    1.218193
  H      1.059073    1.948786    0.352591
  H     -0.244958    2.088047   -0.821865
  H     -0.619056    1.973267    0.907430
  H     -1.417074   -1.537780   -0.196471
  H     -2.079981   -0.125676    0.611220
  H     -2.160744    1.106973   -1.573833
  H     -1.386627   -0.248478   -2.383205
  H      0.788517   -1.415954   -1.417816
  H      1.501202    0.186902   -1.686140
  H      2.500996   -1.735114    0.354150
  H      2.739548    0.013006    0.478149
  H      0.853518    0.004332    2.125980
  H      0.294925   -1.554977    1.491528

 Total Charge           Charge          ....    0
 Multiplicity           Mult            ....    1
 Number of Electrons    NEL             ....   68
 Basis Dimension        Dim             ....  357

ORBITAL ENERGIES
----------------

  NO   OCC          E(Eh)            E(eV)
   0   2.0000     -15.564064      -423.5197
   1   2.0000     -11.279399      -306.9281
   2   2.0000     -11.269224      -306.6512
   3   2.0000     -11.249047      -306.1021
   4   2.0000     -11.246533      -306.0337
   5   2.0000     -11.230262      -305.5910
   6   2.0000     -11.229296      -305.5647
   7   2.0000     -11.228179      -305.5343
   8   2.0000     -11.227899      -305.5267
   9   2.0000      -1.214623       -33.0516
  10   2.0000      -1.156605       -31.4728
  11   2.0000      -1.075614       -29.2690
  12   2.0000      -0.990941       -26.9649
  13   2.0000      -0.923032       -25.1170
  14   2.0000      -0.909371       -24.7452
  15   2.0000      -0.832984       -22.6666
  16   2.0000      -0.730065       -19.8661
  17   2.0000      -0.701109       -19.0782
  18   2.0000      -0.663286       -18.0489
  19   2.0000      -0.650787       -17.7088
  20   2.0000      -0.632855       -17.2209
  21   2.0000      -0.597442       -16.2572
  22   2.0000      -0.576673       -15.6921
  23   2.0000      -0.557611       -15.1734
  24   2.0000      -0.555295       -15.1103
  25   2.0000      -0.546791       -14.8789
  26   2.0000      -0.532377       -14.4867
  27   2.0000      -0.505043       -13.7429
  28   2.0000      -0.481370       -13.0987
  29   2.0000      -0.465709       -12.6726
  30   2.0000      -0.456753       -12.4289
  31   2.0000      -0.453159       -12.3311
  32   2.0000      -0.435202       -11.8425
  33   2.0000      -0.426047       -11.5933
  34   0.0000       0.115247         3.1360
  35   0.0000       0.143435         3.9031
  36   0.0000       0.150295         4.0897
  37   0.0000       0.155084         4.2201
  38   0.0000       0.168925         4.5967

MULLIKEN ATOMIC CHARGES
-----------------------
   0 C :   -0.474394
   1 C :    0.229434
   2 C :   -0.305383
   3 C :   -0.144003
   4 C :   -0.182645
   5 N :   -0.058081
   6 C :   -0.289092
   7 C :   -0.228220
   8 C :   -0.265806
   9 H :    0.142006
  10 H :    0.133494
  11 H :    0.137035
  12 H :    0.136797
  13 H :    0.136442
  14 H :    0.158674
  15 H :    0.162774
  16 H :    0.115780
  17 H :    0.119943
  18 H :    0.118851
  19 H :    0.120828
  20 H :    0.119136
  21 H :    0.116430
Sum of atomic charges:    0.0000000

LOEWDIN ATOMIC CHARGES
----------------------
   0 C :   -0.268447
   1 C :   -0.281341
   2 C :   -0.213782
   3 C :   -0.240201
   4 C :   -0.194641
   5 N :    0.052056
   6 C :   -0.204982
   7 C :   -0.240905
   8 C :   -0.198497
   9 H :    0.131170
  10 H :    0.123205
  11 H :    0.128285
  12 H :    0.148520
  13 H :    0.148639
  14 H :    0.162903
  15 H :    0.165347
  16 H :    0.135688
  17 H :    0.126896
  18 H :    0.124561
  19 H :    0.132084
  20 H :    0.127666
  21 H :    0.135775

  Mayer bond orders larger than 0.1
B(  0-C ,  1-C ) :   0.8921 B(  0-C ,  9-H ) :   0.9311 B(  0-C , 10-H ) :   0.9414
B(  0-C , 11-H ) :   0.9377 B(  1-C ,  2-C ) :   0.8795 B(  1-C ,  6-C ) :   0.8869
B(  1-C ,  8-C ) :   0.8901 B(  2-C ,  3-C ) :   0.9079 B(  2-C , 12-H ) :   0.9282
B(  2-C , 13-H ) :   0.9319 B(  3-C ,  4-C ) :   0.9462 B(  3-C , 14-H ) :   0.9041
B(  3-C , 15-H ) :   0.9098 B(  4-C ,  5-N ) :   2.8906 B(  6-C ,  7-C ) :   0.9570
B(  6-C , 16-H ) :   0.9179 B(  6-C , 17-H ) :   0.9271 B(  7-C ,  8-C ) :   0.9543
B(  7-C , 18-H ) :   0.9258 B(  7-C , 19-H ) :   0.9278 B(  8-C , 20-H ) :   0.9311
B(  8-C , 21-H ) :   0.9150

MP2 TOTAL ENERGY:     -366.564744784 Eh
FINAL SINGLE POINT ENERGY      -366.564744784113

DIPOLE MOMENT
-------------
                                X             Y             Z
Electronic contribution:     -9.56438      -2.84998      -4.16395
Nuclear contribution   :     11.11274       3.46184       4.57349
                        -----------------------------------------
Total Dipole Moment    :      1.54836       0.61186       0.40954
                        -----------------------------------------
Magnitude (a.u.)       :      1.71450
Magnitude (Debye)      :      4.35791

                             ****ORCA TERMINATED NORMALLY****
TOTAL RUN TIME: 0 days 0 hours 19 minutes 20 seconds 648 msec
