                         Program Version 3.0.3 - RELEASE   -
|  1> ! RI-MP2 RIJK def2-TZVP def2-TZVP/C def2-TZVP/JK TIGHTSCF
|  2> % maxcore 2000
|  3> % mp2 density relaxed end
|  4> *xyz 0 1
|  5>  O       -0.0266045657     1.4572831102     0.1281401522
|  6>  C        0.0161528634     0.0428672360     0.0667044528
|  7>  C        0.5405493460    -0.6285216245     1.3561170404
|  8>  O       -0.0349975180    -1.9233626604     1.3752413339
|  9>  C       -1.3453735573    -1.8174885970     0.8341300207
| 10>  C       -2.4250433630    -1.1943681145     1.7672702227
| 11>  C       -2.4850976926     0.0659920101     0.8563440649
| 12>  C       -1.3938247885    -0.5471913796    -0.0695617143
| 13>  H        0.8773193646     1.7854775744     0.1566860981
| 14>  H        0.6251756522    -0.2894013836    -0.7866407732
| 15>  H        1.6282880472    -0.7443085461     1.3868213259
| 16>  H        0.2310720475    -0.0219425428     2.2227945331
| 17>  H       -1.5954257516    -2.7862227759     0.3969210170
| 18>  H       -3.3532244956    -1.7682818115     1.8222522114
| 19>  H       -2.0660018493    -1.0250224455     2.7856806783
| 20>  H       -3.4450092800     0.2126744038     0.3573880963
| 21>  H       -2.1963217682     1.0078128441     1.3251957806
| 22>  H       -1.6846294212    -0.6825117772    -1.1116403808
| 23> *
| 24>
| 25>                          ****END OF INPUT****

CARTESIAN COORDINATES (ANGSTROEM)
---------------------------------
  O     -0.026605    1.457283    0.128140
  C      0.016153    0.042867    0.066704
  C      0.540549   -0.628522    1.356117
  O     -0.034998   -1.923363    1.375241
  C     -1.345374   -1.817489    0.834130
  C     -2.425043   -1.194368    1.767270
  C     -2.485098    0.065992    0.856344
  C     -1.393825   -0.547191   -0.069562
  H      0.877319    1.785478    0.156686
  H      0.625176   -0.289401   -0.786641
  H      1.628288   -0.744309    1.386821
  H      0.231072   -0.021943    2.222795
  H     -1.595426   -2.786223    0.396921
  H     -3.353224   -1.768282    1.822252
  H     -2.066002   -1.025022    2.785681
  H     -3.445009    0.212674    0.357388
  H     -2.196322    1.007813    1.325196
  H     -1.684629   -0.682512   -1.111640

 Total Charge           Charge          ....    0
 Multiplicity           Mult            ....    1
 Number of Electrons    NEL             ....   62
 Basis Dimension        Dim             ....  308

ORBITAL ENERGIES
----------------

  NO   OCC          E(Eh)            E(eV)
   0   2.0000     -20.563496      -559.5612
   1   2.0000     -20.553543      -559.2903
   2   2.0000     -11.283299      -307.0342
   3   2.0000     -11.274150      -306.7852
   4   2.0000     -11.272174      -306.7314
   5   2.0000     -11.224649      -305.4382
   6   2.0000     -11.217030      -305.2309
   7   2.0000     -11.216438      -305.2148
   8   2.0000      -1.384894       -37.6849
   9   2.0000      -1.364386       -37.1268
  10   2.0000      -1.114931       -30.3388
  11   2.0000      -1.011342       -27.5200
  12   2.0000      -0.921588       -25.0777
  13   2.0000      -0.874491       -23.7961
  14   2.0000      -0.802025       -21.8242
  15   2.0000      -0.740457       -20.1489
  16   2.0000      -0.717731       -19.5305
  17   2.0000      -0.693591       -18.8736
  18   2.0000      -0.638320       -17.3696
  19   2.0000      -0.628199       -17.0942
  20   2.0000      -0.599295       -16.3076
  21   2.0000      -0.587414       -15.9843
  22   2.0000      -0.551522       -15.0077
  23   2.0000      -0.541604       -14.7378
  24   2.0000      -0.516867       -14.0647
  25   2.0000      -0.498581       -13.5671
  26   2.0000      -0.474728       -12.9180
  27   2.0000      -0.460668       -12.5354
  28   2.0000      -0.427828       -11.6418
  29   2.0000      -0.419922       -11.4266
  30   2.0000      -0.400793       -10.9061
  31   0.0000       0.128588         3.4991
  32   0.0000       0.150853         4.1049
  33   0.0000       0.156906         4.2696
  34   0.0000       0.177176         4.8212
  35   0.0000       0.191966         5.2236

MULLIKEN ATOMIC CHARGES
-----------------------
   0 O :   -0.459415
   1 C :   -0.013507
   2 C :   -0.071637
   3 O :   -0.312216
   4 C :    0.016060
   5 C :   -0.241512
   6 C :   -0.292597
   7 C :    0.046047
   8 H :    0.318001
   9 H :    0.085389
  10 H :    0.119074
  11 H :    0.096791
  12 H :    0.106999
  13 H :    0.118327
  14 H :    0.117502
  15 H :    0.116535
  16 H :    0.136325
  17 H :    0.113833
Sum of atomic charges:    0.0000000

LOEWDIN ATOMIC CHARGES
----------------------
   0 O :   -0.013851
   1 C :   -0.329586
   2 C :   -0.299325
   3 O :    0.170972
   4 C :   -0.260385
   5 C :   -0.224362
   6 C :   -0.217881
   7 C :   -0.185522
   8 H :    0.176478
   9 H :    0.135809
  10 H :    0.124182
  11 H :    0.122122
  12 H :    0.131813
  13 H :    0.129483
  14 H :    0.133281
  15 H :    0.129629
  16 H :    0.134691
  17 H :    0.142453

  Mayer bond orders larger than 0.1
B(  0-O ,  1-C ) :   1.0578 B(  0-O ,  8-H ) :   0.8450 B(  1-C ,  2-C ) :   0.9278
B(  1-C ,  7-C ) :   0.8654 B(  1-C ,  9-H ) :   0.9328 B(  2-C ,  3-O ) :   0.9310
B(  2-C , 10-H ) :   0.9245 B(  2-C , 11-H ) :   0.9198 B(  3-O ,  4-C ) :   0.9641
B(  4-C ,  5-C ) :   0.9023 B(  4-C ,  7-C ) :   0.9151 B(  4-C , 12-H ) :   0.9340
B(  5-C ,  6-C ) :   0.9527 B(  5-C , 13-H ) :   0.9167 B(  5-C , 14-H ) :   0.9190
B(  6-C ,  7-C ) :   0.9341 B(  6-C , 15-H ) :   0.9230 B(  6-C , 16-H ) :   0.9150
B(  7-C , 17-H ) :   0.9159

MP2 TOTAL ENERGY:     -384.296979495 Eh
FINAL SINGLE POINT ENERGY      -384.296979494829

DIPOLE MOMENT
-------------
                                X             Y             Z
Electronic contribution:      2.53344      -0.73266      -0.83386
Nuclear contribution   :     -2.28319       0.96037       0.59008
                        -----------------------------------------
Total Dipole Moment    :      0.25026       0.22771      -0.24378
                        -----------------------------------------
Magnitude (a.u.)       :      0.41702
Magnitude (Debye)      :      1.05998

                             ****ORCA TERMINATED NORMALLY****
TOTAL RUN TIME: 0 days 0 hours 12 minutes 29 seconds 860 msec
