                         Program Version 3.0.3 - RELEASE   -
|  1> ! RI-MP2 RIJK def2-TZVP def2-TZVP/C def2-TZVP/JK TIGHTSCF
|  2> % maxcore 2000
|  3> % mp2 density relaxed end
|  4> *xyz 0 1
|  5>  C       -0.0247639234     1.6371542210    -0.0999231072
|  6>  C        0.0091951693     0.1222550204    -0.0713054319
|  7>  C       -1.1457623860    -0.5210822790     0.6406427962
|  8>  O       -2.1439986673     0.0510939154     0.9998086813
|  9>  C        0.5938879037    -0.7281025056    -1.1736550463
| 10>  C        1.4771544947    -0.0600009666    -2.2173914656
| 11>  C        2.5850847267     0.6522371360    -1.4021660634
| 12>  C        2.5201059796    -0.0077521707    -0.0003907715
| 13>  N        1.2329290335    -0.7126889036     0.1370768421
| 14>  H        0.1745557792     2.0526332447    -1.0897114206
| 15>  H       -1.0254526291     1.9500301228     0.2076006922
| 16>  H        0.6896415796     2.0736830717     0.6053889440
| 17>  H       -0.9986386623    -1.6095312532     0.8099472352
| 18>  H        0.0839095343    -1.6463862019    -1.4575244086
| 19>  H        1.8973581767    -0.8360942642    -2.8651343904
| 20>  H        0.9233696091     0.6280709803    -2.8636752246
| 21>  H        3.5695402135     0.5290613805    -1.8600564586
| 22>  H        2.3958423847     1.7250795255    -1.3380081955
| 23>  H        3.2982786668    -0.7697137374     0.1110797622
| 24>  H        2.6518519870     0.7090150040     0.8156572311
| 25> *
| 26>
| 27>                          ****END OF INPUT****

CARTESIAN COORDINATES (ANGSTROEM)
---------------------------------
  C     -0.024764    1.637154   -0.099923
  C      0.009195    0.122255   -0.071305
  C     -1.145762   -0.521082    0.640643
  O     -2.143999    0.051094    0.999809
  C      0.593888   -0.728103   -1.173655
  C      1.477154   -0.060001   -2.217391
  C      2.585085    0.652237   -1.402166
  C      2.520106   -0.007752   -0.000391
  N      1.232929   -0.712689    0.137077
  H      0.174556    2.052633   -1.089711
  H     -1.025453    1.950030    0.207601
  H      0.689642    2.073683    0.605389
  H     -0.998639   -1.609531    0.809947
  H      0.083910   -1.646386   -1.457524
  H      1.897358   -0.836094   -2.865134
  H      0.923370    0.628071   -2.863675
  H      3.569540    0.529061   -1.860056
  H      2.395842    1.725080   -1.338008
  H      3.298279   -0.769714    0.111080
  H      2.651852    0.709015    0.815657

 Total Charge           Charge          ....    0
 Multiplicity           Mult            ....    1
 Number of Electrons    NEL             ....   68
 Basis Dimension        Dim             ....  345

ORBITAL ENERGIES
----------------

  NO   OCC          E(Eh)            E(eV)
   0   2.0000     -20.551693      -559.2400
   1   2.0000     -15.572784      -423.7570
   2   2.0000     -11.325757      -308.1895
   3   2.0000     -11.277204      -306.8683
   4   2.0000     -11.274400      -306.7920
   5   2.0000     -11.261001      -306.4274
   6   2.0000     -11.241892      -305.9074
   7   2.0000     -11.234855      -305.7160
   8   2.0000     -11.226090      -305.4774
   9   2.0000      -1.392318       -37.8869
  10   2.0000      -1.297436       -35.3050
  11   2.0000      -1.068860       -29.0852
  12   2.0000      -1.020869       -27.7792
  13   2.0000      -0.988732       -26.9048
  14   2.0000      -0.897679       -24.4271
  15   2.0000      -0.821346       -22.3500
  16   2.0000      -0.791131       -21.5278
  17   2.0000      -0.742958       -20.2169
  18   2.0000      -0.695318       -18.9206
  19   2.0000      -0.675593       -18.3838
  20   2.0000      -0.640054       -17.4168
  21   2.0000      -0.617135       -16.7931
  22   2.0000      -0.614240       -16.7143
  23   2.0000      -0.583901       -15.8888
  24   2.0000      -0.554895       -15.0995
  25   2.0000      -0.541255       -14.7283
  26   2.0000      -0.533629       -14.5208
  27   2.0000      -0.508641       -13.8408
  28   2.0000      -0.501252       -13.6398
  29   2.0000      -0.499018       -13.5790
  30   2.0000      -0.462224       -12.5777
  31   2.0000      -0.450941       -12.2707
  32   2.0000      -0.419173       -11.4063
  33   2.0000      -0.375297       -10.2124
  34   0.0000       0.127882         3.4799
  35   0.0000       0.132707         3.6111
  36   0.0000       0.152068         4.1380
  37   0.0000       0.162343         4.4176
  38   0.0000       0.173458         4.7200

MULLIKEN ATOMIC CHARGES
-----------------------
   0 C :   -0.443241
   1 C :    0.234824
   2 C :    0.017737
   3 O :   -0.277540
   4 C :   -0.081485
   5 C :   -0.266307
   6 C :   -0.228013
   7 C :   -0.183894
   8 N :   -0.251718
   9 H :    0.139158
  10 H :    0.180926
  11 H :    0.141847
  12 H :    0.100414
  13 H :    0.129867
  14 H :    0.133070
  15 H :    0.130973
  16 H :    0.127297
  17 H :    0.131772
  18 H :    0.137145
  19 H :    0.127168
Sum of atomic charges:    0.0000000

LOEWDIN ATOMIC CHARGES
----------------------
   0 C :   -0.262143
   1 C :   -0.268656
   2 C :   -0.262182
   3 O :    0.130361
   4 C :   -0.210444
   5 C :   -0.238708
   6 C :   -0.256559
   7 C :   -0.269882
   8 N :    0.147937
   9 H :    0.128159
  10 H :    0.143182
  11 H :    0.131471
  12 H :    0.123828
  13 H :    0.142347
  14 H :    0.143466
  15 H :    0.141481
  16 H :    0.135200
  17 H :    0.134048
  18 H :    0.135666
  19 H :    0.131428

  Mayer bond orders larger than 0.1
B(  0-C ,  1-C ) :   0.8667 B(  0-C ,  9-H ) :   0.9416 B(  0-C , 10-H ) :   0.9172
B(  0-C , 11-H ) :   0.9318 B(  1-C ,  2-C ) :   0.8187 B(  1-C ,  4-C ) :   0.8417
B(  1-C ,  8-N ) :   0.7871 B(  2-C ,  3-O ) :   1.9854 B(  2-C , 12-H ) :   0.9615
B(  4-C ,  5-C ) :   0.9258 B(  4-C ,  8-N ) :   0.8971 B(  4-C , 13-H ) :   0.9043
B(  5-C ,  6-C ) :   0.9342 B(  5-C , 14-H ) :   0.9247 B(  5-C , 15-H ) :   0.9267
B(  6-C ,  7-C ) :   0.9112 B(  6-C , 16-H ) :   0.9288 B(  6-C , 17-H ) :   0.9332
B(  7-C ,  8-N ) :   0.9188 B(  7-C , 18-H ) :   0.9318 B(  7-C , 19-H ) :   0.9419

MP2 TOTAL ENERGY:     -402.455183295 Eh
FINAL SINGLE POINT ENERGY      -402.455183294897

DIPOLE MOMENT
-------------
                                X             Y             Z
Electronic contribution:     -5.97839      -3.61100       3.90960
Nuclear contribution   :      7.09226       3.77632      -4.80351
                        -----------------------------------------
Total Dipole Moment    :      1.11387       0.16532      -0.89391
                        -----------------------------------------
Magnitude (a.u.)       :      1.43774
Magnitude (Debye)      :      3.65445

                             ****ORCA TERMINATED NORMALLY****
TOTAL RUN TIME: 0 days 0 hours 20 minutes 36 seconds 282 msec
