                         Program Version 3.0.3 - RELEASE   -
|  1> ! RI-MP2 RIJK def2-TZVP def2-TZVP/C def2-TZVP/JK TIGHTSCF
|  2> % maxcore 2000
|  3> % mp2 density relaxed end
|  4> *xyz 0 1
|  5>  C       -0.2171144832     1.3407200289     0.1113250285
|  6>  O        0.1595858649    -0.0155141966    -0.0782877849
|  7>  C        0.7833349082    -0.5664177645     1.0141855680
|  8>  C        2.2476097785    -0.3308150454     1.4110133829
|  9>  C        2.3377665970    -1.8469214389     1.7983517677
| 10>  C        0.8763113654    -2.0293050656     1.3725077307
| 11>  C       -0.0285004390    -1.1012947867     2.1904988466
| 12>  C        0.2094097429    -0.7648877507     3.5632293983
| 13>  C        0.4231203052    -0.4713260512     4.7112599265
| 14>  H        0.6556251404     1.9795006645     0.3037882406
| 15>  H       -0.7008444901     1.6678054049    -0.8112645722
| 16>  H       -0.9202432203     1.4459052351     0.9486862418
| 17>  H        2.8639526290    -0.0915003936     0.5418674476
| 18>  H        2.4317958238     0.3963103155     2.2056795379
| 19>  H        3.0348660572    -2.3980601950     1.1647164347
| 20>  H        2.5531176174    -2.0628594378     2.8474711606
| 21>  H        0.4510508989    -2.8916886425     0.8739181457
| 22>  H       -1.0743329831    -1.2183450296     1.9167332151
| 23>  H        0.6022324269    -0.2150725006     5.7258049538
| 24> *
| 25>
| 26>                          ****END OF INPUT****

CARTESIAN COORDINATES (ANGSTROEM)
---------------------------------
  C     -0.217114    1.340720    0.111325
  O      0.159586   -0.015514   -0.078288
  C      0.783335   -0.566418    1.014186
  C      2.247610   -0.330815    1.411013
  C      2.337767   -1.846921    1.798352
  C      0.876311   -2.029305    1.372508
  C     -0.028500   -1.101295    2.190499
  C      0.209410   -0.764888    3.563229
  C      0.423120   -0.471326    4.711260
  H      0.655625    1.979501    0.303788
  H     -0.700844    1.667805   -0.811265
  H     -0.920243    1.445905    0.948686
  H      2.863953   -0.091500    0.541867
  H      2.431796    0.396310    2.205680
  H      3.034866   -2.398060    1.164716
  H      2.553118   -2.062859    2.847471
  H      0.451051   -2.891689    0.873918
  H     -1.074333   -1.218345    1.916733
  H      0.602232   -0.215073    5.725805

 Total Charge           Charge          ....    0
 Multiplicity           Mult            ....    1
 Number of Electrons    NEL             ....   66
 Basis Dimension        Dim             ....  339

ORBITAL ENERGIES
----------------

  NO   OCC          E(Eh)            E(eV)
   0   2.0000     -20.569301      -559.7191
   1   2.0000     -11.296584      -307.3957
   2   2.0000     -11.276116      -306.8387
   3   2.0000     -11.254557      -306.2521
   4   2.0000     -11.241498      -305.8967
   5   2.0000     -11.232882      -305.6623
   6   2.0000     -11.229656      -305.5745
   7   2.0000     -11.228268      -305.5367
   8   2.0000     -11.218894      -305.2816
   9   2.0000      -1.394664       -37.9507
  10   2.0000      -1.194559       -32.5056
  11   2.0000      -1.038929       -28.2707
  12   2.0000      -0.987417       -26.8690
  13   2.0000      -0.945166       -25.7193
  14   2.0000      -0.888180       -24.1686
  15   2.0000      -0.838305       -22.8114
  16   2.0000      -0.738798       -20.1037
  17   2.0000      -0.715913       -19.4810
  18   2.0000      -0.705511       -19.1979
  19   2.0000      -0.669582       -18.2202
  20   2.0000      -0.641844       -17.4655
  21   2.0000      -0.619079       -16.8460
  22   2.0000      -0.615853       -16.7582
  23   2.0000      -0.558258       -15.1910
  24   2.0000      -0.552524       -15.0349
  25   2.0000      -0.528151       -14.3717
  26   2.0000      -0.491270       -13.3681
  27   2.0000      -0.478473       -13.0199
  28   2.0000      -0.467037       -12.7087
  29   2.0000      -0.431257       -11.7351
  30   2.0000      -0.409844       -11.1524
  31   2.0000      -0.375422       -10.2158
  32   2.0000      -0.350029        -9.5248
  33   0.0000       0.140597         3.8258
  34   0.0000       0.156913         4.2698
  35   0.0000       0.160388         4.3644
  36   0.0000       0.170221         4.6319
  37   0.0000       0.176843         4.8121

MULLIKEN ATOMIC CHARGES
-----------------------
   0 C :   -0.214146
   1 O :   -0.294857
   2 C :    0.219222
   3 C :   -0.253272
   4 C :   -0.223198
   5 C :   -0.123614
   6 C :   -0.367143
   7 C :    0.048693
   8 C :   -0.148415
   9 H :    0.121785
  10 H :    0.142550
  11 H :    0.124571
  12 H :    0.122851
  13 H :    0.129349
  14 H :    0.124354
  15 H :    0.126547
  16 H :    0.137773
  17 H :    0.140176
  18 H :    0.186774
Sum of atomic charges:   -0.0000000

LOEWDIN ATOMIC CHARGES
----------------------
   0 C :   -0.330889
   1 O :    0.198893
   2 C :   -0.297299
   3 C :   -0.188855
   4 C :   -0.202762
   5 C :   -0.124145
   6 C :   -0.165377
   7 C :   -0.094609
   8 C :   -0.103915
   9 H :    0.106309
  10 H :    0.113916
  11 H :    0.106854
  12 H :    0.139476
  13 H :    0.132138
  14 H :    0.135245
  15 H :    0.133123
  16 H :    0.140437
  17 H :    0.175566
  18 H :    0.125893

  Mayer bond orders larger than 0.1
B(  0-C ,  1-O ) :   0.8800 B(  0-C ,  9-H ) :   0.9344 B(  0-C , 10-H ) :   0.9398
B(  0-C , 11-H ) :   0.9324 B(  1-O ,  2-C ) :   1.0249 B(  2-C ,  3-C ) :   0.9594
B(  2-C ,  5-C ) :   0.8561 B(  2-C ,  6-C ) :   0.8623 B(  3-C ,  4-C ) :   0.9694
B(  3-C , 12-H ) :   0.9183 B(  3-C , 13-H ) :   0.9045 B(  4-C ,  5-C ) :   0.9573
B(  4-C , 14-H ) :   0.9284 B(  4-C , 15-H ) :   0.9143 B(  5-C ,  6-C ) :   0.8516
B(  5-C , 16-H ) :   0.9003 B(  6-C ,  7-C ) :   1.0883 B(  6-C ,  8-C ) :  -0.1164
B(  6-C , 17-H ) :   0.9516 B(  7-C ,  8-C ) :   2.5536 B(  8-C , 18-H ) :   0.9088

MP2 TOTAL ENERGY:     -385.126710953 Eh
FINAL SINGLE POINT ENERGY      -385.126710952643

DIPOLE MOMENT
-------------
                                X             Y             Z
Electronic contribution:     -2.05453      -2.15992       1.30582
Nuclear contribution   :      2.19717       2.43374      -1.31829
                        -----------------------------------------
Total Dipole Moment    :      0.14264       0.27382      -0.01247
                        -----------------------------------------
Magnitude (a.u.)       :      0.30900
Magnitude (Debye)      :      0.78541

                             ****ORCA TERMINATED NORMALLY****
TOTAL RUN TIME: 0 days 0 hours 19 minutes 9 seconds 637 msec
