                         Program Version 3.0.3 - RELEASE   -
|  1> ! RI-MP2 RIJK def2-TZVP def2-TZVP/C def2-TZVP/JK TIGHTSCF
|  2> % maxcore 2000
|  3> % mp2 density relaxed end
|  4> *xyz 0 1
|  5>  C       -0.0429316697     1.5394676527    -0.0041294009
|  6>  C        0.0390193125     0.0131639735     0.0011033837
|  7>  O       -1.2772485415    -0.5530267449     0.0591257600
|  8>  C        0.8169341400    -0.5705199196    -1.2115293085
|  9>  C        1.3168260939    -1.9520047688    -0.7430301219
| 10>  C        1.5303331573    -1.7855487442     0.7559885540
| 11>  O        1.5349390172    -2.9307165410     1.5532350984
| 12>  C        2.2739194063    -0.5570920388     1.2226744135
| 13>  C        0.7556172464    -0.5800071895     1.2047863675
| 14>  H        0.9517548762     1.9914055721     0.0545270864
| 15>  H       -0.5200960555     1.9020462600    -0.9235472081
| 16>  H       -0.6346095188     1.8890483240     0.8469326704
| 17>  H       -1.7863228961    -0.1818406260    -0.6695763106
| 18>  H        0.1735097937    -0.6271986772    -2.0947372166
| 19>  H        1.6576592999     0.0809187175    -1.4724854644
| 20>  H        0.5421413730    -2.7121961986    -0.8845438390
| 21>  H        2.2144791774    -2.2801068269    -1.2798473477
| 22>  H        2.3907556751    -3.3606302128     1.4494534111
| 23>  H        2.7249310864    -0.6294027597     2.2062064226
| 24>  H        2.8236749295     0.0608176495     0.5191707649
| 25>  H        0.2268217269    -0.5810416015     2.1504372752
| 26> *
| 27>
| 28>                          ****END OF INPUT****

CARTESIAN COORDINATES (ANGSTROEM)
---------------------------------
  C     -0.042932    1.539468   -0.004129
  C      0.039019    0.013164    0.001103
  O     -1.277249   -0.553027    0.059126
  C      0.816934   -0.570520   -1.211529
  C      1.316826   -1.952005   -0.743030
  C      1.530333   -1.785549    0.755989
  O      1.534939   -2.930717    1.553235
  C      2.273919   -0.557092    1.222674
  C      0.755617   -0.580007    1.204786
  H      0.951755    1.991406    0.054527
  H     -0.520096    1.902046   -0.923547
  H     -0.634610    1.889048    0.846933
  H     -1.786323   -0.181841   -0.669576
  H      0.173510   -0.627199   -2.094737
  H      1.657659    0.080919   -1.472485
  H      0.542141   -2.712196   -0.884544
  H      2.214479   -2.280107   -1.279847
  H      2.390756   -3.360630    1.449453
  H      2.724931   -0.629403    2.206206
  H      2.823675    0.060818    0.519171
  H      0.226822   -0.581042    2.150437

 Total Charge           Charge          ....    0
 Multiplicity           Mult            ....    1
 Number of Electrons    NEL             ....   70
 Basis Dimension        Dim             ....  351

ORBITAL ENERGIES
----------------

  NO   OCC          E(Eh)            E(eV)
   0   2.0000     -20.558222      -559.4177
   1   2.0000     -20.549070      -559.1686
   2   2.0000     -11.286453      -307.1200
   3   2.0000     -11.280182      -306.9494
   4   2.0000     -11.223681      -305.4119
   5   2.0000     -11.223465      -305.4060
   6   2.0000     -11.220665      -305.3298
   7   2.0000     -11.220491      -305.3251
   8   2.0000     -11.217371      -305.2402
   9   2.0000      -1.369904       -37.2770
  10   2.0000      -1.356967       -36.9250
  11   2.0000      -1.159949       -31.5638
  12   2.0000      -1.032412       -28.0933
  13   2.0000      -0.998024       -27.1576
  14   2.0000      -0.891791       -24.2669
  15   2.0000      -0.860131       -23.4054
  16   2.0000      -0.777072       -21.1452
  17   2.0000      -0.740666       -20.1546
  18   2.0000      -0.703744       -19.1498
  19   2.0000      -0.654839       -17.8191
  20   2.0000      -0.646724       -17.5982
  21   2.0000      -0.637714       -17.3531
  22   2.0000      -0.601421       -16.3655
  23   2.0000      -0.582436       -15.8489
  24   2.0000      -0.570557       -15.5257
  25   2.0000      -0.557372       -15.1669
  26   2.0000      -0.540974       -14.7207
  27   2.0000      -0.525496       -14.2995
  28   2.0000      -0.507534       -13.8107
  29   2.0000      -0.490754       -13.3541
  30   2.0000      -0.482641       -13.1333
  31   2.0000      -0.462175       -12.5764
  32   2.0000      -0.426732       -11.6120
  33   2.0000      -0.401101       -10.9145
  34   2.0000      -0.385448       -10.4886
  35   0.0000       0.129258         3.5173
  36   0.0000       0.141895         3.8612
  37   0.0000       0.164545         4.4775
  38   0.0000       0.174456         4.7472
  39   0.0000       0.176868         4.8128

MULLIKEN ATOMIC CHARGES
-----------------------
   0 C :   -0.424287
   1 C :    0.181423
   2 O :   -0.457518
   3 C :   -0.312942
   4 C :   -0.170201
   5 C :    0.152144
   6 O :   -0.451109
   7 C :   -0.335904
   8 C :   -0.059442
   9 H :    0.125993
  10 H :    0.122910
  11 H :    0.144917
  12 H :    0.307331
  13 H :    0.118374
  14 H :    0.119815
  15 H :    0.113013
  16 H :    0.111332
  17 H :    0.320874
  18 H :    0.136084
  19 H :    0.126399
  20 H :    0.130795
Sum of atomic charges:   -0.0000000

LOEWDIN ATOMIC CHARGES
----------------------
   0 C :   -0.278258
   1 C :   -0.372576
   2 O :    0.008720
   3 C :   -0.212533
   4 C :   -0.214960
   5 C :   -0.343355
   6 O :    0.026482
   7 C :   -0.191223
   8 C :   -0.138550
   9 H :    0.128202
  10 H :    0.122348
  11 H :    0.129448
  12 H :    0.171628
  13 H :    0.135181
  14 H :    0.138603
  15 H :    0.148254
  16 H :    0.133066
  17 H :    0.181696
  18 H :    0.140328
  19 H :    0.132198
  20 H :    0.155302

  Mayer bond orders larger than 0.1
B(  0-C ,  1-C ) :   0.9342 B(  0-C ,  9-H ) :   0.9296 B(  0-C , 10-H ) :   0.9240
B(  0-C , 11-H ) :   0.9458 B(  1-C ,  2-O ) :   0.9730 B(  1-C ,  3-C ) :   0.9240
B(  1-C ,  8-C ) :   0.8953 B(  2-O , 12-H ) :   0.8438 B(  3-C ,  4-C ) :   0.9245
B(  3-C , 13-H ) :   0.9128 B(  3-C , 14-H ) :   0.9256 B(  4-C ,  5-C ) :   0.9698
B(  4-C , 15-H ) :   0.9111 B(  4-C , 16-H ) :   0.9203 B(  5-C ,  6-O ) :   1.0444
B(  5-C ,  7-C ) :   0.9031 B(  5-C ,  8-C ) :   0.8711 B(  6-O , 17-H ) :   0.8403
B(  7-C ,  8-C ) :   0.8699 B(  7-C , 18-H ) :   0.9273 B(  7-C , 19-H ) :   0.8996
B(  8-C , 20-H ) :   0.9068

MP2 TOTAL ENERGY:     -423.534430662 Eh
FINAL SINGLE POINT ENERGY      -423.534430662459

DIPOLE MOMENT
-------------
                                X             Y             Z
Electronic contribution:     -1.08387      -4.69898       2.91452
Nuclear contribution   :      1.70807       5.19618      -3.62790
                        -----------------------------------------
Total Dipole Moment    :      0.62420       0.49720      -0.71338
                        -----------------------------------------
Magnitude (a.u.)       :      1.07040
Magnitude (Debye)      :      2.72073

                             ****ORCA TERMINATED NORMALLY****
TOTAL RUN TIME: 0 days 0 hours 18 minutes 52 seconds 982 msec
