                         Program Version 3.0.3 - RELEASE   -
|  1> ! RI-MP2 RIJK def2-TZVP def2-TZVP/C def2-TZVP/JK TIGHTSCF
|  2> % maxcore 2000
|  3> % mp2 density relaxed end
|  4> *xyz 0 1
|  5>  C       -0.2445589371     1.4635548905    -0.0115275433
|  6>  C       -0.0761508376    -0.0388689731     0.0848223048
|  7>  O       -0.1942181263    -0.6400457885     1.1276226819
|  8>  C        0.2660750923    -0.7607753855    -1.2188774271
|  9>  C        0.1328289732    -2.2562848108    -1.0901944135
| 10>  N       -1.1558771831    -2.8317101248    -1.4699254995
| 11>  C        0.0351117896    -3.1574648666    -2.2822273514
| 12>  C        0.0622716202    -2.6373123355    -3.6287829063
| 13>  N        0.1182965885    -2.2181034238    -4.7048483392
| 14>  H        0.5971015497     1.9190447145    -0.5443286268
| 15>  H       -1.1470869988     1.6931212764    -0.5902609240
| 16>  H       -0.3358161335     1.8942983483     0.9861029152
| 17>  H       -0.3668725751    -0.3871479077    -2.0303623239
| 18>  H        1.2967459819    -0.4878575825    -1.4873860861
| 19>  H        0.6368821925    -2.6813702856    -0.2267648343
| 20>  H       -1.3949713749    -3.6251032728    -0.8812025314
| 21>  H        0.4735220185    -4.1474799425    -2.1897208850
| 22> *
| 23>
| 24>                          ****END OF INPUT****

CARTESIAN COORDINATES (ANGSTROEM)
---------------------------------
  C     -0.244559    1.463555   -0.011528
  C     -0.076151   -0.038869    0.084822
  O     -0.194218   -0.640046    1.127623
  C      0.266075   -0.760775   -1.218877
  C      0.132829   -2.256285   -1.090194
  N     -1.155877   -2.831710   -1.469925
  C      0.035112   -3.157465   -2.282227
  C      0.062272   -2.637312   -3.628783
  N      0.118297   -2.218103   -4.704848
  H      0.597102    1.919045   -0.544329
  H     -1.147087    1.693121   -0.590261
  H     -0.335816    1.894298    0.986103
  H     -0.366873   -0.387148   -2.030362
  H      1.296746   -0.487858   -1.487386
  H      0.636882   -2.681370   -0.226765
  H     -1.394971   -3.625103   -0.881203
  H      0.473522   -4.147480   -2.189721

 Total Charge           Charge          ....    0
 Multiplicity           Mult            ....    1
 Number of Electrons    NEL             ....   66
 Basis Dimension        Dim             ....  327

ORBITAL ENERGIES
----------------

  NO   OCC          E(Eh)            E(eV)
   0   2.0000     -20.557706      -559.4036
   1   2.0000     -15.597394      -424.4267
   2   2.0000     -15.577650      -423.8894
   3   2.0000     -11.346041      -308.7415
   4   2.0000     -11.320240      -308.0394
   5   2.0000     -11.301755      -307.5364
   6   2.0000     -11.280436      -306.9563
   7   2.0000     -11.259137      -306.3767
   8   2.0000     -11.244694      -305.9837
   9   2.0000      -1.402872       -38.1741
  10   2.0000      -1.308501       -35.6061
  11   2.0000      -1.220728       -33.2177
  12   2.0000      -1.066633       -29.0246
  13   2.0000      -1.002164       -27.2703
  14   2.0000      -0.968948       -26.3664
  15   2.0000      -0.862211       -23.4619
  16   2.0000      -0.767247       -20.8779
  17   2.0000      -0.743035       -20.2190
  18   2.0000      -0.708475       -19.2786
  19   2.0000      -0.662785       -18.0353
  20   2.0000      -0.640144       -17.4192
  21   2.0000      -0.634432       -17.2638
  22   2.0000      -0.587600       -15.9894
  23   2.0000      -0.578234       -15.7346
  24   2.0000      -0.566795       -15.4233
  25   2.0000      -0.549177       -14.9439
  26   2.0000      -0.541171       -14.7260
  27   2.0000      -0.520871       -14.1736
  28   2.0000      -0.503676       -13.7057
  29   2.0000      -0.469821       -12.7845
  30   2.0000      -0.462513       -12.5856
  31   2.0000      -0.437577       -11.9071
  32   2.0000      -0.413391       -11.2490
  33   0.0000       0.115094         3.1319
  34   0.0000       0.123965         3.3733
  35   0.0000       0.133791         3.6406
  36   0.0000       0.150421         4.0932
  37   0.0000       0.163549         4.4504

MULLIKEN ATOMIC CHARGES
-----------------------
   0 C :   -0.406811
   1 C :    0.221567
   2 O :   -0.295866
   3 C :   -0.283972
   4 C :    0.002372
   5 N :   -0.371982
   6 C :    0.052887
   7 C :   -0.181763
   8 N :   -0.058540
   9 H :    0.144977
  10 H :    0.155496
  11 H :    0.156544
  12 H :    0.168413
  13 H :    0.150134
  14 H :    0.150093
  15 H :    0.232701
  16 H :    0.163750
Sum of atomic charges:    0.0000000

LOEWDIN ATOMIC CHARGES
----------------------
   0 C :   -0.276499
   1 C :   -0.339570
   2 O :    0.150140
   3 C :   -0.217858
   4 C :   -0.234680
   5 N :    0.037669
   6 C :   -0.244321
   7 C :   -0.172737
   8 N :    0.069953
   9 H :    0.136630
  10 H :    0.142112
  11 H :    0.134609
  12 H :    0.164976
  13 H :    0.162743
  14 H :    0.150641
  15 H :    0.175932
  16 H :    0.160261

  Mayer bond orders larger than 0.1
B(  0-C ,  1-C ) :   0.9333 B(  0-C ,  9-H ) :   0.9171 B(  0-C , 10-H ) :   0.9145
B(  0-C , 11-H ) :   0.9369 B(  1-C ,  2-O ) :   1.9724 B(  1-C ,  3-C ) :   0.8990
B(  3-C ,  4-C ) :   0.9020 B(  3-C , 12-H ) :   0.9232 B(  3-C , 13-H ) :   0.8894
B(  4-C ,  5-N ) :   0.9207 B(  4-C ,  6-C ) :   0.8772 B(  4-C , 14-H ) :   0.9200
B(  5-N ,  6-C ) :   0.9243 B(  5-N , 15-H ) :   0.8645 B(  6-C ,  7-C ) :   0.9393
B(  6-C , 16-H ) :   0.9061 B(  7-C ,  8-N ) :   2.8426

MP2 TOTAL ENERGY:     -417.302900505 Eh
FINAL SINGLE POINT ENERGY      -417.302900505369

DIPOLE MOMENT
-------------
                                X             Y             Z
Electronic contribution:     -0.26566      -5.25947      -3.11831
Nuclear contribution   :      0.72274       5.15120       3.96385
                        -----------------------------------------
Total Dipole Moment    :      0.45709      -0.10827       0.84554
                        -----------------------------------------
Magnitude (a.u.)       :      0.96726
Magnitude (Debye)      :      2.45858

                             ****ORCA TERMINATED NORMALLY****
TOTAL RUN TIME: 0 days 0 hours 15 minutes 40 seconds 312 msec
