                         Program Version 3.0.3 - RELEASE   -
|  1> ! RI-MP2 RIJK def2-TZVP def2-TZVP/C def2-TZVP/JK TIGHTSCF
|  2> % maxcore 2000
|  3> % mp2 density relaxed end
|  4> *xyz 0 1
|  5>  O       -0.0933888405     1.3593716111    -0.1379855887
|  6>  C       -0.0021736673    -0.0362296040     0.0294395522
|  7>  C        0.2664826840    -0.4258801939     1.5009816356
|  8>  C       -1.1178406691    -1.1351641505     1.5825985981
|  9>  C       -1.3833671694    -0.8027316320     0.0853116056
| 10>  O       -2.5176233093    -0.0398658368    -0.2235719630
| 11>  C       -1.1877565470    -1.9461572776    -0.9101042038
| 12>  O        0.2270385866    -2.0980752774    -1.0505691387
| 13>  C        0.7885440807    -0.7948993635    -1.0371658535
| 14>  H       -0.2720940253     1.5377056678    -1.0692189649
| 15>  H        1.1300176498    -1.0807616277     1.6354539913
| 16>  H        0.3761490632     0.4462437518     2.1480401628
| 17>  H       -1.0895628626    -2.2003590740     1.8252594503
| 18>  H       -1.8337182655    -0.6432704264     2.2448474502
| 19>  H       -2.3281297781     0.8589246777     0.0794900374
| 20>  H       -1.5880610746    -2.9099617178    -0.5868449246
| 21>  H       -1.6548265514    -1.6628889490    -1.8658386221
| 22>  H        0.6637602563    -0.2955770072    -2.0171636094
| 23>  H        1.8578544695    -0.8894750907    -0.8305325450
| 24> *
| 25>
| 26>                          ****END OF INPUT****

CARTESIAN COORDINATES (ANGSTROEM)
---------------------------------
  O     -0.093389    1.359372   -0.137986
  C     -0.002174   -0.036230    0.029440
  C      0.266483   -0.425880    1.500982
  C     -1.117841   -1.135164    1.582599
  C     -1.383367   -0.802732    0.085312
  O     -2.517623   -0.039866   -0.223572
  C     -1.187757   -1.946157   -0.910104
  O      0.227039   -2.098075   -1.050569
  C      0.788544   -0.794899   -1.037166
  H     -0.272094    1.537706   -1.069219
  H      1.130018   -1.080762    1.635454
  H      0.376149    0.446244    2.148040
  H     -1.089563   -2.200359    1.825259
  H     -1.833718   -0.643270    2.244847
  H     -2.328130    0.858925    0.079490
  H     -1.588061   -2.909962   -0.586845
  H     -1.654827   -1.662889   -1.865839
  H      0.663760   -0.295577   -2.017164
  H      1.857854   -0.889475   -0.830533

 Total Charge           Charge          ....    0
 Multiplicity           Mult            ....    1
 Number of Electrons    NEL             ....   70
 Basis Dimension        Dim             ....  339

ORBITAL ENERGIES
----------------

  NO   OCC          E(Eh)            E(eV)
   0   2.0000     -20.581003      -560.0376
   1   2.0000     -20.563776      -559.5688
   2   2.0000     -20.563745      -559.5680
   3   2.0000     -11.290050      -307.2179
   4   2.0000     -11.284241      -307.0598
   5   2.0000     -11.283735      -307.0461
   6   2.0000     -11.275858      -306.8317
   7   2.0000     -11.227126      -305.5056
   8   2.0000     -11.225084      -305.4501
   9   2.0000      -1.405039       -38.2331
  10   2.0000      -1.378973       -37.5238
  11   2.0000      -1.365891       -37.1678
  12   2.0000      -1.116933       -30.3933
  13   2.0000      -1.001347       -27.2480
  14   2.0000      -0.950120       -25.8541
  15   2.0000      -0.878182       -23.8965
  16   2.0000      -0.821370       -22.3506
  17   2.0000      -0.760991       -20.7076
  18   2.0000      -0.734506       -19.9869
  19   2.0000      -0.689412       -18.7598
  20   2.0000      -0.673800       -18.3350
  21   2.0000      -0.651208       -17.7203
  22   2.0000      -0.614706       -16.7270
  23   2.0000      -0.606709       -16.5094
  24   2.0000      -0.598618       -16.2892
  25   2.0000      -0.576739       -15.6939
  26   2.0000      -0.568816       -15.4783
  27   2.0000      -0.536576       -14.6010
  28   2.0000      -0.527229       -14.3466
  29   2.0000      -0.499609       -13.5950
  30   2.0000      -0.495041       -13.4708
  31   2.0000      -0.469981       -12.7888
  32   2.0000      -0.434606       -11.8262
  33   2.0000      -0.419690       -11.4203
  34   2.0000      -0.396194       -10.7810
  35   0.0000       0.127191         3.4610
  36   0.0000       0.157607         4.2887
  37   0.0000       0.166777         4.5382
  38   0.0000       0.173098         4.7102
  39   0.0000       0.177422         4.8279

MULLIKEN ATOMIC CHARGES
-----------------------
   0 O :   -0.465624
   1 C :    0.098813
   2 C :   -0.227684
   3 C :   -0.237990
   4 C :    0.157331
   5 O :   -0.454625
   6 C :   -0.060526
   7 O :   -0.324229
   8 C :   -0.035012
   9 H :    0.325414
  10 H :    0.122250
  11 H :    0.118785
  12 H :    0.116503
  13 H :    0.114760
  14 H :    0.325235
  15 H :    0.123421
  16 H :    0.096441
  17 H :    0.075149
  18 H :    0.131587
Sum of atomic charges:   -0.0000000

LOEWDIN ATOMIC CHARGES
----------------------
   0 O :    0.017599
   1 C :   -0.337840
   2 C :   -0.192397
   3 C :   -0.198754
   4 C :   -0.339527
   5 O :    0.017639
   6 C :   -0.257112
   7 O :    0.154099
   8 C :   -0.280365
   9 H :    0.180338
  10 H :    0.136780
  11 H :    0.138005
  12 H :    0.132907
  13 H :    0.135299
  14 H :    0.180421
  15 H :    0.130889
  16 H :    0.128158
  17 H :    0.121199
  18 H :    0.132663

  Mayer bond orders larger than 0.1
B(  0-O ,  1-C ) :   1.0757 B(  0-O ,  9-H ) :   0.8291 B(  1-C ,  2-C ) :   0.9330
B(  1-C ,  4-C ) :   0.8531 B(  1-C ,  8-C ) :   0.9863 B(  2-C ,  3-C ) :   0.9970
B(  2-C , 10-H ) :   0.9065 B(  2-C , 11-H ) :   0.9032 B(  3-C ,  4-C ) :   0.9146
B(  3-C , 12-H ) :   0.9056 B(  3-C , 13-H ) :   0.9038 B(  4-C ,  5-O ) :   1.1207
B(  4-C ,  6-C ) :   0.9141 B(  5-O , 14-H ) :   0.8219 B(  6-C ,  7-O ) :   0.9228
B(  6-C , 15-H ) :   0.9177 B(  6-C , 16-H ) :   0.9250 B(  7-O ,  8-C ) :   0.9357
B(  8-C , 17-H ) :   0.8956 B(  8-C , 18-H ) :   0.9211

MP2 TOTAL ENERGY:     -459.428003061 Eh
FINAL SINGLE POINT ENERGY      -459.428003060988

DIPOLE MOMENT
-------------
                                X             Y             Z
Electronic contribution:     -0.73925       0.93495      -1.92911
Nuclear contribution   :      0.92085      -0.55412       1.87981
                        -----------------------------------------
Total Dipole Moment    :      0.18160       0.38083      -0.04930
                        -----------------------------------------
Magnitude (a.u.)       :      0.42478
Magnitude (Debye)      :      1.07971

                             ****ORCA TERMINATED NORMALLY****
TOTAL RUN TIME: 0 days 0 hours 17 minutes 22 seconds 712 msec
