                         Program Version 3.0.3 - RELEASE   -
|  1> ! RI-MP2 RIJK def2-TZVP def2-TZVP/C def2-TZVP/JK TIGHTSCF
|  2> % maxcore 2000
|  3> % mp2 density relaxed end
|  4> *xyz 0 1
|  5>  N        0.0896117360     1.2099519352    -0.2498929218
|  6>  C        0.0470835617    -0.0741755766     0.1919022951
|  7>  O        1.0089491132    -0.6213596192     0.7151525724
|  8>  C       -1.2755493696    -0.7993060036     0.0522696140
|  9>  C       -1.9497527047    -1.1198786851    -1.3209527817
| 10>  C       -0.7536443267    -2.0553031471    -1.6438444584
| 11>  C       -1.1446190394    -2.3374845435    -0.1478148767
| 12>  O       -0.5603852260    -3.2060692819     0.7368301072
| 13>  C       -2.6227495657    -2.3379768721    -0.6075727554
| 14>  H        0.9476418416     1.7300026148    -0.1590347145
| 15>  H       -0.6927136975     1.6341642768    -0.7162933934
| 16>  H       -1.9633366375    -0.4862526180     0.8467755209
| 17>  H       -2.4353185337    -0.4165024695    -1.9945382375
| 18>  H       -0.9504222396    -2.8630228438    -2.3525646254
| 19>  H        0.2161427147    -1.5880361884    -1.8275710026
| 20>  H        0.2564838266    -2.7670436989     1.0196589967
| 21>  H       -3.3746178860    -2.1112709874     0.1532213272
| 22>  H       -2.9341532075    -3.1596988116    -1.2568314061
| 23> *
| 24>
| 25>                          ****END OF INPUT****

CARTESIAN COORDINATES (ANGSTROEM)
---------------------------------
  N      0.089612    1.209952   -0.249893
  C      0.047084   -0.074176    0.191902
  O      1.008949   -0.621360    0.715153
  C     -1.275549   -0.799306    0.052270
  C     -1.949753   -1.119879   -1.320953
  C     -0.753644   -2.055303   -1.643844
  C     -1.144619   -2.337485   -0.147815
  O     -0.560385   -3.206069    0.736830
  C     -2.622750   -2.337977   -0.607573
  H      0.947642    1.730003   -0.159035
  H     -0.692714    1.634164   -0.716293
  H     -1.963337   -0.486253    0.846776
  H     -2.435319   -0.416502   -1.994538
  H     -0.950422   -2.863023   -2.352565
  H      0.216143   -1.588036   -1.827571
  H      0.256484   -2.767044    1.019659
  H     -3.374618   -2.111271    0.153221
  H     -2.934153   -3.159699   -1.256831

 Total Charge           Charge          ....    0
 Multiplicity           Mult            ....    1
 Number of Electrons    NEL             ....   68
 Basis Dimension        Dim             ....  333

ORBITAL ENERGIES
----------------

  NO   OCC          E(Eh)            E(eV)
   0   2.0000     -20.553742      -559.2957
   1   2.0000     -20.527194      -558.5734
   2   2.0000     -15.593345      -424.3165
   3   2.0000     -11.359261      -309.1012
   4   2.0000     -11.303926      -307.5955
   5   2.0000     -11.261632      -306.4446
   6   2.0000     -11.250394      -306.1388
   7   2.0000     -11.236623      -305.7641
   8   2.0000     -11.232418      -305.6496
   9   2.0000      -1.391586       -37.8670
  10   2.0000      -1.370745       -37.2999
  11   2.0000      -1.224633       -33.3240
  12   2.0000      -1.209986       -32.9254
  13   2.0000      -0.963738       -26.2246
  14   2.0000      -0.918894       -25.0044
  15   2.0000      -0.849501       -23.1161
  16   2.0000      -0.820305       -22.3216
  17   2.0000      -0.759221       -20.6595
  18   2.0000      -0.726385       -19.7659
  19   2.0000      -0.706989       -19.2381
  20   2.0000      -0.672807       -18.3080
  21   2.0000      -0.645848       -17.5744
  22   2.0000      -0.622013       -16.9258
  23   2.0000      -0.609186       -16.5768
  24   2.0000      -0.566880       -15.4256
  25   2.0000      -0.560839       -15.2612
  26   2.0000      -0.534809       -14.5529
  27   2.0000      -0.490827       -13.3561
  28   2.0000      -0.479675       -13.0526
  29   2.0000      -0.465788       -12.6747
  30   2.0000      -0.443423       -12.0662
  31   2.0000      -0.426051       -11.5934
  32   2.0000      -0.423064       -11.5122
  33   2.0000      -0.409661       -11.1474
  34   0.0000       0.117752         3.2042
  35   0.0000       0.151263         4.1161
  36   0.0000       0.161451         4.3933
  37   0.0000       0.170059         4.6275
  38   0.0000       0.182497         4.9660

MULLIKEN ATOMIC CHARGES
-----------------------
   0 N :   -0.471479
   1 C :    0.268301
   2 O :   -0.386164
   3 C :   -0.117132
   4 C :   -0.176980
   5 C :   -0.207317
   6 C :    0.123631
   7 O :   -0.465328
   8 C :   -0.189608
   9 H :    0.261127
  10 H :    0.264285
  11 H :    0.127969
  12 H :    0.145002
  13 H :    0.115375
  14 H :    0.127523
  15 H :    0.347488
  16 H :    0.111804
  17 H :    0.121504
Sum of atomic charges:   -0.0000000

LOEWDIN ATOMIC CHARGES
----------------------
   0 N :   -0.003273
   1 C :   -0.460838
   2 O :    0.069961
   3 C :   -0.151166
   4 C :   -0.168472
   5 C :   -0.175146
   6 C :   -0.329805
   7 O :    0.034318
   8 C :   -0.168781
   9 H :    0.174847
  10 H :    0.174499
  11 H :    0.158191
  12 H :    0.126200
  13 H :    0.130425
  14 H :    0.132205
  15 H :    0.194559
  16 H :    0.130221
  17 H :    0.132058

  Mayer bond orders larger than 0.1
B(  0-N ,  1-C ) :   1.1902 B(  0-N ,  9-H ) :   0.8557 B(  0-N , 10-H ) :   0.8686
B(  1-C ,  2-O ) :   1.8876 B(  1-C ,  3-C ) :   0.8967 B(  3-C ,  4-C ) :   0.8874
B(  3-C ,  6-C ) :   0.8826 B(  3-C , 11-H ) :   0.8958 B(  4-C ,  5-C ) :   0.9151
B(  4-C ,  8-C ) :   0.9080 B(  4-C , 12-H ) :   0.8861 B(  5-C ,  6-C ) :   0.8859
B(  5-C , 13-H ) :   0.9327 B(  5-C , 14-H ) :   0.9151 B(  6-C ,  7-O ) :   1.0097
B(  6-C ,  8-C ) :   0.9062 B(  7-O , 15-H ) :   0.8068 B(  8-C , 16-H ) :   0.9249
B(  8-C , 17-H ) :   0.9289

MP2 TOTAL ENERGY:     -438.362245307 Eh
FINAL SINGLE POINT ENERGY      -438.362245307170

DIPOLE MOMENT
-------------
                                X             Y             Z
Electronic contribution:      3.30963       0.28277       3.18291
Nuclear contribution   :     -3.90814       1.15748      -3.98731
                        -----------------------------------------
Total Dipole Moment    :     -0.59851       1.44025      -0.80440
                        -----------------------------------------
Magnitude (a.u.)       :      1.75487
Magnitude (Debye)      :      4.46054

                             ****ORCA TERMINATED NORMALLY****
TOTAL RUN TIME: 0 days 0 hours 18 minutes 35 seconds 381 msec
