                         Program Version 3.0.3 - RELEASE   -
|  1> ! RI-MP2 RIJK def2-TZVP def2-TZVP/C def2-TZVP/JK TIGHTSCF
|  2> % maxcore 2000
|  3> % mp2 density relaxed end
|  4> *xyz 0 1
|  5>  C       -0.0558058188     1.5111944491    -0.1887555868
|  6>  C        0.0229498838     0.0069169950    -0.0094077625
|  7>  O        0.6503413418    -0.5321237957    -1.1848008408
|  8>  C        0.8117412821    -1.8680734814    -1.2147779096
|  9>  N        0.4298687686    -2.6157235970    -0.2546031216
| 10>  C        1.4456966389    -2.3028387710    -2.4274784505
| 11>  C        1.9749258703    -2.7149420045    -3.4286498182
| 12>  C        2.6134793685    -3.2076492957    -4.6377600938
| 13>  H        0.9420998205     1.9434727230    -0.3047766297
| 14>  H       -0.6463517834     1.7687746301    -1.0725253238
| 15>  H       -0.5290760420     1.9647486687     0.6872235210
| 16>  H        0.6113394388    -0.2737428010     0.8705653521
| 17>  H       -0.9666288088    -0.4472880373     0.1078796671
| 18>  H        0.6386508971    -3.5888586593    -0.4651641412
| 19>  H        1.9580766547    -3.9037254633    -5.1725312027
| 20>  H        2.8589763164    -2.3860606969    -5.3187570481
| 21>  H        3.5420684014    -3.7393405826    -4.4030869609
| 22> *
| 23>
| 24>                          ****END OF INPUT****

CARTESIAN COORDINATES (ANGSTROEM)
---------------------------------
  C     -0.055806    1.511194   -0.188756
  C      0.022950    0.006917   -0.009408
  O      0.650341   -0.532124   -1.184801
  C      0.811741   -1.868073   -1.214778
  N      0.429869   -2.615724   -0.254603
  C      1.445697   -2.302839   -2.427478
  C      1.974926   -2.714942   -3.428650
  C      2.613479   -3.207649   -4.637760
  H      0.942100    1.943473   -0.304777
  H     -0.646352    1.768775   -1.072525
  H     -0.529076    1.964749    0.687224
  H      0.611339   -0.273743    0.870565
  H     -0.966629   -0.447288    0.107880
  H      0.638651   -3.588859   -0.465164
  H      1.958077   -3.903725   -5.172531
  H      2.858976   -2.386061   -5.318757
  H      3.542068   -3.739341   -4.403087

 Total Charge           Charge          ....    0
 Multiplicity           Mult            ....    1
 Number of Electrons    NEL             ....   60
 Basis Dimension        Dim             ....  302

ORBITAL ENERGIES
----------------

  NO   OCC          E(Eh)            E(eV)
   0   2.0000     -20.587971      -560.2272
   1   2.0000     -15.538734      -422.8304
   2   2.0000     -11.357260      -309.0468
   3   2.0000     -11.277732      -306.8827
   4   2.0000     -11.261231      -306.4337
   5   2.0000     -11.255011      -306.2644
   6   2.0000     -11.235292      -305.7278
   7   2.0000     -11.217040      -305.2312
   8   2.0000      -1.425802       -38.7980
   9   2.0000      -1.198421       -32.6107
  10   2.0000      -1.076478       -29.2924
  11   2.0000      -1.031812       -28.0770
  12   2.0000      -0.980626       -26.6842
  13   2.0000      -0.885052       -24.0835
  14   2.0000      -0.806797       -21.9541
  15   2.0000      -0.747894       -20.3512
  16   2.0000      -0.674976       -18.3670
  17   2.0000      -0.668413       -18.1884
  18   2.0000      -0.645503       -17.5650
  19   2.0000      -0.602315       -16.3898
  20   2.0000      -0.602209       -16.3869
  21   2.0000      -0.567567       -15.4443
  22   2.0000      -0.566735       -15.4216
  23   2.0000      -0.542450       -14.7608
  24   2.0000      -0.502249       -13.6669
  25   2.0000      -0.491763       -13.3816
  26   2.0000      -0.455907       -12.4058
  27   2.0000      -0.426837       -11.6148
  28   2.0000      -0.392202       -10.6724
  29   2.0000      -0.372318       -10.1313
  30   0.0000       0.121273         3.3000
  31   0.0000       0.130941         3.5631
  32   0.0000       0.146796         3.9945
  33   0.0000       0.170096         4.6286
  34   0.0000       0.180884         4.9221

MULLIKEN ATOMIC CHARGES
-----------------------
   0 C :   -0.360704
   1 C :   -0.061792
   2 O :   -0.239408
   3 C :    0.049856
   4 N :   -0.407843
   5 C :    0.052950
   6 C :    0.076775
   7 C :   -0.469083
   8 H :    0.131163
   9 H :    0.131163
  10 H :    0.127898
  11 H :    0.120028
  12 H :    0.120028
  13 H :    0.225358
  14 H :    0.167089
  15 H :    0.169455
  16 H :    0.167067
Sum of atomic charges:   -0.0000000

LOEWDIN ATOMIC CHARGES
----------------------
   0 C :   -0.316815
   1 C :   -0.309017
   2 O :    0.262422
   3 C :   -0.422353
   4 N :   -0.050213
   5 C :   -0.044745
   6 C :   -0.069145
   7 C :   -0.287449
   8 H :    0.124512
   9 H :    0.124512
  10 H :    0.126883
  11 H :    0.127892
  12 H :    0.127892
  13 H :    0.171096
  14 H :    0.144781
  15 H :    0.144986
  16 H :    0.144763

  Mayer bond orders larger than 0.1
B(  0-C ,  1-C ) :   0.9352 B(  0-C ,  8-H ) :   0.9339 B(  0-C ,  9-H ) :   0.9339
B(  0-C , 10-H ) :   0.9364 B(  1-C ,  2-O ) :   0.8403 B(  1-C , 11-H ) :   0.9330
B(  1-C , 12-H ) :   0.9330 B(  2-O ,  3-C ) :   1.1973 B(  3-C ,  4-N ) :   1.8955
B(  3-C ,  5-C ) :   1.0628 B(  4-N , 13-H ) :   0.8640 B(  5-C ,  6-C ) :   2.6786
B(  6-C ,  7-C ) :   0.8643 B(  7-C , 14-H ) :   0.9415 B(  7-C , 15-H ) :   0.9434
B(  7-C , 16-H ) :   0.9415

MP2 TOTAL ENERGY:     -363.214039088 Eh
FINAL SINGLE POINT ENERGY      -363.214039087934

DIPOLE MOMENT
-------------
                                X             Y             Z
Electronic contribution:      0.55110      -3.95114      -0.24084
Nuclear contribution   :     -0.22673       3.79818      -0.39558
                        -----------------------------------------
Total Dipole Moment    :      0.32437      -0.15296      -0.63642
                        -----------------------------------------
Magnitude (a.u.)       :      0.73051
Magnitude (Debye)      :      1.85680

                             ****ORCA TERMINATED NORMALLY****
TOTAL RUN TIME: 0 days 0 hours 9 minutes 55 seconds 805 msec
