                         Program Version 3.0.3 - RELEASE   -
|  1> ! RI-MP2 RIJK def2-TZVP def2-TZVP/C def2-TZVP/JK TIGHTSCF
|  2> % maxcore 2000
|  3> % mp2 density relaxed end
|  4> *xyz 0 1
|  5>  O        0.0676636053     0.0280511720     0.2037389127
|  6>  C       -0.0386799509     1.2055728542    -0.0074667220
|  7>  C       -1.3119901984     1.9729724394    -0.3823611102
|  8>  C       -0.8101691517     3.3237205580    -0.9276765497
|  9>  N        0.6473202678     3.4628490085    -0.6159067896
| 10>  C        0.9718855562     3.4294377576     0.8152061655
| 11>  C       -0.0376414372     3.5621273302     1.8363046843
| 12>  N       -0.8446992625     3.7164175991     2.6505868967
| 13>  C        1.1026179719     2.1940938434    -0.0369484636
| 14>  H       -1.8751048123     1.3959173145    -1.1188124054
| 15>  H       -1.9406284421     2.0696389015     0.5075957873
| 16>  H       -0.8865971318     3.3638950415    -2.0164859007
| 17>  H       -1.3463809161     4.1833922852    -0.5203410338
| 18>  H        1.8947811812     3.9475354654     1.0625075202
| 19>  H        2.0960952106     1.8288761397    -0.2746992017
| 20> *
| 21>
| 22>                          ****END OF INPUT****

CARTESIAN COORDINATES (ANGSTROEM)
---------------------------------
  O      0.067664    0.028051    0.203739
  C     -0.038680    1.205573   -0.007467
  C     -1.311990    1.972972   -0.382361
  C     -0.810169    3.323721   -0.927677
  N      0.647320    3.462849   -0.615907
  C      0.971886    3.429438    0.815206
  C     -0.037641    3.562127    1.836305
  N     -0.844699    3.716418    2.650587
  C      1.102618    2.194094   -0.036948
  H     -1.875105    1.395917   -1.118812
  H     -1.940628    2.069639    0.507596
  H     -0.886597    3.363895   -2.016486
  H     -1.346381    4.183392   -0.520341
  H      1.894781    3.947535    1.062508
  H      2.096095    1.828876   -0.274699

 Total Charge           Charge          ....    0
 Multiplicity           Mult            ....    1
 Number of Electrons    NEL             ....   64
 Basis Dimension        Dim             ....  315

ORBITAL ENERGIES
----------------

  NO   OCC          E(Eh)            E(eV)
   0   2.0000     -20.572274      -559.8000
   1   2.0000     -15.617458      -424.9726
   2   2.0000     -15.595740      -424.3817
   3   2.0000     -11.358525      -309.0812
   4   2.0000     -11.337952      -308.5214
   5   2.0000     -11.309886      -307.7576
   6   2.0000     -11.297347      -307.4165
   7   2.0000     -11.290344      -307.2259
   8   2.0000     -11.258335      -306.3549
   9   2.0000      -1.417858       -38.5819
  10   2.0000      -1.339239       -36.4425
  11   2.0000      -1.238493       -33.7011
  12   2.0000      -1.085612       -29.5410
  13   2.0000      -1.005951       -27.3733
  14   2.0000      -0.964058       -26.2333
  15   2.0000      -0.858138       -23.3511
  16   2.0000      -0.801563       -21.8116
  17   2.0000      -0.726064       -19.7572
  18   2.0000      -0.693939       -18.8830
  19   2.0000      -0.670102       -18.2344
  20   2.0000      -0.650144       -17.6913
  21   2.0000      -0.626968       -17.0607
  22   2.0000      -0.599836       -16.3224
  23   2.0000      -0.585234       -15.9250
  24   2.0000      -0.578961       -15.7543
  25   2.0000      -0.540912       -14.7190
  26   2.0000      -0.533347       -14.5131
  27   2.0000      -0.510964       -13.9040
  28   2.0000      -0.492677       -13.4064
  29   2.0000      -0.474009       -12.8984
  30   2.0000      -0.432208       -11.7610
  31   2.0000      -0.411433       -11.1957
  32   0.0000       0.099874         2.7177
  33   0.0000       0.128193         3.4883
  34   0.0000       0.141058         3.8384
  35   0.0000       0.145393         3.9564
  36   0.0000       0.156163         4.2494

MULLIKEN ATOMIC CHARGES
-----------------------
   0 O :   -0.248694
   1 C :    0.121442
   2 C :   -0.228818
   3 C :   -0.182143
   4 N :   -0.186536
   5 C :    0.019797
   6 C :   -0.180386
   7 N :   -0.048450
   8 C :   -0.021357
   9 H :    0.153928
  10 H :    0.173578
  11 H :    0.148898
  12 H :    0.149604
  13 H :    0.167404
  14 H :    0.161734
Sum of atomic charges:    0.0000000

LOEWDIN ATOMIC CHARGES
----------------------
   0 O :    0.177028
   1 C :   -0.305932
   2 C :   -0.222902
   3 C :   -0.246494
   4 N :    0.154781
   5 C :   -0.216576
   6 C :   -0.175476
   7 N :    0.081474
   8 C :   -0.168149
   9 H :    0.154529
  10 H :    0.160344
  11 H :    0.139343
  12 H :    0.139426
  13 H :    0.172955
  14 H :    0.155651

  Mayer bond orders larger than 0.1
B(  0-O ,  1-C ) :   2.0247 B(  1-C ,  2-C ) :   0.8974 B(  1-C ,  8-C ) :   0.9087
B(  2-C ,  3-C ) :   0.9271 B(  2-C ,  8-C ) :  -0.1042 B(  2-C ,  9-H ) :   0.9034
B(  2-C , 10-H ) :   0.8993 B(  3-C ,  4-N ) :   0.8777 B(  3-C , 11-H ) :   0.9297
B(  3-C , 12-H ) :   0.9354 B(  4-N ,  5-C ) :   0.9345 B(  4-N ,  8-C ) :   0.8844
B(  5-C ,  6-C ) :   0.9558 B(  5-C ,  8-C ) :   0.8525 B(  5-C , 13-H ) :   0.9012
B(  6-C ,  7-N ) :   2.7943 B(  8-C , 14-H ) :   0.8991

MP2 TOTAL ENERGY:     -416.104992624 Eh
FINAL SINGLE POINT ENERGY      -416.104992623881

DIPOLE MOMENT
-------------
                                X             Y             Z
Electronic contribution:      2.04074      -1.13419       3.30352
Nuclear contribution   :     -1.68781       1.60581      -4.28185
                        -----------------------------------------
Total Dipole Moment    :      0.35292       0.47162      -0.97833
                        -----------------------------------------
Magnitude (a.u.)       :      1.14197
Magnitude (Debye)      :      2.90267

                             ****ORCA TERMINATED NORMALLY****
TOTAL RUN TIME: 0 days 0 hours 18 minutes 12 seconds 534 msec
