                         Program Version 3.0.3 - RELEASE   -
|  1> ! RI-MP2 RIJK def2-TZVP def2-TZVP/C def2-TZVP/JK TIGHTSCF
|  2> % maxcore 2000
|  3> % mp2 density relaxed end
|  4> *xyz 0 1
|  5>  C       -0.0174911051     1.4951978546     0.1503706031
|  6>  C        0.0335633022    -0.0232314899     0.0741487755
|  7>  O        1.0786825948    -0.6458713053     0.1760436695
|  8>  N       -1.1583728380    -0.6618200766    -0.1172444225
|  9>  C       -2.4756972262    -0.0356649677    -0.2399725536
| 10>  C       -3.3409012487    -1.1322456080    -0.8267437810
| 11>  N       -2.8030846961    -1.6569704544    -2.0970930458
| 12>  C       -2.5613141795    -2.3923946546    -0.8385483553
| 13>  C       -1.1925949885    -2.1215272747    -0.2550305456
| 14>  H        0.9849544104     1.8536253283     0.3816290055
| 15>  H       -0.3400050077     1.9263292793    -0.8036018372
| 16>  H       -0.7145217279     1.8416801985     0.9201254789
| 17>  H       -2.8776570950     0.2772089373     0.7352945089
| 18>  H       -2.4350549347     0.8438217558    -0.8903359967
| 19>  H       -4.4122530980    -1.1063594167    -0.6617774994
| 20>  H       -3.5517177164    -2.1138876395    -2.6125129212
| 21>  H       -3.0241980572    -3.3607423090    -0.6851652349
| 22>  H       -0.3691284999    -2.4474988042    -0.8951023442
| 23>  H       -1.0796379186    -2.6201997130     0.7171621460
| 24> *
| 25>
| 26>                          ****END OF INPUT****

CARTESIAN COORDINATES (ANGSTROEM)
---------------------------------
  C     -0.017491    1.495198    0.150371
  C      0.033563   -0.023231    0.074149
  O      1.078683   -0.645871    0.176044
  N     -1.158373   -0.661820   -0.117244
  C     -2.475697   -0.035665   -0.239973
  C     -3.340901   -1.132246   -0.826744
  N     -2.803085   -1.656970   -2.097093
  C     -2.561314   -2.392395   -0.838548
  C     -1.192595   -2.121527   -0.255031
  H      0.984954    1.853625    0.381629
  H     -0.340005    1.926329   -0.803602
  H     -0.714522    1.841680    0.920125
  H     -2.877657    0.277209    0.735295
  H     -2.435055    0.843822   -0.890336
  H     -4.412253   -1.106359   -0.661777
  H     -3.551718   -2.113888   -2.612513
  H     -3.024198   -3.360742   -0.685165
  H     -0.369128   -2.447499   -0.895102
  H     -1.079638   -2.620200    0.717162

 Total Charge           Charge          ....    0
 Multiplicity           Mult            ....    1
 Number of Electrons    NEL             ....   68
 Basis Dimension        Dim             ....  339

ORBITAL ENERGIES
----------------

  NO   OCC          E(Eh)            E(eV)
   0   2.0000     -20.503440      -557.9270
   1   2.0000     -15.576582      -423.8604
   2   2.0000     -15.569584      -423.6699
   3   2.0000     -11.338621      -308.5396
   4   2.0000     -11.276547      -306.8504
   5   2.0000     -11.274571      -306.7967
   6   2.0000     -11.271720      -306.7191
   7   2.0000     -11.260711      -306.4195
   8   2.0000     -11.230497      -305.5974
   9   2.0000      -1.370695       -37.2985
  10   2.0000      -1.298376       -35.3306
  11   2.0000      -1.220399       -33.2087
  12   2.0000      -1.020338       -27.7648
  13   2.0000      -1.002990       -27.2927
  14   2.0000      -0.958233       -26.0749
  15   2.0000      -0.840102       -22.8603
  16   2.0000      -0.801261       -21.8034
  17   2.0000      -0.763113       -20.7654
  18   2.0000      -0.712321       -19.3832
  19   2.0000      -0.672332       -18.2951
  20   2.0000      -0.642083       -17.4720
  21   2.0000      -0.627161       -17.0659
  22   2.0000      -0.593933       -16.1617
  23   2.0000      -0.585001       -15.9187
  24   2.0000      -0.581090       -15.8123
  25   2.0000      -0.556999       -15.1567
  26   2.0000      -0.540965       -14.7204
  27   2.0000      -0.526756       -14.3338
  28   2.0000      -0.507084       -13.7985
  29   2.0000      -0.488188       -13.2843
  30   2.0000      -0.471156       -12.8208
  31   2.0000      -0.412185       -11.2161
  32   2.0000      -0.395295       -10.7565
  33   2.0000      -0.366352        -9.9689
  34   0.0000       0.123859         3.3704
  35   0.0000       0.140164         3.8141
  36   0.0000       0.166931         4.5424
  37   0.0000       0.170276         4.6334
  38   0.0000       0.189272         5.1503

MULLIKEN ATOMIC CHARGES
-----------------------
   0 C :   -0.425767
   1 C :    0.237107
   2 O :   -0.382664
   3 N :   -0.079156
   4 C :   -0.165624
   5 C :   -0.052391
   6 N :   -0.391963
   7 C :   -0.076290
   8 C :   -0.115601
   9 H :    0.161533
  10 H :    0.146757
  11 H :    0.137008
  12 H :    0.115819
  13 H :    0.125275
  14 H :    0.144756
  15 H :    0.220038
  16 H :    0.141847
  17 H :    0.141441
  18 H :    0.117873
Sum of atomic charges:    0.0000000

LOEWDIN ATOMIC CHARGES
----------------------
   0 C :   -0.277539
   1 C :   -0.459608
   2 O :    0.072461
   3 N :    0.199268
   4 C :   -0.229579
   5 C :   -0.251917
   6 N :    0.008607
   7 C :   -0.248586
   8 C :   -0.216966
   9 H :    0.136603
  10 H :    0.133391
  11 H :    0.130151
  12 H :    0.133696
  13 H :    0.140278
  14 H :    0.137492
  15 H :    0.170337
  16 H :    0.137939
  17 H :    0.146560
  18 H :    0.137412

  Mayer bond orders larger than 0.1
B(  0-C ,  1-C ) :   0.9068 B(  0-C ,  9-H ) :   0.9401 B(  0-C , 10-H ) :   0.9194
B(  0-C , 11-H ) :   0.9177 B(  1-C ,  2-O ) :   1.9080 B(  1-C ,  3-N ) :   1.1661
B(  3-N ,  4-C ) :   0.9451 B(  3-N ,  8-C ) :   0.8828 B(  4-C ,  5-C ) :   0.9516
B(  4-C , 12-H ) :   0.9200 B(  4-C , 13-H ) :   0.9106 B(  5-C ,  6-N ) :   0.9263
B(  5-C ,  7-C ) :   0.9169 B(  5-C , 14-H ) :   0.9203 B(  6-N ,  7-C ) :   0.9152
B(  6-N , 15-H ) :   0.8665 B(  7-C ,  8-C ) :   0.9549 B(  7-C , 16-H ) :   0.9235
B(  8-C , 17-H ) :   0.9151 B(  8-C , 18-H ) :   0.9299

MP2 TOTAL ENERGY:     -418.517335891 Eh
FINAL SINGLE POINT ENERGY      -418.517335890877

DIPOLE MOMENT
-------------
                                X             Y             Z
Electronic contribution:      1.99711      -2.69840      -0.46786
Nuclear contribution   :     -3.97581       2.70679       0.55251
                        -----------------------------------------
Total Dipole Moment    :     -1.97870       0.00839       0.08465
                        -----------------------------------------
Magnitude (a.u.)       :      1.98052
Magnitude (Debye)      :      5.03409

                             ****ORCA TERMINATED NORMALLY****
TOTAL RUN TIME: 0 days 0 hours 19 minutes 49 seconds 854 msec
