                         Program Version 3.0.3 - RELEASE   -
|  1> ! RI-MP2 RIJK def2-TZVP def2-TZVP/C def2-TZVP/JK TIGHTSCF
|  2> % maxcore 2000
|  3> % mp2 density relaxed end
|  4> *xyz 0 1
|  5>  C       -0.0364314905     1.5084768306    -0.0210987286
|  6>  C       -0.0108148010     0.0052541216    -0.0004285328
|  7>  N       -0.0300195701    -0.6273471564    -1.1759105431
|  8>  C       -0.0071011682    -1.9628407560    -1.1887481195
|  9>  C        0.0359340764    -2.7495787907    -0.0420036724
| 10>  C        0.0562168306    -2.1083869093     1.1873089335
| 11>  C        0.0327423948    -0.7111646957     1.2169215378
| 12>  C        0.0527487758    -0.0163802655     2.4649094918
| 13>  N        0.0685275484     0.5535300983     3.4729971905
| 14>  H        0.8562741442     1.9243096299     0.4584976542
| 15>  H       -0.0833943979     1.8544707741    -1.0536343682
| 16>  H       -0.8991900906     1.8965107750     0.5307312923
| 17>  H       -0.0242882557    -2.4270138672    -2.1719097560
| 18>  H        0.0528167277    -3.8305811607    -0.1122796842
| 19>  H        0.0895483261    -2.6667365679     2.1158725446
| 20> *
| 21>
| 22>                          ****END OF INPUT****

CARTESIAN COORDINATES (ANGSTROEM)
---------------------------------
  C     -0.036431    1.508477   -0.021099
  C     -0.010815    0.005254   -0.000429
  N     -0.030020   -0.627347   -1.175911
  C     -0.007101   -1.962841   -1.188748
  C      0.035934   -2.749579   -0.042004
  C      0.056217   -2.108387    1.187309
  C      0.032742   -0.711165    1.216922
  C      0.052749   -0.016380    2.464909
  N      0.068528    0.553530    3.472997
  H      0.856274    1.924310    0.458498
  H     -0.083394    1.854471   -1.053634
  H     -0.899190    1.896511    0.530731
  H     -0.024288   -2.427014   -2.171910
  H      0.052817   -3.830581   -0.112280
  H      0.089548   -2.666737    2.115873

 Total Charge           Charge          ....    0
 Multiplicity           Mult            ....    1
 Number of Electrons    NEL             ....   62
 Basis Dimension        Dim             ....  315

ORBITAL ENERGIES
----------------

  NO   OCC          E(Eh)            E(eV)
   0   2.0000     -15.583187      -424.0401
   1   2.0000     -15.578098      -423.9016
   2   2.0000     -11.316437      -307.9359
   3   2.0000     -11.302467      -307.5558
   4   2.0000     -11.291826      -307.2662
   5   2.0000     -11.288827      -307.1846
   6   2.0000     -11.282061      -307.0005
   7   2.0000     -11.260291      -306.4081
   8   2.0000     -11.237879      -305.7982
   9   2.0000      -1.288031       -35.0491
  10   2.0000      -1.225474       -33.3469
  11   2.0000      -1.124066       -30.5874
  12   2.0000      -1.089691       -29.6520
  13   2.0000      -0.982672       -26.7399
  14   2.0000      -0.910479       -24.7754
  15   2.0000      -0.855728       -23.2855
  16   2.0000      -0.766971       -20.8703
  17   2.0000      -0.705334       -19.1931
  18   2.0000      -0.701553       -19.0902
  19   2.0000      -0.620196       -16.8764
  20   2.0000      -0.611436       -16.6380
  21   2.0000      -0.604984       -16.4624
  22   2.0000      -0.568437       -15.4680
  23   2.0000      -0.555203       -15.1078
  24   2.0000      -0.547789       -14.9061
  25   2.0000      -0.546348       -14.8669
  26   2.0000      -0.502104       -13.6629
  27   2.0000      -0.480313       -13.0700
  28   2.0000      -0.435737       -11.8570
  29   2.0000      -0.403958       -10.9923
  30   2.0000      -0.359105        -9.7717
  31   0.0000       0.062196         1.6924
  32   0.0000       0.092611         2.5201
  33   0.0000       0.134180         3.6512
  34   0.0000       0.148597         4.0435
  35   0.0000       0.167446         4.5564

MULLIKEN ATOMIC CHARGES
-----------------------
   0 C :   -0.434071
   1 C :    0.081481
   2 N :   -0.231409
   3 C :   -0.026726
   4 C :   -0.098306
   5 C :   -0.214040
   6 C :    0.236855
   7 C :   -0.181796
   8 N :   -0.041076
   9 H :    0.153663
  10 H :    0.160382
  11 H :    0.153896
  12 H :    0.138955
  13 H :    0.146070
  14 H :    0.156123
Sum of atomic charges:    0.0000000

LOEWDIN ATOMIC CHARGES
----------------------
   0 C :   -0.256659
   1 C :   -0.196251
   2 N :    0.172031
   3 C :   -0.197835
   4 C :   -0.131329
   5 C :   -0.078131
   6 C :   -0.123136
   7 C :   -0.144314
   8 N :    0.083356
   9 H :    0.139651
  10 H :    0.137122
  11 H :    0.139503
  12 H :    0.142402
  13 H :    0.154083
  14 H :    0.159507

  Mayer bond orders larger than 0.1
B(  0-C ,  1-C ) :   0.9009 B(  0-C ,  9-H ) :   0.9252 B(  0-C , 10-H ) :   0.9470
B(  0-C , 11-H ) :   0.9262 B(  1-C ,  2-N ) :   1.4291 B(  1-C ,  6-C ) :   1.2447
B(  2-N ,  3-C ) :   1.3797 B(  3-C ,  4-C ) :   1.3093 B(  3-C , 12-H ) :   0.9425
B(  4-C ,  5-C ) :   1.3738 B(  4-C , 13-H ) :   0.9196 B(  5-C ,  6-C ) :   1.3035
B(  5-C , 14-H ) :   0.9268 B(  6-C ,  7-C ) :   0.8857 B(  7-C ,  8-N ) :   2.8406

MP2 TOTAL ENERGY:     -379.061803317 Eh
FINAL SINGLE POINT ENERGY      -379.061803317138

DIPOLE MOMENT
-------------
                                X             Y             Z
Electronic contribution:      0.10320      -1.65600       3.05153
Nuclear contribution   :     -0.10357       0.61749      -3.80454
                        -----------------------------------------
Total Dipole Moment    :     -0.00037      -1.03851      -0.75301
                        -----------------------------------------
Magnitude (a.u.)       :      1.28278
Magnitude (Debye)      :      3.26057

                             ****ORCA TERMINATED NORMALLY****
TOTAL RUN TIME: 0 days 0 hours 16 minutes 27 seconds 974 msec
