                         Program Version 3.0.3 - RELEASE   -
|  1> ! RI-MP2 RIJK def2-TZVP def2-TZVP/C def2-TZVP/JK TIGHTSCF
|  2> % maxcore 2000
|  3> % mp2 density relaxed end
|  4> *xyz 0 1
|  5>  C        0.0318812219     1.3307836190     0.2128866735
|  6>  O       -0.0190562321    -0.0315485052    -0.1808000368
|  7>  C       -1.2838061865    -0.5681296857    -0.0963668765
|  8>  C       -1.8755422271    -1.0668367718     1.1949568673
|  9>  C       -1.6557352791    -2.0188674736     0.0301446634
| 10>  C       -2.6868245091    -1.8523401444    -1.1245866528
| 11>  C       -3.7235036699    -0.7838281808    -0.8962833752
| 12>  C       -2.3175729327    -0.3845885876    -1.2549786473
| 13>  H        1.0684609925     1.6567045595     0.1022713913
| 14>  H       -0.6100773936     1.9599268032    -0.4196889719
| 15>  H       -0.2795115983     1.4563918029     1.2591058639
| 16>  H       -1.1269277404    -1.1857922864     1.9731766884
| 17>  H       -2.8576926885    -0.7986795644     1.5695965094
| 18>  H       -1.0097015142    -2.8819186267     0.1210178901
| 19>  H       -2.7850839287    -2.5833364092    -1.9165921492
| 20>  H       -4.4361774924    -0.6785540959    -1.7099190805
| 21>  H       -4.1582857007    -0.5847525734     0.0768737354
| 22>  H       -2.0683062513     0.1620720903    -2.1554183525
| 23> *
| 24>
| 25>                          ****END OF INPUT****

CARTESIAN COORDINATES (ANGSTROEM)
---------------------------------
  C      0.031881    1.330784    0.212887
  O     -0.019056   -0.031549   -0.180800
  C     -1.283806   -0.568130   -0.096367
  C     -1.875542   -1.066837    1.194957
  C     -1.655735   -2.018867    0.030145
  C     -2.686825   -1.852340   -1.124587
  C     -3.723504   -0.783828   -0.896283
  C     -2.317573   -0.384589   -1.254979
  H      1.068461    1.656705    0.102271
  H     -0.610077    1.959927   -0.419689
  H     -0.279512    1.456392    1.259106
  H     -1.126928   -1.185792    1.973177
  H     -2.857693   -0.798680    1.569597
  H     -1.009702   -2.881919    0.121018
  H     -2.785084   -2.583336   -1.916592
  H     -4.436177   -0.678554   -1.709919
  H     -4.158286   -0.584753    0.076874
  H     -2.068306    0.162072   -2.155418

 Total Charge           Charge          ....    0
 Multiplicity           Mult            ....    1
 Number of Electrons    NEL             ....   60
 Basis Dimension        Dim             ....  308

ORBITAL ENERGIES
----------------

  NO   OCC          E(Eh)            E(eV)
   0   2.0000     -20.562294      -559.5285
   1   2.0000     -11.285371      -307.0905
   2   2.0000     -11.270929      -306.6976
   3   2.0000     -11.233808      -305.6875
   4   2.0000     -11.231484      -305.6242
   5   2.0000     -11.230860      -305.6072
   6   2.0000     -11.229644      -305.5742
   7   2.0000     -11.226468      -305.4877
   8   2.0000      -1.386129       -37.7185
   9   2.0000      -1.208410       -32.8825
  10   2.0000      -1.069884       -29.1130
  11   2.0000      -0.937171       -25.5017
  12   2.0000      -0.873911       -23.7803
  13   2.0000      -0.850092       -23.1322
  14   2.0000      -0.759851       -20.6766
  15   2.0000      -0.723223       -19.6799
  16   2.0000      -0.708459       -19.2781
  17   2.0000      -0.669073       -18.2064
  18   2.0000      -0.626701       -17.0534
  19   2.0000      -0.620880       -16.8950
  20   2.0000      -0.608434       -16.5563
  21   2.0000      -0.548255       -14.9188
  22   2.0000      -0.537355       -14.6222
  23   2.0000      -0.526384       -14.3236
  24   2.0000      -0.488552       -13.2942
  25   2.0000      -0.480011       -13.0618
  26   2.0000      -0.442444       -12.0395
  27   2.0000      -0.418121       -11.3777
  28   2.0000      -0.392324       -10.6757
  29   2.0000      -0.324986        -8.8433
  30   0.0000       0.148102         4.0301
  31   0.0000       0.160058         4.3554
  32   0.0000       0.168172         4.5762
  33   0.0000       0.176634         4.8064
  34   0.0000       0.195508         5.3200

MULLIKEN ATOMIC CHARGES
-----------------------
   0 C :   -0.212916
   1 O :   -0.301440
   2 C :    0.231691
   3 C :   -0.300583
   4 C :   -0.154020
   5 C :   -0.131913
   6 C :   -0.237148
   7 C :   -0.196536
   8 H :    0.139785
   9 H :    0.119174
  10 H :    0.118894
  11 H :    0.132681
  12 H :    0.122406
  13 H :    0.144746
  14 H :    0.134233
  15 H :    0.128361
  16 H :    0.125226
  17 H :    0.137360
Sum of atomic charges:   -0.0000000

LOEWDIN ATOMIC CHARGES
----------------------
   0 C :   -0.336137
   1 O :    0.196739
   2 C :   -0.303725
   3 C :   -0.191122
   4 C :   -0.139640
   5 C :   -0.159225
   6 C :   -0.204078
   7 C :   -0.147912
   8 H :    0.112797
   9 H :    0.104828
  10 H :    0.104238
  11 H :    0.147344
  12 H :    0.125675
  13 H :    0.142160
  14 H :    0.137598
  15 H :    0.141876
  16 H :    0.128165
  17 H :    0.140421

  Mayer bond orders larger than 0.1
B(  0-C ,  1-O ) :   0.8845 B(  0-C ,  8-H ) :   0.9400 B(  0-C ,  9-H ) :   0.9339
B(  0-C , 10-H ) :   0.9356 B(  1-O ,  2-C ) :   1.0008 B(  2-C ,  3-C ) :   0.9146
B(  2-C ,  4-C ) :   0.9084 B(  2-C ,  7-C ) :   0.8702 B(  3-C ,  4-C ) :   0.8869
B(  3-C , 11-H ) :   0.9213 B(  3-C , 12-H ) :   0.8888 B(  4-C ,  5-C ) :   0.8982
B(  4-C , 13-H ) :   0.9088 B(  5-C ,  6-C ) :   0.9073 B(  5-C ,  7-C ) :   0.9071
B(  5-C , 14-H ) :   0.9253 B(  6-C ,  7-C ) :   0.8761 B(  6-C , 15-H ) :   0.9237
B(  6-C , 16-H ) :   0.9102 B(  7-C , 17-H ) :   0.9190

MP2 TOTAL ENERGY:     -347.100821667 Eh
FINAL SINGLE POINT ENERGY      -347.100821666925

DIPOLE MOMENT
-------------
                                X             Y             Z
Electronic contribution:      1.44609      -2.26709      -1.23218
Nuclear contribution   :     -1.69510       2.55380       1.28877
                        -----------------------------------------
Total Dipole Moment    :     -0.24901       0.28671       0.05659
                        -----------------------------------------
Magnitude (a.u.)       :      0.38394
Magnitude (Debye)      :      0.97590

                             ****ORCA TERMINATED NORMALLY****
TOTAL RUN TIME: 0 days 0 hours 12 minutes 28 seconds 272 msec
