                         Program Version 3.0.3 - RELEASE   -
|  1> ! RI-MP2 RIJK def2-TZVP def2-TZVP/C def2-TZVP/JK TIGHTSCF
|  2> % maxcore 2000
|  3> % mp2 density relaxed end
|  4> *xyz 0 1
|  5>  C       -0.2978230031     1.3348751290    -0.0597714980
|  6>  O        0.3133454892     0.0609827614     0.0980626308
|  7>  C        0.7618697094    -0.4759190195    -1.1041697087
|  8>  C        1.3403195754    -1.9252836734    -0.9482484714
|  9>  N        0.3136280834    -2.3505443372    -1.9151917502
| 10>  C       -0.3116373891    -1.1345693413    -2.0291132920
| 11>  O       -1.3052033998    -0.7679660212    -2.5970488026
| 12>  C        2.7202770454    -2.1578472813    -1.3381318606
| 13>  C        3.8633158368    -2.3526944788    -1.6536528795
| 14>  H        0.4143232068     2.0659144659    -0.4709588912
| 15>  H       -1.1715757971     1.2808558544    -0.7190542695
| 16>  H       -0.6080267499     1.6590952553     0.9353685143
| 17>  H        1.4353024095     0.2043107193    -1.6444093183
| 18>  H        1.1512987264    -2.2961542930     0.0648081160
| 19>  H        0.0946751626    -3.2642397774    -2.2850921677
| 20>  H        4.8740708343    -2.5232346622    -1.9326899712
| 21> *
| 22>
| 23>                          ****END OF INPUT****

CARTESIAN COORDINATES (ANGSTROEM)
---------------------------------
  C     -0.297823    1.334875   -0.059771
  O      0.313345    0.060983    0.098063
  C      0.761870   -0.475919   -1.104170
  C      1.340320   -1.925284   -0.948248
  N      0.313628   -2.350544   -1.915192
  C     -0.311637   -1.134569   -2.029113
  O     -1.305203   -0.767966   -2.597049
  C      2.720277   -2.157847   -1.338132
  C      3.863316   -2.352694   -1.653653
  H      0.414323    2.065914   -0.470959
  H     -1.171576    1.280856   -0.719054
  H     -0.608027    1.659095    0.935369
  H      1.435302    0.204311   -1.644409
  H      1.151299   -2.296154    0.064808
  H      0.094675   -3.264240   -2.285092
  H      4.874071   -2.523235   -1.932690

 Total Charge           Charge          ....    0
 Multiplicity           Mult            ....    1
 Number of Electrons    NEL             ....   66
 Basis Dimension        Dim             ....  321

ORBITAL ENERGIES
----------------

  NO   OCC          E(Eh)            E(eV)
   0   2.0000     -20.581000      -560.0375
   1   2.0000     -20.536662      -558.8310
   2   2.0000     -15.599841      -424.4932
   3   2.0000     -11.359759      -309.1147
   4   2.0000     -11.317336      -307.9604
   5   2.0000     -11.316785      -307.9454
   6   2.0000     -11.280153      -306.9486
   7   2.0000     -11.250756      -306.1486
   8   2.0000     -11.244442      -305.9768
   9   2.0000      -1.412811       -38.4445
  10   2.0000      -1.388779       -37.7906
  11   2.0000      -1.281597       -34.8740
  12   2.0000      -1.065182       -28.9851
  13   2.0000      -1.012161       -27.5423
  14   2.0000      -0.937818       -25.5193
  15   2.0000      -0.916542       -24.9404
  16   2.0000      -0.795181       -21.6380
  17   2.0000      -0.750885       -20.4326
  18   2.0000      -0.708242       -19.2722
  19   2.0000      -0.697040       -18.9674
  20   2.0000      -0.688314       -18.7300
  21   2.0000      -0.644640       -17.5415
  22   2.0000      -0.641191       -17.4477
  23   2.0000      -0.616451       -16.7745
  24   2.0000      -0.573375       -15.6023
  25   2.0000      -0.562520       -15.3069
  26   2.0000      -0.536665       -14.6034
  27   2.0000      -0.510002       -13.8779
  28   2.0000      -0.480073       -13.0635
  29   2.0000      -0.427788       -11.6407
  30   2.0000      -0.413358       -11.2480
  31   2.0000      -0.411129       -11.1874
  32   2.0000      -0.390310       -10.6209
  33   0.0000       0.132206         3.5975
  34   0.0000       0.144878         3.9423
  35   0.0000       0.156761         4.2657
  36   0.0000       0.158223         4.3055
  37   0.0000       0.166583         4.5330

MULLIKEN ATOMIC CHARGES
-----------------------
   0 C :   -0.232213
   1 O :   -0.306832
   2 C :    0.073436
   3 C :   -0.003823
   4 N :   -0.322377
   5 C :    0.193578
   6 O :   -0.310979
   7 C :   -0.074626
   8 C :   -0.121434
   9 H :    0.114531
  10 H :    0.152830
  11 H :    0.142596
  12 H :    0.107955
  13 H :    0.145717
  14 H :    0.242612
  15 H :    0.199029
Sum of atomic charges:   -0.0000000

LOEWDIN ATOMIC CHARGES
----------------------
   0 C :   -0.332925
   1 O :    0.166085
   2 C :   -0.244244
   3 C :   -0.209323
   4 N :    0.159185
   5 C :   -0.423514
   6 O :    0.107397
   7 C :   -0.092814
   8 C :   -0.077102
   9 H :    0.104771
  10 H :    0.113672
  11 H :    0.115158
  12 H :    0.143608
  13 H :    0.164352
  14 H :    0.175716
  15 H :    0.129979

  Mayer bond orders larger than 0.1
B(  0-C ,  1-O ) :   0.8811 B(  0-C ,  9-H ) :   0.9362 B(  0-C , 10-H ) :   0.9320
B(  0-C , 11-H ) :   0.9366 B(  1-O ,  2-C ) :   0.9762 B(  2-C ,  3-C ) :   0.8427
B(  2-C ,  5-C ) :   0.8444 B(  2-C , 12-H ) :   0.8933 B(  3-C ,  4-N ) :   0.8586
B(  3-C ,  7-C ) :   1.1654 B(  3-C , 13-H ) :   0.9378 B(  4-N ,  5-C ) :   1.1717
B(  4-N , 14-H ) :   0.8582 B(  5-C ,  6-O ) :   2.0087 B(  7-C ,  8-C ) :   2.5904
B(  8-C , 15-H ) :   0.8911

MP2 TOTAL ENERGY:     -437.117714384 Eh
FINAL SINGLE POINT ENERGY      -437.117714384197

DIPOLE MOMENT
-------------
                                X             Y             Z
Electronic contribution:     -0.06872      -4.32017      -2.36134
Nuclear contribution   :      0.95227       4.02113       2.64227
                        -----------------------------------------
Total Dipole Moment    :      0.88355      -0.29904       0.28092
                        -----------------------------------------
Magnitude (a.u.)       :      0.97417
Magnitude (Debye)      :      2.47614

                             ****ORCA TERMINATED NORMALLY****
TOTAL RUN TIME: 0 days 0 hours 15 minutes 15 seconds 416 msec
