                         Program Version 3.0.3 - RELEASE   -
|  1> ! RI-MP2 RIJK def2-TZVP def2-TZVP/C def2-TZVP/JK TIGHTSCF
|  2> % maxcore 2000
|  3> % mp2 density relaxed end
|  4> *xyz 0 1
|  5>  C       -0.0174573334     1.5282675915    -0.0897213789
|  6>  C        0.0038520838     0.0119873352     0.0176962514
|  7>  C       -1.3577335300    -0.6344239302     0.4345067547
|  8>  C       -0.7002372894    -1.2079821488     1.7190882849
|  9>  C        0.6802694919    -0.6436916751     1.2785951329
| 10>  C        1.6837154041    -1.6842571438     0.7436411643
| 11>  C        1.1831873941    -2.0195172407    -0.6727759669
| 12>  C        0.6802889359    -0.6636290232    -1.1981837959
| 13>  O       -0.1087926695    -0.7144049377    -2.3723278419
| 14>  H        0.9987074218     1.9350204758    -0.1553876223
| 15>  H       -0.5599370843     1.8380886765    -0.9902536305
| 16>  H       -0.5067741056     1.9892461624     0.7752496301
| 17>  H       -2.1580787493     0.0894723331     0.6065666758
| 18>  H       -1.7486307089    -1.3945040270    -0.2512388324
| 19>  H       -1.0826939876    -0.7703928593     2.6442541985
| 20>  H       -0.7398950303    -2.2967913178     1.8212701080
| 21>  H        1.1372583780     0.0421272109     1.9961293559
| 22>  H        2.6841319655    -1.2392357599     0.6834197896
| 23>  H        1.7632091795    -2.5631210323     1.3917704145
| 24>  H        1.9470661944    -2.4617470183    -1.3173545677
| 25>  H        0.3460580571    -2.7299968110    -0.6308934380
| 26>  H        1.5486578435    -0.0541008291    -1.4809084201
| 27>  H       -0.8855993813    -1.2514263811    -2.1820226860
| 28> *
| 29>
| 30>                          ****END OF INPUT****

CARTESIAN COORDINATES (ANGSTROEM)
---------------------------------
  C     -0.017457    1.528268   -0.089721
  C      0.003852    0.011987    0.017696
  C     -1.357734   -0.634424    0.434507
  C     -0.700237   -1.207982    1.719088
  C      0.680269   -0.643692    1.278595
  C      1.683715   -1.684257    0.743641
  C      1.183187   -2.019517   -0.672776
  C      0.680289   -0.663629   -1.198184
  O     -0.108793   -0.714405   -2.372328
  H      0.998707    1.935020   -0.155388
  H     -0.559937    1.838089   -0.990254
  H     -0.506774    1.989246    0.775250
  H     -2.158079    0.089472    0.606567
  H     -1.748631   -1.394504   -0.251239
  H     -1.082694   -0.770393    2.644254
  H     -0.739895   -2.296791    1.821270
  H      1.137258    0.042127    1.996129
  H      2.684132   -1.239236    0.683420
  H      1.763209   -2.563121    1.391770
  H      1.947066   -2.461747   -1.317355
  H      0.346058   -2.729997   -0.630893
  H      1.548658   -0.054101   -1.480908
  H     -0.885599   -1.251426   -2.182023

 Total Charge           Charge          ....    0
 Multiplicity           Mult            ....    1
 Number of Electrons    NEL             ....   70
 Basis Dimension        Dim             ....  363

ORBITAL ENERGIES
----------------

  NO   OCC          E(Eh)            E(eV)
   0   2.0000     -20.550280      -559.2016
   1   2.0000     -11.270223      -306.6784
   2   2.0000     -11.226744      -305.4952
   3   2.0000     -11.222112      -305.3692
   4   2.0000     -11.221056      -305.3405
   5   2.0000     -11.220386      -305.3222
   6   2.0000     -11.219397      -305.2953
   7   2.0000     -11.217686      -305.2488
   8   2.0000     -11.210291      -305.0475
   9   2.0000      -1.357130       -36.9294
  10   2.0000      -1.154937       -31.4274
  11   2.0000      -1.039866       -28.2962
  12   2.0000      -0.995130       -27.0789
  13   2.0000      -0.930608       -25.3231
  14   2.0000      -0.873203       -23.7611
  15   2.0000      -0.844418       -22.9778
  16   2.0000      -0.787049       -21.4167
  17   2.0000      -0.716461       -19.4959
  18   2.0000      -0.670694       -18.2505
  19   2.0000      -0.654450       -17.8085
  20   2.0000      -0.630986       -17.1700
  21   2.0000      -0.605766       -16.4837
  22   2.0000      -0.580556       -15.7977
  23   2.0000      -0.565155       -15.3786
  24   2.0000      -0.560662       -15.2564
  25   2.0000      -0.557517       -15.1708
  26   2.0000      -0.530494       -14.4355
  27   2.0000      -0.514033       -13.9876
  28   2.0000      -0.492075       -13.3900
  29   2.0000      -0.476363       -12.9625
  30   2.0000      -0.457999       -12.4628
  31   2.0000      -0.451506       -12.2861
  32   2.0000      -0.426749       -11.6124
  33   2.0000      -0.414310       -11.2739
  34   2.0000      -0.396252       -10.7826
  35   0.0000       0.132520         3.6060
  36   0.0000       0.140920         3.8346
  37   0.0000       0.153392         4.1740
  38   0.0000       0.166194         4.5224
  39   0.0000       0.184630         5.0240

MULLIKEN ATOMIC CHARGES
-----------------------
   0 C :   -0.459354
   1 C :    0.222437
   2 C :   -0.314037
   3 C :   -0.232878
   4 C :   -0.069419
   5 C :   -0.281378
   6 C :   -0.192732
   7 C :   -0.012987
   8 O :   -0.460740
   9 H :    0.125769
  10 H :    0.146203
  11 H :    0.128866
  12 H :    0.123929
  13 H :    0.080915
  14 H :    0.117788
  15 H :    0.105350
  16 H :    0.102848
  17 H :    0.116095
  18 H :    0.121460
  19 H :    0.129550
  20 H :    0.102333
  21 H :    0.088620
  22 H :    0.311362
Sum of atomic charges:    0.0000000

LOEWDIN ATOMIC CHARGES
----------------------
   0 C :   -0.275274
   1 C :   -0.237145
   2 C :   -0.201402
   3 C :   -0.217088
   4 C :   -0.173842
   5 C :   -0.236386
   6 C :   -0.239723
   7 C :   -0.305053
   8 O :   -0.012047
   9 H :    0.125216
  10 H :    0.131975
  11 H :    0.124513
  12 H :    0.131820
  13 H :    0.121098
  14 H :    0.130422
  15 H :    0.128430
  16 H :    0.139503
  17 H :    0.139126
  18 H :    0.134615
  19 H :    0.134665
  20 H :    0.135943
  21 H :    0.150875
  22 H :    0.169758

  Mayer bond orders larger than 0.1
B(  0-C ,  1-C ) :   0.8672 B(  0-C ,  9-H ) :   0.9366 B(  0-C , 10-H ) :   0.9422
B(  0-C , 11-H ) :   0.9411 B(  1-C ,  2-C ) :   0.8970 B(  1-C ,  4-C ) :   0.8591
B(  1-C ,  7-C ) :   0.8876 B(  2-C ,  3-C ) :   0.9909 B(  2-C , 12-H ) :   0.9167
B(  2-C , 13-H ) :   0.9005 B(  3-C ,  4-C ) :   0.9443 B(  3-C , 14-H ) :   0.9225
B(  3-C , 15-H ) :   0.9168 B(  4-C ,  5-C ) :   0.9014 B(  4-C , 16-H ) :   0.9083
B(  5-C ,  6-C ) :   0.9257 B(  5-C , 17-H ) :   0.9309 B(  5-C , 18-H ) :   0.9242
B(  6-C ,  7-C ) :   0.9353 B(  6-C , 19-H ) :   0.9340 B(  6-C , 20-H ) :   0.9152
B(  7-C ,  8-O ) :   0.9468 B(  7-C , 21-H ) :   0.9273 B(  8-O , 22-H ) :   0.8382

MP2 TOTAL ENERGY:     -387.631011519 Eh
FINAL SINGLE POINT ENERGY      -387.631011519306

DIPOLE MOMENT
-------------
                                X             Y             Z
Electronic contribution:      0.13599      -0.67276      -2.94988
Nuclear contribution   :     -0.23258       0.44196       3.55020
                        -----------------------------------------
Total Dipole Moment    :     -0.09659      -0.23080       0.60032
                        -----------------------------------------
Magnitude (a.u.)       :      0.65037
Magnitude (Debye)      :      1.65311

                             ****ORCA TERMINATED NORMALLY****
TOTAL RUN TIME: 0 days 0 hours 23 minutes 10 seconds 361 msec
