                         Program Version 3.0.3 - RELEASE   -
|  1> ! RI-MP2 RIJK def2-TZVP def2-TZVP/C def2-TZVP/JK TIGHTSCF
|  2> % maxcore 2000
|  3> % mp2 density relaxed end
|  4> *xyz 0 1
|  5>  C       -0.1223588760     1.5320294795     0.0471719945
|  6>  C        0.0234273092     0.0339607535    -0.0062543877
|  7>  C        0.1010213434    -0.6450099814    -1.1521245455
|  8>  C        0.1516668729    -2.1469137054    -1.2085878061
|  9>  C       -0.3738651733    -2.7131177047     0.1079499537
| 10>  O        0.2742189428    -2.0967373205     1.2083955155
| 11>  C        0.0383739674    -0.7208066581     1.3199260973
| 12>  C        1.0878031140    -0.1414608911     2.2717741389
| 13>  O        2.0302942160    -0.7436395680     2.7033862339
| 14>  H        0.7628600482     2.0239901765     0.4676996110
| 15>  H       -0.2824621834     1.9381532288    -0.9547943746
| 16>  H       -0.9740790734     1.8304914160     0.6717011261
| 17>  H        0.0964987967    -0.0985093941    -2.0925956658
| 18>  H       -0.4545857353    -2.5180319038    -2.0441976667
| 19>  H        1.1768776054    -2.4981993430    -1.3864878003
| 20>  H       -1.4642420943    -2.5648773713     0.1703429963
| 21>  H       -0.1696428726    -3.7825377744     0.2039994829
| 22>  H       -0.9352782122    -0.5269420785     1.8225607846
| 23>  H        0.8884512446     0.9155429600     2.5574466419
| 24> *
| 25>
| 26>                          ****END OF INPUT****

CARTESIAN COORDINATES (ANGSTROEM)
---------------------------------
  C     -0.122359    1.532029    0.047172
  C      0.023427    0.033961   -0.006254
  C      0.101021   -0.645010   -1.152125
  C      0.151667   -2.146914   -1.208588
  C     -0.373865   -2.713118    0.107950
  O      0.274219   -2.096737    1.208396
  C      0.038374   -0.720807    1.319926
  C      1.087803   -0.141461    2.271774
  O      2.030294   -0.743640    2.703386
  H      0.762860    2.023990    0.467700
  H     -0.282462    1.938153   -0.954794
  H     -0.974079    1.830491    0.671701
  H      0.096499   -0.098509   -2.092596
  H     -0.454586   -2.518032   -2.044198
  H      1.176878   -2.498199   -1.386488
  H     -1.464242   -2.564877    0.170343
  H     -0.169643   -3.782538    0.203999
  H     -0.935278   -0.526942    1.822561
  H      0.888451    0.915543    2.557447

 Total Charge           Charge          ....    0
 Multiplicity           Mult            ....    1
 Number of Electrons    NEL             ....   68
 Basis Dimension        Dim             ....  339

ORBITAL ENERGIES
----------------

  NO   OCC          E(Eh)            E(eV)
   0   2.0000     -20.562524      -559.5347
   1   2.0000     -20.556313      -559.3657
   2   2.0000     -11.330368      -308.3150
   3   2.0000     -11.304313      -307.6060
   4   2.0000     -11.281457      -306.9840
   5   2.0000     -11.251066      -306.1571
   6   2.0000     -11.239293      -305.8367
   7   2.0000     -11.236959      -305.7732
   8   2.0000     -11.234045      -305.6939
   9   2.0000      -1.406655       -38.2770
  10   2.0000      -1.380308       -37.5601
  11   2.0000      -1.114186       -30.3186
  12   2.0000      -1.060776       -28.8652
  13   2.0000      -0.971199       -26.4277
  14   2.0000      -0.926110       -25.2007
  15   2.0000      -0.853945       -23.2370
  16   2.0000      -0.800810       -21.7911
  17   2.0000      -0.727504       -19.7964
  18   2.0000      -0.697024       -18.9670
  19   2.0000      -0.680282       -18.5114
  20   2.0000      -0.645176       -17.5561
  21   2.0000      -0.629322       -17.1247
  22   2.0000      -0.614448       -16.7200
  23   2.0000      -0.586921       -15.9709
  24   2.0000      -0.579348       -15.7649
  25   2.0000      -0.576335       -15.6829
  26   2.0000      -0.548573       -14.9274
  27   2.0000      -0.546108       -14.8603
  28   2.0000      -0.514891       -14.0109
  29   2.0000      -0.510566       -13.8932
  30   2.0000      -0.464485       -12.6393
  31   2.0000      -0.425681       -11.5834
  32   2.0000      -0.421689       -11.4747
  33   2.0000      -0.353372        -9.6157
  34   0.0000       0.117799         3.2055
  35   0.0000       0.139963         3.8086
  36   0.0000       0.144772         3.9395
  37   0.0000       0.150842         4.1046
  38   0.0000       0.169858         4.6221

MULLIKEN ATOMIC CHARGES
-----------------------
   0 C :   -0.440890
   1 C :    0.038707
   2 C :   -0.248297
   3 C :   -0.145619
   4 C :   -0.078886
   5 O :   -0.277654
   6 C :    0.103139
   7 C :    0.071162
   8 O :   -0.234855
   9 H :    0.154039
  10 H :    0.140910
  11 H :    0.142525
  12 H :    0.121612
  13 H :    0.117149
  14 H :    0.123104
  15 H :    0.096222
  16 H :    0.132603
  17 H :    0.100084
  18 H :    0.084943
Sum of atomic charges:   -0.0000000

LOEWDIN ATOMIC CHARGES
----------------------
   0 C :   -0.271205
   1 C :   -0.180068
   2 C :   -0.143597
   3 C :   -0.257664
   4 C :   -0.300715
   5 O :    0.208238
   6 C :   -0.299491
   7 C :   -0.269151
   8 O :    0.158356
   9 H :    0.130228
  10 H :    0.132717
  11 H :    0.130946
  12 H :    0.144675
  13 H :    0.144851
  14 H :    0.147807
  15 H :    0.123559
  16 H :    0.131210
  17 H :    0.155593
  18 H :    0.113711

  Mayer bond orders larger than 0.1
B(  0-C ,  1-C ) :   0.8783 B(  0-C ,  9-H ) :   0.9279 B(  0-C , 10-H ) :   0.9385
B(  0-C , 11-H ) :   0.9334 B(  1-C ,  2-C ) :   1.7742 B(  1-C ,  6-C ) :   0.8846
B(  2-C ,  3-C ) :   0.9424 B(  2-C , 12-H ) :   0.9291 B(  3-C ,  4-C ) :   0.9516
B(  3-C , 13-H ) :   0.9204 B(  3-C , 14-H ) :   0.9043 B(  4-C ,  5-O ) :   0.9057
B(  4-C , 15-H ) :   0.9378 B(  4-C , 16-H ) :   0.9286 B(  5-O ,  6-C ) :   1.0053
B(  6-C ,  7-C ) :   0.8201 B(  6-C , 17-H ) :   0.9291 B(  7-C ,  8-O ) :   2.0378
B(  7-C , 18-H ) :   0.9331

MP2 TOTAL ENERGY:     -422.322354031 Eh
FINAL SINGLE POINT ENERGY      -422.322354030773

DIPOLE MOMENT
-------------
                                X             Y             Z
Electronic contribution:      3.65911      -2.53969       5.44708
Nuclear contribution   :     -4.69819       3.09296      -6.35171
                        -----------------------------------------
Total Dipole Moment    :     -1.03908       0.55328      -0.90463
                        -----------------------------------------
Magnitude (a.u.)       :      1.48464
Magnitude (Debye)      :      3.77365

                             ****ORCA TERMINATED NORMALLY****
TOTAL RUN TIME: 0 days 0 hours 17 minutes 51 seconds 175 msec
