                         Program Version 3.0.3 - RELEASE   -
|  1> ! RI-MP2 RIJK def2-TZVP def2-TZVP/C def2-TZVP/JK TIGHTSCF
|  2> % maxcore 2000
|  3> % mp2 density relaxed end
|  4> *xyz 0 1
|  5>  N       -0.0123670175    -1.1562927244     0.5062616049
|  6>  C        0.0043100403    -0.0263334794     0.2692485830
|  7>  C        0.0222617194     1.4108504945    -0.0290652188
|  8>  C        1.3990959353     1.9783603750    -0.1271565394
|  9>  C        2.1281291802     2.5392582115    -1.1212886687
| 10>  N        3.3702524831     2.9152008331    -0.6247084900
| 11>  C        3.3290794352     2.5662220875     0.6179100157
| 12>  O        2.1666332186     1.9912815933     1.0063863602
| 13>  H       -0.4939275000     1.5798138915    -0.9792348592
| 14>  H       -0.5558689154     1.9302332878     0.7452731374
| 15>  H        1.8543635871     2.6991287142    -2.1521596368
| 16>  H        4.0912685937     2.6734884755     1.3733774616
| 17> *
| 18>
| 19>                          ****END OF INPUT****

CARTESIAN COORDINATES (ANGSTROEM)
---------------------------------
  N     -0.012367   -1.156293    0.506262
  C      0.004310   -0.026333    0.269249
  C      0.022262    1.410850   -0.029065
  C      1.399096    1.978360   -0.127157
  C      2.128129    2.539258   -1.121289
  N      3.370252    2.915201   -0.624708
  C      3.329079    2.566222    0.617910
  O      2.166633    1.991282    1.006386
  H     -0.493928    1.579814   -0.979235
  H     -0.555869    1.930233    0.745273
  H      1.854364    2.699129   -2.152160
  H      4.091269    2.673488    1.373377

 Total Charge           Charge          ....    0
 Multiplicity           Mult            ....    1
 Number of Electrons    NEL             ....   56
 Basis Dimension        Dim             ....  272

ORBITAL ENERGIES
----------------

  NO   OCC          E(Eh)            E(eV)
   0   2.0000     -20.657906      -562.1302
   1   2.0000     -15.583317      -424.0436
   2   2.0000     -15.581041      -423.9817
   3   2.0000     -11.351786      -308.8978
   4   2.0000     -11.325640      -308.1863
   5   2.0000     -11.314983      -307.8963
   6   2.0000     -11.285731      -307.1004
   7   2.0000     -11.282151      -307.0029
   8   2.0000      -1.508434       -41.0466
   9   2.0000      -1.252229       -34.0749
  10   2.0000      -1.230267       -33.4773
  11   2.0000      -1.115085       -30.3430
  12   2.0000      -1.009781       -27.4775
  13   2.0000      -0.864865       -23.5342
  14   2.0000      -0.827904       -22.5284
  15   2.0000      -0.763773       -20.7833
  16   2.0000      -0.722166       -19.6511
  17   2.0000      -0.678155       -18.4535
  18   2.0000      -0.650456       -17.6998
  19   2.0000      -0.632895       -17.2219
  20   2.0000      -0.610660       -16.6169
  21   2.0000      -0.597045       -16.2464
  22   2.0000      -0.565747       -15.3948
  23   2.0000      -0.485264       -13.2047
  24   2.0000      -0.475658       -12.9433
  25   2.0000      -0.470440       -12.8013
  26   2.0000      -0.468839       -12.7578
  27   2.0000      -0.362390        -9.8611
  28   0.0000       0.111378         3.0308
  29   0.0000       0.122617         3.3366
  30   0.0000       0.155028         4.2185
  31   0.0000       0.166803         4.5389
  32   0.0000       0.169975         4.6253

MULLIKEN ATOMIC CHARGES
-----------------------
   0 N :   -0.056273
   1 C :   -0.155776
   2 C :   -0.139904
   3 C :    0.160991
   4 C :   -0.135711
   5 N :   -0.260113
   6 C :    0.113783
   7 O :   -0.205910
   8 H :    0.180363
   9 H :    0.178320
  10 H :    0.153483
  11 H :    0.166745
Sum of atomic charges:   -0.0000000

LOEWDIN ATOMIC CHARGES
----------------------
   0 N :    0.070180
   1 C :   -0.180021
   2 C :   -0.208913
   3 C :   -0.252162
   4 C :   -0.217155
   5 N :    0.105397
   6 C :   -0.313241
   7 O :    0.359194
   8 H :    0.180837
   9 H :    0.177498
  10 H :    0.142300
  11 H :    0.136085

  Mayer bond orders larger than 0.1
B(  0-N ,  1-C ) :   2.8461 B(  1-C ,  2-C ) :   0.9197 B(  2-C ,  3-C ) :   0.9006
B(  2-C ,  8-H ) :   0.9191 B(  2-C ,  9-H ) :   0.9055 B(  3-C ,  4-C ) :   1.5811
B(  3-C ,  7-O ) :   1.0101 B(  4-C ,  5-N ) :   1.1981 B(  4-C , 10-H ) :   0.9275
B(  5-N ,  6-C ) :   1.6449 B(  6-C ,  7-O ) :   1.0767 B(  6-C , 11-H ) :   0.9234

MP2 TOTAL ENERGY:     -376.921813061 Eh
FINAL SINGLE POINT ENERGY      -376.921813060520

DIPOLE MOMENT
-------------
                                X             Y             Z
Electronic contribution:      0.80701      -1.37929       1.17573
Nuclear contribution   :     -1.27410       2.52967      -1.24114
                        -----------------------------------------
Total Dipole Moment    :     -0.46709       1.15038      -0.06541
                        -----------------------------------------
Magnitude (a.u.)       :      1.24331
Magnitude (Debye)      :      3.16025

                             ****ORCA TERMINATED NORMALLY****
TOTAL RUN TIME: 0 days 0 hours 9 minutes 13 seconds 203 msec
