                         Program Version 3.0.3 - RELEASE   -
|  1> ! RI-MP2 RIJK def2-TZVP def2-TZVP/C def2-TZVP/JK TIGHTSCF
|  2> % maxcore 2000
|  3> % mp2 density relaxed end
|  4> *xyz 0 1
|  5>  C       -0.0263101893     1.4954150125    -0.0341613648
|  6>  C       -0.0576994463     0.0003388669    -0.0429887035
|  7>  C        0.5681771252    -0.9950123694    -0.9546906538
|  8>  N        1.1936659926    -0.7356402326     0.3707658098
|  9>  C        0.7273681018    -2.0707225869     0.8782612020
| 10>  C       -0.3403005179    -2.0820813884    -0.2219147086
| 11>  O       -0.9648437567    -3.2135787128    -0.7104893304
| 12>  C       -1.2569055908    -0.9057510449     0.1891883683
| 13>  O       -1.8229022152    -0.8786051893     1.4772162764
| 14>  H        0.9636675748     1.8570206841    -0.3236565981
| 15>  H       -0.7665027727     1.9076001325    -0.7282757690
| 16>  H       -0.2494467233     1.8786416979     0.9669378415
| 17>  H        1.0700705738    -0.9091180831    -1.9094912357
| 18>  H        1.5284106856    -2.7991647292     0.7135654647
| 19>  H        0.3895792756    -2.0905456210     1.9185307790
| 20>  H       -0.3028241921    -3.9000176205    -0.8461831453
| 21>  H       -2.0095236358    -0.7364030041    -0.5938489129
| 22>  H       -2.5803253193    -1.4728616917     1.4854505204
| 23> *
| 24>
| 25>                          ****END OF INPUT****

CARTESIAN COORDINATES (ANGSTROEM)
---------------------------------
  C     -0.026310    1.495415   -0.034161
  C     -0.057699    0.000339   -0.042989
  C      0.568177   -0.995012   -0.954691
  N      1.193666   -0.735640    0.370766
  C      0.727368   -2.070723    0.878261
  C     -0.340301   -2.082081   -0.221915
  O     -0.964844   -3.213579   -0.710489
  C     -1.256906   -0.905751    0.189188
  O     -1.822902   -0.878605    1.477216
  H      0.963668    1.857021   -0.323657
  H     -0.766503    1.907600   -0.728276
  H     -0.249447    1.878642    0.966938
  H      1.070071   -0.909118   -1.909491
  H      1.528411   -2.799165    0.713565
  H      0.389579   -2.090546    1.918531
  H     -0.302824   -3.900018   -0.846183
  H     -2.009524   -0.736403   -0.593849
  H     -2.580325   -1.472862    1.485451

 Total Charge           Charge          ....    0
 Multiplicity           Mult            ....    1
 Number of Electrons    NEL             ....   68
 Basis Dimension        Dim             ....  333

ORBITAL ENERGIES
----------------

  NO   OCC          E(Eh)            E(eV)
   0   2.0000     -20.581520      -560.0516
   1   2.0000     -20.562970      -559.5469
   2   2.0000     -15.563650      -423.5084
   3   2.0000     -11.302176      -307.5478
   4   2.0000     -11.288316      -307.1707
   5   2.0000     -11.267449      -306.6029
   6   2.0000     -11.261224      -306.4335
   7   2.0000     -11.253286      -306.2175
   8   2.0000     -11.219455      -305.2969
   9   2.0000      -1.398542       -38.0563
  10   2.0000      -1.370701       -37.2987
  11   2.0000      -1.308595       -35.6087
  12   2.0000      -1.030892       -28.0520
  13   2.0000      -1.008828       -27.4516
  14   2.0000      -0.941029       -25.6067
  15   2.0000      -0.860351       -23.4113
  16   2.0000      -0.780557       -21.2400
  17   2.0000      -0.745170       -20.2771
  18   2.0000      -0.714091       -19.4314
  19   2.0000      -0.703314       -19.1382
  20   2.0000      -0.654521       -17.8104
  21   2.0000      -0.639002       -17.3881
  22   2.0000      -0.598016       -16.2728
  23   2.0000      -0.583237       -15.8707
  24   2.0000      -0.567522       -15.4430
  25   2.0000      -0.558481       -15.1970
  26   2.0000      -0.545707       -14.8494
  27   2.0000      -0.543959       -14.8019
  28   2.0000      -0.502609       -13.6767
  29   2.0000      -0.460206       -12.5228
  30   2.0000      -0.445548       -12.1240
  31   2.0000      -0.423243       -11.5170
  32   2.0000      -0.403417       -10.9775
  33   2.0000      -0.369686       -10.0597
  34   0.0000       0.127671         3.4741
  35   0.0000       0.144361         3.9282
  36   0.0000       0.160499         4.3674
  37   0.0000       0.176976         4.8158
  38   0.0000       0.187211         5.0943

MULLIKEN ATOMIC CHARGES
-----------------------
   0 C :   -0.434310
   1 C :    0.099185
   2 C :   -0.222144
   3 N :   -0.244214
   4 C :   -0.118043
   5 C :    0.217147
   6 O :   -0.447937
   7 C :    0.052933
   8 O :   -0.466739
   9 H :    0.146628
  10 H :    0.127642
  11 H :    0.147642
  12 H :    0.151519
  13 H :    0.115910
  14 H :    0.118668
  15 H :    0.329565
  16 H :    0.102862
  17 H :    0.323687
Sum of atomic charges:   -0.0000000

LOEWDIN ATOMIC CHARGES
----------------------
   0 C :   -0.266809
   1 C :   -0.244843
   2 C :   -0.137786
   3 N :    0.145778
   4 C :   -0.219496
   5 C :   -0.334557
   6 O :    0.030838
   7 C :   -0.271875
   8 O :   -0.005937
   9 H :    0.136045
  10 H :    0.129229
  11 H :    0.135770
  12 H :    0.131379
  13 H :    0.130797
  14 H :    0.126538
  15 H :    0.185339
  16 H :    0.148555
  17 H :    0.181036

  Mayer bond orders larger than 0.1
B(  0-C ,  1-C ) :   0.8725 B(  0-C ,  9-H ) :   0.9399 B(  0-C , 10-H ) :   0.9370
B(  0-C , 11-H ) :   0.9423 B(  1-C ,  2-C ) :   0.8417 B(  1-C ,  3-N ) :   0.8530
B(  1-C ,  7-C ) :   0.9120 B(  1-C ,  8-O ) :  -0.1206 B(  2-C ,  3-N ) :   0.9000
B(  2-C ,  5-C ) :   0.8309 B(  2-C , 12-H ) :   0.8856 B(  3-N ,  4-C ) :   0.9283
B(  4-C ,  5-C ) :   0.9808 B(  4-C , 13-H ) :   0.9211 B(  4-C , 14-H ) :   0.9064
B(  5-C ,  6-O ) :   1.0651 B(  5-C ,  7-C ) :   0.8964 B(  6-O , 15-H ) :   0.8349
B(  7-C ,  8-O ) :   1.1533 B(  7-C , 16-H ) :   0.9699 B(  8-O , 17-H ) :   0.8395

MP2 TOTAL ENERGY:     -438.310621345 Eh
FINAL SINGLE POINT ENERGY      -438.310621344855

DIPOLE MOMENT
-------------
                                X             Y             Z
Electronic contribution:     -0.68923      -3.79792      -0.12027
Nuclear contribution   :      0.42919       3.18281      -0.40686
                        -----------------------------------------
Total Dipole Moment    :     -0.26004      -0.61511      -0.52713
                        -----------------------------------------
Magnitude (a.u.)       :      0.85079
Magnitude (Debye)      :      2.16253

                             ****ORCA TERMINATED NORMALLY****
TOTAL RUN TIME: 0 days 0 hours 17 minutes 50 seconds 351 msec
