                         Program Version 3.0.3 - RELEASE   -
|  1> ! RI-MP2 RIJK def2-TZVP def2-TZVP/C def2-TZVP/JK TIGHTSCF
|  2> % maxcore 2000
|  3> % mp2 density relaxed end
|  4> *xyz 0 1
|  5>  C       -0.0917774880     1.5557804683     0.0286352166
|  6>  C        0.0443747582     0.0371053223     0.0188632378
|  7>  O       -1.2344823964    -0.5916511009    -0.0253597648
|  8>  C        1.0103931025    -0.5372004121    -1.0879382271
|  9>  C        1.9679250149    -1.3529874529    -0.1805680995
| 10>  N        1.0823957333    -1.9629001297     0.8676623757
| 11>  C        0.7592942822    -0.5532476986     1.2645707723
| 12>  C        2.2404462341    -0.2919164730     0.9079876642
| 13>  O        3.1505519011     0.3574087597     1.3142252943
| 14>  H        0.8814321635     2.0427535717     0.1438844816
| 15>  H       -0.5358207080     1.9138338469    -0.9077592538
| 16>  H       -0.7382534976     1.8715356804     0.8527383396
| 17>  H       -1.6671892256    -0.3329521330    -0.8466375626
| 18>  H        0.4636160270    -1.1845643237    -1.7799637290
| 19>  H        1.5207366740     0.2406732176    -1.6639992452
| 20>  H        2.7385973506    -1.9723333554    -0.6362109561
| 21>  H        0.2588639501    -2.4118424670     0.4650297027
| 22>  H        0.3155348841    -0.3685518806     2.2410821433
| 23> *
| 24>
| 25>                          ****END OF INPUT****

CARTESIAN COORDINATES (ANGSTROEM)
---------------------------------
  C     -0.091777    1.555780    0.028635
  C      0.044375    0.037105    0.018863
  O     -1.234482   -0.591651   -0.025360
  C      1.010393   -0.537200   -1.087938
  C      1.967925   -1.352987   -0.180568
  N      1.082396   -1.962900    0.867662
  C      0.759294   -0.553248    1.264571
  C      2.240446   -0.291916    0.907988
  O      3.150552    0.357409    1.314225
  H      0.881432    2.042754    0.143884
  H     -0.535821    1.913834   -0.907759
  H     -0.738253    1.871536    0.852738
  H     -1.667189   -0.332952   -0.846638
  H      0.463616   -1.184564   -1.779964
  H      1.520737    0.240673   -1.663999
  H      2.738597   -1.972333   -0.636211
  H      0.258864   -2.411842    0.465030
  H      0.315535   -0.368552    2.241082

 Total Charge           Charge          ....    0
 Multiplicity           Mult            ....    1
 Number of Electrons    NEL             ....   68
 Basis Dimension        Dim             ....  333

ORBITAL ENERGIES
----------------

  NO   OCC          E(Eh)            E(eV)
   0   2.0000     -20.574869      -559.8707
   1   2.0000     -20.562789      -559.5419
   2   2.0000     -15.566675      -423.5908
   3   2.0000     -11.342190      -308.6367
   4   2.0000     -11.312093      -307.8177
   5   2.0000     -11.281747      -306.9920
   6   2.0000     -11.276072      -306.8375
   7   2.0000     -11.248824      -306.0961
   8   2.0000     -11.233952      -305.6914
   9   2.0000      -1.410023       -38.3687
  10   2.0000      -1.386022       -37.7156
  11   2.0000      -1.275806       -34.7164
  12   2.0000      -1.063065       -28.9275
  13   2.0000      -0.997347       -27.1392
  14   2.0000      -0.943717       -25.6798
  15   2.0000      -0.908854       -24.7312
  16   2.0000      -0.793389       -21.5892
  17   2.0000      -0.740417       -20.1478
  18   2.0000      -0.699299       -19.0289
  19   2.0000      -0.678954       -18.4753
  20   2.0000      -0.670268       -18.2389
  21   2.0000      -0.641009       -17.4427
  22   2.0000      -0.617210       -16.7951
  23   2.0000      -0.601397       -16.3648
  24   2.0000      -0.581998       -15.8370
  25   2.0000      -0.554290       -15.0830
  26   2.0000      -0.536560       -14.6005
  27   2.0000      -0.534037       -14.5319
  28   2.0000      -0.519306       -14.1310
  29   2.0000      -0.514160       -13.9910
  30   2.0000      -0.487674       -13.2703
  31   2.0000      -0.453976       -12.3533
  32   2.0000      -0.406565       -11.0632
  33   2.0000      -0.396131       -10.7793
  34   0.0000       0.118116         3.2141
  35   0.0000       0.146771         3.9938
  36   0.0000       0.153131         4.1669
  37   0.0000       0.161424         4.3926
  38   0.0000       0.179185         4.8759

MULLIKEN ATOMIC CHARGES
-----------------------
   0 C :   -0.451352
   1 C :    0.127042
   2 O :   -0.463069
   3 C :   -0.291440
   4 C :    0.011840
   5 N :   -0.341075
   6 C :    0.067778
   7 C :    0.050302
   8 O :   -0.228816
   9 H :    0.149641
  10 H :    0.127167
  11 H :    0.147856
  12 H :    0.317968
  13 H :    0.127719
  14 H :    0.129257
  15 H :    0.146365
  16 H :    0.221304
  17 H :    0.151512
Sum of atomic charges:    0.0000000

LOEWDIN ATOMIC CHARGES
----------------------
   0 C :   -0.275678
   1 C :   -0.375738
   2 O :    0.003750
   3 C :   -0.198528
   4 C :   -0.217653
   5 N :    0.043819
   6 C :   -0.184295
   7 C :   -0.272208
   8 O :    0.180776
   9 H :    0.135274
  10 H :    0.125426
  11 H :    0.132293
  12 H :    0.175877
  13 H :    0.138164
  14 H :    0.141861
  15 H :    0.136184
  16 H :    0.168046
  17 H :    0.142629

  Mayer bond orders larger than 0.1
B(  0-C ,  1-C ) :   0.9386 B(  0-C ,  9-H ) :   0.9242 B(  0-C , 10-H ) :   0.9207
B(  0-C , 11-H ) :   0.9413 B(  1-C ,  2-O ) :   0.9695 B(  1-C ,  3-C ) :   0.9118
B(  1-C ,  6-C ) :   0.8702 B(  2-O , 12-H ) :   0.8375 B(  3-C ,  4-C ) :   0.8957
B(  3-C , 13-H ) :   0.9070 B(  3-C , 14-H ) :   0.9063 B(  4-C ,  5-N ) :   0.9399
B(  4-C ,  6-C ) :  -0.1048 B(  4-C ,  7-C ) :   0.8433 B(  4-C , 15-H ) :   0.9015
B(  5-N ,  6-C ) :   0.9561 B(  5-N , 16-H ) :   0.8618 B(  6-C ,  7-C ) :   0.8231
B(  6-C , 17-H ) :   0.8902 B(  7-C ,  8-O ) :   2.0784

MP2 TOTAL ENERGY:     -438.358933639 Eh
FINAL SINGLE POINT ENERGY      -438.358933638714

DIPOLE MOMENT
-------------
                                X             Y             Z
Electronic contribution:      4.04154      -2.58031       3.53708
Nuclear contribution   :     -4.95154       2.80876      -4.78062
                        -----------------------------------------
Total Dipole Moment    :     -0.91000       0.22845      -1.24354
                        -----------------------------------------
Magnitude (a.u.)       :      1.55778
Magnitude (Debye)      :      3.95957

                             ****ORCA TERMINATED NORMALLY****
TOTAL RUN TIME: 0 days 0 hours 24 minutes 5 seconds 676 msec
