                         Program Version 3.0.3 - RELEASE   -
|  1> ! RI-MP2 RIJK def2-TZVP def2-TZVP/C def2-TZVP/JK TIGHTSCF
|  2> % maxcore 2000
|  3> % mp2 density relaxed end
|  4> *xyz 0 1
|  5>  C        0.1942862002     1.4936459335    -0.1878224447
|  6>  C        0.0262165847     0.0116331052     0.0919650503
|  7>  O        0.3713094393    -0.6910071378    -1.1344780148
|  8>  C        1.0430462045    -1.8555229328    -1.1953341737
|  9>  O        1.3499186813    -2.3414681797    -2.2407080440
| 10>  O        1.4056890641    -2.4482344148    -0.0252385002
| 11>  C        0.8031463710    -2.0229458892     1.2076281870
| 12>  C        0.8460491893    -0.5075906166     1.2754922514
| 13>  O        2.1766519246    -0.0282282973     1.2964295246
| 14>  H        1.2495347396     1.7336184686    -0.3291153153
| 15>  H       -0.3639100872     1.7719735399    -1.0844159932
| 16>  H       -0.1841639089     2.0779355040     0.6565940366
| 17>  H       -1.0294337854    -0.2180445577     0.2879815897
| 18>  H       -0.2245849919    -2.4002569683     1.2719896272
| 19>  H        1.4023994663    -2.4810109785     1.9964160840
| 20>  H        0.3733065322    -0.1582185595     2.1998022404
| 21>  H        2.6994409865    -0.5606071791     0.6850621147
| 22> *
| 23>
| 24>                          ****END OF INPUT****

CARTESIAN COORDINATES (ANGSTROEM)
---------------------------------
  C      0.194286    1.493646   -0.187822
  C      0.026217    0.011633    0.091965
  O      0.371309   -0.691007   -1.134478
  C      1.043046   -1.855523   -1.195334
  O      1.349919   -2.341468   -2.240708
  O      1.405689   -2.448234   -0.025239
  C      0.803146   -2.022946    1.207628
  C      0.846049   -0.507591    1.275492
  O      2.176652   -0.028228    1.296430
  H      1.249535    1.733618   -0.329115
  H     -0.363910    1.771974   -1.084416
  H     -0.184164    2.077936    0.656594
  H     -1.029434   -0.218045    0.287982
  H     -0.224585   -2.400257    1.271990
  H      1.402399   -2.481011    1.996416
  H      0.373307   -0.158219    2.199802
  H      2.699441   -0.560607    0.685062

 Total Charge           Charge          ....    0
 Multiplicity           Mult            ....    1
 Number of Electrons    NEL             ....   70
 Basis Dimension        Dim             ....  327

ORBITAL ENERGIES
----------------

  NO   OCC          E(Eh)            E(eV)
   0   2.0000     -20.623088      -561.1827
   1   2.0000     -20.616391      -561.0005
   2   2.0000     -20.585324      -560.1552
   3   2.0000     -20.536676      -558.8314
   4   2.0000     -11.436011      -311.1897
   5   2.0000     -11.323362      -308.1243
   6   2.0000     -11.321714      -308.0795
   7   2.0000     -11.318065      -307.9802
   8   2.0000     -11.235672      -305.7382
   9   2.0000      -1.509268       -41.0693
  10   2.0000      -1.406559       -38.2744
  11   2.0000      -1.397322       -38.0231
  12   2.0000      -1.368066       -37.2270
  13   2.0000      -1.098370       -29.8882
  14   2.0000      -1.025015       -27.8921
  15   2.0000      -0.926539       -25.2124
  16   2.0000      -0.883693       -24.0465
  17   2.0000      -0.790532       -21.5115
  18   2.0000      -0.751868       -20.4594
  19   2.0000      -0.744391       -20.2559
  20   2.0000      -0.704581       -19.1726
  21   2.0000      -0.684814       -18.6347
  22   2.0000      -0.654112       -17.7993
  23   2.0000      -0.649081       -17.6624
  24   2.0000      -0.618413       -16.8279
  25   2.0000      -0.595400       -16.2017
  26   2.0000      -0.580251       -15.7894
  27   2.0000      -0.566072       -15.4036
  28   2.0000      -0.559097       -15.2138
  29   2.0000      -0.536174       -14.5900
  30   2.0000      -0.519569       -14.1382
  31   2.0000      -0.500455       -13.6181
  32   2.0000      -0.472530       -12.8582
  33   2.0000      -0.458024       -12.4635
  34   2.0000      -0.456905       -12.4330
  35   0.0000       0.113318         3.0835
  36   0.0000       0.140378         3.8199
  37   0.0000       0.150719         4.1013
  38   0.0000       0.166062         4.5188
  39   0.0000       0.194094         5.2816

MULLIKEN ATOMIC CHARGES
-----------------------
   0 C :   -0.359695
   1 C :    0.046232
   2 O :   -0.225916
   3 C :    0.333398
   4 O :   -0.286620
   5 O :   -0.254699
   6 C :   -0.076182
   7 C :    0.004816
   8 O :   -0.457802
   9 H :    0.144141
  10 H :    0.153043
  11 H :    0.125649
  12 H :    0.105362
  13 H :    0.129742
  14 H :    0.157430
  15 H :    0.127577
  16 H :    0.333525
Sum of atomic charges:    0.0000000

LOEWDIN ATOMIC CHARGES
----------------------
   0 C :   -0.281148
   1 C :   -0.292951
   2 O :    0.278472
   3 C :   -0.633949
   4 O :    0.132012
   5 O :    0.239464
   6 C :   -0.265231
   7 C :   -0.347277
   8 O :    0.004182
   9 H :    0.132493
  10 H :    0.132119
  11 H :    0.132172
  12 H :    0.149789
  13 H :    0.136461
  14 H :    0.140722
  15 H :    0.158737
  16 H :    0.183934

  Mayer bond orders larger than 0.1
B(  0-C ,  1-C ) :   0.9462 B(  0-C ,  9-H ) :   0.9233 B(  0-C , 10-H ) :   0.9347
B(  0-C , 11-H ) :   0.9257 B(  1-C ,  2-O ) :   0.8510 B(  1-C ,  7-C ) :   0.9082
B(  1-C , 12-H ) :   0.9174 B(  2-O ,  3-C ) :   1.1275 B(  3-C ,  4-O ) :   2.0589
B(  3-C ,  5-O ) :   1.0649 B(  5-O ,  6-C ) :   0.8414 B(  6-C ,  7-C ) :   0.9428
B(  6-C , 13-H ) :   0.9252 B(  6-C , 14-H ) :   0.9325 B(  7-C ,  8-O ) :   0.9468
B(  7-C , 15-H ) :   0.9152 B(  8-O , 16-H ) :   0.8263

MP2 TOTAL ENERGY:     -495.383930121 Eh
FINAL SINGLE POINT ENERGY      -495.383930121203

DIPOLE MOMENT
-------------
                                X             Y             Z
Electronic contribution:      2.49206      -6.17029      -4.48478
Nuclear contribution   :     -3.32943       6.73966       6.08138
                        -----------------------------------------
Total Dipole Moment    :     -0.83737       0.56937       1.59660
                        -----------------------------------------
Magnitude (a.u.)       :      1.89063
Magnitude (Debye)      :      4.80561

                             ****ORCA TERMINATED NORMALLY****
TOTAL RUN TIME: 0 days 0 hours 15 minutes 10 seconds 745 msec
