                         Program Version 3.0.3 - RELEASE   -
|  1> ! RI-MP2 RIJK def2-TZVP def2-TZVP/C def2-TZVP/JK TIGHTSCF
|  2> % maxcore 2000
|  3> % mp2 density relaxed end
|  4> *xyz 0 1
|  5>  C       -0.3221533335     1.4560299555    -0.0709304712
|  6>  N        0.1498054674     0.0885231939    -0.0198760750
|  7>  C        1.2552623846    -0.3653545531    -0.8964328660
|  8>  C        1.8841030452    -1.1104981442     0.3141885890
|  9>  O        2.1980259261    -2.4611049466     0.2581455580
| 10>  C        2.9230858689    -0.3059376798     1.1357053706
| 11>  O        2.6169229224     1.0802198561     0.9916563907
| 12>  C        1.8676522787     0.3230258117     1.9518330507
| 13>  C        0.7533682395    -0.4721352525     1.1909447575
| 14>  H        0.4715065280     2.2025269110     0.0882646249
| 15>  H       -0.7868296230     1.6481293988    -1.0443354904
| 16>  H       -1.0928123005     1.6008816176     0.6942775301
| 17>  H        0.9180915197    -1.0237820038    -1.7093962445
| 18>  H        1.8806858107     0.4323033756    -1.3143468845
| 19>  H        1.4420388814    -2.9363341668    -0.1032313134
| 20>  H        3.9466434804    -0.5852088772     1.3589489185
| 21>  H        1.8809709861     0.6804221587     2.9760565489
| 22>  H        0.0959792480    -1.0538857150     1.8452484260
| 23> *
| 24>
| 25>                          ****END OF INPUT****

CARTESIAN COORDINATES (ANGSTROEM)
---------------------------------
  C     -0.322153    1.456030   -0.070930
  N      0.149805    0.088523   -0.019876
  C      1.255262   -0.365355   -0.896433
  C      1.884103   -1.110498    0.314189
  O      2.198026   -2.461105    0.258146
  C      2.923086   -0.305938    1.135705
  O      2.616923    1.080220    0.991656
  C      1.867652    0.323026    1.951833
  C      0.753368   -0.472135    1.190945
  H      0.471507    2.202527    0.088265
  H     -0.786830    1.648129   -1.044335
  H     -1.092812    1.600882    0.694278
  H      0.918092   -1.023782   -1.709396
  H      1.880686    0.432303   -1.314347
  H      1.442039   -2.936334   -0.103231
  H      3.946643   -0.585209    1.358949
  H      1.880971    0.680422    2.976057
  H      0.095979   -1.053886    1.845248

 Total Charge           Charge          ....    0
 Multiplicity           Mult            ....    1
 Number of Electrons    NEL             ....   68
 Basis Dimension        Dim             ....  333

ORBITAL ENERGIES
----------------

  NO   OCC          E(Eh)            E(eV)
   0   2.0000     -20.576627      -559.9185
   1   2.0000     -20.576128      -559.9049
   2   2.0000     -15.547115      -423.0585
   3   2.0000     -11.298624      -307.4512
   4   2.0000     -11.291623      -307.2607
   5   2.0000     -11.290748      -307.2369
   6   2.0000     -11.264210      -306.5147
   7   2.0000     -11.251544      -306.1701
   8   2.0000     -11.238476      -305.8145
   9   2.0000      -1.430476       -38.9252
  10   2.0000      -1.385640       -37.7052
  11   2.0000      -1.242886       -33.8207
  12   2.0000      -1.053920       -28.6786
  13   2.0000      -0.969828       -26.3904
  14   2.0000      -0.919246       -25.0139
  15   2.0000      -0.845221       -22.9996
  16   2.0000      -0.824517       -22.4362
  17   2.0000      -0.750841       -20.4314
  18   2.0000      -0.728447       -19.8221
  19   2.0000      -0.690076       -18.7779
  20   2.0000      -0.655332       -17.8325
  21   2.0000      -0.629289       -17.1238
  22   2.0000      -0.611540       -16.6408
  23   2.0000      -0.584806       -15.9134
  24   2.0000      -0.574385       -15.6298
  25   2.0000      -0.564466       -15.3599
  26   2.0000      -0.538450       -14.6520
  27   2.0000      -0.516615       -14.0578
  28   2.0000      -0.509173       -13.8553
  29   2.0000      -0.489177       -13.3112
  30   2.0000      -0.469946       -12.7879
  31   2.0000      -0.417648       -11.3648
  32   2.0000      -0.385664       -10.4944
  33   2.0000      -0.347237        -9.4488
  34   0.0000       0.137862         3.7514
  35   0.0000       0.147630         4.0172
  36   0.0000       0.171605         4.6696
  37   0.0000       0.176710         4.8085
  38   0.0000       0.192375         5.2348

MULLIKEN ATOMIC CHARGES
-----------------------
   0 C :   -0.331943
   1 N :   -0.126224
   2 C :   -0.201126
   3 C :    0.282129
   4 O :   -0.453467
   5 C :   -0.069704
   6 O :   -0.321973
   7 C :   -0.009291
   8 C :   -0.114735
   9 H :    0.132317
  10 H :    0.135406
  11 H :    0.130870
  12 H :    0.105162
  13 H :    0.116564
  14 H :    0.329596
  15 H :    0.141007
  16 H :    0.142062
  17 H :    0.113351
Sum of atomic charges:    0.0000000

LOEWDIN ATOMIC CHARGES
----------------------
   0 C :   -0.335554
   1 N :    0.092154
   2 C :   -0.217533
   3 C :   -0.319010
   4 O :    0.034713
   5 C :   -0.201173
   6 O :    0.184229
   7 C :   -0.218144
   8 C :   -0.198426
   9 H :    0.108454
  10 H :    0.117658
  11 H :    0.118795
  12 H :    0.120110
  13 H :    0.128746
  14 H :    0.186657
  15 H :    0.134769
  16 H :    0.128074
  17 H :    0.135478

  Mayer bond orders larger than 0.1
B(  0-C ,  1-N ) :   0.8939 B(  0-C ,  9-H ) :   0.9237 B(  0-C , 10-H ) :   0.9365
B(  0-C , 11-H ) :   0.9378 B(  1-N ,  2-C ) :   0.9743 B(  1-N ,  8-C ) :   1.0400
B(  2-C ,  3-C ) :   0.9329 B(  2-C , 12-H ) :   0.9004 B(  2-C , 13-H ) :   0.9066
B(  3-C ,  4-O ) :   1.0238 B(  3-C ,  5-C ) :   0.8680 B(  3-C ,  8-C ) :   0.9095
B(  4-O , 14-H ) :   0.8343 B(  5-C ,  6-O ) :   0.9320 B(  5-C ,  7-C ) :   0.9195
B(  5-C , 15-H ) :   0.9198 B(  6-O ,  7-C ) :   0.8809 B(  7-C ,  8-C ) :   0.8511
B(  7-C , 16-H ) :   0.9113 B(  8-C , 17-H ) :   0.8986

MP2 TOTAL ENERGY:     -438.274787831 Eh
FINAL SINGLE POINT ENERGY      -438.274787830849

DIPOLE MOMENT
-------------
                                X             Y             Z
Electronic contribution:      3.89241      -2.84194       1.91943
Nuclear contribution   :     -4.27582       2.59153      -1.76898
                        -----------------------------------------
Total Dipole Moment    :     -0.38341      -0.25040       0.15045
                        -----------------------------------------
Magnitude (a.u.)       :      0.48202
Magnitude (Debye)      :      1.22520

                             ****ORCA TERMINATED NORMALLY****
TOTAL RUN TIME: 0 days 0 hours 18 minutes 13 seconds 772 msec
