                         Program Version 3.0.3 - RELEASE   -
|  1> ! RI-MP2 RIJK def2-TZVP def2-TZVP/C def2-TZVP/JK TIGHTSCF
|  2> % maxcore 2000
|  3> % mp2 density relaxed end
|  4> *xyz 0 1
|  5>  C       -0.1297937885     1.5000407257    -0.0166168349
|  6>  C        0.1661696448    -0.0014621423    -0.0278409275
|  7>  C        0.6379315263    -0.5129979360     1.3274719659
|  8>  O        0.8876922299    -1.8996531936     1.2214681107
|  9>  C        1.4705722975    -2.5105955972     2.3686651048
| 10>  C        0.4420827697    -2.7299155028     3.4821842916
| 11>  C        2.0908434101    -3.8260944890     1.8960368882
| 12>  C        3.2161009082    -3.6371810483     0.8769507584
| 13>  O        3.8023997359    -4.8679584455     0.4764629570
| 14>  H        0.7604653010     2.0810800037     0.2486159416
| 15>  H       -0.4670208457     1.8415214985    -0.9994541510
| 16>  H       -0.9140984546     1.7479786732     0.7072975033
| 17>  H       -0.7290685221    -0.5631929413    -0.3184526987
| 18>  H        0.9351214334    -0.2328759748    -0.7739248827
| 19>  H        1.5556634675     0.0166794019     1.6374117621
| 20>  H       -0.1273599952    -0.3019902809     2.0920807781
| 21>  H        2.2738184980    -1.8548231766     2.7497028208
| 22>  H        0.9115641607    -3.2060754668     4.3487234012
| 23>  H        0.0045853333    -1.7859333503     3.8189967063
| 24>  H       -0.3676792166    -3.3757029317     3.1276813276
| 25>  H        2.4806991036    -4.3772794748     2.7589396168
| 26>  H        1.2951437313    -4.4409609952     1.4526952533
| 27>  H        2.8425773026    -3.0661725235     0.0168119598
| 28>  H        4.0312215241    -3.0569255668     1.3250246101
| 29>  H        3.1337902147    -5.3646376458    -0.0056241428
| 30> *
| 31>
| 32>                          ****END OF INPUT****

CARTESIAN COORDINATES (ANGSTROEM)
---------------------------------
  C     -0.129794    1.500041   -0.016617
  C      0.166170   -0.001462   -0.027841
  C      0.637932   -0.512998    1.327472
  O      0.887692   -1.899653    1.221468
  C      1.470572   -2.510596    2.368665
  C      0.442083   -2.729916    3.482184
  C      2.090843   -3.826094    1.896037
  C      3.216101   -3.637181    0.876951
  O      3.802400   -4.867958    0.476463
  H      0.760465    2.081080    0.248616
  H     -0.467021    1.841521   -0.999454
  H     -0.914098    1.747979    0.707298
  H     -0.729069   -0.563193   -0.318453
  H      0.935121   -0.232876   -0.773925
  H      1.555663    0.016679    1.637412
  H     -0.127360   -0.301990    2.092081
  H      2.273818   -1.854823    2.749703
  H      0.911564   -3.206075    4.348723
  H      0.004585   -1.785933    3.818997
  H     -0.367679   -3.375703    3.127681
  H      2.480699   -4.377279    2.758940
  H      1.295144   -4.440961    1.452695
  H      2.842577   -3.066173    0.016812
  H      4.031222   -3.056926    1.325025
  H      3.133790   -5.364638   -0.005624

 Total Charge           Charge          ....    0
 Multiplicity           Mult            ....    1
 Number of Electrons    NEL             ....   74
 Basis Dimension        Dim             ....  375

ORBITAL ENERGIES
----------------

  NO   OCC          E(Eh)            E(eV)
   0   2.0000     -20.550718      -559.2135
   1   2.0000     -20.548129      -559.1430
   2   2.0000     -11.282364      -307.0087
   3   2.0000     -11.272511      -306.7406
   4   2.0000     -11.265658      -306.5541
   5   2.0000     -11.219960      -305.3106
   6   2.0000     -11.218127      -305.2608
   7   2.0000     -11.217466      -305.2428
   8   2.0000     -11.217126      -305.2335
   9   2.0000      -1.373493       -37.3747
  10   2.0000      -1.351338       -36.7718
  11   2.0000      -1.077296       -29.3147
  12   2.0000      -1.037361       -28.2280
  13   2.0000      -0.975229       -26.5373
  14   2.0000      -0.918686       -24.9987
  15   2.0000      -0.854926       -23.2637
  16   2.0000      -0.807585       -21.9755
  17   2.0000      -0.793200       -21.5841
  18   2.0000      -0.689436       -18.7605
  19   2.0000      -0.679976       -18.5031
  20   2.0000      -0.652494       -17.7553
  21   2.0000      -0.632817       -17.2198
  22   2.0000      -0.611864       -16.6497
  23   2.0000      -0.592478       -16.1221
  24   2.0000      -0.583104       -15.8671
  25   2.0000      -0.556157       -15.1338
  26   2.0000      -0.550018       -14.9668
  27   2.0000      -0.544924       -14.8281
  28   2.0000      -0.523788       -14.2530
  29   2.0000      -0.522481       -14.2174
  30   2.0000      -0.501733       -13.6528
  31   2.0000      -0.482945       -13.1416
  32   2.0000      -0.470886       -12.8135
  33   2.0000      -0.466669       -12.6987
  34   2.0000      -0.461678       -12.5629
  35   2.0000      -0.439457       -11.9582
  36   2.0000      -0.410399       -11.1675
  37   0.0000       0.133763         3.6399
  38   0.0000       0.144014         3.9188
  39   0.0000       0.148792         4.0488
  40   0.0000       0.159719         4.3462
  41   0.0000       0.177690         4.8352

MULLIKEN ATOMIC CHARGES
-----------------------
   0 C :   -0.407669
   1 C :   -0.168214
   2 C :   -0.068513
   3 O :   -0.298022
   4 C :    0.045758
   5 C :   -0.390630
   6 C :   -0.201315
   7 C :   -0.032015
   8 O :   -0.474784
   9 H :    0.123734
  10 H :    0.138218
  11 H :    0.123553
  12 H :    0.111872
  13 H :    0.111829
  14 H :    0.087248
  15 H :    0.086750
  16 H :    0.071651
  17 H :    0.131507
  18 H :    0.132631
  19 H :    0.128799
  20 H :    0.116921
  21 H :    0.097494
  22 H :    0.120152
  23 H :    0.100428
  24 H :    0.312618
Sum of atomic charges:   -0.0000000

LOEWDIN ATOMIC CHARGES
----------------------
   0 C :   -0.320096
   1 C :   -0.295505
   2 C :   -0.331400
   3 O :    0.178969
   4 C :   -0.350408
   5 C :   -0.297085
   6 C :   -0.263242
   7 C :   -0.347014
   8 O :   -0.056033
   9 H :    0.120666
  10 H :    0.122822
  11 H :    0.120542
  12 H :    0.137232
  13 H :    0.136422
  14 H :    0.118135
  15 H :    0.117798
  16 H :    0.135480
  17 H :    0.126742
  18 H :    0.120719
  19 H :    0.126483
  20 H :    0.143309
  21 H :    0.138845
  22 H :    0.118294
  23 H :    0.126471
  24 H :    0.171854

  Mayer bond orders larger than 0.1
B(  0-C ,  1-C ) :   0.9141 B(  0-C ,  9-H ) :   0.9369 B(  0-C , 10-H ) :   0.9401
B(  0-C , 11-H ) :   0.9371 B(  1-C ,  2-C ) :   0.9564 B(  1-C , 12-H ) :   0.9302
B(  1-C , 13-H ) :   0.9320 B(  2-C ,  3-O ) :   0.9361 B(  2-C , 14-H ) :   0.9232
B(  2-C , 15-H ) :   0.9177 B(  3-O ,  4-C ) :   0.9118 B(  4-C ,  5-C ) :   0.9086
B(  4-C ,  6-C ) :   0.9136 B(  4-C , 16-H ) :   0.9355 B(  5-C , 17-H ) :   0.9337
B(  5-C , 18-H ) :   0.9379 B(  5-C , 19-H ) :   0.9345 B(  6-C ,  7-C ) :   0.9295
B(  6-C , 20-H ) :   0.9214 B(  6-C , 21-H ) :   0.9175 B(  7-C ,  8-O ) :   0.9215
B(  7-C , 22-H ) :   0.9433 B(  7-C , 23-H ) :   0.9213 B(  8-O , 24-H ) :   0.8494

MP2 TOTAL ENERGY:     -425.920102158 Eh
FINAL SINGLE POINT ENERGY      -425.920102158241

DIPOLE MOMENT
-------------
                                X             Y             Z
Electronic contribution:      4.13684      -6.41098      -1.43215
Nuclear contribution   :     -4.74452       6.86957       1.66785
                        -----------------------------------------
Total Dipole Moment    :     -0.60769       0.45858       0.23570
                        -----------------------------------------
Magnitude (a.u.)       :      0.79695
Magnitude (Debye)      :      2.02570

                             ****ORCA TERMINATED NORMALLY****
TOTAL RUN TIME: 0 days 0 hours 17 minutes 9 seconds 642 msec
