                         Program Version 3.0.3 - RELEASE   -
|  1> ! RI-MP2 RIJK def2-TZVP def2-TZVP/C def2-TZVP/JK TIGHTSCF
|  2> % maxcore 2000
|  3> % mp2 density relaxed end
|  4> *xyz 0 1
|  5>  O        0.1073605489     1.4431247383    -0.0994484993
|  6>  C       -0.0150196917     0.0647403153     0.0306743006
|  7>  C        0.2060752755    -0.6626718442     1.3800659707
|  8>  C       -0.7529438127    -0.1453391246     2.5021583254
|  9>  N       -1.6302464818     0.9448506813     1.9445878759
| 10>  C       -2.3347207155    -0.1315213913     1.1608797219
| 11>  C       -1.3897237068    -0.6487319607     0.0268972381
| 12>  N       -0.8095677854    -1.7368124563     0.9491304832
| 13>  C       -1.7392146924    -1.2588235715     2.0503919510
| 14>  H       -0.4745268286     1.8056925221     0.5905063386
| 15>  H        0.6219506804    -0.4054157220    -0.7253501774
| 16>  H        1.2018820539    -0.9839292089     1.6884984697
| 17>  H       -0.3543682475     0.0176135807     3.5027985115
| 18>  H       -2.2547782640     1.2599237762     2.6843482382
| 19>  H       -3.3853299314     0.0440914765     0.9326751470
| 20>  H       -1.8599715450    -0.9571828863    -0.9078183073
| 21>  H       -2.2773269955    -1.9708060045     2.6776549524
| 22> *
| 23>
| 24>                          ****END OF INPUT****

CARTESIAN COORDINATES (ANGSTROEM)
---------------------------------
  O      0.107361    1.443125   -0.099448
  C     -0.015020    0.064740    0.030674
  C      0.206075   -0.662672    1.380066
  C     -0.752944   -0.145339    2.502158
  N     -1.630246    0.944851    1.944588
  C     -2.334721   -0.131521    1.160880
  C     -1.389724   -0.648732    0.026897
  N     -0.809568   -1.736812    0.949130
  C     -1.739215   -1.258824    2.050392
  H     -0.474527    1.805693    0.590506
  H      0.621951   -0.405416   -0.725350
  H      1.201882   -0.983929    1.688498
  H     -0.354368    0.017614    3.502799
  H     -2.254778    1.259924    2.684348
  H     -3.385330    0.044091    0.932675
  H     -1.859972   -0.957183   -0.907818
  H     -2.277327   -1.970806    2.677655

 Total Charge           Charge          ....    0
 Multiplicity           Mult            ....    1
 Number of Electrons    NEL             ....   66
 Basis Dimension        Dim             ....  327

ORBITAL ENERGIES
----------------

  NO   OCC          E(Eh)            E(eV)
   0   2.0000     -20.540185      -558.9269
   1   2.0000     -15.569413      -423.6653
   2   2.0000     -15.553688      -423.2374
   3   2.0000     -11.282525      -307.0131
   4   2.0000     -11.278195      -306.8953
   5   2.0000     -11.278176      -306.8948
   6   2.0000     -11.269189      -306.6502
   7   2.0000     -11.263287      -306.4896
   8   2.0000     -11.263278      -306.4894
   9   2.0000      -1.363648       -37.1067
  10   2.0000      -1.315654       -35.8008
  11   2.0000      -1.192522       -32.4502
  12   2.0000      -1.001677       -27.2570
  13   2.0000      -0.997976       -27.1563
  14   2.0000      -0.907604       -24.6972
  15   2.0000      -0.819258       -22.2931
  16   2.0000      -0.818102       -22.2617
  17   2.0000      -0.743078       -20.2202
  18   2.0000      -0.705092       -19.1865
  19   2.0000      -0.653310       -17.7775
  20   2.0000      -0.642060       -17.4713
  21   2.0000      -0.632738       -17.2177
  22   2.0000      -0.608867       -16.5681
  23   2.0000      -0.569330       -15.4923
  24   2.0000      -0.558631       -15.2011
  25   2.0000      -0.553054       -15.0494
  26   2.0000      -0.526039       -14.3143
  27   2.0000      -0.491152       -13.3649
  28   2.0000      -0.442778       -12.0486
  29   2.0000      -0.415248       -11.2995
  30   2.0000      -0.410299       -11.1648
  31   2.0000      -0.390752       -10.6329
  32   2.0000      -0.369145       -10.0449
  33   0.0000       0.122037         3.3208
  34   0.0000       0.154728         4.2104
  35   0.0000       0.161895         4.4054
  36   0.0000       0.165215         4.4957
  37   0.0000       0.188896         5.1401

MULLIKEN ATOMIC CHARGES
-----------------------
   0 O :   -0.468710
   1 C :   -0.004550
   2 C :    0.000705
   3 C :   -0.045979
   4 N :   -0.427042
   5 C :   -0.045979
   6 C :    0.000705
   7 N :   -0.236546
   8 C :   -0.098324
   9 H :    0.346335
  10 H :    0.108851
  11 H :    0.128757
  12 H :    0.139756
  13 H :    0.206937
  14 H :    0.139755
  15 H :    0.128757
  16 H :    0.126571
Sum of atomic charges:    0.0000000

LOEWDIN ATOMIC CHARGES
----------------------
   0 O :   -0.007670
   1 C :   -0.319846
   2 C :   -0.170560
   3 C :   -0.201672
   4 N :   -0.011184
   5 C :   -0.201672
   6 C :   -0.170560
   7 N :    0.117391
   8 C :   -0.172590
   9 H :    0.171092
  10 H :    0.152315
  11 H :    0.131546
  12 H :    0.129755
  13 H :    0.167777
  14 H :    0.129755
  15 H :    0.131547
  16 H :    0.124576

  Mayer bond orders larger than 0.1
B(  0-O ,  1-C ) :   1.0332 B(  0-O ,  9-H ) :   0.7885 B(  1-C ,  2-C ) :   0.9215
B(  1-C ,  6-C ) :   0.9215 B(  1-C , 10-H ) :   0.9411 B(  2-C ,  3-C ) :   0.9036
B(  2-C ,  7-N ) :   0.9390 B(  2-C , 11-H ) :   0.8990 B(  3-C ,  4-N ) :   0.8623
B(  3-C ,  8-C ) :   0.9134 B(  3-C , 12-H ) :   0.9155 B(  4-N ,  5-C ) :   0.8623
B(  4-N , 13-H ) :   0.8679 B(  5-C ,  6-C ) :   0.9036 B(  5-C ,  8-C ) :   0.9134
B(  5-C , 14-H ) :   0.9155 B(  6-C ,  7-N ) :   0.9390 B(  6-C , 15-H ) :   0.8990
B(  7-N ,  8-C ) :   0.9551 B(  8-C , 16-H ) :   0.9131

MP2 TOTAL ENERGY:     -417.204927904 Eh
FINAL SINGLE POINT ENERGY      -417.204927904065

DIPOLE MOMENT
-------------
                                X             Y             Z
Electronic contribution:      0.48872      -0.30295      -0.57948
Nuclear contribution   :     -1.35474       0.27296       1.60046
                        -----------------------------------------
Total Dipole Moment    :     -0.86601      -0.02999       1.02098
                        -----------------------------------------
Magnitude (a.u.)       :      1.33914
Magnitude (Debye)      :      3.40382

                             ****ORCA TERMINATED NORMALLY****
TOTAL RUN TIME: 0 days 0 hours 19 minutes 6 seconds 721 msec
