                         Program Version 3.0.3 - RELEASE   -
|  1> ! RI-MP2 RIJK def2-TZVP def2-TZVP/C def2-TZVP/JK TIGHTSCF
|  2> % maxcore 2000
|  3> % mp2 density relaxed end
|  4> *xyz 0 1
|  5>  C       -0.4587777811     1.1124603103     0.1611286295
|  6>  O        0.4557418396     0.0659378907    -0.1403828024
|  7>  C        0.9536002329    -0.5659089956     0.9756658836
|  8>  C        0.1484743862    -1.7105392751     1.6377253838
|  9>  C       -1.1275286144    -2.0891022897     1.1177950004
| 10>  N       -2.1611058962    -2.3998844823     0.6972607464
| 11>  C        1.4433030663    -1.9571769418     0.8216890211
| 12>  C        1.3723059326    -2.6587031108    -0.5117246183
| 13>  O        2.5759420212    -2.2268298024     1.5915327425
| 14>  H        0.0177101713     1.8873673236     0.7779176568
| 15>  H       -0.7613178238     1.5477018906    -0.7926019930
| 16>  H       -1.3442987668     0.7300663053     0.6827467033
| 17>  H        1.4937017214     0.0655079252     1.6824499356
| 18>  H        0.2586503190    -1.7993737829     2.7130761404
| 19>  H        0.5014472883    -2.3374869050    -1.0836020225
| 20>  H        2.2734870136    -2.4320470550    -1.0885708937
| 21>  H        1.3114872687    -3.7439778053    -0.3718872552
| 22>  H        2.6119881812    -3.1779067898     1.7472514817
| 23> *
| 24>
| 25>                          ****END OF INPUT****

CARTESIAN COORDINATES (ANGSTROEM)
---------------------------------
  C     -0.458778    1.112460    0.161129
  O      0.455742    0.065938   -0.140383
  C      0.953600   -0.565909    0.975666
  C      0.148474   -1.710539    1.637725
  C     -1.127529   -2.089102    1.117795
  N     -2.161106   -2.399884    0.697261
  C      1.443303   -1.957177    0.821689
  C      1.372306   -2.658703   -0.511725
  O      2.575942   -2.226830    1.591533
  H      0.017710    1.887367    0.777918
  H     -0.761318    1.547702   -0.792602
  H     -1.344299    0.730066    0.682747
  H      1.493702    0.065508    1.682450
  H      0.258650   -1.799374    2.713076
  H      0.501447   -2.337487   -1.083602
  H      2.273487   -2.432047   -1.088571
  H      1.311487   -3.743978   -0.371887
  H      2.611988   -3.177907    1.747251

 Total Charge           Charge          ....    0
 Multiplicity           Mult            ....    1
 Number of Electrons    NEL             ....   68
 Basis Dimension        Dim             ....  333

ORBITAL ENERGIES
----------------

  NO   OCC          E(Eh)            E(eV)
   0   2.0000     -20.588774      -560.2490
   1   2.0000     -20.584909      -560.1439
   2   2.0000     -15.566442      -423.5844
   3   2.0000     -11.324796      -308.1634
   4   2.0000     -11.315903      -307.9214
   5   2.0000     -11.285084      -307.0828
   6   2.0000     -11.278389      -306.9006
   7   2.0000     -11.274590      -306.7972
   8   2.0000     -11.234953      -305.7186
   9   2.0000      -1.416657       -38.5492
  10   2.0000      -1.398070       -38.0434
  11   2.0000      -1.217976       -33.1428
  12   2.0000      -1.154471       -31.4148
  13   2.0000      -0.995912       -27.1001
  14   2.0000      -0.961829       -26.1727
  15   2.0000      -0.900146       -24.4942
  16   2.0000      -0.801542       -21.8111
  17   2.0000      -0.740464       -20.1490
  18   2.0000      -0.722254       -19.6535
  19   2.0000      -0.680020       -18.5043
  20   2.0000      -0.660225       -17.9656
  21   2.0000      -0.642702       -17.4888
  22   2.0000      -0.620713       -16.8905
  23   2.0000      -0.597188       -16.2503
  24   2.0000      -0.571228       -15.5439
  25   2.0000      -0.565050       -15.3758
  26   2.0000      -0.551177       -14.9983
  27   2.0000      -0.534167       -14.5354
  28   2.0000      -0.520798       -14.1716
  29   2.0000      -0.497939       -13.5496
  30   2.0000      -0.479968       -13.0606
  31   2.0000      -0.472483       -12.8569
  32   2.0000      -0.421471       -11.4688
  33   2.0000      -0.390806       -10.6344
  34   0.0000       0.121761         3.3133
  35   0.0000       0.140988         3.8365
  36   0.0000       0.161435         4.3929
  37   0.0000       0.168571         4.5870
  38   0.0000       0.172367         4.6903

MULLIKEN ATOMIC CHARGES
-----------------------
   0 C :   -0.222718
   1 O :   -0.298238
   2 C :    0.052889
   3 C :   -0.079792
   4 C :   -0.207520
   5 N :   -0.060500
   6 C :    0.185979
   7 C :   -0.397763
   8 O :   -0.444499
   9 H :    0.120046
  10 H :    0.147816
  11 H :    0.138858
  12 H :    0.128603
  13 H :    0.162201
  14 H :    0.164301
  15 H :    0.151580
  16 H :    0.132199
  17 H :    0.326558
Sum of atomic charges:    0.0000000

LOEWDIN ATOMIC CHARGES
----------------------
   0 C :   -0.326932
   1 O :    0.191055
   2 C :   -0.252337
   3 C :   -0.171375
   4 C :   -0.190070
   5 N :    0.057868
   6 C :   -0.342208
   7 C :   -0.259204
   8 O :    0.040724
   9 H :    0.105920
  10 H :    0.117556
  11 H :    0.111687
  12 H :    0.147814
  13 H :    0.171573
  14 H :    0.143789
  15 H :    0.136904
  16 H :    0.130657
  17 H :    0.186580

  Mayer bond orders larger than 0.1
B(  0-C ,  1-O ) :   0.8752 B(  0-C ,  9-H ) :   0.9342 B(  0-C , 10-H ) :   0.9391
B(  0-C , 11-H ) :   0.9334 B(  1-O ,  2-C ) :   1.0339 B(  2-C ,  3-C ) :   0.8288
B(  2-C ,  6-C ) :   0.8775 B(  2-C , 12-H ) :   0.9278 B(  3-C ,  4-C ) :   0.9555
B(  3-C ,  6-C ) :   0.7811 B(  3-C , 13-H ) :   0.9087 B(  4-C ,  5-N ) :   2.8370
B(  6-C ,  7-C ) :   0.9625 B(  6-C ,  8-O ) :   1.0151 B(  7-C , 14-H ) :   0.9164
B(  7-C , 15-H ) :   0.9336 B(  7-C , 16-H ) :   0.9190 B(  8-O , 17-H ) :   0.8360

MP2 TOTAL ENERGY:     -438.352423071 Eh
FINAL SINGLE POINT ENERGY      -438.352423070609

DIPOLE MOMENT
-------------
                                X             Y             Z
Electronic contribution:     -1.51437      -2.47984       2.29124
Nuclear contribution   :      2.49144       2.73957      -1.82395
                        -----------------------------------------
Total Dipole Moment    :      0.97707       0.25973       0.46730
                        -----------------------------------------
Magnitude (a.u.)       :      1.11377
Magnitude (Debye)      :      2.83099

                             ****ORCA TERMINATED NORMALLY****
TOTAL RUN TIME: 0 days 0 hours 17 minutes 0 seconds 500 msec
