                         Program Version 3.0.3 - RELEASE   -
|  1> ! RI-MP2 RIJK def2-TZVP def2-TZVP/C def2-TZVP/JK TIGHTSCF
|  2> % maxcore 2000
|  3> % mp2 density relaxed end
|  4> *xyz 0 1
|  5>  C       -0.3904234165     1.3072061416     0.0194035271
|  6>  N       -0.2664037515    -0.1408136494    -0.0933370737
|  7>  C        1.1295248149    -0.5466526855    -0.2371645347
|  8>  C       -0.9232227313    -0.8447881223     1.0061442200
|  9>  C       -1.2275812525    -2.2968753789     0.6663985687
| 10>  N       -1.1744616848    -3.1970022462     1.5572501235
| 11>  N       -1.6019682421    -2.4471687993    -0.6829160432
| 12>  C       -2.0054627868    -3.5978374910    -1.3041122173
| 13>  O       -2.1455961371    -4.6782843091    -0.7736675755
| 14>  H        0.0513153216     1.7818836797    -0.8621355513
| 15>  H       -1.4465468598     1.5885958833     0.0658698498
| 16>  H        0.1145914235     1.7154419019     0.9131102143
| 17>  H        1.7441659777    -0.2610402647     0.6349083209
| 18>  H        1.1944511012    -1.6320420278    -0.3527858446
| 19>  H        1.5600767434    -0.0798296032    -1.1279604968
| 20>  H       -0.3498068299    -0.8369196536     1.9452568430
| 21>  H       -1.8790259374    -0.3433258349     1.2027280866
| 22>  H       -1.4665194685    -4.0970876616     1.1737006189
| 23>  H       -1.4607986407    -1.6098350972    -1.2380594393
| 24>  H       -2.2019616934    -3.4304577419    -2.3808876963
| 25> *
| 26>
| 27>                          ****END OF INPUT****

CARTESIAN COORDINATES (ANGSTROEM)
---------------------------------
  C     -0.390423    1.307206    0.019404
  N     -0.266404   -0.140814   -0.093337
  C      1.129525   -0.546653   -0.237165
  C     -0.923223   -0.844788    1.006144
  C     -1.227581   -2.296875    0.666399
  N     -1.174462   -3.197002    1.557250
  N     -1.601968   -2.447169   -0.682916
  C     -2.005463   -3.597837   -1.304112
  O     -2.145596   -4.678284   -0.773668
  H      0.051315    1.781884   -0.862136
  H     -1.446547    1.588596    0.065870
  H      0.114591    1.715442    0.913110
  H      1.744166   -0.261040    0.634908
  H      1.194451   -1.632042   -0.352786
  H      1.560077   -0.079830   -1.127960
  H     -0.349807   -0.836920    1.945257
  H     -1.879026   -0.343326    1.202728
  H     -1.466519   -4.097088    1.173701
  H     -1.460799   -1.609835   -1.238059
  H     -2.201962   -3.430458   -2.380888

 Total Charge           Charge          ....    0
 Multiplicity           Mult            ....    1
 Number of Electrons    NEL             ....   70
 Basis Dimension        Dim             ....  345

ORBITAL ENERGIES
----------------

  NO   OCC          E(Eh)            E(eV)
   0   2.0000     -20.545767      -559.0788
   1   2.0000     -15.609170      -424.7471
   2   2.0000     -15.574427      -423.8017
   3   2.0000     -15.532031      -422.6480
   4   2.0000     -11.369179      -309.3711
   5   2.0000     -11.322180      -308.0922
   6   2.0000     -11.271599      -306.7158
   7   2.0000     -11.262623      -306.4716
   8   2.0000     -11.259829      -306.3955
   9   2.0000      -1.405277       -38.2395
  10   2.0000      -1.289083       -35.0777
  11   2.0000      -1.241530       -33.7838
  12   2.0000      -1.175487       -31.9866
  13   2.0000      -1.000863       -27.2349
  14   2.0000      -0.970387       -26.4056
  15   2.0000      -0.893723       -24.3194
  16   2.0000      -0.840350       -22.8671
  17   2.0000      -0.766717       -20.8634
  18   2.0000      -0.749917       -20.4063
  19   2.0000      -0.689895       -18.7730
  20   2.0000      -0.664571       -18.0839
  21   2.0000      -0.651588       -17.7306
  22   2.0000      -0.637049       -17.3350
  23   2.0000      -0.626176       -17.0391
  24   2.0000      -0.602858       -16.4046
  25   2.0000      -0.568916       -15.4810
  26   2.0000      -0.565125       -15.3778
  27   2.0000      -0.543970       -14.8022
  28   2.0000      -0.531274       -14.4567
  29   2.0000      -0.526904       -14.3378
  30   2.0000      -0.478307       -13.0154
  31   2.0000      -0.472208       -12.8494
  32   2.0000      -0.414813       -11.2876
  33   2.0000      -0.386736       -10.5236
  34   2.0000      -0.383990       -10.4489
  35   0.0000       0.118806         3.2329
  36   0.0000       0.126986         3.4555
  37   0.0000       0.148180         4.0322
  38   0.0000       0.168595         4.5877
  39   0.0000       0.174006         4.7349

MULLIKEN ATOMIC CHARGES
-----------------------
   0 C :   -0.309254
   1 N :   -0.232780
   2 C :   -0.317068
   3 C :   -0.083050
   4 C :    0.047909
   5 N :   -0.338733
   6 N :   -0.279854
   7 C :    0.206215
   8 O :   -0.357628
   9 H :    0.137383
  10 H :    0.136932
  11 H :    0.117349
  12 H :    0.121998
  13 H :    0.151401
  14 H :    0.136712
  15 H :    0.124445
  16 H :    0.139273
  17 H :    0.246337
  18 H :    0.255081
  19 H :    0.097331
Sum of atomic charges:    0.0000000

LOEWDIN ATOMIC CHARGES
----------------------
   0 C :   -0.328256
   1 N :    0.021848
   2 C :   -0.322036
   3 C :   -0.250128
   4 C :   -0.358874
   5 N :   -0.027001
   6 N :    0.124984
   7 C :   -0.403709
   8 O :    0.075647
   9 H :    0.119206
  10 H :    0.118357
  11 H :    0.107629
  12 H :    0.109779
  13 H :    0.124080
  14 H :    0.118875
  15 H :    0.140887
  16 H :    0.148714
  17 H :    0.167747
  18 H :    0.197107
  19 H :    0.115144

  Mayer bond orders larger than 0.1
B(  0-C ,  1-N ) :   0.9118 B(  0-C ,  9-H ) :   0.9378 B(  0-C , 10-H ) :   0.9383
B(  0-C , 11-H ) :   0.9291 B(  1-N ,  2-C ) :   0.8858 B(  1-N ,  3-C ) :   0.8908
B(  2-C , 12-H ) :   0.9267 B(  2-C , 13-H ) :   0.9323 B(  2-C , 14-H ) :   0.9383
B(  3-C ,  4-C ) :   0.9160 B(  3-C , 15-H ) :   0.9110 B(  3-C , 16-H ) :   0.9221
B(  4-C ,  5-N ) :   2.1080 B(  4-C ,  6-N ) :   0.9473 B(  5-N , 17-H ) :   0.8493
B(  6-N ,  7-C ) :   1.1044 B(  6-N , 18-H ) :   0.8308 B(  7-C ,  8-O ) :   1.8578
B(  7-C , 19-H ) :   0.9301

MP2 TOTAL ENERGY:     -435.763484465 Eh
FINAL SINGLE POINT ENERGY      -435.763484464652

DIPOLE MOMENT
-------------
                                X             Y             Z
Electronic contribution:     -5.51825     -10.24146      -0.89016
Nuclear contribution   :      5.85784      11.96916      -0.05940
                        -----------------------------------------
Total Dipole Moment    :      0.33959       1.72770      -0.94957
                        -----------------------------------------
Magnitude (a.u.)       :      2.00049
Magnitude (Debye)      :      5.08484

                             ****ORCA TERMINATED NORMALLY****
TOTAL RUN TIME: 0 days 0 hours 17 minutes 54 seconds 745 msec
