                         Program Version 3.0.3 - RELEASE   -
|  1> ! RI-MP2 RIJK def2-TZVP def2-TZVP/C def2-TZVP/JK TIGHTSCF
|  2> % maxcore 2000
|  3> % mp2 density relaxed end
|  4> *xyz 0 1
|  5>  O        0.1028252807     0.0722700976    -0.6215680744
|  6>  C        0.0417556770     1.1625592013    -0.1414723555
|  7>  C       -1.1218538174     2.0553108328     0.3428840896
|  8>  C       -0.0532945965     3.0366352149     0.8443407057
|  9>  C        1.1049198439     2.2095288607     0.2663091377
| 10>  O       -0.1568337418     4.4396032543     0.7275247943
| 11>  C       -0.0671709258     3.8858275869     2.0486148933
| 12>  C       -1.2561793443     3.9698024065     2.8682136302
| 13>  N       -2.1990924266     4.0096288681     3.5353468398
| 14>  H       -1.7310300682     2.4555134069    -0.4740356836
| 15>  H       -1.7838534050     1.6133539705     1.0924794273
| 16>  H        1.8737153057     1.8596958578     0.9600759110
| 17>  H        1.5896924229     2.6865042257    -0.5919332814
| 18>  H        0.8640871653     4.0888753559     2.5735982761
| 19> *
| 20>
| 21>                          ****END OF INPUT****

CARTESIAN COORDINATES (ANGSTROEM)
---------------------------------
  O      0.102825    0.072270   -0.621568
  C      0.041756    1.162559   -0.141472
  C     -1.121854    2.055311    0.342884
  C     -0.053295    3.036635    0.844341
  C      1.104920    2.209529    0.266309
  O     -0.156834    4.439603    0.727525
  C     -0.067171    3.885828    2.048615
  C     -1.256179    3.969802    2.868214
  N     -2.199092    4.009629    3.535347
  H     -1.731030    2.455513   -0.474036
  H     -1.783853    1.613354    1.092479
  H      1.873715    1.859696    0.960076
  H      1.589692    2.686504   -0.591933
  H      0.864087    4.088875    2.573598

 Total Charge           Charge          ....    0
 Multiplicity           Mult            ....    1
 Number of Electrons    NEL             ....   64
 Basis Dimension        Dim             ....  309

ORBITAL ENERGIES
----------------

  NO   OCC          E(Eh)            E(eV)
   0   2.0000     -20.624399      -561.2184
   1   2.0000     -20.578886      -559.9799
   2   2.0000     -15.599414      -424.4816
   3   2.0000     -11.362185      -309.1808
   4   2.0000     -11.361734      -309.1685
   5   2.0000     -11.350037      -308.8502
   6   2.0000     -11.297362      -307.4168
   7   2.0000     -11.275376      -306.8186
   8   2.0000     -11.272274      -306.7342
   9   2.0000      -1.473451       -40.0946
  10   2.0000      -1.422610       -38.7112
  11   2.0000      -1.241848       -33.7924
  12   2.0000      -1.160150       -31.5693
  13   2.0000      -1.013193       -27.5704
  14   2.0000      -0.973946       -26.5024
  15   2.0000      -0.863409       -23.4945
  16   2.0000      -0.770801       -20.9746
  17   2.0000      -0.758115       -20.6293
  18   2.0000      -0.726154       -19.7597
  19   2.0000      -0.683640       -18.6028
  20   2.0000      -0.656754       -17.8712
  21   2.0000      -0.645857       -17.5747
  22   2.0000      -0.601951       -16.3799
  23   2.0000      -0.594070       -16.1655
  24   2.0000      -0.577169       -15.7056
  25   2.0000      -0.561450       -15.2778
  26   2.0000      -0.549914       -14.9639
  27   2.0000      -0.517626       -14.0853
  28   2.0000      -0.492090       -13.3905
  29   2.0000      -0.484598       -13.1866
  30   2.0000      -0.453358       -12.3365
  31   2.0000      -0.425225       -11.5710
  32   0.0000       0.095722         2.6047
  33   0.0000       0.117992         3.2107
  34   0.0000       0.128957         3.5091
  35   0.0000       0.141346         3.8462
  36   0.0000       0.154699         4.2096

MULLIKEN ATOMIC CHARGES
-----------------------
   0 O :   -0.231592
   1 C :    0.124272
   2 C :   -0.206959
   3 C :    0.119806
   4 C :   -0.208134
   5 O :   -0.293714
   6 C :    0.107527
   7 C :   -0.170337
   8 N :   -0.048126
   9 H :    0.159044
  10 H :    0.169006
  11 H :    0.155385
  12 H :    0.157183
  13 H :    0.166638
Sum of atomic charges:   -0.0000000

LOEWDIN ATOMIC CHARGES
----------------------
   0 O :    0.179191
   1 C :   -0.296867
   2 C :   -0.159001
   3 C :   -0.272256
   4 C :   -0.163062
   5 O :    0.223938
   6 C :   -0.229487
   7 C :   -0.161438
   8 N :    0.088371
   9 H :    0.161177
  10 H :    0.156404
  11 H :    0.150695
  12 H :    0.159787
  13 H :    0.162548

  Mayer bond orders larger than 0.1
B(  0-O ,  1-C ) :   2.0423 B(  1-C ,  2-C ) :   0.8954 B(  1-C ,  4-C ) :   0.8851
B(  2-C ,  3-C ) :   0.9420 B(  2-C ,  4-C ) :  -0.1282 B(  2-C ,  9-H ) :   0.8882
B(  2-C , 10-H ) :   0.8915 B(  3-C ,  4-C ) :   0.9214 B(  3-C ,  5-O ) :   0.9166
B(  3-C ,  6-C ) :   0.9250 B(  4-C , 11-H ) :   0.8967 B(  4-C , 12-H ) :   0.8858
B(  5-O ,  6-C ) :   0.9119 B(  6-C ,  7-C ) :   0.9168 B(  6-C , 13-H ) :   0.9076
B(  7-C ,  8-N ) :   2.8148

MP2 TOTAL ENERGY:     -435.942365594 Eh
FINAL SINGLE POINT ENERGY      -435.942365593758

DIPOLE MOMENT
-------------
                                X             Y             Z
Electronic contribution:     -1.48598       1.07490       1.44299
Nuclear contribution   :      2.55693      -0.93586      -1.61467
                        -----------------------------------------
Total Dipole Moment    :      1.07095       0.13903      -0.17168
                        -----------------------------------------
Magnitude (a.u.)       :      1.09350
Magnitude (Debye)      :      2.77945

                             ****ORCA TERMINATED NORMALLY****
TOTAL RUN TIME: 0 days 0 hours 12 minutes 49 seconds 928 msec
