                         Program Version 3.0.3 - RELEASE   -
|  1> ! RI-MP2 RIJK def2-TZVP def2-TZVP/C def2-TZVP/JK TIGHTSCF
|  2> % maxcore 2000
|  3> % mp2 density relaxed end
|  4> *xyz 0 1
|  5>  C       -0.0679910963     1.5304870014     0.0022673168
|  6>  C       -0.0181414537    -0.0061369940     0.0001162918
|  7>  C       -1.3320669143    -0.5763726266    -0.2454507579
|  8>  C       -2.4116710029    -1.0674229553    -0.4473194106
|  9>  C        1.1461030761    -0.5705404341    -0.8880760885
| 10>  O        1.5278008642     0.2875671391    -1.9329000207
| 11>  C        2.0440673816    -0.6683384808     0.3740581723
| 12>  C        0.7559175962    -0.5861965593     1.2359274168
| 13>  O        0.7391799065     0.2559382552     2.3603181168
| 14>  H        0.9180693363     1.9600486446     0.1865059564
| 15>  H       -0.4246493823     1.8888660015    -0.9651136312
| 16>  H       -0.7460061214     1.8760025216     0.7848155403
| 17>  H       -3.3681221970    -1.4921599790    -0.6264208313
| 18>  H        0.8781809340    -1.5650259793    -1.2661208969
| 19>  H        2.2010248757    -0.1548381153    -2.4587882768
| 20>  H        2.6826148720    -1.5479894368     0.4848581490
| 21>  H        2.6415104306     0.2392697981     0.4905482733
| 22>  H        0.3737385125    -1.5852536980     1.4798899834
| 23>  H        1.1825741423    -0.1957465829     3.0848145469
| 24> *
| 25>
| 26>                          ****END OF INPUT****

CARTESIAN COORDINATES (ANGSTROEM)
---------------------------------
  C     -0.067991    1.530487    0.002267
  C     -0.018141   -0.006137    0.000116
  C     -1.332067   -0.576373   -0.245451
  C     -2.411671   -1.067423   -0.447319
  C      1.146103   -0.570540   -0.888076
  O      1.527801    0.287567   -1.932900
  C      2.044067   -0.668338    0.374058
  C      0.755918   -0.586197    1.235927
  O      0.739180    0.255938    2.360318
  H      0.918069    1.960049    0.186506
  H     -0.424649    1.888866   -0.965114
  H     -0.746006    1.876003    0.784816
  H     -3.368122   -1.492160   -0.626421
  H      0.878181   -1.565026   -1.266121
  H      2.201025   -0.154838   -2.458788
  H      2.682615   -1.547989    0.484858
  H      2.641510    0.239270    0.490548
  H      0.373739   -1.585254    1.479890
  H      1.182574   -0.195747    3.084815

 Total Charge           Charge          ....    0
 Multiplicity           Mult            ....    1
 Number of Electrons    NEL             ....   68
 Basis Dimension        Dim             ....  339

ORBITAL ENERGIES
----------------

  NO   OCC          E(Eh)            E(eV)
   0   2.0000     -20.563403      -559.5586
   1   2.0000     -20.563401      -559.5586
   2   2.0000     -11.290598      -307.2328
   3   2.0000     -11.290589      -307.2325
   4   2.0000     -11.256801      -306.3131
   5   2.0000     -11.226426      -305.4866
   6   2.0000     -11.225668      -305.4660
   7   2.0000     -11.216105      -305.2057
   8   2.0000     -11.208789      -305.0066
   9   2.0000      -1.375456       -37.4281
  10   2.0000      -1.369577       -37.2681
  11   2.0000      -1.141529       -31.0626
  12   2.0000      -1.029310       -28.0090
  13   2.0000      -0.974251       -26.5107
  14   2.0000      -0.881689       -23.9920
  15   2.0000      -0.876553       -23.8522
  16   2.0000      -0.777014       -21.1436
  17   2.0000      -0.723960       -19.6999
  18   2.0000      -0.707750       -19.2589
  19   2.0000      -0.698027       -18.9943
  20   2.0000      -0.676409       -18.4060
  21   2.0000      -0.615276       -16.7425
  22   2.0000      -0.596355       -16.2276
  23   2.0000      -0.571688       -15.5564
  24   2.0000      -0.555342       -15.1116
  25   2.0000      -0.550301       -14.9745
  26   2.0000      -0.527372       -14.3505
  27   2.0000      -0.526071       -14.3151
  28   2.0000      -0.471863       -12.8400
  29   2.0000      -0.468982       -12.7616
  30   2.0000      -0.448271       -12.1981
  31   2.0000      -0.420591       -11.4449
  32   2.0000      -0.375753       -10.2248
  33   2.0000      -0.374466       -10.1897
  34   0.0000       0.125639         3.4188
  35   0.0000       0.139251         3.7892
  36   0.0000       0.158599         4.3157
  37   0.0000       0.168586         4.5874
  38   0.0000       0.175628         4.7791

MULLIKEN ATOMIC CHARGES
-----------------------
   0 C :   -0.386003
   1 C :    0.133715
   2 C :   -0.084920
   3 C :   -0.157924
   4 C :   -0.072722
   5 O :   -0.445348
   6 C :   -0.143690
   7 C :   -0.072719
   8 O :   -0.445351
   9 H :    0.131228
  10 H :    0.143830
  11 H :    0.143833
  12 H :    0.188132
  13 H :    0.098995
  14 H :    0.317345
  15 H :    0.127517
  16 H :    0.107737
  17 H :    0.099000
  18 H :    0.317346
Sum of atomic charges:    0.0000000

LOEWDIN ATOMIC CHARGES
----------------------
   0 C :   -0.239554
   1 C :   -0.229373
   2 C :   -0.068081
   3 C :   -0.098824
   4 C :   -0.279758
   5 O :   -0.003465
   6 C :   -0.218870
   7 C :   -0.279750
   8 O :   -0.003473
   9 H :    0.130815
  10 H :    0.133527
  11 H :    0.133527
  12 H :    0.125754
  13 H :    0.137222
  14 H :    0.178307
  15 H :    0.122730
  16 H :    0.143738
  17 H :    0.137222
  18 H :    0.178306

  Mayer bond orders larger than 0.1
B(  0-C ,  1-C ) :   0.9163 B(  0-C ,  9-H ) :   0.9174 B(  0-C , 10-H ) :   0.9330
B(  0-C , 11-H ) :   0.9330 B(  1-C ,  2-C ) :   1.2246 B(  1-C ,  3-C ) :  -0.1123
B(  1-C ,  4-C ) :   0.8103 B(  1-C ,  7-C ) :   0.8103 B(  2-C ,  3-C ) :   2.5685
B(  3-C , 12-H ) :   0.8808 B(  4-C ,  5-O ) :   1.1140 B(  4-C ,  6-C ) :   0.8946
B(  4-C , 13-H ) :   0.9622 B(  5-O , 14-H ) :   0.8426 B(  6-C ,  7-C ) :   0.8946
B(  6-C , 15-H ) :   0.9149 B(  6-C , 16-H ) :   0.8831 B(  7-C ,  8-O ) :   1.1140
B(  7-C , 17-H ) :   0.9622 B(  8-O , 18-H ) :   0.8426

MP2 TOTAL ENERGY:     -422.272590689 Eh
FINAL SINGLE POINT ENERGY      -422.272590689233

DIPOLE MOMENT
-------------
                                X             Y             Z
Electronic contribution:     -1.91657      -1.52143      -0.36319
Nuclear contribution   :      2.69400       0.60391       0.49918
                        -----------------------------------------
Total Dipole Moment    :      0.77744      -0.91752       0.13599
                        -----------------------------------------
Magnitude (a.u.)       :      1.21026
Magnitude (Debye)      :      3.07625

                             ****ORCA TERMINATED NORMALLY****
TOTAL RUN TIME: 0 days 0 hours 19 minutes 13 seconds 310 msec
