                         Program Version 3.0.3 - RELEASE   -
|  1> ! RI-MP2 RIJK def2-TZVP def2-TZVP/C def2-TZVP/JK TIGHTSCF
|  2> % maxcore 2000
|  3> % mp2 density relaxed end
|  4> *xyz 0 1
|  5>  C        0.2830390222     1.4710697908    -0.3499585921
|  6>  C        0.0573047217     0.0319728081     0.0383028089
|  7>  O        1.2129365931    -0.7873754648     0.2527771153
|  8>  C        0.3382574290    -0.5448594568     1.3645041044
|  9>  C        0.9099799658     0.2033052921     2.5443378078
| 10>  C        1.8647265735    -0.6718150855     3.3697394104
| 11>  C        2.4544633849     0.0620262659     4.5767044240
| 12>  C        3.4040445824    -0.8053596140     5.3922958966
| 13>  O        3.8840797186    -0.0284791605     6.4798689891
| 14>  H        1.0604664752     1.9411331706     0.2548364518
| 15>  H        0.5889242059     1.5331066362    -1.3996713090
| 16>  H       -0.6433513342     2.0452467099    -0.2382925411
| 17>  H       -0.7192679479    -0.4666487044    -0.5472022688
| 18>  H       -0.2500990307    -1.4234919612     1.6445867793
| 19>  H        1.4405148370     1.0973373260     2.2030758805
| 20>  H        0.0804489231     0.5457648569     3.1781905615
| 21>  H        1.3304951996    -1.5701670924     3.7087756036
| 22>  H        2.6706195090    -1.0232117442     2.7133534965
| 23>  H        2.9983199387     0.9558383260     4.2469614012
| 24>  H        1.6515360416     0.4126452807     5.2372904790
| 25>  H        2.8730507273    -1.7038354596     5.7483152093
| 26>  H        4.2326461510    -1.1512014811     4.7525780662
| 27>  H        4.4919820634    -0.5703588186     6.9909798356
| 28> *
| 29>
| 30>                          ****END OF INPUT****

CARTESIAN COORDINATES (ANGSTROEM)
---------------------------------
  C      0.283039    1.471070   -0.349959
  C      0.057305    0.031973    0.038303
  O      1.212937   -0.787375    0.252777
  C      0.338257   -0.544859    1.364504
  C      0.909980    0.203305    2.544338
  C      1.864727   -0.671815    3.369739
  C      2.454463    0.062026    4.576704
  C      3.404045   -0.805360    5.392296
  O      3.884080   -0.028479    6.479869
  H      1.060466    1.941133    0.254836
  H      0.588924    1.533107   -1.399671
  H     -0.643351    2.045247   -0.238293
  H     -0.719268   -0.466649   -0.547202
  H     -0.250099   -1.423492    1.644587
  H      1.440515    1.097337    2.203076
  H      0.080449    0.545765    3.178191
  H      1.330495   -1.570167    3.708776
  H      2.670620   -1.023212    2.713353
  H      2.998320    0.955838    4.246961
  H      1.651536    0.412645    5.237290
  H      2.873051   -1.703835    5.748315
  H      4.232646   -1.151201    4.752578
  H      4.491982   -0.570359    6.990980

 Total Charge           Charge          ....    0
 Multiplicity           Mult            ....    1
 Number of Electrons    NEL             ....   72
 Basis Dimension        Dim             ....  363

ORBITAL ENERGIES
----------------

  NO   OCC          E(Eh)            E(eV)
   0   2.0000     -20.557477      -559.3974
   1   2.0000     -20.553105      -559.2784
   2   2.0000     -11.283511      -307.0400
   3   2.0000     -11.280557      -306.9596
   4   2.0000     -11.273048      -306.7552
   5   2.0000     -11.227291      -305.5101
   6   2.0000     -11.223958      -305.4194
   7   2.0000     -11.222527      -305.3805
   8   2.0000     -11.217114      -305.2332
   9   2.0000      -1.401901       -38.1477
  10   2.0000      -1.356914       -36.9235
  11   2.0000      -1.080387       -29.3988
  12   2.0000      -1.011545       -27.5255
  13   2.0000      -0.999752       -27.2046
  14   2.0000      -0.901814       -24.5396
  15   2.0000      -0.846656       -23.0387
  16   2.0000      -0.798518       -21.7288
  17   2.0000      -0.775154       -21.0930
  18   2.0000      -0.698512       -19.0075
  19   2.0000      -0.688245       -18.7281
  20   2.0000      -0.658574       -17.9207
  21   2.0000      -0.626805       -17.0562
  22   2.0000      -0.612103       -16.6562
  23   2.0000      -0.583043       -15.8654
  24   2.0000      -0.580310       -15.7910
  25   2.0000      -0.563532       -15.3345
  26   2.0000      -0.536609       -14.6019
  27   2.0000      -0.524190       -14.2639
  28   2.0000      -0.520311       -14.1584
  29   2.0000      -0.498216       -13.5571
  30   2.0000      -0.480987       -13.0883
  31   2.0000      -0.474903       -12.9228
  32   2.0000      -0.471746       -12.8369
  33   2.0000      -0.441428       -12.0119
  34   2.0000      -0.436873       -11.8879
  35   2.0000      -0.413237       -11.2447
  36   0.0000       0.136383         3.7112
  37   0.0000       0.143515         3.9052
  38   0.0000       0.155309         4.2262
  39   0.0000       0.160814         4.3760
  40   0.0000       0.175140         4.7658

MULLIKEN ATOMIC CHARGES
-----------------------
   0 C :   -0.381032
   1 C :    0.053624
   2 O :   -0.349693
   3 C :    0.055729
   4 C :   -0.220803
   5 C :   -0.274857
   6 C :   -0.153858
   7 C :   -0.062044
   8 O :   -0.466174
   9 H :    0.131865
  10 H :    0.140047
  11 H :    0.127601
  12 H :    0.104118
  13 H :    0.113841
  14 H :    0.115022
  15 H :    0.112259
  16 H :    0.107293
  17 H :    0.128957
  18 H :    0.112329
  19 H :    0.107848
  20 H :    0.090031
  21 H :    0.093295
  22 H :    0.314601
Sum of atomic charges:    0.0000000

LOEWDIN ATOMIC CHARGES
----------------------
   0 C :   -0.296159
   1 C :   -0.294693
   2 O :    0.151829
   3 C :   -0.272325
   4 C :   -0.251113
   5 C :   -0.262099
   6 C :   -0.272573
   7 C :   -0.353635
   8 O :   -0.053805
   9 H :    0.125421
  10 H :    0.129979
  11 H :    0.130073
  12 H :    0.135257
  13 H :    0.137797
  14 H :    0.142284
  15 H :    0.145131
  16 H :    0.137034
  17 H :    0.143013
  18 H :    0.140190
  19 H :    0.139244
  20 H :    0.113449
  21 H :    0.114463
  22 H :    0.171240

  Mayer bond orders larger than 0.1
B(  0-C ,  1-C ) :   0.8875 B(  0-C ,  9-H ) :   0.9425 B(  0-C , 10-H ) :   0.9356
B(  0-C , 11-H ) :   0.9253 B(  1-C ,  2-O ) :   0.9095 B(  1-C ,  3-C ) :   0.9871
B(  1-C , 12-H ) :   0.9211 B(  2-O ,  3-C ) :   0.8559 B(  3-C ,  4-C ) :   0.9161
B(  3-C , 13-H ) :   0.9092 B(  4-C ,  5-C ) :   0.9409 B(  4-C , 14-H ) :   0.9395
B(  4-C , 15-H ) :   0.9247 B(  5-C ,  6-C ) :   0.9211 B(  5-C , 16-H ) :   0.9278
B(  5-C , 17-H ) :   0.9236 B(  6-C ,  7-C ) :   0.9409 B(  6-C , 18-H ) :   0.9237
B(  6-C , 19-H ) :   0.9243 B(  7-C ,  8-O ) :   1.0201 B(  7-C , 20-H ) :   0.9324
B(  7-C , 21-H ) :   0.9330 B(  8-O , 22-H ) :   0.8498

MP2 TOTAL ENERGY:     -424.703485546 Eh
FINAL SINGLE POINT ENERGY      -424.703485546103

DIPOLE MOMENT
-------------
                                X             Y             Z
Electronic contribution:      0.88073      -2.30655      -0.65509
Nuclear contribution   :     -1.24414       2.13614       0.82936
                        -----------------------------------------
Total Dipole Moment    :     -0.36341      -0.17040       0.17427
                        -----------------------------------------
Magnitude (a.u.)       :      0.43758
Magnitude (Debye)      :      1.11223

                             ****ORCA TERMINATED NORMALLY****
TOTAL RUN TIME: 0 days 0 hours 15 minutes 9 seconds 858 msec
