                         Program Version 3.0.3 - RELEASE   -
|  1> ! RI-MP2 RIJK def2-TZVP def2-TZVP/C def2-TZVP/JK TIGHTSCF
|  2> % maxcore 2000
|  3> % mp2 density relaxed end
|  4> *xyz 0 1
|  5>  C       -0.1978865340     1.5669533166    -0.0666607902
|  6>  C        0.1718269005     0.0829307117    -0.0064251997
|  7>  N        0.7837923168    -0.4027949590    -1.2254448861
|  8>  C        0.2591239985    -0.5917599195    -2.5800265653
|  9>  C        1.6538112032    -1.1794951586    -2.9702359865
| 10>  C        2.3999060015    -0.4756763854    -3.9927775491
| 11>  N        2.9884500375     0.0997778426    -4.8045227989
| 12>  C        2.0410781456    -0.8780450816    -1.4727587906
| 13>  O        3.0182578877    -1.0203746887    -0.7948839266
| 14>  H        0.6883505473     2.1814572375    -0.2473472069
| 15>  H       -0.9223145363     1.7663163910    -0.8626855770
| 16>  H       -0.6484612770     1.8797000115     0.8798114493
| 17>  H        0.9009057444    -0.1021857454     0.7879375047
| 18>  H       -0.7170467699    -0.5221549138     0.2163142065
| 19>  H       -0.5686741471    -1.3054598392    -2.6453223470
| 20>  H       -0.0047979660     0.3338417114    -3.0986503192
| 21>  H        1.6376618073    -2.2517502212    -3.1779976175
| 22> *
| 23>
| 24>                          ****END OF INPUT****

CARTESIAN COORDINATES (ANGSTROEM)
---------------------------------
  C     -0.197887    1.566953   -0.066661
  C      0.171827    0.082931   -0.006425
  N      0.783792   -0.402795   -1.225445
  C      0.259124   -0.591760   -2.580027
  C      1.653811   -1.179495   -2.970236
  C      2.399906   -0.475676   -3.992778
  N      2.988450    0.099778   -4.804523
  C      2.041078   -0.878045   -1.472759
  O      3.018258   -1.020375   -0.794884
  H      0.688351    2.181457   -0.247347
  H     -0.922315    1.766316   -0.862686
  H     -0.648461    1.879700    0.879811
  H      0.900906   -0.102186    0.787938
  H     -0.717047   -0.522155    0.216314
  H     -0.568674   -1.305460   -2.645322
  H     -0.004798    0.333842   -3.098650
  H      1.637662   -2.251750   -3.177998

 Total Charge           Charge          ....    0
 Multiplicity           Mult            ....    1
 Number of Electrons    NEL             ....   66
 Basis Dimension        Dim             ....  327

ORBITAL ENERGIES
----------------

  NO   OCC          E(Eh)            E(eV)
   0   2.0000     -20.547958      -559.1384
   1   2.0000     -15.611695      -424.8158
   2   2.0000     -15.582066      -424.0096
   3   2.0000     -11.378979      -309.6378
   4   2.0000     -11.312436      -307.8270
   5   2.0000     -11.310295      -307.7688
   6   2.0000     -11.288553      -307.1772
   7   2.0000     -11.285622      -307.0974
   8   2.0000     -11.239364      -305.8387
   9   2.0000      -1.414169       -38.4815
  10   2.0000      -1.307546       -35.5801
  11   2.0000      -1.228316       -33.4242
  12   2.0000      -1.107102       -30.1258
  13   2.0000      -1.017318       -27.6826
  14   2.0000      -0.938214       -25.5301
  15   2.0000      -0.898556       -24.4509
  16   2.0000      -0.773702       -21.0535
  17   2.0000      -0.729417       -19.8484
  18   2.0000      -0.708364       -19.2756
  19   2.0000      -0.687720       -18.7138
  20   2.0000      -0.653587       -17.7850
  21   2.0000      -0.615498       -16.7486
  22   2.0000      -0.589199       -16.0329
  23   2.0000      -0.580907       -15.8073
  24   2.0000      -0.577806       -15.7229
  25   2.0000      -0.568677       -15.4745
  26   2.0000      -0.549470       -14.9518
  27   2.0000      -0.538617       -14.6565
  28   2.0000      -0.518009       -14.0957
  29   2.0000      -0.491779       -13.3820
  30   2.0000      -0.466416       -12.6918
  31   2.0000      -0.427322       -11.6280
  32   2.0000      -0.401535       -10.9263
  33   0.0000       0.111797         3.0421
  34   0.0000       0.126797         3.4503
  35   0.0000       0.150134         4.0853
  36   0.0000       0.152421         4.1476
  37   0.0000       0.163342         4.4448

MULLIKEN ATOMIC CHARGES
-----------------------
   0 C :   -0.387059
   1 C :   -0.171083
   2 N :   -0.087019
   3 C :   -0.157608
   4 C :    0.038891
   5 C :   -0.228193
   6 N :   -0.051406
   7 C :    0.194308
   8 O :   -0.300142
   9 H :    0.146133
  10 H :    0.127939
  11 H :    0.139495
  12 H :    0.159203
  13 H :    0.128190
  14 H :    0.133938
  15 H :    0.149730
  16 H :    0.164684
Sum of atomic charges:   -0.0000000

LOEWDIN ATOMIC CHARGES
----------------------
   0 C :   -0.310616
   1 C :   -0.283058
   2 N :    0.215620
   3 C :   -0.179811
   4 C :   -0.173587
   5 C :   -0.170833
   6 N :    0.072165
   7 C :   -0.400300
   8 O :    0.124442
   9 H :    0.127953
  10 H :    0.121726
  11 H :    0.128236
  12 H :    0.150481
  13 H :    0.135617
  14 H :    0.129302
  15 H :    0.134600
  16 H :    0.178064

  Mayer bond orders larger than 0.1
B(  0-C ,  1-C ) :   0.9214 B(  0-C ,  9-H ) :   0.9344 B(  0-C , 10-H ) :   0.9344
B(  0-C , 11-H ) :   0.9327 B(  1-C ,  2-N ) :   0.8654 B(  1-C , 12-H ) :   0.9221
B(  1-C , 13-H ) :   0.9302 B(  2-N ,  3-C ) :   0.9068 B(  2-N ,  7-C ) :   1.1448
B(  3-C ,  4-C ) :   0.8804 B(  3-C , 14-H ) :   0.9183 B(  3-C , 15-H ) :   0.9192
B(  4-C ,  5-C ) :   0.9311 B(  4-C ,  7-C ) :   0.8301 B(  4-C , 16-H ) :   0.8914
B(  5-C ,  6-N ) :   2.8464 B(  7-C ,  8-O ) :   2.0086

MP2 TOTAL ENERGY:     -417.331999805 Eh
FINAL SINGLE POINT ENERGY      -417.331999804923

DIPOLE MOMENT
-------------
                                X             Y             Z
Electronic contribution:      8.14170      -4.28760      -5.99882
Nuclear contribution   :    -10.35968       4.04223       6.78449
                        -----------------------------------------
Total Dipole Moment    :     -2.21798      -0.24537       0.78567
                        -----------------------------------------
Magnitude (a.u.)       :      2.36579
Magnitude (Debye)      :      6.01335

                             ****ORCA TERMINATED NORMALLY****
TOTAL RUN TIME: 0 days 0 hours 26 minutes 15 seconds 798 msec
