                         Program Version 3.0.3 - RELEASE   -
|  1> ! RI-MP2 RIJK def2-TZVP def2-TZVP/C def2-TZVP/JK TIGHTSCF
|  2> % maxcore 2000
|  3> % mp2 density relaxed end
|  4> *xyz 0 1
|  5>  C       -0.1844975420     1.6398288773     0.1194219227
|  6>  C       -0.0747840795     0.1071440084     0.0532387363
|  7>  C        0.8454592510    -0.4869316109     1.1416453239
|  8>  C        2.3068625181     0.0189508208     1.1271209977
|  9>  C        3.1441872556    -0.6485184882     2.2358616647
| 10>  C        2.9270164739    -0.1994030038    -0.1849475360
| 11>  N        3.4143898396    -0.3758584208    -1.2181844813
| 12>  C       -1.4553600237    -0.5014549740     0.2326947220
| 13>  O       -1.9708835627    -1.2883064341    -0.5159284449
| 14>  H        0.7792365160     2.1163165361    -0.0778912350
| 15>  H       -0.8892931838     2.0115428560    -0.6301753026
| 16>  H       -0.5332697707     1.9723648095     1.1041320523
| 17>  H        0.2866156904    -0.2029210597    -0.9322768579
| 18>  H        0.4358128552    -0.2628201854     2.1350148339
| 19>  H        0.8567771485    -1.5782679390     1.0418719444
| 20>  H        2.3084833119     1.1016153060     1.2999357086
| 21>  H        4.1691546222    -0.2703924397     2.2352418340
| 22>  H        2.6976586364    -0.4392068235     3.2120084430
| 23>  H        3.1789135493    -1.7325864702     2.0968698980
| 24>  H       -1.9827805756    -0.1571205147     1.1560730663
| 25> *
| 26>
| 27>                          ****END OF INPUT****

CARTESIAN COORDINATES (ANGSTROEM)
---------------------------------
  C     -0.184498    1.639829    0.119422
  C     -0.074784    0.107144    0.053239
  C      0.845459   -0.486932    1.141645
  C      2.306863    0.018951    1.127121
  C      3.144187   -0.648518    2.235862
  C      2.927016   -0.199403   -0.184948
  N      3.414390   -0.375858   -1.218184
  C     -1.455360   -0.501455    0.232695
  O     -1.970884   -1.288306   -0.515928
  H      0.779237    2.116317   -0.077891
  H     -0.889293    2.011543   -0.630175
  H     -0.533270    1.972365    1.104132
  H      0.286616   -0.202921   -0.932277
  H      0.435813   -0.262820    2.135015
  H      0.856777   -1.578268    1.041872
  H      2.308483    1.101615    1.299936
  H      4.169155   -0.270392    2.235242
  H      2.697659   -0.439207    3.212008
  H      3.178914   -1.732586    2.096870
  H     -1.982781   -0.157121    1.156073

 Total Charge           Charge          ....    0
 Multiplicity           Mult            ....    1
 Number of Electrons    NEL             ....   68
 Basis Dimension        Dim             ....  345

ORBITAL ENERGIES
----------------

  NO   OCC          E(Eh)            E(eV)
   0   2.0000     -20.565356      -559.6118
   1   2.0000     -15.574184      -423.7951
   2   2.0000     -11.338061      -308.5243
   3   2.0000     -11.298133      -307.4378
   4   2.0000     -11.275998      -306.8355
   5   2.0000     -11.266833      -306.5861
   6   2.0000     -11.259196      -306.3783
   7   2.0000     -11.253037      -306.2107
   8   2.0000     -11.244832      -305.9874
   9   2.0000      -1.404374       -38.2150
  10   2.0000      -1.225468       -33.3467
  11   2.0000      -1.138751       -30.9870
  12   2.0000      -1.075477       -29.2652
  13   2.0000      -0.962461       -26.1899
  14   2.0000      -0.916122       -24.9290
  15   2.0000      -0.868575       -23.6351
  16   2.0000      -0.796419       -21.6717
  17   2.0000      -0.716456       -19.4958
  18   2.0000      -0.678161       -18.4537
  19   2.0000      -0.660537       -17.9741
  20   2.0000      -0.643541       -17.5117
  21   2.0000      -0.610868       -16.6226
  22   2.0000      -0.590255       -16.0617
  23   2.0000      -0.587633       -15.9903
  24   2.0000      -0.569872       -15.5070
  25   2.0000      -0.563621       -15.3369
  26   2.0000      -0.541335       -14.7305
  27   2.0000      -0.539945       -14.6927
  28   2.0000      -0.532011       -14.4767
  29   2.0000      -0.508015       -13.8238
  30   2.0000      -0.495459       -13.4821
  31   2.0000      -0.461274       -12.5519
  32   2.0000      -0.459942       -12.5156
  33   2.0000      -0.421351       -11.4656
  34   0.0000       0.108811         2.9609
  35   0.0000       0.122067         3.3216
  36   0.0000       0.139294         3.7904
  37   0.0000       0.156151         4.2491
  38   0.0000       0.160895         4.3782

MULLIKEN ATOMIC CHARGES
-----------------------
   0 C :   -0.460560
   1 C :    0.057646
   2 C :   -0.321958
   3 C :    0.058125
   4 C :   -0.386707
   5 C :   -0.215869
   6 N :   -0.053228
   7 C :    0.080388
   8 O :   -0.249226
   9 H :    0.151671
  10 H :    0.156237
  11 H :    0.133451
  12 H :    0.121335
  13 H :    0.128882
  14 H :    0.149398
  15 H :    0.137868
  16 H :    0.155639
  17 H :    0.141980
  18 H :    0.144933
  19 H :    0.069996
Sum of atomic charges:    0.0000000

LOEWDIN ATOMIC CHARGES
----------------------
   0 C :   -0.284680
   1 C :   -0.274692
   2 C :   -0.202994
   3 C :   -0.266072
   4 C :   -0.264311
   5 C :   -0.174162
   6 N :    0.063899
   7 C :   -0.275340
   8 O :    0.143424
   9 H :    0.128608
  10 H :    0.132182
  11 H :    0.126343
  12 H :    0.165752
  13 H :    0.147778
  14 H :    0.154040
  15 H :    0.175006
  16 H :    0.132196
  17 H :    0.128563
  18 H :    0.132042
  19 H :    0.112420

  Mayer bond orders larger than 0.1
B(  0-C ,  1-C ) :   0.8936 B(  0-C ,  9-H ) :   0.9313 B(  0-C , 10-H ) :   0.9361
B(  0-C , 11-H ) :   0.9260 B(  1-C ,  2-C ) :   0.9158 B(  1-C ,  7-C ) :   0.8415
B(  1-C , 12-H ) :   0.8974 B(  2-C ,  3-C ) :   0.8894 B(  2-C , 13-H ) :   0.9241
B(  2-C , 14-H ) :   0.9169 B(  3-C ,  4-C ) :   0.9004 B(  3-C ,  5-C ) :   0.9120
B(  3-C , 15-H ) :   0.9188 B(  4-C , 16-H ) :   0.9349 B(  4-C , 17-H ) :   0.9358
B(  4-C , 18-H ) :   0.9291 B(  5-C ,  6-N ) :   2.8692 B(  7-C ,  8-O ) :   2.0196
B(  7-C , 19-H ) :   0.9329

MP2 TOTAL ENERGY:     -402.487968222 Eh
FINAL SINGLE POINT ENERGY      -402.487968222399

DIPOLE MOMENT
-------------
                                X             Y             Z
Electronic contribution:     -0.89569      -3.51675      -6.35709
Nuclear contribution   :      0.85996       4.37362       8.19556
                        -----------------------------------------
Total Dipole Moment    :     -0.03573       0.85688       1.83848
                        -----------------------------------------
Magnitude (a.u.)       :      2.02867
Magnitude (Debye)      :      5.15648

                             ****ORCA TERMINATED NORMALLY****
TOTAL RUN TIME: 0 days 0 hours 18 minutes 10 seconds 817 msec
