                         Program Version 3.0.3 - RELEASE   -
|  1> ! RI-MP2 RIJK def2-TZVP def2-TZVP/C def2-TZVP/JK TIGHTSCF
|  2> % maxcore 2000
|  3> % mp2 density relaxed end
|  4> *xyz 0 1
|  5>  C        0.0127247167     1.4317967335    -0.1340551017
|  6>  N        0.0482909985    -0.0076827423     0.0284741283
|  7>  C        0.5965972322    -0.6203375860     1.0939378942
|  8>  C        1.2192215751    -0.0424659395     2.1659075982
|  9>  C        1.6581577068    -1.0748200707     3.0760527223
| 10>  O        2.0573596826    -1.0062218194     4.2263942615
| 11>  C        1.4948580104    -2.4354284792     2.3666325144
| 12>  O        1.0198334335    -3.4128592726     3.2580489257
| 13>  C        0.5405821376    -2.1319617097     1.2030509666
| 14>  H        1.0247592949     1.8493428384    -0.0877812728
| 15>  H       -0.4161748926     1.6726539141    -1.1081114004
| 16>  H       -0.5924931873     1.9135432967     0.6442257362
| 17>  H       -0.4442977292    -0.5739824054    -0.6408431762
| 18>  H        1.3146950940     1.0159140120     2.3622537576
| 19>  H        2.4824497640    -2.7202678127     1.9650633115
| 20>  H        1.3297092296    -3.1150344372     4.1277922269
| 21>  H       -0.4702863096    -2.4601595336     1.4706854926
| 22>  H        0.8140329127    -2.6205030964     0.2616729150
| 23> *
| 24>
| 25>                          ****END OF INPUT****

CARTESIAN COORDINATES (ANGSTROEM)
---------------------------------
  C      0.012725    1.431797   -0.134055
  N      0.048291   -0.007683    0.028474
  C      0.596597   -0.620338    1.093938
  C      1.219222   -0.042466    2.165908
  C      1.658158   -1.074820    3.076053
  O      2.057360   -1.006222    4.226394
  C      1.494858   -2.435428    2.366633
  O      1.019833   -3.412859    3.258049
  C      0.540582   -2.131962    1.203051
  H      1.024759    1.849343   -0.087781
  H     -0.416175    1.672654   -1.108111
  H     -0.592493    1.913543    0.644226
  H     -0.444298   -0.573982   -0.640843
  H      1.314695    1.015914    2.362254
  H      2.482450   -2.720268    1.965063
  H      1.329709   -3.115034    4.127792
  H     -0.470286   -2.460160    1.470685
  H      0.814033   -2.620503    0.261673

 Total Charge           Charge          ....    0
 Multiplicity           Mult            ....    1
 Number of Electrons    NEL             ....   68
 Basis Dimension        Dim             ....  333

ORBITAL ENERGIES
----------------

  NO   OCC          E(Eh)            E(eV)
   0   2.0000     -20.552062      -559.2500
   1   2.0000     -20.519967      -558.3767
   2   2.0000     -15.606990      -424.6878
   3   2.0000     -11.317674      -307.9696
   4   2.0000     -11.312843      -307.8381
   5   2.0000     -11.286372      -307.1178
   6   2.0000     -11.283510      -307.0399
   7   2.0000     -11.251675      -306.1736
   8   2.0000     -11.214439      -305.1604
   9   2.0000      -1.379550       -37.5395
  10   2.0000      -1.345558       -36.6145
  11   2.0000      -1.283223       -34.9183
  12   2.0000      -1.126436       -30.6519
  13   2.0000      -0.984158       -26.7803
  14   2.0000      -0.979162       -26.6443
  15   2.0000      -0.892272       -24.2800
  16   2.0000      -0.805998       -21.9323
  17   2.0000      -0.751345       -20.4451
  18   2.0000      -0.703381       -19.1400
  19   2.0000      -0.684321       -18.6213
  20   2.0000      -0.676958       -18.4210
  21   2.0000      -0.646157       -17.5828
  22   2.0000      -0.631759       -17.1910
  23   2.0000      -0.611632       -16.6433
  24   2.0000      -0.574576       -15.6350
  25   2.0000      -0.568810       -15.4781
  26   2.0000      -0.562746       -15.3131
  27   2.0000      -0.543795       -14.7974
  28   2.0000      -0.530845       -14.4450
  29   2.0000      -0.507304       -13.8044
  30   2.0000      -0.471235       -12.8230
  31   2.0000      -0.448084       -12.1930
  32   2.0000      -0.392448       -10.6791
  33   2.0000      -0.331728        -9.0268
  34   0.0000       0.113107         3.0778
  35   0.0000       0.122717         3.3393
  36   0.0000       0.140123         3.8130
  37   0.0000       0.152886         4.1602
  38   0.0000       0.176704         4.8084

MULLIKEN ATOMIC CHARGES
-----------------------
   0 C :   -0.293437
   1 N :   -0.317186
   2 C :    0.156069
   3 C :   -0.316600
   4 C :    0.146279
   5 O :   -0.351349
   6 C :    0.116945
   7 O :   -0.489477
   8 C :   -0.182233
   9 H :    0.152801
  10 H :    0.148141
  11 H :    0.151639
  12 H :    0.245454
  13 H :    0.139950
  14 H :    0.089022
  15 H :    0.333271
  16 H :    0.136675
  17 H :    0.134037
Sum of atomic charges:    0.0000000

LOEWDIN ATOMIC CHARGES
----------------------
   0 C :   -0.306537
   1 N :    0.101447
   2 C :   -0.213261
   3 C :   -0.156527
   4 C :   -0.342603
   5 O :    0.094148
   6 C :   -0.305387
   7 O :   -0.018105
   8 C :   -0.183116
   9 H :    0.123335
  10 H :    0.122876
  11 H :    0.119973
  12 H :    0.190808
  13 H :    0.144206
  14 H :    0.144765
  15 H :    0.186806
  16 H :    0.156593
  17 H :    0.140578

  Mayer bond orders larger than 0.1
B(  0-C ,  1-N ) :   0.8746 B(  0-C ,  9-H ) :   0.9323 B(  0-C , 10-H ) :   0.9308
B(  0-C , 11-H ) :   0.9340 B(  1-N ,  2-C ) :   1.1860 B(  1-N , 12-H ) :   0.8753
B(  2-C ,  3-C ) :   1.4507 B(  2-C ,  8-C ) :   0.9078 B(  3-C ,  4-C ) :   1.0977
B(  3-C , 13-H ) :   0.9262 B(  4-C ,  5-O ) :   1.9292 B(  4-C ,  6-C ) :   0.9383
B(  6-C ,  7-O ) :   1.0178 B(  6-C ,  8-C ) :   0.8975 B(  6-C , 14-H ) :   0.9066
B(  7-O , 15-H ) :   0.8142 B(  8-C , 16-H ) :   0.8748 B(  8-C , 17-H ) :   0.9176

MP2 TOTAL ENERGY:     -438.401617837 Eh
FINAL SINGLE POINT ENERGY      -438.401617837100

DIPOLE MOMENT
-------------
                                X             Y             Z
Electronic contribution:      2.46532      -3.30040       5.72437
Nuclear contribution   :     -3.31377       4.17152      -7.89344
                        -----------------------------------------
Total Dipole Moment    :     -0.84845       0.87113      -2.16907
                        -----------------------------------------
Magnitude (a.u.)       :      2.48668
Magnitude (Debye)      :      6.32065

                             ****ORCA TERMINATED NORMALLY****
TOTAL RUN TIME: 0 days 0 hours 16 minutes 54 seconds 808 msec
