                         Program Version 3.0.3 - RELEASE   -
|  1> ! RI-MP2 RIJK def2-TZVP def2-TZVP/C def2-TZVP/JK TIGHTSCF
|  2> % maxcore 2000
|  3> % mp2 density relaxed end
|  4> *xyz 0 1
|  5>  N        0.0615112941     1.3846314630     0.0855853649
|  6>  C       -0.0234444198     0.0192633968     0.0306603355
|  7>  C       -1.1180426343    -0.8099261150     0.0277236569
|  8>  N       -2.4637508080    -0.3560333344    -0.0058550769
|  9>  C       -0.5247576714    -2.1014072146     0.0404668731
| 10>  N        0.7844180704    -2.0721615169     0.0402046789
| 11>  O        1.1073663428    -0.6867836475     0.0441962777
| 12>  H        0.8808878634     1.7831197622    -0.3500333872
| 13>  H       -0.8039626096     1.8323263772    -0.1848721852
| 14>  H       -2.9474402589    -0.5231652885     0.8711202512
| 15>  H       -2.9993305198    -0.8136754938    -0.7357534321
| 16>  H       -1.0188448290    -3.0647348285     0.0384813730
| 17> *
| 18>
| 19>                          ****END OF INPUT****

CARTESIAN COORDINATES (ANGSTROEM)
---------------------------------
  N      0.061511    1.384631    0.085585
  C     -0.023444    0.019263    0.030660
  C     -1.118043   -0.809926    0.027724
  N     -2.463751   -0.356033   -0.005855
  C     -0.524758   -2.101407    0.040467
  N      0.784418   -2.072162    0.040205
  O      1.107366   -0.686784    0.044196
  H      0.880888    1.783120   -0.350033
  H     -0.803963    1.832326   -0.184872
  H     -2.947440   -0.523165    0.871120
  H     -2.999331   -0.813675   -0.735753
  H     -1.018845   -3.064735    0.038481

 Total Charge           Charge          ....    0
 Multiplicity           Mult            ....    1
 Number of Electrons    NEL             ....   52
 Basis Dimension        Dim             ....  247

ORBITAL ENERGIES
----------------

  NO   OCC          E(Eh)            E(eV)
   0   2.0000     -20.630847      -561.3939
   1   2.0000     -15.604733      -424.6264
   2   2.0000     -15.588645      -424.1886
   3   2.0000     -15.568708      -423.6461
   4   2.0000     -11.345163      -308.7176
   5   2.0000     -11.275366      -306.8183
   6   2.0000     -11.247158      -306.0507
   7   2.0000      -1.481495       -40.3135
   8   2.0000      -1.242609       -33.8131
   9   2.0000      -1.206551       -32.8319
  10   2.0000      -1.141345       -31.0576
  11   2.0000      -1.011955       -27.5367
  12   2.0000      -0.830451       -22.5977
  13   2.0000      -0.799679       -21.7604
  14   2.0000      -0.732185       -19.9238
  15   2.0000      -0.692102       -18.8331
  16   2.0000      -0.680339       -18.5130
  17   2.0000      -0.652724       -17.7615
  18   2.0000      -0.640411       -17.4265
  19   2.0000      -0.590412       -16.0659
  20   2.0000      -0.559537       -15.2258
  21   2.0000      -0.497749       -13.5444
  22   2.0000      -0.489370       -13.3164
  23   2.0000      -0.429226       -11.6798
  24   2.0000      -0.418640       -11.3918
  25   2.0000      -0.317713        -8.6454
  26   0.0000       0.120168         3.2699
  27   0.0000       0.140346         3.8190
  28   0.0000       0.147781         4.0213
  29   0.0000       0.178998         4.8708
  30   0.0000       0.192048         5.2259

MULLIKEN ATOMIC CHARGES
-----------------------
   0 N :   -0.507125
   1 C :    0.244643
   2 C :    0.027203
   3 N :   -0.582658
   4 C :   -0.102199
   5 N :   -0.130122
   6 O :   -0.133290
   7 H :    0.264557
   8 H :    0.274674
   9 H :    0.254214
  10 H :    0.252058
  11 H :    0.138044
Sum of atomic charges:    0.0000000

LOEWDIN ATOMIC CHARGES
----------------------
   0 N :   -0.047330
   1 C :   -0.373437
   2 C :   -0.310628
   3 N :   -0.124509
   4 C :   -0.273878
   5 N :    0.023977
   6 O :    0.274078
   7 H :    0.177259
   8 H :    0.183763
   9 H :    0.165524
  10 H :    0.164788
  11 H :    0.140395

  Mayer bond orders larger than 0.1
B(  0-N ,  1-C ) :   1.1186 B(  0-N ,  7-H ) :   0.8636 B(  0-N ,  8-H ) :   0.8579
B(  1-C ,  2-C ) :   1.4392 B(  1-C ,  5-N ) :   0.1020 B(  1-C ,  6-O ) :   1.1650
B(  2-C ,  3-N ) :   0.9777 B(  2-C ,  4-C ) :   1.2466 B(  3-N ,  9-H ) :   0.8848
B(  3-N , 10-H ) :   0.8888 B(  4-C ,  5-N ) :   1.6241 B(  4-C , 11-H ) :   0.9322
B(  5-N ,  6-O ) :   0.8395

MP2 TOTAL ENERGY:     -356.099377991 Eh
FINAL SINGLE POINT ENERGY      -356.099377990614

DIPOLE MOMENT
-------------
                                X             Y             Z
Electronic contribution:      3.71006      -1.53919       0.16262
Nuclear contribution   :     -4.93512       2.15986      -0.49041
                        -----------------------------------------
Total Dipole Moment    :     -1.22506       0.62067      -0.32779
                        -----------------------------------------
Magnitude (a.u.)       :      1.41189
Magnitude (Debye)      :      3.58875

                             ****ORCA TERMINATED NORMALLY****
TOTAL RUN TIME: 0 days 0 hours 7 minutes 21 seconds 281 msec
