                         Program Version 3.0.3 - RELEASE   -
|  1> ! RI-MP2 RIJK def2-TZVP def2-TZVP/C def2-TZVP/JK TIGHTSCF
|  2> % maxcore 2000
|  3> % mp2 density relaxed end
|  4> *xyz 0 1
|  5>  N        0.0529994867     0.2728145751    -1.0447160805
|  6>  C       -0.0221239786     0.1837552367     0.3124792432
|  7>  O        0.6540090669     0.8509716561     1.0682186000
|  8>  C       -1.0920276013    -0.7958324780     0.8206980384
|  9>  C       -1.0087085222    -2.1853346384     0.2070869338
| 10>  C       -2.2412351287    -2.8789253100    -0.2249588021
| 11>  O       -1.3952206556    -2.2561956704    -1.1884430365
| 12>  C        0.1528013939    -2.9673046738     0.5584971027
| 13>  C        1.1263250117    -3.5946017304     0.8776687571
| 14>  H        0.7744185384     0.8536369600    -1.4392951087
| 15>  H       -0.4504054222    -0.3675104048    -1.6375234259
| 16>  H       -0.9778103959    -0.8563905109     1.9041838547
| 17>  H       -2.0790075024    -0.3752037712     0.5996876631
| 18>  H       -2.2564991660    -3.9660555715    -0.2578106866
| 19>  H       -3.2025560805    -2.3956568004    -0.0564975773
| 20>  H        1.9901515457    -4.1479802780     1.1537224747
| 21> *
| 22>
| 23>                          ****END OF INPUT****

CARTESIAN COORDINATES (ANGSTROEM)
---------------------------------
  N      0.052999    0.272815   -1.044716
  C     -0.022124    0.183755    0.312479
  O      0.654009    0.850972    1.068219
  C     -1.092028   -0.795832    0.820698
  C     -1.008709   -2.185335    0.207087
  C     -2.241235   -2.878925   -0.224959
  O     -1.395221   -2.256196   -1.188443
  C      0.152801   -2.967305    0.558497
  C      1.126325   -3.594602    0.877669
  H      0.774419    0.853637   -1.439295
  H     -0.450405   -0.367510   -1.637523
  H     -0.977810   -0.856391    1.904184
  H     -2.079008   -0.375204    0.599688
  H     -2.256499   -3.966056   -0.257811
  H     -3.202556   -2.395657   -0.056498
  H      1.990152   -4.147980    1.153722

 Total Charge           Charge          ....    0
 Multiplicity           Mult            ....    1
 Number of Electrons    NEL             ....   66
 Basis Dimension        Dim             ....  321

ORBITAL ENERGIES
----------------

  NO   OCC          E(Eh)            E(eV)
   0   2.0000     -20.600459      -560.5670
   1   2.0000     -20.516957      -558.2948
   2   2.0000     -15.575023      -423.8179
   3   2.0000     -11.352290      -308.9115
   4   2.0000     -11.342913      -308.6564
   5   2.0000     -11.314392      -307.8803
   6   2.0000     -11.258972      -306.3722
   7   2.0000     -11.251427      -306.1669
   8   2.0000     -11.246914      -306.0441
   9   2.0000      -1.443519       -39.2801
  10   2.0000      -1.380822       -37.5741
  11   2.0000      -1.207544       -32.8589
  12   2.0000      -1.086111       -29.5546
  13   2.0000      -1.027919       -27.9711
  14   2.0000      -0.947358       -25.7789
  15   2.0000      -0.888050       -24.1651
  16   2.0000      -0.801596       -21.8125
  17   2.0000      -0.753774       -20.5112
  18   2.0000      -0.722294       -19.6546
  19   2.0000      -0.716270       -19.4907
  20   2.0000      -0.690824       -18.7983
  21   2.0000      -0.651729       -17.7345
  22   2.0000      -0.611817       -16.6484
  23   2.0000      -0.601797       -16.3757
  24   2.0000      -0.590286       -16.0625
  25   2.0000      -0.554973       -15.1016
  26   2.0000      -0.537249       -14.6193
  27   2.0000      -0.506892       -13.7932
  28   2.0000      -0.483315       -13.1517
  29   2.0000      -0.425815       -11.5870
  30   2.0000      -0.413988       -11.2652
  31   2.0000      -0.411112       -11.1869
  32   2.0000      -0.394988       -10.7482
  33   0.0000       0.135800         3.6953
  34   0.0000       0.142253         3.8709
  35   0.0000       0.153989         4.1903
  36   0.0000       0.157222         4.2782
  37   0.0000       0.159641         4.3440

MULLIKEN ATOMIC CHARGES
-----------------------
   0 N :   -0.466430
   1 C :    0.236657
   2 O :   -0.336579
   3 C :   -0.195347
   4 C :   -0.017726
   5 C :   -0.063511
   6 O :   -0.353699
   7 C :    0.005693
   8 C :   -0.082336
   9 H :    0.255312
  10 H :    0.278283
  11 H :    0.143615
  12 H :    0.134446
  13 H :    0.136570
  14 H :    0.124194
  15 H :    0.200857
Sum of atomic charges:   -0.0000000

LOEWDIN ATOMIC CHARGES
----------------------
   0 N :   -0.008239
   1 C :   -0.476898
   2 O :    0.087125
   3 C :   -0.172547
   4 C :   -0.310417
   5 C :   -0.217608
   6 O :    0.160631
   7 C :   -0.061067
   8 C :   -0.056777
   9 H :    0.173478
  10 H :    0.173880
  11 H :    0.163821
  12 H :    0.158756
  13 H :    0.129929
  14 H :    0.124662
  15 H :    0.131271

  Mayer bond orders larger than 0.1
B(  0-N ,  1-C ) :   1.1733 B(  0-N ,  9-H ) :   0.8609 B(  0-N , 10-H ) :   0.8471
B(  1-C ,  2-O ) :   2.0119 B(  1-C ,  3-C ) :   0.9212 B(  3-C ,  4-C ) :   0.9178
B(  3-C , 11-H ) :   0.9232 B(  3-C , 12-H ) :   0.8973 B(  4-C ,  5-C ) :   0.9585
B(  4-C ,  6-O ) :   0.7601 B(  4-C ,  7-C ) :   1.2179 B(  4-C ,  8-C ) :  -0.1495
B(  5-C ,  6-O ) :   0.9193 B(  5-C , 13-H ) :   0.9189 B(  5-C , 14-H ) :   0.9020
B(  7-C ,  8-C ) :   2.6015 B(  8-C , 15-H ) :   0.8764

MP2 TOTAL ENERGY:     -437.134454441 Eh
FINAL SINGLE POINT ENERGY      -437.134454441482

DIPOLE MOMENT
-------------
                                X             Y             Z
Electronic contribution:      2.18839       0.31496       0.06928
Nuclear contribution   :     -2.95744      -1.23923      -0.51511
                        -----------------------------------------
Total Dipole Moment    :     -0.76905      -0.92427      -0.44583
                        -----------------------------------------
Magnitude (a.u.)       :      1.28237
Magnitude (Debye)      :      3.25952

                             ****ORCA TERMINATED NORMALLY****
TOTAL RUN TIME: 0 days 0 hours 16 minutes 28 seconds 968 msec
