                         Program Version 3.0.3 - RELEASE   -
|  1> ! RI-MP2 RIJK def2-TZVP def2-TZVP/C def2-TZVP/JK TIGHTSCF
|  2> % maxcore 2000
|  3> % mp2 density relaxed end
|  4> *xyz 0 1
|  5>  C       -0.2930334547    -1.2532032340     0.0200077609
|  6>  C       -0.1666203878    -0.0582462124     0.0318692054
|  7>  C       -0.0216590426     1.3792871515     0.0393322408
|  8>  C       -0.2647829163     2.1229560967     1.3709990255
|  9>  O        0.7325331869     1.6991496564     2.2955868727
| 10>  C        1.0772556603     2.7178677212     1.3615136381
| 11>  C        1.4493552653     2.0313540371     0.0289894715
| 12>  C        2.6117513582     1.1733810811     0.0123067903
| 13>  C        3.5819498394     0.4646015118    -0.0074606595
| 14>  H       -0.3981783632    -2.3097703836     0.0190692802
| 15>  H       -0.6056417043     1.8308992200    -0.7686139965
| 16>  H       -1.2068374799     2.4793166198     1.7694395275
| 17>  H        1.4504960623     3.6572701995     1.7506607671
| 18>  H        1.4973490648     2.7631559846    -0.7833784893
| 19>  H        4.4354502214    -0.1669586197    -0.0150988648
| 20> *
| 21>
| 22>                          ****END OF INPUT****

CARTESIAN COORDINATES (ANGSTROEM)
---------------------------------
  C     -0.293033   -1.253203    0.020008
  C     -0.166620   -0.058246    0.031869
  C     -0.021659    1.379287    0.039332
  C     -0.264783    2.122956    1.370999
  O      0.732533    1.699150    2.295587
  C      1.077256    2.717868    1.361514
  C      1.449355    2.031354    0.028989
  C      2.611751    1.173381    0.012307
  C      3.581950    0.464602   -0.007461
  H     -0.398178   -2.309770    0.019069
  H     -0.605642    1.830899   -0.768614
  H     -1.206837    2.479317    1.769440
  H      1.450496    3.657270    1.750661
  H      1.497349    2.763156   -0.783378
  H      4.435450   -0.166959   -0.015099

 Total Charge           Charge          ....    0
 Multiplicity           Mult            ....    1
 Number of Electrons    NEL             ....   62
 Basis Dimension        Dim             ....  315

ORBITAL ENERGIES
----------------

  NO   OCC          E(Eh)            E(eV)
   0   2.0000     -20.581956      -560.0635
   1   2.0000     -11.305399      -307.6355
   2   2.0000     -11.304610      -307.6141
   3   2.0000     -11.282297      -307.0069
   4   2.0000     -11.281857      -306.9949
   5   2.0000     -11.233397      -305.6763
   6   2.0000     -11.233392      -305.6761
   7   2.0000     -11.223920      -305.4184
   8   2.0000     -11.223919      -305.4184
   9   2.0000      -1.438218       -39.1359
  10   2.0000      -1.131337       -30.7852
  11   2.0000      -1.043982       -28.4082
  12   2.0000      -1.014026       -27.5931
  13   2.0000      -0.939856       -25.5748
  14   2.0000      -0.895563       -24.3695
  15   2.0000      -0.812355       -22.1053
  16   2.0000      -0.750769       -20.4295
  17   2.0000      -0.726791       -19.7770
  18   2.0000      -0.708586       -19.2816
  19   2.0000      -0.672247       -18.2928
  20   2.0000      -0.649783       -17.6815
  21   2.0000      -0.612169       -16.6580
  22   2.0000      -0.564457       -15.3597
  23   2.0000      -0.545067       -14.8320
  24   2.0000      -0.525407       -14.2971
  25   2.0000      -0.483178       -13.1479
  26   2.0000      -0.434429       -11.8214
  27   2.0000      -0.394387       -10.7318
  28   2.0000      -0.391228       -10.6458
  29   2.0000      -0.379582       -10.3290
  30   2.0000      -0.373634       -10.1671
  31   0.0000       0.132430         3.6036
  32   0.0000       0.145642         3.9631
  33   0.0000       0.160684         4.3724
  34   0.0000       0.164866         4.4862
  35   0.0000       0.167442         4.5563

MULLIKEN ATOMIC CHARGES
-----------------------
   0 C :   -0.151438
   1 C :   -0.022192
   2 C :   -0.142760
   3 C :    0.002638
   4 O :   -0.309243
   5 C :    0.002675
   6 C :   -0.142776
   7 C :   -0.022216
   8 C :   -0.151406
   9 H :    0.190866
  10 H :    0.132900
  11 H :    0.144599
  12 H :    0.144598
  13 H :    0.132884
  14 H :    0.190872
Sum of atomic charges:   -0.0000000

LOEWDIN ATOMIC CHARGES
----------------------
   0 C :   -0.080570
   1 C :   -0.083551
   2 C :   -0.160966
   3 C :   -0.210459
   4 O :    0.205272
   5 C :   -0.210475
   6 C :   -0.160977
   7 C :   -0.083545
   8 C :   -0.080569
   9 H :    0.127543
  10 H :    0.171284
  11 H :    0.134090
  12 H :    0.134091
  13 H :    0.171289
  14 H :    0.127543

  Mayer bond orders larger than 0.1
B(  0-C ,  1-C ) :   2.6002 B(  0-C ,  9-H ) :   0.8899 B(  1-C ,  2-C ) :   1.1886
B(  2-C ,  3-C ) :   0.8548 B(  2-C ,  6-C ) :   0.9115 B(  2-C , 10-H ) :   0.9088
B(  3-C ,  4-O ) :   0.9444 B(  3-C ,  5-C ) :   0.8988 B(  3-C , 11-H ) :   0.9232
B(  4-O ,  5-C ) :   0.9444 B(  5-C ,  6-C ) :   0.8549 B(  5-C , 12-H ) :   0.9232
B(  6-C ,  7-C ) :   1.1887 B(  6-C , 13-H ) :   0.9087 B(  7-C ,  8-C ) :   2.6003
B(  8-C , 14-H ) :   0.8899

MP2 TOTAL ENERGY:     -382.676981093 Eh
FINAL SINGLE POINT ENERGY      -382.676981092676

DIPOLE MOMENT
-------------
                                X             Y             Z
Electronic contribution:      0.24734      -0.54016       1.13620
Nuclear contribution   :     -0.52109       1.15031      -1.60521
                        -----------------------------------------
Total Dipole Moment    :     -0.27375       0.61015      -0.46900
                        -----------------------------------------
Magnitude (a.u.)       :      0.81682
Magnitude (Debye)      :      2.07618

                             ****ORCA TERMINATED NORMALLY****
TOTAL RUN TIME: 0 days 0 hours 15 minutes 19 seconds 189 msec
