                         Program Version 3.0.3 - RELEASE   -
|  1> ! RI-MP2 RIJK def2-TZVP def2-TZVP/C def2-TZVP/JK TIGHTSCF
|  2> % maxcore 2000
|  3> % mp2 density relaxed end
|  4> *xyz 0 1
|  5>  O        0.0085146644     1.3882396529     0.1463062037
|  6>  C       -0.0354346812     0.0013822916    -0.0153997672
|  7>  C       -1.4719398032    -0.5223976687    -0.1762511081
|  8>  C       -1.5083586765    -2.0402108621    -0.3081983890
|  9>  O       -2.4098372795    -2.7286063387     0.1219407980
| 10>  N       -0.4077525739    -2.5905181076    -0.9245271796
| 11>  C        0.6057870307    -1.8756160243    -1.6769976092
| 12>  C        0.7598017865    -0.4286518607    -1.2337635746
| 13>  O        1.4509039171     0.3565492715    -1.8409553748
| 14>  H        0.6583491491     1.7087467956    -0.4992930720
| 15>  H        0.4156534899    -0.5081853293     0.8562242019
| 16>  H       -2.0838632373    -0.2423945620     0.6818635294
| 17>  H       -1.9284065031    -0.0677258440    -1.0644385205
| 18>  H       -0.4601876534    -3.5929706342    -1.0380241988
| 19>  H        1.5794775474    -2.3644175502    -1.5470376337
| 20>  H        0.4060299228    -1.8626346498    -2.7583351455
| 21> *
| 22>
| 23>                          ****END OF INPUT****

CARTESIAN COORDINATES (ANGSTROEM)
---------------------------------
  O      0.008515    1.388240    0.146306
  C     -0.035435    0.001382   -0.015400
  C     -1.471940   -0.522398   -0.176251
  C     -1.508359   -2.040211   -0.308198
  O     -2.409837   -2.728606    0.121941
  N     -0.407753   -2.590518   -0.924527
  C      0.605787   -1.875616   -1.676998
  C      0.759802   -0.428652   -1.233764
  O      1.450904    0.356549   -1.840955
  H      0.658349    1.708747   -0.499293
  H      0.415653   -0.508185    0.856224
  H     -2.083863   -0.242395    0.681864
  H     -1.928407   -0.067726   -1.064439
  H     -0.460188   -3.592971   -1.038024
  H      1.579478   -2.364418   -1.547038
  H      0.406030   -1.862635   -2.758335

 Total Charge           Charge          ....    0
 Multiplicity           Mult            ....    1
 Number of Electrons    NEL             ....   68
 Basis Dimension        Dim             ....  321

ORBITAL ENERGIES
----------------

  NO   OCC          E(Eh)            E(eV)
   0   2.0000     -20.585563      -560.1616
   1   2.0000     -20.574776      -559.8681
   2   2.0000     -20.533422      -558.7428
   3   2.0000     -15.606921      -424.6859
   4   2.0000     -11.369176      -309.3710
   5   2.0000     -11.366478      -309.2976
   6   2.0000     -11.319492      -308.0190
   7   2.0000     -11.312347      -307.8246
   8   2.0000     -11.261173      -306.4321
   9   2.0000      -1.438408       -39.1411
  10   2.0000      -1.400047       -38.0972
  11   2.0000      -1.382146       -37.6101
  12   2.0000      -1.260845       -34.3093
  13   2.0000      -1.082472       -29.4556
  14   2.0000      -1.026462       -27.9314
  15   2.0000      -0.919178       -25.0121
  16   2.0000      -0.839861       -22.8538
  17   2.0000      -0.766979       -20.8706
  18   2.0000      -0.741973       -20.1901
  19   2.0000      -0.710150       -19.3242
  20   2.0000      -0.688267       -18.7287
  21   2.0000      -0.678451       -18.4616
  22   2.0000      -0.650723       -17.7071
  23   2.0000      -0.636373       -17.3166
  24   2.0000      -0.620310       -16.8795
  25   2.0000      -0.596762       -16.2387
  26   2.0000      -0.586046       -15.9471
  27   2.0000      -0.555860       -15.1257
  28   2.0000      -0.545527       -14.8445
  29   2.0000      -0.527519       -14.3545
  30   2.0000      -0.476052       -12.9540
  31   2.0000      -0.448323       -12.1995
  32   2.0000      -0.435934       -11.8624
  33   2.0000      -0.413688       -11.2570
  34   0.0000       0.099888         2.7181
  35   0.0000       0.119323         3.2469
  36   0.0000       0.152605         4.1526
  37   0.0000       0.157431         4.2839
  38   0.0000       0.161531         4.3955

MULLIKEN ATOMIC CHARGES
-----------------------
   0 O :   -0.464070
   1 C :    0.068255
   2 C :   -0.167422
   3 C :    0.175206
   4 O :   -0.329402
   5 N :   -0.313703
   6 C :   -0.111859
   7 C :    0.139526
   8 O :   -0.302317
   9 H :    0.337629
  10 H :    0.116298
  11 H :    0.159462
  12 H :    0.137082
  13 H :    0.244513
  14 H :    0.157783
  15 H :    0.153017
Sum of atomic charges:    0.0000000

LOEWDIN ATOMIC CHARGES
----------------------
   0 O :    0.005705
   1 C :   -0.335163
   2 C :   -0.190735
   3 C :   -0.451911
   4 O :    0.094744
   5 N :    0.106748
   6 C :   -0.242928
   7 C :   -0.305223
   8 O :    0.155843
   9 H :    0.186453
  10 H :    0.159975
  11 H :    0.160658
  12 H :    0.158681
  13 H :    0.192158
  14 H :    0.155362
  15 H :    0.149632

  Mayer bond orders larger than 0.1
B(  0-O ,  1-C ) :   1.0849 B(  0-O ,  9-H ) :   0.8048 B(  1-C ,  2-C ) :   0.8330
B(  1-C ,  7-C ) :   0.9238 B(  1-C , 10-H ) :   0.9124 B(  2-C ,  3-C ) :   0.9091
B(  2-C , 11-H ) :   0.9139 B(  2-C , 12-H ) :   0.8994 B(  3-C ,  4-O ) :   2.0015
B(  3-C ,  5-N ) :   1.1345 B(  5-N ,  6-C ) :   0.8938 B(  5-N , 13-H ) :   0.8571
B(  6-C ,  7-C ) :   0.9151 B(  6-C , 14-H ) :   0.8999 B(  6-C , 15-H ) :   0.9207
B(  7-C ,  8-O ) :   1.9225

MP2 TOTAL ENERGY:     -474.331307275 Eh
FINAL SINGLE POINT ENERGY      -474.331307275380

DIPOLE MOMENT
-------------
                                X             Y             Z
Electronic contribution:      0.07844       0.00210       0.06761
Nuclear contribution   :      0.81886      -0.51071      -0.73545
                        -----------------------------------------
Total Dipole Moment    :      0.89730      -0.50861      -0.66784
                        -----------------------------------------
Magnitude (a.u.)       :      1.22875
Magnitude (Debye)      :      3.12324

                             ****ORCA TERMINATED NORMALLY****
TOTAL RUN TIME: 0 days 0 hours 16 minutes 3 seconds 282 msec
