                         Program Version 3.0.3 - RELEASE   -
|  1> ! RI-MP2 RIJK def2-TZVP def2-TZVP/C def2-TZVP/JK TIGHTSCF
|  2> % maxcore 2000
|  3> % mp2 density relaxed end
|  4> *xyz 0 1
|  5>  N       -0.0165279152     1.1203927311    -0.0583928114
|  6>  C       -0.6569178902     0.0491010600     0.1372124750
|  7>  O       -0.1471392427    -1.0967644266    -0.3899057330
|  8>  C       -0.7530052020    -2.3516300021    -0.2488076705
|  9>  C       -1.2674462430    -2.8885521873     1.1573420691
| 10>  N       -2.5175012581    -2.1032294473     0.8840008046
| 11>  C       -2.3033011665    -2.5774176374    -0.5243542069
| 12>  C       -2.3280753149    -4.1031027072    -0.4001715280
| 13>  C       -1.6332269207    -4.3118570069     0.7281069673
| 14>  H       -0.5105907750     1.8908187034     0.3892846272
| 15>  H       -1.5890392406    -0.0926354293     0.6854794490
| 16>  H       -0.0913024154    -3.0310566232    -0.7821213170
| 17>  H       -0.7357435058    -2.7127751483     2.0918313889
| 18>  H       -3.3377723508    -2.5392749265     1.3085727765
| 19>  H       -2.8429997262    -2.0797749856    -1.3293000257
| 20>  H       -2.7311111959    -4.8071094883    -1.1139053079
| 21>  H       -1.3114972371    -5.2335692384     1.1911463528
| 22> *
| 23>
| 24>                          ****END OF INPUT****

CARTESIAN COORDINATES (ANGSTROEM)
---------------------------------
  N     -0.016528    1.120393   -0.058393
  C     -0.656918    0.049101    0.137212
  O     -0.147139   -1.096764   -0.389906
  C     -0.753005   -2.351630   -0.248808
  C     -1.267446   -2.888552    1.157342
  N     -2.517501   -2.103229    0.884001
  C     -2.303301   -2.577418   -0.524354
  C     -2.328075   -4.103103   -0.400172
  C     -1.633227   -4.311857    0.728107
  H     -0.510591    1.890819    0.389285
  H     -1.589039   -0.092635    0.685479
  H     -0.091302   -3.031057   -0.782121
  H     -0.735744   -2.712775    2.091831
  H     -3.337772   -2.539275    1.308573
  H     -2.843000   -2.079775   -1.329300
  H     -2.731111   -4.807109   -1.113905
  H     -1.311497   -5.233569    1.191146

 Total Charge           Charge          ....    0
 Multiplicity           Mult            ....    1
 Number of Electrons    NEL             ....   66
 Basis Dimension        Dim             ....  327

ORBITAL ENERGIES
----------------

  NO   OCC          E(Eh)            E(eV)
   0   2.0000     -20.586767      -560.1944
   1   2.0000     -15.565210      -423.5509
   2   2.0000     -15.529571      -422.5811
   3   2.0000     -11.321479      -308.0731
   4   2.0000     -11.313397      -307.8532
   5   2.0000     -11.285615      -307.0972
   6   2.0000     -11.285605      -307.0969
   7   2.0000     -11.249450      -306.1131
   8   2.0000     -11.247785      -306.0678
   9   2.0000      -1.422703       -38.7137
  10   2.0000      -1.284228       -34.9456
  11   2.0000      -1.186684       -32.2913
  12   2.0000      -1.064629       -28.9700
  13   2.0000      -0.968012       -26.3409
  14   2.0000      -0.949272       -25.8310
  15   2.0000      -0.852881       -23.2081
  16   2.0000      -0.764230       -20.7958
  17   2.0000      -0.751056       -20.4373
  18   2.0000      -0.731890       -19.9157
  19   2.0000      -0.704936       -19.1823
  20   2.0000      -0.674009       -18.3407
  21   2.0000      -0.626886       -17.0584
  22   2.0000      -0.619281       -16.8515
  23   2.0000      -0.575827       -15.6690
  24   2.0000      -0.567208       -15.4345
  25   2.0000      -0.530910       -14.4468
  26   2.0000      -0.520136       -14.1536
  27   2.0000      -0.491318       -13.3694
  28   2.0000      -0.461236       -12.5509
  29   2.0000      -0.446830       -12.1589
  30   2.0000      -0.414503       -11.2792
  31   2.0000      -0.385555       -10.4915
  32   2.0000      -0.358686        -9.7603
  33   0.0000       0.120652         3.2831
  34   0.0000       0.146647         3.9905
  35   0.0000       0.164751         4.4831
  36   0.0000       0.165496         4.5034
  37   0.0000       0.167287         4.5521

MULLIKEN ATOMIC CHARGES
-----------------------
   0 N :   -0.328232
   1 C :    0.014800
   2 O :   -0.223392
   3 C :    0.066342
   4 C :   -0.010112
   5 N :   -0.339072
   6 C :   -0.010077
   7 C :   -0.223222
   8 C :   -0.223251
   9 H :    0.224123
  10 H :    0.143720
  11 H :    0.136484
  12 H :    0.146854
  13 H :    0.193409
  14 H :    0.146859
  15 H :    0.142385
  16 H :    0.142382
Sum of atomic charges:   -0.0000000

LOEWDIN ATOMIC CHARGES
----------------------
   0 N :   -0.083307
   1 C :   -0.387603
   2 O :    0.265306
   3 C :   -0.232837
   4 C :   -0.217145
   5 N :    0.017239
   6 C :   -0.217093
   7 C :   -0.139080
   8 C :   -0.139075
   9 H :    0.166716
  10 H :    0.120040
  11 H :    0.148036
  12 H :    0.134764
  13 H :    0.156778
  14 H :    0.134762
  15 H :    0.136250
  16 H :    0.136248

  Mayer bond orders larger than 0.1
B(  0-N ,  1-C ) :   1.9657 B(  0-N ,  9-H ) :   0.8533 B(  1-C ,  2-O ) :   1.0079
B(  1-C , 10-H ) :   0.9204 B(  2-O ,  3-C ) :   0.9388 B(  3-C ,  4-C ) :   0.8728
B(  3-C ,  6-C ) :   0.8728 B(  3-C , 11-H ) :   0.9293 B(  4-C ,  5-N ) :   0.9206
B(  4-C ,  8-C ) :   0.9436 B(  4-C , 12-H ) :   0.9112 B(  5-N ,  6-C ) :   0.9206
B(  5-N , 13-H ) :   0.8742 B(  6-C ,  7-C ) :   0.9436 B(  6-C , 14-H ) :   0.9112
B(  7-C ,  8-C ) :   1.6845 B(  7-C , 15-H ) :   0.9285 B(  8-C , 16-H ) :   0.9285

MP2 TOTAL ENERGY:     -417.234265313 Eh
FINAL SINGLE POINT ENERGY      -417.234265313328

DIPOLE MOMENT
-------------
                                X             Y             Z
Electronic contribution:      1.60088       1.45607      -0.71768
Nuclear contribution   :     -2.73736      -2.64720       1.19760
                        -----------------------------------------
Total Dipole Moment    :     -1.13649      -1.19112       0.47992
                        -----------------------------------------
Magnitude (a.u.)       :      1.71485
Magnitude (Debye)      :      4.35880

                             ****ORCA TERMINATED NORMALLY****
TOTAL RUN TIME: 0 days 0 hours 15 minutes 30 seconds 163 msec
