                         Program Version 3.0.3 - RELEASE   -
|  1> ! RI-MP2 RIJK def2-TZVP def2-TZVP/C def2-TZVP/JK TIGHTSCF
|  2> % maxcore 2000
|  3> % mp2 density relaxed end
|  4> *xyz 0 1
|  5>  C       -0.2911946861     1.7537760764     0.3296298332
|  6>  C       -0.0011556757     0.3050197982    -0.0795312454
|  7>  C        0.7077170659    -0.5384182092     0.9887768459
|  8>  C        2.0784036677     0.0286497029     1.4047402978
|  9>  C        3.0890508418     0.1977960540     0.2649494797
| 10>  C       -0.1587596978    -0.8880673949     2.2452347246
| 11>  C        0.3107723893    -2.3614202100     2.1271176750
| 12>  O       -0.5970921756    -3.4063709660     2.3756250448
| 13>  C        0.7739210122    -2.0710430710     0.6762405303
| 14>  H        0.6274994518     2.3310420601     0.4734930659
| 15>  H       -0.8810699164     2.2639826929    -0.4381884134
| 16>  H       -0.8584426472     1.7960042219     1.2660426740
| 17>  H       -0.9494780581    -0.1898406077    -0.3265467516
| 18>  H        0.5870942817     0.2955847661    -1.0061887162
| 19>  H        1.9276878603     0.9948949198     1.9022847102
| 20>  H        2.5124589478    -0.6290840783     2.1683599506
| 21>  H        4.0611374901     0.5149627242     0.6550871241
| 22>  H        3.2424559663    -0.7397435263    -0.2802981118
| 23>  H        2.7657024702     0.9517981486    -0.4591821863
| 24>  H        0.0515445746    -0.3587494526     3.1789078231
| 25>  H       -1.2308434472    -0.8026946770     2.0312609058
| 26>  H        1.1608558692    -2.5626787108     2.7842546195
| 27>  H       -1.3656287274    -3.2698932822     1.8115349619
| 28>  H        0.0037940351    -2.3652075139    -0.0463774465
| 29>  H        1.7286549472    -2.4938702850     0.3519885751
| 30> *
| 31>
| 32>                          ****END OF INPUT****

CARTESIAN COORDINATES (ANGSTROEM)
---------------------------------
  C     -0.291195    1.753776    0.329630
  C     -0.001156    0.305020   -0.079531
  C      0.707717   -0.538418    0.988777
  C      2.078404    0.028650    1.404740
  C      3.089051    0.197796    0.264949
  C     -0.158760   -0.888067    2.245235
  C      0.310772   -2.361420    2.127118
  O     -0.597092   -3.406371    2.375625
  C      0.773921   -2.071043    0.676241
  H      0.627499    2.331042    0.473493
  H     -0.881070    2.263983   -0.438188
  H     -0.858443    1.796004    1.266043
  H     -0.949478   -0.189841   -0.326547
  H      0.587094    0.295585   -1.006189
  H      1.927688    0.994895    1.902285
  H      2.512459   -0.629084    2.168360
  H      4.061137    0.514963    0.655087
  H      3.242456   -0.739744   -0.280298
  H      2.765702    0.951798   -0.459182
  H      0.051545   -0.358749    3.178908
  H     -1.230843   -0.802695    2.031261
  H      1.160856   -2.562679    2.784255
  H     -1.365629   -3.269893    1.811535
  H      0.003794   -2.365208   -0.046377
  H      1.728655   -2.493870    0.351989

 Total Charge           Charge          ....    0
 Multiplicity           Mult            ....    1
 Number of Electrons    NEL             ....   72
 Basis Dimension        Dim             ....  375

ORBITAL ENERGIES
----------------

  NO   OCC          E(Eh)            E(eV)
   0   2.0000     -20.552274      -559.2558
   1   2.0000     -11.274573      -306.7967
   2   2.0000     -11.234103      -305.6955
   3   2.0000     -11.220848      -305.3348
   4   2.0000     -11.219945      -305.3102
   5   2.0000     -11.216694      -305.2218
   6   2.0000     -11.216598      -305.2192
   7   2.0000     -11.214474      -305.1614
   8   2.0000     -11.213956      -305.1473
   9   2.0000      -1.359698       -36.9993
  10   2.0000      -1.140959       -31.0471
  11   2.0000      -1.032686       -28.1008
  12   2.0000      -1.011804       -27.5326
  13   2.0000      -0.905906       -24.6509
  14   2.0000      -0.898172       -24.4405
  15   2.0000      -0.849346       -23.1119
  16   2.0000      -0.811532       -22.0829
  17   2.0000      -0.716235       -19.4897
  18   2.0000      -0.674481       -18.3536
  19   2.0000      -0.653888       -17.7932
  20   2.0000      -0.632137       -17.2013
  21   2.0000      -0.609920       -16.5968
  22   2.0000      -0.586908       -15.9706
  23   2.0000      -0.568835       -15.4788
  24   2.0000      -0.564307       -15.3556
  25   2.0000      -0.548704       -14.9310
  26   2.0000      -0.537982       -14.6392
  27   2.0000      -0.528442       -14.3796
  28   2.0000      -0.511073       -13.9070
  29   2.0000      -0.509206       -13.8562
  30   2.0000      -0.487386       -13.2624
  31   2.0000      -0.486914       -13.2496
  32   2.0000      -0.441644       -12.0177
  33   2.0000      -0.424850       -11.5608
  34   2.0000      -0.413401       -11.2492
  35   2.0000      -0.412064       -11.2128
  36   0.0000       0.127222         3.4619
  37   0.0000       0.144024         3.9191
  38   0.0000       0.155414         4.2290
  39   0.0000       0.157292         4.2801
  40   0.0000       0.181713         4.9447

MULLIKEN ATOMIC CHARGES
-----------------------
   0 C :   -0.415954
   1 C :   -0.245218
   2 C :    0.169117
   3 C :   -0.280213
   4 C :   -0.415914
   5 C :   -0.257644
   6 C :    0.018918
   7 O :   -0.451949
   8 C :   -0.250814
   9 H :    0.130122
  10 H :    0.137174
  11 H :    0.130575
  12 H :    0.102626
  13 H :    0.124154
  14 H :    0.125441
  15 H :    0.117541
  16 H :    0.137917
  17 H :    0.125791
  18 H :    0.130585
  19 H :    0.119976
  20 H :    0.109045
  21 H :    0.102806
  22 H :    0.308801
  23 H :    0.109096
  24 H :    0.118022
Sum of atomic charges:   -0.0000000

LOEWDIN ATOMIC CHARGES
----------------------
   0 C :   -0.313956
   1 C :   -0.259766
   2 C :   -0.254978
   3 C :   -0.251462
   4 C :   -0.314139
   5 C :   -0.192889
   6 C :   -0.332025
   7 O :   -0.019337
   8 C :   -0.190731
   9 H :    0.120286
  10 H :    0.121798
  11 H :    0.122853
  12 H :    0.137121
  13 H :    0.139345
  14 H :    0.139812
  15 H :    0.142997
  16 H :    0.122358
  17 H :    0.121086
  18 H :    0.120160
  19 H :    0.128631
  20 H :    0.136483
  21 H :    0.140839
  22 H :    0.171939
  23 H :    0.136033
  24 H :    0.127542

  Mayer bond orders larger than 0.1
B(  0-C ,  1-C ) :   0.9173 B(  0-C ,  9-H ) :   0.9385 B(  0-C , 10-H ) :   0.9401
B(  0-C , 11-H ) :   0.9378 B(  1-C ,  2-C ) :   0.8587 B(  1-C , 12-H ) :   0.9256
B(  1-C , 13-H ) :   0.9412 B(  2-C ,  3-C ) :   0.9108 B(  2-C ,  5-C ) :   0.8918
B(  2-C ,  8-C ) :   0.8922 B(  3-C ,  4-C ) :   0.9157 B(  3-C , 14-H ) :   0.9407
B(  3-C , 15-H ) :   0.9233 B(  4-C , 16-H ) :   0.9405 B(  4-C , 17-H ) :   0.9376
B(  4-C , 18-H ) :   0.9396 B(  5-C ,  6-C ) :   0.9372 B(  5-C , 19-H ) :   0.9226
B(  5-C , 20-H ) :   0.9151 B(  6-C ,  7-O ) :   0.9833 B(  6-C ,  8-C ) :   0.9381
B(  6-C , 21-H ) :   0.9296 B(  7-O , 22-H ) :   0.8416 B(  8-C , 23-H ) :   0.9137
B(  8-C , 24-H ) :   0.9231

MP2 TOTAL ENERGY:     -388.817339742 Eh
FINAL SINGLE POINT ENERGY      -388.817339742061

DIPOLE MOMENT
-------------
                                X             Y             Z
Electronic contribution:     -2.97536      -7.32754       3.64317
Nuclear contribution   :      2.92415       7.87035      -4.08418
                        -----------------------------------------
Total Dipole Moment    :     -0.05121       0.54281      -0.44101
                        -----------------------------------------
Magnitude (a.u.)       :      0.70125
Magnitude (Debye)      :      1.78244

                             ****ORCA TERMINATED NORMALLY****
TOTAL RUN TIME: 0 days 0 hours 21 minutes 52 seconds 563 msec
