                         Program Version 3.0.3 - RELEASE   -
|  1> ! RI-MP2 RIJK def2-TZVP def2-TZVP/C def2-TZVP/JK TIGHTSCF
|  2> % maxcore 2000
|  3> % mp2 density relaxed end
|  4> *xyz 0 1
|  5>  O       -0.0652126473     1.4676871785     0.0636952160
|  6>  C        0.0402688251     0.0513049716     0.0543358662
|  7>  C       -1.3710024716    -0.5167676401    -0.0312703127
|  8>  C       -1.4052096303    -2.0474603062    -0.0192207789
|  9>  O       -0.7770221063    -2.5780244097     1.1507198846
| 10>  C       -2.8283199180    -2.5926870693    -0.1842218080
| 11>  C       -2.8659906649    -4.1328938985    -0.2268283676
| 12>  C       -4.2186340330    -4.6658283606    -0.3227490188
| 13>  C       -5.3451489198    -5.0784353261    -0.4005360797
| 14>  H        0.8187091714     1.8327091268     0.1631285296
| 15>  H        0.6316130156    -0.2997293598    -0.8077535914
| 16>  H        0.5331331723    -0.3256939948     0.9612433533
| 17>  H       -1.9599451095    -0.1281947117     0.8113063688
| 18>  H       -1.8505956154    -0.1431235633    -0.9434724832
| 19>  H       -0.7858269446    -2.4255180990    -0.8443312711
| 20>  H       -1.2619865762    -2.2461504780     1.9156205948
| 21>  H       -3.4523441466    -2.2370409660     0.6464520872
| 22>  H       -3.2719769806    -2.1875155309    -1.1002853751
| 23>  H       -2.2714339401    -4.4867639927    -1.0796775859
| 24>  H       -2.3688662605    -4.5223432037     0.6685324571
| 25>  H       -6.3344404096    -5.4571853865    -0.4698356252
| 26> *
| 27>
| 28>                          ****END OF INPUT****

CARTESIAN COORDINATES (ANGSTROEM)
---------------------------------
  O     -0.065213    1.467687    0.063695
  C      0.040269    0.051305    0.054336
  C     -1.371002   -0.516768   -0.031270
  C     -1.405210   -2.047460   -0.019221
  O     -0.777022   -2.578024    1.150720
  C     -2.828320   -2.592687   -0.184222
  C     -2.865991   -4.132894   -0.226828
  C     -4.218634   -4.665828   -0.322749
  C     -5.345149   -5.078435   -0.400536
  H      0.818709    1.832709    0.163129
  H      0.631613   -0.299729   -0.807754
  H      0.533133   -0.325694    0.961243
  H     -1.959945   -0.128195    0.811306
  H     -1.850596   -0.143124   -0.943472
  H     -0.785827   -2.425518   -0.844331
  H     -1.261987   -2.246150    1.915621
  H     -3.452344   -2.237041    0.646452
  H     -3.271977   -2.187516   -1.100285
  H     -2.271434   -4.486764   -1.079678
  H     -2.368866   -4.522343    0.668532
  H     -6.334440   -5.457185   -0.469836

 Total Charge           Charge          ....    0
 Multiplicity           Mult            ....    1
 Number of Electrons    NEL             ....   70
 Basis Dimension        Dim             ....  351

ORBITAL ENERGIES
----------------

  NO   OCC          E(Eh)            E(eV)
   0   2.0000     -20.561516      -559.5073
   1   2.0000     -20.557049      -559.3857
   2   2.0000     -11.288090      -307.1645
   3   2.0000     -11.276095      -306.8381
   4   2.0000     -11.249826      -306.1233
   5   2.0000     -11.235167      -305.7244
   6   2.0000     -11.231467      -305.6238
   7   2.0000     -11.226054      -305.4765
   8   2.0000     -11.217242      -305.2367
   9   2.0000      -1.368177       -37.2300
  10   2.0000      -1.360317       -37.0161
  11   2.0000      -1.093742       -29.7622
  12   2.0000      -1.050471       -28.5848
  13   2.0000      -0.999413       -27.1954
  14   2.0000      -0.925587       -25.1865
  15   2.0000      -0.841434       -22.8966
  16   2.0000      -0.814727       -22.1699
  17   2.0000      -0.718855       -19.5610
  18   2.0000      -0.703095       -19.1322
  19   2.0000      -0.672184       -18.2911
  20   2.0000      -0.660048       -17.9608
  21   2.0000      -0.641715       -17.4619
  22   2.0000      -0.635292       -17.2872
  23   2.0000      -0.593981       -16.1630
  24   2.0000      -0.591126       -16.0854
  25   2.0000      -0.560777       -15.2595
  26   2.0000      -0.543387       -14.7863
  27   2.0000      -0.519420       -14.1341
  28   2.0000      -0.507502       -13.8098
  29   2.0000      -0.494624       -13.4594
  30   2.0000      -0.473232       -12.8773
  31   2.0000      -0.451153       -12.2765
  32   2.0000      -0.442387       -12.0380
  33   2.0000      -0.383179       -10.4268
  34   2.0000      -0.381018       -10.3680
  35   0.0000       0.127253         3.4627
  36   0.0000       0.139043         3.7836
  37   0.0000       0.148675         4.0457
  38   0.0000       0.167785         4.5657
  39   0.0000       0.170273         4.6334

MULLIKEN ATOMIC CHARGES
-----------------------
   0 O :   -0.467032
   1 C :   -0.046427
   2 C :   -0.181257
   3 C :    0.037294
   4 O :   -0.477194
   5 C :   -0.227466
   6 C :   -0.367038
   7 C :   -0.000953
   8 C :   -0.129350
   9 H :    0.316643
  10 H :    0.088288
  11 H :    0.104134
  12 H :    0.110222
  13 H :    0.117457
  14 H :    0.085207
  15 H :    0.313905
  16 H :    0.119003
  17 H :    0.124740
  18 H :    0.137592
  19 H :    0.153579
  20 H :    0.188653
Sum of atomic charges:   -0.0000000

LOEWDIN ATOMIC CHARGES
----------------------
   0 O :   -0.053819
   1 C :   -0.350369
   2 C :   -0.260011
   3 C :   -0.346050
   4 O :   -0.021495
   5 C :   -0.240066
   6 C :   -0.248317
   7 C :   -0.113468
   8 C :   -0.112142
   9 H :    0.172158
  10 H :    0.115169
  11 H :    0.116746
  12 H :    0.141090
  13 H :    0.146467
  14 H :    0.146888
  15 H :    0.175911
  16 H :    0.142572
  17 H :    0.146961
  18 H :    0.157075
  19 H :    0.159337
  20 H :    0.125363

  Mayer bond orders larger than 0.1
B(  0-O ,  1-C ) :   1.0188 B(  0-O ,  9-H ) :   0.8492 B(  1-C ,  2-C ) :   0.9397
B(  1-C , 10-H ) :   0.9311 B(  1-C , 11-H ) :   0.9319 B(  2-C ,  3-C ) :   0.9307
B(  2-C , 12-H ) :   0.9068 B(  2-C , 13-H ) :   0.9236 B(  3-C ,  4-O ) :   0.8709
B(  3-C ,  5-C ) :   0.9437 B(  3-C , 14-H ) :   0.9149 B(  4-O , 15-H ) :   0.8416
B(  5-C ,  6-C ) :   0.9210 B(  5-C , 16-H ) :   0.9163 B(  5-C , 17-H ) :   0.9268
B(  6-C ,  7-C ) :   1.0922 B(  6-C ,  8-C ) :  -0.1186 B(  6-C , 18-H ) :   0.9203
B(  6-C , 19-H ) :   0.9360 B(  7-C ,  8-C ) :   2.6178 B(  8-C , 20-H ) :   0.8956

MP2 TOTAL ENERGY:     -423.482529002 Eh
FINAL SINGLE POINT ENERGY      -423.482529002471

DIPOLE MOMENT
-------------
                                X             Y             Z
Electronic contribution:     -1.56413      -2.16285       0.63796
Nuclear contribution   :      1.88293       2.40850      -0.56450
                        -----------------------------------------
Total Dipole Moment    :      0.31880       0.24565       0.07346
                        -----------------------------------------
Magnitude (a.u.)       :      0.40911
Magnitude (Debye)      :      1.03988

                             ****ORCA TERMINATED NORMALLY****
TOTAL RUN TIME: 0 days 0 hours 15 minutes 4 seconds 125 msec
