                         Program Version 3.0.3 - RELEASE   -
|  1> ! RI-MP2 RIJK def2-TZVP def2-TZVP/C def2-TZVP/JK TIGHTSCF
|  2> % maxcore 2000
|  3> % mp2 density relaxed end
|  4> *xyz 0 1
|  5>  C       -0.0324954558     1.5337530822     0.0163362630
|  6>  C       -0.0134820078     0.0142870120    -0.0112356245
|  7>  O       -1.2846338744    -0.5371811719    -0.2741442979
|  8>  C        1.1972388806    -0.6026603144    -0.8515676169
|  9>  C        1.8998029579    -0.7099913537     0.4793399650
| 10>  C        2.9021558184    -0.2208475094     1.1991619196
| 11>  C        2.3591883904     0.0821850003     2.5892524051
| 12>  O        0.9221097303     0.0350802465     2.4622987972
| 13>  C        0.6321299349    -0.6508178995     1.2632155767
| 14>  H        0.9523312544     1.9378134373     0.2628702922
| 15>  H       -0.3255273562     1.9326504867    -0.9626508941
| 16>  H       -0.7462407543     1.8855663625     0.7658934552
| 17>  H       -1.6507210694    -0.0990319004    -1.0501952875
| 18>  H        0.8906431370    -1.5632420167    -1.2748220952
| 19>  H        1.6643657304     0.0133840800    -1.6231482534
| 20>  H        3.8950316862     0.0677050915     0.8779282168
| 21>  H        2.6862035844    -0.6343082720     3.3597830170
| 22>  H        2.6508924449     1.0849841646     2.9276079682
| 23>  H        0.1169287383    -1.6024356858     1.4571116435
| 24> *
| 25>
| 26>                          ****END OF INPUT****

CARTESIAN COORDINATES (ANGSTROEM)
---------------------------------
  C     -0.032495    1.533753    0.016336
  C     -0.013482    0.014287   -0.011236
  O     -1.284634   -0.537181   -0.274144
  C      1.197239   -0.602660   -0.851568
  C      1.899803   -0.709991    0.479340
  C      2.902156   -0.220848    1.199162
  C      2.359188    0.082185    2.589252
  O      0.922110    0.035080    2.462299
  C      0.632130   -0.650818    1.263216
  H      0.952331    1.937813    0.262870
  H     -0.325527    1.932650   -0.962651
  H     -0.746241    1.885566    0.765893
  H     -1.650721   -0.099032   -1.050195
  H      0.890643   -1.563242   -1.274822
  H      1.664366    0.013384   -1.623148
  H      3.895032    0.067705    0.877928
  H      2.686204   -0.634308    3.359783
  H      2.650892    1.084984    2.927608
  H      0.116929   -1.602436    1.457112

 Total Charge           Charge          ....    0
 Multiplicity           Mult            ....    1
 Number of Electrons    NEL             ....   68
 Basis Dimension        Dim             ....  339

ORBITAL ENERGIES
----------------

  NO   OCC          E(Eh)            E(eV)
   0   2.0000     -20.561430      -559.5050
   1   2.0000     -20.552486      -559.2616
   2   2.0000     -11.298225      -307.4403
   3   2.0000     -11.281425      -306.9832
   4   2.0000     -11.271407      -306.7106
   5   2.0000     -11.241553      -305.8982
   6   2.0000     -11.235024      -305.7206
   7   2.0000     -11.231344      -305.6204
   8   2.0000     -11.220757      -305.3323
   9   2.0000      -1.380711       -37.5711
  10   2.0000      -1.367146       -37.2019
  11   2.0000      -1.139225       -30.9999
  12   2.0000      -1.038555       -28.2605
  13   2.0000      -0.974573       -26.5195
  14   2.0000      -0.919859       -25.0306
  15   2.0000      -0.858518       -23.3615
  16   2.0000      -0.775072       -21.0908
  17   2.0000      -0.731013       -19.8919
  18   2.0000      -0.687522       -18.7084
  19   2.0000      -0.674766       -18.3613
  20   2.0000      -0.647880       -17.6297
  21   2.0000      -0.622785       -16.9468
  22   2.0000      -0.602665       -16.3994
  23   2.0000      -0.586205       -15.9514
  24   2.0000      -0.571386       -15.5482
  25   2.0000      -0.560561       -15.2536
  26   2.0000      -0.526756       -14.3338
  27   2.0000      -0.521447       -14.1893
  28   2.0000      -0.498213       -13.5571
  29   2.0000      -0.487878       -13.2758
  30   2.0000      -0.454545       -12.3688
  31   2.0000      -0.442319       -12.0361
  32   2.0000      -0.403908       -10.9909
  33   2.0000      -0.342146        -9.3103
  34   0.0000       0.122844         3.3428
  35   0.0000       0.146202         3.9784
  36   0.0000       0.157056         4.2737
  37   0.0000       0.170792         4.6475
  38   0.0000       0.185104         5.0369

MULLIKEN ATOMIC CHARGES
-----------------------
   0 C :   -0.472808
   1 C :    0.245829
   2 O :   -0.453810
   3 C :   -0.166151
   4 C :   -0.127703
   5 C :   -0.258546
   6 C :    0.009155
   7 O :   -0.338876
   8 C :    0.118689
   9 H :    0.140072
  10 H :    0.124237
  11 H :    0.152242
  12 H :    0.315459
  13 H :    0.124284
  14 H :    0.125082
  15 H :    0.136031
  16 H :    0.107811
  17 H :    0.114758
  18 H :    0.104246
Sum of atomic charges:    0.0000000

LOEWDIN ATOMIC CHARGES
----------------------
   0 C :   -0.277186
   1 C :   -0.343211
   2 O :    0.011900
   3 C :   -0.163146
   4 C :   -0.155446
   5 C :   -0.145077
   6 C :   -0.265367
   7 O :    0.168488
   8 C :   -0.219102
   9 H :    0.135989
  10 H :    0.123433
  11 H :    0.134494
  12 H :    0.177613
  13 H :    0.146105
  14 H :    0.133362
  15 H :    0.138025
  16 H :    0.123784
  17 H :    0.125982
  18 H :    0.149357

  Mayer bond orders larger than 0.1
B(  0-C ,  1-C ) :   0.9138 B(  0-C ,  9-H ) :   0.9228 B(  0-C , 10-H ) :   0.9250
B(  0-C , 11-H ) :   0.9381 B(  1-C ,  2-O ) :   1.0211 B(  1-C ,  3-C ) :   0.8987
B(  1-C ,  8-C ) :   0.8431 B(  2-O , 12-H ) :   0.8397 B(  3-C ,  4-C ) :   0.9330
B(  3-C , 13-H ) :   0.8957 B(  3-C , 14-H ) :   0.9043 B(  4-C ,  5-C ) :   1.7913
B(  4-C ,  8-C ) :   0.9184 B(  5-C ,  6-C ) :   0.9666 B(  5-C , 15-H ) :   0.9153
B(  6-C ,  7-O ) :   0.9215 B(  6-C , 16-H ) :   0.9101 B(  6-C , 17-H ) :   0.9233
B(  7-O ,  8-C ) :   0.9651 B(  8-C , 18-H ) :   0.9212

MP2 TOTAL ENERGY:     -422.288752104 Eh
FINAL SINGLE POINT ENERGY      -422.288752103524

DIPOLE MOMENT
-------------
                                X             Y             Z
Electronic contribution:     -0.65981      -3.25035       1.88664
Nuclear contribution   :      1.15803       3.69720      -2.68596
                        -----------------------------------------
Total Dipole Moment    :      0.49821       0.44685      -0.79932
                        -----------------------------------------
Magnitude (a.u.)       :      1.04249
Magnitude (Debye)      :      2.64981

                             ****ORCA TERMINATED NORMALLY****
TOTAL RUN TIME: 0 days 0 hours 20 minutes 59 seconds 159 msec
