                         Program Version 3.0.3 - RELEASE   -
|  1> ! RI-MP2 RIJK def2-TZVP def2-TZVP/C def2-TZVP/JK TIGHTSCF
|  2> % maxcore 2000
|  3> % mp2 density relaxed end
|  4> *xyz 0 1
|  5>  C       -0.1751740314     1.4394268803     0.0682285786
|  6>  O        0.1400233195     0.0575304816    -0.1092930435
|  7>  C        0.7073249868    -0.5261335714     0.9937965062
|  8>  C        2.0173615436    -0.9530461383     1.1030159186
|  9>  N        3.0944108736    -0.8085920515     0.2260102002
| 10>  N        2.1200514165    -1.5392126180     2.3190796889
| 11>  N        0.9453776288    -1.5085449147     3.0293440085
| 12>  C        0.0933515291    -0.8974367252     2.2191851920
| 13>  N       -1.2266655017    -0.6301229465     2.5909359730
| 14>  H        0.7305162069     2.0304626517     0.2559212717
| 15>  H       -0.6450692562     1.7764845907    -0.8589770613
| 16>  H       -0.8684481368     1.5822299197     0.9053254377
| 17>  H        2.7706153153    -0.4033065857    -0.6449754940
| 18>  H        3.5572377699    -1.6877825555     0.0211538359
| 19>  H        2.9613298657    -1.8303265784     2.7834609437
| 20>  H       -1.4854956282    -1.1576002320     3.4160603063
| 21>  H       -1.8797765514    -0.8162238969     1.8395375676
| 22> *
| 23>
| 24>                          ****END OF INPUT****

CARTESIAN COORDINATES (ANGSTROEM)
---------------------------------
  C     -0.175174    1.439427    0.068229
  O      0.140023    0.057530   -0.109293
  C      0.707325   -0.526134    0.993797
  C      2.017362   -0.953046    1.103016
  N      3.094411   -0.808592    0.226010
  N      2.120051   -1.539213    2.319080
  N      0.945378   -1.508545    3.029344
  C      0.093352   -0.897437    2.219185
  N     -1.226666   -0.630123    2.590936
  H      0.730516    2.030463    0.255921
  H     -0.645069    1.776485   -0.858977
  H     -0.868448    1.582230    0.905325
  H      2.770615   -0.403307   -0.644975
  H      3.557238   -1.687783    0.021154
  H      2.961330   -1.830327    2.783461
  H     -1.485496   -1.157600    3.416060
  H     -1.879777   -0.816224    1.839538

 Total Charge           Charge          ....    0
 Multiplicity           Mult            ....    1
 Number of Electrons    NEL             ....   68
 Basis Dimension        Dim             ....  327

ORBITAL ENERGIES
----------------

  NO   OCC          E(Eh)            E(eV)
   0   2.0000     -20.572491      -559.8060
   1   2.0000     -15.611838      -424.8197
   2   2.0000     -15.580702      -423.9725
   3   2.0000     -15.559120      -423.3852
   4   2.0000     -15.556169      -423.3049
   5   2.0000     -11.307715      -307.6986
   6   2.0000     -11.284195      -307.0586
   7   2.0000     -11.273464      -306.7666
   8   2.0000     -11.253708      -306.2290
   9   2.0000      -1.393824       -37.9279
  10   2.0000      -1.352513       -36.8038
  11   2.0000      -1.228773       -33.4366
  12   2.0000      -1.197578       -32.5877
  13   2.0000      -1.053477       -28.6666
  14   2.0000      -1.020577       -27.7713
  15   2.0000      -0.927917       -25.2499
  16   2.0000      -0.810753       -22.0617
  17   2.0000      -0.781373       -21.2622
  18   2.0000      -0.737988       -20.0817
  19   2.0000      -0.687656       -18.7121
  20   2.0000      -0.680062       -18.5054
  21   2.0000      -0.646242       -17.5851
  22   2.0000      -0.634092       -17.2545
  23   2.0000      -0.631514       -17.1844
  24   2.0000      -0.613359       -16.6903
  25   2.0000      -0.592756       -16.1297
  26   2.0000      -0.576115       -15.6769
  27   2.0000      -0.515557       -14.0290
  28   2.0000      -0.495636       -13.4869
  29   2.0000      -0.473236       -12.8774
  30   2.0000      -0.459892       -12.5143
  31   2.0000      -0.426249       -11.5988
  32   2.0000      -0.318878        -8.6771
  33   2.0000      -0.307377        -8.3642
  34   0.0000       0.124553         3.3893
  35   0.0000       0.143553         3.9063
  36   0.0000       0.159492         4.3400
  37   0.0000       0.168900         4.5960
  38   0.0000       0.184205         5.0125

MULLIKEN ATOMIC CHARGES
-----------------------
   0 C :   -0.199411
   1 O :   -0.355284
   2 C :    0.091106
   3 C :    0.108041
   4 N :   -0.525109
   5 N :   -0.152117
   6 N :   -0.251025
   7 C :    0.163124
   8 N :   -0.546347
   9 H :    0.120326
  10 H :    0.134820
  11 H :    0.141109
  12 H :    0.260409
  13 H :    0.253039
  14 H :    0.252628
  15 H :    0.248077
  16 H :    0.256613
Sum of atomic charges:    0.0000000

LOEWDIN ATOMIC CHARGES
----------------------
   0 C :   -0.327599
   1 O :    0.183508
   2 C :   -0.294798
   3 C :   -0.332393
   4 N :   -0.092059
   5 N :    0.123506
   6 N :    0.011354
   7 C :   -0.378387
   8 N :   -0.092182
   9 H :    0.105408
  10 H :    0.110846
  11 H :    0.109674
  12 H :    0.178111
  13 H :    0.169436
  14 H :    0.184327
  15 H :    0.170769
  16 H :    0.170480

  Mayer bond orders larger than 0.1
B(  0-C ,  1-O ) :   0.8606 B(  0-C ,  9-H ) :   0.9326 B(  0-C , 10-H ) :   0.9372
B(  0-C , 11-H ) :   0.9318 B(  1-O ,  2-C ) :   0.9764 B(  2-C ,  3-C ) :   1.4099
B(  2-C ,  7-C ) :   1.2259 B(  3-C ,  4-N ) :   1.0661 B(  3-C ,  5-N ) :   1.2120
B(  3-C ,  6-N ) :   0.1133 B(  4-N , 12-H ) :   0.8707 B(  4-N , 13-H ) :   0.8723
B(  5-N ,  6-N ) :   0.9953 B(  5-N , 14-H ) :   0.8683 B(  6-N ,  7-C ) :   1.6025
B(  7-C ,  8-N ) :   1.0018 B(  8-N , 15-H ) :   0.8773 B(  8-N , 16-H ) :   0.8684

MP2 TOTAL ENERGY:     -450.588545728 Eh
FINAL SINGLE POINT ENERGY      -450.588545728375

DIPOLE MOMENT
-------------
                                X             Y             Z
Electronic contribution:      1.83460      -4.00208       2.19661
Nuclear contribution   :     -1.52031       3.83878      -2.90297
                        -----------------------------------------
Total Dipole Moment    :      0.31429      -0.16330      -0.70636
                        -----------------------------------------
Magnitude (a.u.)       :      0.79018
Magnitude (Debye)      :      2.00848

                             ****ORCA TERMINATED NORMALLY****
TOTAL RUN TIME: 0 days 0 hours 16 minutes 35 seconds 54 msec
