                         Program Version 3.0.3 - RELEASE   -
|  1> ! RI-MP2 RIJK def2-TZVP def2-TZVP/C def2-TZVP/JK TIGHTSCF
|  2> % maxcore 2000
|  3> % mp2 density relaxed end
|  4> *xyz 0 1
|  5>  O        0.1219438211     1.3907329203     0.1415934320
|  6>  C        0.0049922075    -0.0099328401     0.0318910633
|  7>  C       -1.4583980114    -0.5542006226    -0.1088515401
|  8>  C       -2.2287785182     0.2842973312    -1.1561064132
|  9>  C       -1.4373009214    -0.4982870532    -2.2241358311
| 10>  O       -0.0936887301     0.0169375844    -2.3478169329
| 11>  C        0.6453566642    -0.5690090746    -1.2553931138
| 12>  C        0.2032426965    -2.0333891326    -1.2605064095
| 13>  C       -1.2780334360    -1.6757185740    -1.2046252991
| 14>  H        0.0211144282     1.7388144286    -0.7533988898
| 15>  H        0.4858261326    -0.4301353247     0.9213781965
| 16>  H       -1.9364878538    -0.7823784479     0.8439451595
| 17>  H       -3.2904565539     0.0206678200    -1.1806648294
| 18>  H       -2.1284197564     1.3718774521    -1.1321568084
| 19>  H       -1.8452337755    -0.6412188230    -3.2265338870
| 20>  H        1.7019746956    -0.3384168001    -1.3930990874
| 21>  H        0.4950603145    -2.5590405311    -2.1735189929
| 22>  H        0.5570988246    -2.5902769291    -0.3882306815
| 23>  H       -2.0247250578    -2.4663037636    -1.2459356252
| 24> *
| 25>
| 26>                          ****END OF INPUT****

CARTESIAN COORDINATES (ANGSTROEM)
---------------------------------
  O      0.121944    1.390733    0.141593
  C      0.004992   -0.009933    0.031891
  C     -1.458398   -0.554201   -0.108852
  C     -2.228779    0.284297   -1.156106
  C     -1.437301   -0.498287   -2.224136
  O     -0.093689    0.016938   -2.347817
  C      0.645357   -0.569009   -1.255393
  C      0.203243   -2.033389   -1.260506
  C     -1.278033   -1.675719   -1.204625
  H      0.021114    1.738814   -0.753399
  H      0.485826   -0.430135    0.921378
  H     -1.936488   -0.782378    0.843945
  H     -3.290457    0.020668   -1.180665
  H     -2.128420    1.371877   -1.132157
  H     -1.845234   -0.641219   -3.226534
  H      1.701975   -0.338417   -1.393099
  H      0.495060   -2.559041   -2.173519
  H      0.557099   -2.590277   -0.388231
  H     -2.024725   -2.466304   -1.245936

 Total Charge           Charge          ....    0
 Multiplicity           Mult            ....    1
 Number of Electrons    NEL             ....   68
 Basis Dimension        Dim             ....  339

ORBITAL ENERGIES
----------------

  NO   OCC          E(Eh)            E(eV)
   0   2.0000     -20.558943      -559.4373
   1   2.0000     -20.550627      -559.2110
   2   2.0000     -11.283169      -307.0306
   3   2.0000     -11.280354      -306.9540
   4   2.0000     -11.278992      -306.9170
   5   2.0000     -11.238047      -305.8028
   6   2.0000     -11.234044      -305.6939
   7   2.0000     -11.228231      -305.5357
   8   2.0000     -11.224189      -305.4257
   9   2.0000      -1.392999       -37.9054
  10   2.0000      -1.352673       -36.8081
  11   2.0000      -1.142875       -31.0992
  12   2.0000      -1.053363       -28.6635
  13   2.0000      -0.968373       -26.3508
  14   2.0000      -0.875480       -23.8230
  15   2.0000      -0.841517       -22.8988
  16   2.0000      -0.805856       -21.9284
  17   2.0000      -0.740513       -20.1504
  18   2.0000      -0.711700       -19.3663
  19   2.0000      -0.683368       -18.5954
  20   2.0000      -0.643239       -17.5034
  21   2.0000      -0.630963       -17.1694
  22   2.0000      -0.586852       -15.9690
  23   2.0000      -0.575861       -15.6700
  24   2.0000      -0.573599       -15.6084
  25   2.0000      -0.552864       -15.0442
  26   2.0000      -0.524842       -14.2817
  27   2.0000      -0.508226       -13.8295
  28   2.0000      -0.496471       -13.5097
  29   2.0000      -0.482450       -13.1281
  30   2.0000      -0.457047       -12.4369
  31   2.0000      -0.430383       -11.7113
  32   2.0000      -0.413456       -11.2507
  33   2.0000      -0.395523       -10.7627
  34   0.0000       0.135931         3.6989
  35   0.0000       0.153617         4.1801
  36   0.0000       0.167333         4.5534
  37   0.0000       0.171386         4.6636
  38   0.0000       0.188552         5.1307

MULLIKEN ATOMIC CHARGES
-----------------------
   0 O :   -0.464370
   1 C :   -0.020318
   2 C :    0.023505
   3 C :   -0.302565
   4 C :    0.037941
   5 O :   -0.340882
   6 C :    0.074634
   7 C :   -0.285839
   8 C :   -0.145073
   9 H :    0.326106
  10 H :    0.109667
  11 H :    0.125777
  12 H :    0.117879
  13 H :    0.119738
  14 H :    0.112341
  15 H :    0.132837
  16 H :    0.122565
  17 H :    0.124579
  18 H :    0.131477
Sum of atomic charges:   -0.0000000

LOEWDIN ATOMIC CHARGES
----------------------
   0 O :   -0.007549
   1 C :   -0.298369
   2 C :   -0.167668
   3 C :   -0.213607
   4 C :   -0.237099
   5 O :    0.172984
   6 C :   -0.279980
   7 C :   -0.216367
   8 C :   -0.174908
   9 H :    0.177623
  10 H :    0.145595
  11 H :    0.134686
  12 H :    0.141354
  13 H :    0.126324
  14 H :    0.127438
  15 H :    0.140564
  16 H :    0.141834
  17 H :    0.143796
  18 H :    0.143349

  Mayer bond orders larger than 0.1
B(  0-O ,  1-C ) :   0.9869 B(  0-O ,  9-H ) :   0.8243 B(  1-C ,  2-C ) :   0.8914
B(  1-C ,  6-C ) :   0.9503 B(  1-C , 10-H ) :   0.9385 B(  2-C ,  3-C ) :   0.8908
B(  2-C ,  8-C ) :   0.8634 B(  2-C , 11-H ) :   0.9104 B(  3-C ,  4-C ) :   0.9483
B(  3-C , 12-H ) :   0.9156 B(  3-C , 13-H ) :   0.9117 B(  4-C ,  5-O ) :   0.9194
B(  4-C ,  8-C ) :   0.9127 B(  4-C , 14-H ) :   0.9263 B(  5-O ,  6-C ) :   0.8842
B(  6-C ,  7-C ) :   0.9468 B(  6-C , 15-H ) :   0.9220 B(  7-C ,  8-C ) :   0.9453
B(  7-C , 16-H ) :   0.9059 B(  7-C , 17-H ) :   0.9241 B(  8-C , 18-H ) :   0.9050

MP2 TOTAL ENERGY:     -422.331254783 Eh
FINAL SINGLE POINT ENERGY      -422.331254783209

DIPOLE MOMENT
-------------
                                X             Y             Z
Electronic contribution:      1.59698       2.07855      -0.75398
Nuclear contribution   :     -1.93424      -2.89032       0.63688
                        -----------------------------------------
Total Dipole Moment    :     -0.33725      -0.81177      -0.11710
                        -----------------------------------------
Magnitude (a.u.)       :      0.88681
Magnitude (Debye)      :      2.25409

                             ****ORCA TERMINATED NORMALLY****
TOTAL RUN TIME: 0 days 0 hours 18 minutes 54 seconds 599 msec
