                         Program Version 3.0.3 - RELEASE   -
|  1> ! RI-MP2 RIJK def2-TZVP def2-TZVP/C def2-TZVP/JK TIGHTSCF
|  2> % maxcore 2000
|  3> % mp2 density relaxed end
|  4> *xyz 0 1
|  5>  O       -0.0839228774     1.4299385798    -0.1049090759
|  6>  C       -0.0269559173     0.0247768740     0.1298593761
|  7>  C       -1.4563236980    -0.4978460453    -0.0055858144
|  8>  O       -1.9796087191    -0.1102180674    -1.2644031402
|  9>  C       -1.5113225350    -2.0371384418     0.1509252840
| 10>  C       -2.2925672121    -2.2558936417     1.4634901317
| 11>  O       -2.2143151082    -1.0220186401     2.1690936396
| 12>  C       -2.3355026683    -0.0173716294     1.1788055777
| 13>  H        0.8108551804     1.7677757786    -0.1966086549
| 14>  H        0.6132993000    -0.4723333860    -0.6128398826
| 15>  H        0.3540450351    -0.2028532795     1.1358846456
| 16>  H       -1.6808766220     0.7980796005    -1.4033403098
| 17>  H       -2.0118656367    -2.4697103859    -0.7172067327
| 18>  H       -0.5059500183    -2.4652304680     0.2082037678
| 19>  H       -3.3439509955    -2.5062189251     1.2516282089
| 20>  H       -1.8761569770    -3.0370880645     2.1040221223
| 21>  H       -2.0127959129     0.9337272126     1.6074050170
| 22>  H       -3.3725132278     0.0773870593     0.8196426898
| 23> *
| 24>
| 25>                          ****END OF INPUT****

CARTESIAN COORDINATES (ANGSTROEM)
---------------------------------
  O     -0.083923    1.429939   -0.104909
  C     -0.026956    0.024777    0.129859
  C     -1.456324   -0.497846   -0.005586
  O     -1.979609   -0.110218   -1.264403
  C     -1.511323   -2.037138    0.150925
  C     -2.292567   -2.255894    1.463490
  O     -2.214315   -1.022019    2.169094
  C     -2.335503   -0.017372    1.178806
  H      0.810855    1.767776   -0.196609
  H      0.613299   -0.472333   -0.612840
  H      0.354045   -0.202853    1.135885
  H     -1.680877    0.798080   -1.403340
  H     -2.011866   -2.469710   -0.717207
  H     -0.505950   -2.465230    0.208204
  H     -3.343951   -2.506219    1.251628
  H     -1.876157   -3.037088    2.104022
  H     -2.012796    0.933727    1.607405
  H     -3.372513    0.077387    0.819643

 Total Charge           Charge          ....    0
 Multiplicity           Mult            ....    1
 Number of Electrons    NEL             ....   64
 Basis Dimension        Dim             ....  308

ORBITAL ENERGIES
----------------

  NO   OCC          E(Eh)            E(eV)
   0   2.0000     -20.574589      -559.8630
   1   2.0000     -20.552173      -559.2531
   2   2.0000     -20.550902      -559.2185
   3   2.0000     -11.286433      -307.1195
   4   2.0000     -11.285076      -307.0825
   5   2.0000     -11.272812      -306.7488
   6   2.0000     -11.264161      -306.5134
   7   2.0000     -11.224514      -305.4346
   8   2.0000      -1.391320       -37.8598
   9   2.0000      -1.376153       -37.4470
  10   2.0000      -1.351128       -36.7661
  11   2.0000      -1.057080       -28.7646
  12   2.0000      -0.995411       -27.0865
  13   2.0000      -0.923480       -25.1292
  14   2.0000      -0.828010       -22.5313
  15   2.0000      -0.775636       -21.1061
  16   2.0000      -0.723897       -19.6982
  17   2.0000      -0.697503       -18.9800
  18   2.0000      -0.673589       -18.3293
  19   2.0000      -0.659643       -17.9498
  20   2.0000      -0.622411       -16.9367
  21   2.0000      -0.613858       -16.7039
  22   2.0000      -0.578858       -15.7515
  23   2.0000      -0.556292       -15.1375
  24   2.0000      -0.541520       -14.7355
  25   2.0000      -0.531803       -14.4711
  26   2.0000      -0.508544       -13.8382
  27   2.0000      -0.493197       -13.4206
  28   2.0000      -0.472547       -12.8587
  29   2.0000      -0.457278       -12.4432
  30   2.0000      -0.435670       -11.8552
  31   2.0000      -0.409234       -11.1358
  32   0.0000       0.123457         3.3594
  33   0.0000       0.150226         4.0879
  34   0.0000       0.173649         4.7252
  35   0.0000       0.188867         5.1393
  36   0.0000       0.195293         5.3142

MULLIKEN ATOMIC CHARGES
-----------------------
   0 O :   -0.494336
   1 C :   -0.183687
   2 C :    0.289445
   3 O :   -0.485428
   4 C :   -0.276107
   5 C :   -0.044793
   6 O :   -0.322139
   7 C :   -0.067114
   8 H :    0.325668
   9 H :    0.118436
  10 H :    0.121090
  11 H :    0.331346
  12 H :    0.136607
  13 H :    0.117995
  14 H :    0.091571
  15 H :    0.115569
  16 H :    0.133013
  17 H :    0.092864
Sum of atomic charges:    0.0000000

LOEWDIN ATOMIC CHARGES
----------------------
   0 O :   -0.053109
   1 C :   -0.317574
   2 C :   -0.385358
   3 O :    0.006764
   4 C :   -0.212809
   5 C :   -0.302889
   6 O :    0.147375
   7 C :   -0.278289
   8 H :    0.176223
   9 H :    0.122951
  10 H :    0.129156
  11 H :    0.180882
  12 H :    0.145855
  13 H :    0.139404
  14 H :    0.119942
  15 H :    0.124222
  16 H :    0.132328
  17 H :    0.124925

  Mayer bond orders larger than 0.1
B(  0-O ,  1-C ) :   0.9664 B(  0-O ,  8-H ) :   0.8435 B(  1-C ,  2-C ) :   0.9030
B(  1-C ,  9-H ) :   0.9257 B(  1-C , 10-H ) :   0.9273 B(  2-C ,  3-O ) :   1.0069
B(  2-C ,  4-C ) :   0.8741 B(  2-C ,  7-C ) :   0.9140 B(  3-O , 11-H ) :   0.8213
B(  4-C ,  5-C ) :   0.9670 B(  4-C , 12-H ) :   0.9120 B(  4-C , 13-H ) :   0.9255
B(  5-C ,  6-O ) :   0.9407 B(  5-C , 14-H ) :   0.9304 B(  5-C , 15-H ) :   0.9241
B(  6-O ,  7-C ) :   0.9184 B(  7-C , 16-H ) :   0.9137 B(  7-C , 17-H ) :   0.9195

MP2 TOTAL ENERGY:     -421.422784772 Eh
FINAL SINGLE POINT ENERGY      -421.422784771993

DIPOLE MOMENT
-------------
                                X             Y             Z
Electronic contribution:     -0.56797       2.30605      -0.01164
Nuclear contribution   :      1.53052      -2.28986      -0.20552
                        -----------------------------------------
Total Dipole Moment    :      0.96255       0.01619      -0.21716
                        -----------------------------------------
Magnitude (a.u.)       :      0.98688
Magnitude (Debye)      :      2.50844

                             ****ORCA TERMINATED NORMALLY****
TOTAL RUN TIME: 0 days 0 hours 11 minutes 49 seconds 268 msec
