                         Program Version 3.0.3 - RELEASE   -
|  1> ! RI-MP2 RIJK def2-TZVP def2-TZVP/C def2-TZVP/JK TIGHTSCF
|  2> % maxcore 2000
|  3> % mp2 density relaxed end
|  4> *xyz 0 1
|  5>  C       -0.0107630628     1.4516514494    -0.0917127624
|  6>  C        0.0045737565    -0.0832657894    -0.1450990126
|  7>  C        0.7159710780    -0.5819636458    -1.4056241696
|  8>  O        0.0056339441    -0.1064264985    -2.5410916416
|  9>  C        0.6808267126    -0.6654382467     1.0937635364
| 10>  C        0.0095634583    -0.6238234663     2.5071692725
| 11>  C       -0.9175614388    -1.7924828210     2.0591952046
| 12>  C        0.5040948655    -2.1582623305     1.5386735403
| 13>  C        1.0347850279    -1.7144836694     2.9324353515
| 14>  H        1.0064739547     1.8482535832     0.0161338783
| 15>  H       -0.4371928414     1.8625750856    -1.0093796917
| 16>  H       -0.5995643231     1.8117761106     0.7575034901
| 17>  H       -1.0313803657    -0.4322349072    -0.2180978071
| 18>  H        1.7574982271    -0.2178211239    -1.4082944284
| 19>  H        0.7534050613    -1.6827341738    -1.3985137402
| 20>  H        0.4826125965    -0.3779779145    -3.3302442616
| 21>  H        1.7289770826    -0.3355264632     1.1153958300
| 22>  H       -0.2755355346     0.2639205229     3.0745259300
| 23>  H       -1.3122766628    -2.4251668811     2.8592363908
| 24>  H       -1.6914425221    -1.5768923522     1.3216429851
| 25>  H        0.7923875718    -3.0533283891     0.9839738451
| 26>  H        2.0840999745    -1.4105646438     2.9871494281
| 27>  H        0.7526003798    -2.3419110555     3.7821439924
| 28> *
| 29>
| 30>                          ****END OF INPUT****

CARTESIAN COORDINATES (ANGSTROEM)
---------------------------------
  C     -0.010763    1.451651   -0.091713
  C      0.004574   -0.083266   -0.145099
  C      0.715971   -0.581964   -1.405624
  O      0.005634   -0.106426   -2.541092
  C      0.680827   -0.665438    1.093764
  C      0.009563   -0.623823    2.507169
  C     -0.917561   -1.792483    2.059195
  C      0.504095   -2.158262    1.538674
  C      1.034785   -1.714484    2.932435
  H      1.006474    1.848254    0.016134
  H     -0.437193    1.862575   -1.009380
  H     -0.599564    1.811776    0.757503
  H     -1.031380   -0.432235   -0.218098
  H      1.757498   -0.217821   -1.408294
  H      0.753405   -1.682734   -1.398514
  H      0.482613   -0.377978   -3.330244
  H      1.728977   -0.335526    1.115396
  H     -0.275536    0.263921    3.074526
  H     -1.312277   -2.425167    2.859236
  H     -1.691443   -1.576892    1.321643
  H      0.792388   -3.053328    0.983974
  H      2.084100   -1.410565    2.987149
  H      0.752600   -2.341911    3.782144

 Total Charge           Charge          ....    0
 Multiplicity           Mult            ....    1
 Number of Electrons    NEL             ....   70
 Basis Dimension        Dim             ....  363

ORBITAL ENERGIES
----------------

  NO   OCC          E(Eh)            E(eV)
   0   2.0000     -20.552415      -559.2596
   1   2.0000     -11.270383      -306.6827
   2   2.0000     -11.239836      -305.8515
   3   2.0000     -11.239342      -305.8381
   4   2.0000     -11.230091      -305.5863
   5   2.0000     -11.224721      -305.4402
   6   2.0000     -11.223345      -305.4027
   7   2.0000     -11.219217      -305.2904
   8   2.0000     -11.203041      -304.8502
   9   2.0000      -1.356555       -36.9137
  10   2.0000      -1.206205       -32.8225
  11   2.0000      -1.059925       -28.8420
  12   2.0000      -0.917054       -24.9543
  13   2.0000      -0.902720       -24.5643
  14   2.0000      -0.891522       -24.2595
  15   2.0000      -0.848537       -23.0899
  16   2.0000      -0.782935       -21.3047
  17   2.0000      -0.725159       -19.7326
  18   2.0000      -0.684744       -18.6328
  19   2.0000      -0.668322       -18.1860
  20   2.0000      -0.647983       -17.6325
  21   2.0000      -0.614576       -16.7235
  22   2.0000      -0.593395       -16.1471
  23   2.0000      -0.575990       -15.6735
  24   2.0000      -0.546441       -14.8694
  25   2.0000      -0.529281       -14.4025
  26   2.0000      -0.500638       -13.6231
  27   2.0000      -0.485393       -13.2082
  28   2.0000      -0.473377       -12.8812
  29   2.0000      -0.452734       -12.3195
  30   2.0000      -0.441605       -12.0167
  31   2.0000      -0.440276       -11.9805
  32   2.0000      -0.436363       -11.8740
  33   2.0000      -0.429108       -11.6766
  34   2.0000      -0.418511       -11.3883
  35   0.0000       0.137214         3.7338
  36   0.0000       0.155500         4.2314
  37   0.0000       0.158617         4.3162
  38   0.0000       0.163538         4.4501
  39   0.0000       0.172617         4.6971

MULLIKEN ATOMIC CHARGES
-----------------------
   0 C :   -0.419973
   1 C :    0.015853
   2 C :   -0.087194
   3 O :   -0.467900
   4 C :   -0.133065
   5 C :   -0.130357
   6 C :   -0.223773
   7 C :   -0.135474
   8 C :   -0.195082
   9 H :    0.113644
  10 H :    0.156925
  11 H :    0.129343
  12 H :    0.071388
  13 H :    0.093331
  14 H :    0.101426
  15 H :    0.314690
  16 H :    0.088941
  17 H :    0.130799
  18 H :    0.108585
  19 H :    0.118942
  20 H :    0.129723
  21 H :    0.107584
  22 H :    0.111645
Sum of atomic charges:    0.0000000

LOEWDIN ATOMIC CHARGES
----------------------
   0 C :   -0.288072
   1 C :   -0.271851
   2 C :   -0.325798
   3 O :   -0.048116
   4 C :   -0.167310
   5 C :   -0.165806
   6 C :   -0.197446
   7 C :   -0.169601
   8 C :   -0.199544
   9 H :    0.122440
  10 H :    0.128544
  11 H :    0.122464
  12 H :    0.155776
  13 H :    0.116892
  14 H :    0.118096
  15 H :    0.171592
  16 H :    0.149047
  17 H :    0.123086
  18 H :    0.127102
  19 H :    0.123967
  20 H :    0.121393
  21 H :    0.126210
  22 H :    0.126936

  Mayer bond orders larger than 0.1
B(  0-C ,  1-C ) :   0.9129 B(  0-C ,  9-H ) :   0.9316 B(  0-C , 10-H ) :   0.9350
B(  0-C , 11-H ) :   0.9404 B(  1-C ,  2-C ) :   0.9155 B(  1-C ,  4-C ) :   0.9078
B(  1-C , 12-H ) :   0.9094 B(  2-C ,  3-O ) :   1.0248 B(  2-C , 13-H ) :   0.9237
B(  2-C , 14-H ) :   0.9342 B(  3-O , 15-H ) :   0.8484 B(  4-C ,  5-C ) :   0.9000
B(  4-C ,  7-C ) :   0.9033 B(  4-C , 16-H ) :   0.9165 B(  5-C ,  6-C ) :   0.9117
B(  5-C ,  8-C ) :   0.9123 B(  5-C , 17-H ) :   0.8904 B(  6-C ,  7-C ) :   0.9107
B(  6-C , 18-H ) :   0.9285 B(  6-C , 19-H ) :   0.9276 B(  7-C ,  8-C ) :   0.9146
B(  7-C , 20-H ) :   0.8889 B(  8-C , 21-H ) :   0.9285 B(  8-C , 22-H ) :   0.9281

MP2 TOTAL ENERGY:     -387.566636293 Eh
FINAL SINGLE POINT ENERGY      -387.566636293384

DIPOLE MOMENT
-------------
                                X             Y             Z
Electronic contribution:     -0.34480      -1.48541      -1.60276
Nuclear contribution   :      0.80231       1.17353       1.51741
                        -----------------------------------------
Total Dipole Moment    :      0.45751      -0.31188      -0.08534
                        -----------------------------------------
Magnitude (a.u.)       :      0.56024
Magnitude (Debye)      :      1.42402

                             ****ORCA TERMINATED NORMALLY****
TOTAL RUN TIME: 0 days 0 hours 19 minutes 55 seconds 61 msec
