                         Program Version 3.0.3 - RELEASE   -
|  1> ! RI-MP2 RIJK def2-TZVP def2-TZVP/C def2-TZVP/JK TIGHTSCF
|  2> % maxcore 2000
|  3> % mp2 density relaxed end
|  4> *xyz 0 1
|  5>  C        0.0362127929     1.5399538099     0.0470565619
|  6>  C        0.0394181665     0.0204402424    -0.0021953733
|  7>  C        0.7740940678    -0.5241138244    -1.2246815779
|  8>  N        0.9509225266    -1.9682371058    -1.1454038763
|  9>  C        1.3390448604    -2.6541023698    -2.3654254573
| 10>  C        0.9087311440    -2.6620773580     0.0312963157
| 11>  O        1.0880846626    -3.8654070937     0.1173518567
| 12>  C        0.5730137793    -1.8565951063     1.2865010869
| 13>  O        0.6841726421    -0.4541962401     1.1686704148
| 14>  H        1.0602841071     1.9219785096     0.0960836611
| 15>  H       -0.4519172380     1.9569418105    -0.8387975648
| 16>  H       -0.5001895728     1.8840341992     0.9345178673
| 17>  H       -0.9996398546    -0.3530767039    -0.0216127877
| 18>  H        0.2016376961    -0.2922412009    -2.1322895228
| 19>  H        1.7505580954    -0.0242437854    -1.3182009607
| 20>  H        2.2870527439    -2.2580965100    -2.7520843600
| 21>  H        1.4546993293    -3.7125825870    -2.1366351785
| 22>  H        0.5724514784    -2.5259861221    -3.1390288561
| 23>  H       -0.4448268369    -2.1500012283     1.5939656514
| 24>  H        1.2600053497    -2.1773004559     2.0723811897
| 25> *
| 26>
| 27>                          ****END OF INPUT****

CARTESIAN COORDINATES (ANGSTROEM)
---------------------------------
  C      0.036213    1.539954    0.047057
  C      0.039418    0.020440   -0.002195
  C      0.774094   -0.524114   -1.224682
  N      0.950923   -1.968237   -1.145404
  C      1.339045   -2.654102   -2.365425
  C      0.908731   -2.662077    0.031296
  O      1.088085   -3.865407    0.117352
  C      0.573014   -1.856595    1.286501
  O      0.684173   -0.454196    1.168670
  H      1.060284    1.921979    0.096084
  H     -0.451917    1.956942   -0.838798
  H     -0.500190    1.884034    0.934518
  H     -0.999640   -0.353077   -0.021613
  H      0.201638   -0.292241   -2.132290
  H      1.750558   -0.024244   -1.318201
  H      2.287053   -2.258097   -2.752084
  H      1.454699   -3.712583   -2.136635
  H      0.572451   -2.525986   -3.139029
  H     -0.444827   -2.150001    1.593966
  H      1.260005   -2.177300    2.072381

 Total Charge           Charge          ....    0
 Multiplicity           Mult            ....    1
 Number of Electrons    NEL             ....   70
 Basis Dimension        Dim             ....  345

ORBITAL ENERGIES
----------------

  NO   OCC          E(Eh)            E(eV)
   0   2.0000     -20.571864      -559.7889
   1   2.0000     -20.512461      -558.1724
   2   2.0000     -15.591184      -424.2577
   3   2.0000     -11.347617      -308.7844
   4   2.0000     -11.299008      -307.4616
   5   2.0000     -11.290864      -307.2400
   6   2.0000     -11.277603      -306.8792
   7   2.0000     -11.258089      -306.3482
   8   2.0000     -11.229842      -305.5795
   9   2.0000      -1.404835       -38.2275
  10   2.0000      -1.374279       -37.3960
  11   2.0000      -1.249999       -34.0142
  12   2.0000      -1.071563       -29.1587
  13   2.0000      -0.993896       -27.0453
  14   2.0000      -0.955361       -25.9967
  15   2.0000      -0.916861       -24.9491
  16   2.0000      -0.837465       -22.7886
  17   2.0000      -0.745707       -20.2917
  18   2.0000      -0.709727       -19.3126
  19   2.0000      -0.677688       -18.4408
  20   2.0000      -0.662441       -18.0259
  21   2.0000      -0.646937       -17.6041
  22   2.0000      -0.635874       -17.3030
  23   2.0000      -0.608583       -16.5604
  24   2.0000      -0.579314       -15.7639
  25   2.0000      -0.570097       -15.5131
  26   2.0000      -0.560524       -15.2526
  27   2.0000      -0.551854       -15.0167
  28   2.0000      -0.536482       -14.5984
  29   2.0000      -0.528804       -14.3895
  30   2.0000      -0.500773       -13.6267
  31   2.0000      -0.487807       -13.2739
  32   2.0000      -0.457675       -12.4540
  33   2.0000      -0.403889       -10.9904
  34   2.0000      -0.377868       -10.2823
  35   0.0000       0.125555         3.4165
  36   0.0000       0.147821         4.0224
  37   0.0000       0.154114         4.1937
  38   0.0000       0.165535         4.5044
  39   0.0000       0.186716         5.0808

MULLIKEN ATOMIC CHARGES
-----------------------
   0 C :   -0.379136
   1 C :    0.082655
   2 C :   -0.178446
   3 N :   -0.081837
   4 C :   -0.327165
   5 C :    0.187311
   6 O :   -0.385583
   7 C :   -0.064420
   8 O :   -0.304491
   9 H :    0.135645
  10 H :    0.126496
  11 H :    0.147396
  12 H :    0.082853
  13 H :    0.124335
  14 H :    0.114037
  15 H :    0.133471
  16 H :    0.185986
  17 H :    0.133634
  18 H :    0.117861
  19 H :    0.149396
Sum of atomic charges:    0.0000000

LOEWDIN ATOMIC CHARGES
----------------------
   0 C :   -0.284843
   1 C :   -0.350834
   2 C :   -0.238516
   3 N :    0.169545
   4 C :   -0.286347
   5 C :   -0.442997
   6 O :    0.072506
   7 C :   -0.281153
   8 O :    0.181706
   9 H :    0.129172
  10 H :    0.128390
  11 H :    0.130734
  12 H :    0.140518
  13 H :    0.140313
  14 H :    0.136874
  15 H :    0.117975
  16 H :    0.136879
  17 H :    0.117408
  18 H :    0.136038
  19 H :    0.146630

  Mayer bond orders larger than 0.1
B(  0-C ,  1-C ) :   0.9152 B(  0-C ,  9-H ) :   0.9336 B(  0-C , 10-H ) :   0.9322
B(  0-C , 11-H ) :   0.9382 B(  1-C ,  2-C ) :   0.9379 B(  1-C ,  8-O ) :   0.9156
B(  1-C , 12-H ) :   0.9284 B(  2-C ,  3-N ) :   0.9048 B(  2-C , 13-H ) :   0.9210
B(  2-C , 14-H ) :   0.9060 B(  3-N ,  4-C ) :   0.8631 B(  3-N ,  5-C ) :   1.1845
B(  4-C , 15-H ) :   0.9306 B(  4-C , 16-H ) :   0.9195 B(  4-C , 17-H ) :   0.9338
B(  5-C ,  6-O ) :   1.8854 B(  5-C ,  7-C ) :   0.8932 B(  7-C ,  8-O ) :   0.9424
B(  7-C , 18-H ) :   0.9380 B(  7-C , 19-H ) :   0.9205

MP2 TOTAL ENERGY:     -439.602661242 Eh
FINAL SINGLE POINT ENERGY      -439.602661241500

DIPOLE MOMENT
-------------
                                X             Y             Z
Electronic contribution:      1.17478      -5.75323       3.89516
Nuclear contribution   :     -1.53703       6.95751      -4.75736
                        -----------------------------------------
Total Dipole Moment    :     -0.36225       1.20428      -0.86220
                        -----------------------------------------
Magnitude (a.u.)       :      1.52476
Magnitude (Debye)      :      3.87563

                             ****ORCA TERMINATED NORMALLY****
TOTAL RUN TIME: 0 days 0 hours 18 minutes 18 seconds 295 msec
