                         Program Version 3.0.3 - RELEASE   -
|  1> ! RI-MP2 RIJK def2-TZVP def2-TZVP/C def2-TZVP/JK TIGHTSCF
|  2> % maxcore 2000
|  3> % mp2 density relaxed end
|  4> *xyz 0 1
|  5>  C       -0.5640794847     1.2670468282    -0.6711290700
|  6>  C       -0.2491090427    -0.2249028218    -0.5219923233
|  7>  C        1.0103871743    -0.6997360698    -1.2747309815
|  8>  C        2.3089687062     0.0202579263    -0.8448678894
|  9>  C        2.7019161925    -0.1326523728     0.6297609566
| 10>  C        1.1426761839    -2.2119318219    -1.1840709050
| 11>  C        0.3847957622    -3.1047532981    -2.1339822363
| 12>  C        1.8861320574    -2.9837508930    -2.2444342415
| 13>  H        0.2091025874     1.8977807716    -0.2213230062
| 14>  H       -0.6484660182     1.5505199741    -1.7266846898
| 15>  H       -1.5128324879     1.5166364908    -0.1853607962
| 16>  H       -0.1569459780    -0.4751959720     0.5427993544
| 17>  H       -1.1004515975    -0.8101038142    -0.8903604144
| 18>  H        0.8608784768    -0.4565080205    -2.3380902094
| 19>  H        3.1259451266    -0.3578575558    -1.4713605157
| 20>  H        2.2196691877     1.0874109310    -1.0803298388
| 21>  H        1.9420834408     0.2792222645     1.3018278188
| 22>  H        2.8546033621    -1.1812758074     0.9045308038
| 23>  H        3.6380480339     0.3967941039     0.8335877587
| 24>  H        1.2404371567    -2.5958935662    -0.1713403149
| 25>  H       -0.0319840955    -4.0326623709    -1.7577621713
| 26>  H       -0.2165521965    -2.6304226878    -2.9034758337
| 27>  H        2.2847150943    -2.4283844349    -3.0878418000
| 28>  H        2.4964115682    -3.8287271932    -1.9447274647
| 29> *
| 30>
| 31>                          ****END OF INPUT****

CARTESIAN COORDINATES (ANGSTROEM)
---------------------------------
  C     -0.564079    1.267047   -0.671129
  C     -0.249109   -0.224903   -0.521992
  C      1.010387   -0.699736   -1.274731
  C      2.308969    0.020258   -0.844868
  C      2.701916   -0.132652    0.629761
  C      1.142676   -2.211932   -1.184071
  C      0.384796   -3.104753   -2.133982
  C      1.886132   -2.983751   -2.244434
  H      0.209103    1.897781   -0.221323
  H     -0.648466    1.550520   -1.726685
  H     -1.512832    1.516636   -0.185361
  H     -0.156946   -0.475196    0.542799
  H     -1.100452   -0.810104   -0.890360
  H      0.860878   -0.456508   -2.338090
  H      3.125945   -0.357858   -1.471361
  H      2.219669    1.087411   -1.080330
  H      1.942083    0.279222    1.301828
  H      2.854603   -1.181276    0.904531
  H      3.638048    0.396794    0.833588
  H      1.240437   -2.595894   -0.171340
  H     -0.031984   -4.032662   -1.757762
  H     -0.216552   -2.630423   -2.903476
  H      2.284715   -2.428384   -3.087842
  H      2.496412   -3.828727   -1.944727

 Total Charge           Charge          ....    0
 Multiplicity           Mult            ....    1
 Number of Electrons    NEL             ....   64
 Basis Dimension        Dim             ....  344

ORBITAL ENERGIES
----------------

  NO   OCC          E(Eh)            E(eV)
   0   2.0000     -11.222540      -305.3808
   1   2.0000     -11.221913      -305.3638
   2   2.0000     -11.218677      -305.2757
   3   2.0000     -11.218076      -305.2594
   4   2.0000     -11.213121      -305.1245
   5   2.0000     -11.212968      -305.1204
   6   2.0000     -11.209358      -305.0221
   7   2.0000     -11.208474      -304.9981
   8   2.0000      -1.143519       -31.1167
   9   2.0000      -1.068704       -29.0809
  10   2.0000      -1.004969       -27.3466
  11   2.0000      -0.930247       -25.3133
  12   2.0000      -0.845364       -23.0035
  13   2.0000      -0.814623       -22.1670
  14   2.0000      -0.804638       -21.8953
  15   2.0000      -0.740796       -20.1581
  16   2.0000      -0.658614       -17.9218
  17   2.0000      -0.635162       -17.2836
  18   2.0000      -0.622382       -16.9359
  19   2.0000      -0.587499       -15.9867
  20   2.0000      -0.564881       -15.3712
  21   2.0000      -0.558977       -15.2105
  22   2.0000      -0.534933       -14.5563
  23   2.0000      -0.512220       -13.9382
  24   2.0000      -0.508603       -13.8398
  25   2.0000      -0.499496       -13.5920
  26   2.0000      -0.493020       -13.4158
  27   2.0000      -0.457060       -12.4372
  28   2.0000      -0.453828       -12.3493
  29   2.0000      -0.446409       -12.1474
  30   2.0000      -0.405882       -11.0446
  31   2.0000      -0.395332       -10.7575
  32   0.0000       0.136914         3.7256
  33   0.0000       0.147316         4.0087
  34   0.0000       0.159437         4.3385
  35   0.0000       0.162425         4.4198
  36   0.0000       0.185927         5.0593

MULLIKEN ATOMIC CHARGES
-----------------------
   0 C :   -0.406757
   1 C :   -0.227102
   2 C :   -0.026978
   3 C :   -0.200765
   4 C :   -0.442113
   5 C :   -0.126748
   6 C :   -0.259997
   7 C :   -0.256502
   8 H :    0.128922
   9 H :    0.123150
  10 H :    0.135198
  11 H :    0.113023
  12 H :    0.118893
  13 H :    0.078473
  14 H :    0.113647
  15 H :    0.122302
  16 H :    0.128385
  17 H :    0.130102
  18 H :    0.134947
  19 H :    0.118093
  20 H :    0.126505
  21 H :    0.123900
  22 H :    0.124765
  23 H :    0.126656
Sum of atomic charges:    0.0000000

LOEWDIN ATOMIC CHARGES
----------------------
   0 C :   -0.319605
   1 C :   -0.268605
   2 C :   -0.249538
   3 C :   -0.267890
   4 C :   -0.318909
   5 C :   -0.212336
   6 C :   -0.231552
   7 C :   -0.231350
   8 H :    0.118922
   9 H :    0.120818
  10 H :    0.121020
  11 H :    0.135835
  12 H :    0.140106
  13 H :    0.157464
  14 H :    0.138891
  15 H :    0.135340
  16 H :    0.119392
  17 H :    0.120181
  18 H :    0.121585
  19 H :    0.148160
  20 H :    0.129069
  21 H :    0.131718
  22 H :    0.132067
  23 H :    0.129218

  Mayer bond orders larger than 0.1
B(  0-C ,  1-C ) :   0.9102 B(  0-C ,  8-H ) :   0.9405 B(  0-C ,  9-H ) :   0.9388
B(  0-C , 10-H ) :   0.9426 B(  1-C ,  2-C ) :   0.9203 B(  1-C , 11-H ) :   0.9317
B(  1-C , 12-H ) :   0.9365 B(  2-C ,  3-C ) :   0.8903 B(  2-C ,  5-C ) :   0.9216
B(  2-C , 13-H ) :   0.9162 B(  3-C ,  4-C ) :   0.9118 B(  3-C , 14-H ) :   0.9333
B(  3-C , 15-H ) :   0.9406 B(  4-C , 16-H ) :   0.9391 B(  4-C , 17-H ) :   0.9387
B(  4-C , 18-H ) :   0.9397 B(  5-C ,  6-C ) :   0.8930 B(  5-C ,  7-C ) :   0.8839
B(  5-C , 19-H ) :   0.9250 B(  6-C ,  7-C ) :   0.9144 B(  6-C , 20-H ) :   0.9308
B(  6-C , 21-H ) :   0.9259 B(  7-C , 22-H ) :   0.9263 B(  7-C , 23-H ) :   0.9309

MP2 TOTAL ENERGY:     -313.688172289 Eh
FINAL SINGLE POINT ENERGY      -313.688172289405

DIPOLE MOMENT
-------------
                                X             Y             Z
Electronic contribution:      0.02687      -3.25922      -1.82731
Nuclear contribution   :     -0.03110       3.27134       1.84365
                        -----------------------------------------
Total Dipole Moment    :     -0.00423       0.01212       0.01634
                        -----------------------------------------
Magnitude (a.u.)       :      0.02078
Magnitude (Debye)      :      0.05282

                             ****ORCA TERMINATED NORMALLY****
TOTAL RUN TIME: 0 days 0 hours 14 minutes 43 seconds 17 msec
