                         Program Version 3.0.3 - RELEASE   -
|  1> ! RI-MP2 RIJK def2-TZVP def2-TZVP/C def2-TZVP/JK TIGHTSCF
|  2> % maxcore 2000
|  3> % mp2 density relaxed end
|  4> *xyz 0 1
|  5>  O       -0.1821312014     0.2828672555     0.7730903977
|  6>  C        0.2910766168     0.7087891801    -0.2511252244
|  7>  C        1.4256001633     1.6713715810    -0.2972127196
|  8>  N        2.1838751453     1.7086364166    -1.5683558947
|  9>  C        1.4139901302     2.8849059949    -1.1895069712
| 10>  C        0.2520180485     3.2905703346    -2.0740704072
| 11>  C        0.6831940634     4.2328985577    -3.1805509968
| 12>  C        1.3014694792     3.6886167243    -4.4444321307
| 13>  C       -0.0830792656     4.2886507034    -4.4774876633
| 14>  H       -0.0876957878     0.3983256037    -1.2486579754
| 15>  H        1.9568054748     1.7678014816     0.6467212740
| 16>  H        3.1748399517     1.8280853941    -1.3790781710
| 17>  H        1.9694189118     3.7282626979    -0.7770946453
| 18>  H       -0.1993209089     2.3952878109    -2.5135102261
| 19>  H       -0.5200656114     3.7680257197    -1.4560099458
| 20>  H        1.0822927432     5.1813445407    -2.8272517103
| 21>  H        2.1127177756     4.2422646569    -4.9041057024
| 22>  H        1.3923801059     2.6115343658    -4.5322839369
| 23>  H       -0.9256200800     3.6151329719    -4.5967947171
| 24>  H       -0.2168791347     5.2524390988    -4.9560190933
| 25> *
| 26>
| 27>                          ****END OF INPUT****

CARTESIAN COORDINATES (ANGSTROEM)
---------------------------------
  O     -0.182131    0.282867    0.773090
  C      0.291077    0.708789   -0.251125
  C      1.425600    1.671372   -0.297213
  N      2.183875    1.708636   -1.568356
  C      1.413990    2.884906   -1.189507
  C      0.252018    3.290570   -2.074070
  C      0.683194    4.232899   -3.180551
  C      1.301469    3.688617   -4.444432
  C     -0.083079    4.288651   -4.477488
  H     -0.087696    0.398326   -1.248658
  H      1.956805    1.767801    0.646721
  H      3.174840    1.828085   -1.379078
  H      1.969419    3.728263   -0.777095
  H     -0.199321    2.395288   -2.513510
  H     -0.520066    3.768026   -1.456010
  H      1.082293    5.181345   -2.827252
  H      2.112718    4.242265   -4.904106
  H      1.392380    2.611534   -4.532284
  H     -0.925620    3.615133   -4.596795
  H     -0.216879    5.252439   -4.956019

 Total Charge           Charge          ....    0
 Multiplicity           Mult            ....    1
 Number of Electrons    NEL             ....   68
 Basis Dimension        Dim             ....  345

ORBITAL ENERGIES
----------------

  NO   OCC          E(Eh)            E(eV)
   0   2.0000     -20.555360      -559.3398
   1   2.0000     -15.580440      -423.9653
   2   2.0000     -11.331031      -308.3330
   3   2.0000     -11.284911      -307.0780
   4   2.0000     -11.276080      -306.8377
   5   2.0000     -11.239315      -305.8373
   6   2.0000     -11.237972      -305.8008
   7   2.0000     -11.228540      -305.5441
   8   2.0000     -11.226525      -305.4893
   9   2.0000      -1.394258       -37.9397
  10   2.0000      -1.285145       -34.9706
  11   2.0000      -1.149528       -31.2803
  12   2.0000      -1.011106       -27.5136
  13   2.0000      -0.954552       -25.9747
  14   2.0000      -0.854121       -23.2418
  15   2.0000      -0.825596       -22.4656
  16   2.0000      -0.798022       -21.7153
  17   2.0000      -0.766796       -20.8656
  18   2.0000      -0.726340       -19.7647
  19   2.0000      -0.672430       -18.2977
  20   2.0000      -0.659383       -17.9427
  21   2.0000      -0.635882       -17.3032
  22   2.0000      -0.626472       -17.0472
  23   2.0000      -0.583721       -15.8839
  24   2.0000      -0.557964       -15.1830
  25   2.0000      -0.544050       -14.8044
  26   2.0000      -0.516491       -14.0544
  27   2.0000      -0.508903       -13.8479
  28   2.0000      -0.494078       -13.4445
  29   2.0000      -0.469782       -12.7834
  30   2.0000      -0.442877       -12.0513
  31   2.0000      -0.421162       -11.4604
  32   2.0000      -0.413464       -11.2509
  33   2.0000      -0.396611       -10.7923
  34   0.0000       0.122029         3.3206
  35   0.0000       0.127719         3.4754
  36   0.0000       0.148248         4.0340
  37   0.0000       0.154412         4.2018
  38   0.0000       0.170870         4.6496

MULLIKEN ATOMIC CHARGES
-----------------------
   0 O :   -0.267642
   1 C :    0.037590
   2 C :    0.024674
   3 N :   -0.396418
   4 C :   -0.026952
   5 C :   -0.231793
   6 C :   -0.095230
   7 C :   -0.268439
   8 C :   -0.266390
   9 H :    0.096737
  10 H :    0.137254
  11 H :    0.227832
  12 H :    0.130575
  13 H :    0.122900
  14 H :    0.129554
  15 H :    0.117657
  16 H :    0.127265
  17 H :    0.140912
  18 H :    0.130153
  19 H :    0.129759
Sum of atomic charges:   -0.0000000

LOEWDIN ATOMIC CHARGES
----------------------
   0 O :    0.131559
   1 C :   -0.286482
   2 C :   -0.247673
   3 N :    0.019094
   4 C :   -0.245874
   5 C :   -0.232058
   6 C :   -0.231852
   7 C :   -0.227804
   8 C :   -0.229878
   9 H :    0.116182
  10 H :    0.145561
  11 H :    0.171564
  12 H :    0.144078
  13 H :    0.149495
  14 H :    0.148733
  15 H :    0.146443
  16 H :    0.129896
  17 H :    0.135954
  18 H :    0.132367
  19 H :    0.130696

  Mayer bond orders larger than 0.1
B(  0-O ,  1-C ) :   1.9919 B(  1-C ,  2-C ) :   0.8538 B(  1-C ,  9-H ) :   0.9629
B(  2-C ,  3-N ) :   0.8767 B(  2-C ,  4-C ) :   0.8324 B(  2-C ,  9-H ) :  -0.1026
B(  2-C , 10-H ) :   0.9158 B(  3-N ,  4-C ) :   0.8827 B(  3-N , 11-H ) :   0.8643
B(  4-C ,  5-C ) :   0.9150 B(  4-C , 12-H ) :   0.9181 B(  5-C ,  6-C ) :   0.9243
B(  5-C , 13-H ) :   0.9343 B(  5-C , 14-H ) :   0.9284 B(  6-C ,  7-C ) :   0.8921
B(  6-C ,  8-C ) :   0.8991 B(  6-C , 15-H ) :   0.9259 B(  7-C ,  8-C ) :   0.9037
B(  7-C , 16-H ) :   0.9310 B(  7-C , 17-H ) :   0.9255 B(  8-C , 18-H ) :   0.9297
B(  8-C , 19-H ) :   0.9315

MP2 TOTAL ENERGY:     -402.418723450 Eh
FINAL SINGLE POINT ENERGY      -402.418723450383

DIPOLE MOMENT
-------------
                                X             Y             Z
Electronic contribution:     -0.09361      -5.82064       7.35330
Nuclear contribution   :      0.80578       6.79945      -7.81625
                        -----------------------------------------
Total Dipole Moment    :      0.71216       0.97881      -0.46295
                        -----------------------------------------
Magnitude (a.u.)       :      1.29598
Magnitude (Debye)      :      3.29412

                             ****ORCA TERMINATED NORMALLY****
TOTAL RUN TIME: 0 days 0 hours 15 minutes 51 seconds 933 msec
