                         Program Version 3.0.3 - RELEASE   -
|  1> ! RI-MP2 RIJK def2-TZVP def2-TZVP/C def2-TZVP/JK TIGHTSCF
|  2> % maxcore 2000
|  3> % mp2 density relaxed end
|  4> *xyz 0 1
|  5>  N       -0.0049572194     1.3197113566     0.0095640492
|  6>  C        1.1196860314     2.1083602678     0.0028974890
|  7>  C        2.3653583206     1.5455537456    -0.0121817983
|  8>  C        2.4830282941     0.1381152134    -0.0208601996
|  9>  C        3.5089886907    -0.7972559176    -0.0358285388
| 10>  C        2.8579215761    -2.0582123645    -0.0362335340
| 11>  N        1.5203720524    -2.0008617746    -0.0229849756
| 12>  C        1.2544131089    -0.6636994552    -0.0132570463
| 13>  C        0.0359849928    -0.0393574944     0.0018870070
| 14>  H       -0.9048448034     1.7720903659     0.0207036864
| 15>  H        0.9410998551     3.1746575847     0.0103343136
| 16>  H        3.2342452971     2.1938956660    -0.0171302992
| 17>  H        4.5735504151    -0.6159086530    -0.0451902044
| 18>  H        3.3563373965    -3.0223402915    -0.0462251670
| 19>  H       -0.9109383881    -0.5635347692     0.0082554480
| 20> *
| 21>
| 22>                          ****END OF INPUT****

CARTESIAN COORDINATES (ANGSTROEM)
---------------------------------
  N     -0.004957    1.319711    0.009564
  C      1.119686    2.108360    0.002897
  C      2.365358    1.545554   -0.012182
  C      2.483028    0.138115   -0.020860
  C      3.508989   -0.797256   -0.035829
  C      2.857922   -2.058212   -0.036234
  N      1.520372   -2.000862   -0.022985
  C      1.254413   -0.663699   -0.013257
  C      0.035985   -0.039357    0.001887
  H     -0.904845    1.772090    0.020704
  H      0.941100    3.174658    0.010334
  H      3.234245    2.193896   -0.017130
  H      4.573550   -0.615909   -0.045190
  H      3.356337   -3.022340   -0.046225
  H     -0.910938   -0.563535    0.008255

 Total Charge           Charge          ....    0
 Multiplicity           Mult            ....    1
 Number of Electrons    NEL             ....   62
 Basis Dimension        Dim             ....  315

ORBITAL ENERGIES
----------------

  NO   OCC          E(Eh)            E(eV)
   0   2.0000     -15.646973      -425.7758
   1   2.0000     -15.519018      -422.2939
   2   2.0000     -11.301234      -307.5222
   3   2.0000     -11.297084      -307.4093
   4   2.0000     -11.247272      -306.0538
   5   2.0000     -11.246945      -306.0449
   6   2.0000     -11.245794      -306.0136
   7   2.0000     -11.240275      -305.8634
   8   2.0000     -11.196738      -304.6787
   9   2.0000      -1.317947       -35.8631
  10   2.0000      -1.240689       -33.7609
  11   2.0000      -1.087051       -29.5802
  12   2.0000      -1.034084       -28.1388
  13   2.0000      -0.994381       -27.0585
  14   2.0000      -0.870275       -23.6814
  15   2.0000      -0.848547       -23.0901
  16   2.0000      -0.788478       -21.4556
  17   2.0000      -0.723447       -19.6860
  18   2.0000      -0.703677       -19.1480
  19   2.0000      -0.672884       -18.3101
  20   2.0000      -0.631700       -17.1894
  21   2.0000      -0.610132       -16.6025
  22   2.0000      -0.601471       -16.3669
  23   2.0000      -0.559115       -15.2143
  24   2.0000      -0.533942       -14.5293
  25   2.0000      -0.511310       -13.9135
  26   2.0000      -0.507039       -13.7972
  27   2.0000      -0.411993       -11.2109
  28   2.0000      -0.405539       -11.0353
  29   2.0000      -0.308200        -8.3865
  30   2.0000      -0.282131        -7.6772
  31   0.0000       0.084806         2.3077
  32   0.0000       0.108423         2.9503
  33   0.0000       0.129266         3.5175
  34   0.0000       0.161216         4.3869
  35   0.0000       0.176152         4.7933

MULLIKEN ATOMIC CHARGES
-----------------------
   0 N :   -0.195880
   1 C :   -0.027778
   2 C :   -0.191275
   3 C :    0.000720
   4 C :   -0.231428
   5 C :   -0.034123
   6 N :   -0.271512
   7 C :    0.090735
   8 C :   -0.071716
   9 H :    0.256991
  10 H :    0.151045
  11 H :    0.136079
  12 H :    0.120088
  13 H :    0.111810
  14 H :    0.156246
Sum of atomic charges:   -0.0000000

LOEWDIN ATOMIC CHARGES
----------------------
   0 N :    0.201897
   1 C :   -0.219127
   2 C :   -0.120950
   3 C :   -0.136814
   4 C :   -0.169715
   5 C :   -0.224503
   6 N :    0.102528
   7 C :   -0.216566
   8 C :   -0.134073
   9 H :    0.207068
  10 H :    0.141457
  11 H :    0.154726
  12 H :    0.136068
  13 H :    0.127872
  14 H :    0.150133

  Mayer bond orders larger than 0.1
B(  0-N ,  1-C ) :   1.0891 B(  0-N ,  8-C ) :   1.2140 B(  0-N ,  9-H ) :   0.8711
B(  1-C ,  2-C ) :   1.5127 B(  1-C , 10-H ) :   0.9066 B(  2-C ,  3-C ) :   1.2006
B(  2-C , 11-H ) :   0.9101 B(  3-C ,  4-C ) :   1.3601 B(  3-C ,  7-C ) :   0.9957
B(  4-C ,  5-C ) :   1.2602 B(  4-C , 12-H ) :   0.9200 B(  5-C ,  6-N ) :   1.4167
B(  5-C , 13-H ) :   0.9468 B(  6-N ,  7-C ) :   1.3743 B(  7-C ,  8-C ) :   1.4278
B(  8-C , 14-H ) :   0.8709

MP2 TOTAL ENERGY:     -379.053509499 Eh
FINAL SINGLE POINT ENERGY      -379.053509498707

DIPOLE MOMENT
-------------
                                X             Y             Z
Electronic contribution:     -1.25899      -1.04382       0.00662
Nuclear contribution   :      0.34011       2.93359       0.01239
                        -----------------------------------------
Total Dipole Moment    :     -0.91888       1.88977       0.01901
                        -----------------------------------------
Magnitude (a.u.)       :      2.10141
Magnitude (Debye)      :      5.34136

                             ****ORCA TERMINATED NORMALLY****
TOTAL RUN TIME: 0 days 0 hours 17 minutes 52 seconds 486 msec
