                         Program Version 3.0.3 - RELEASE   -
|  1> ! RI-MP2 RIJK def2-TZVP def2-TZVP/C def2-TZVP/JK TIGHTSCF
|  2> % maxcore 2000
|  3> % mp2 density relaxed end
|  4> *xyz 0 1
|  5>  C       -0.1306769952     1.4875399310    -0.0254637681
|  6>  C        0.0193355994    -0.0275377007     0.0018743014
|  7>  C        1.4023353889    -0.6194592974    -0.1664313276
|  8>  C        0.7879727299    -0.6311843509     1.2104570113
|  9>  O        1.2017869847     0.2873156965     2.1776900345
| 10>  C        0.3213869936    -1.9333272489     1.7773223276
| 11>  O        0.1600254448    -2.9455199259     1.1434151400
| 12>  C       -1.1059355672    -0.7461320370    -0.5326408234
| 13>  C       -2.0710338165    -1.2895180107    -0.9998036412
| 14>  H        0.7171021327     1.9722584343     0.4596162291
| 15>  H       -0.1975092162     1.8313662566    -1.0618102044
| 16>  H       -1.0436518897     1.7919450996     0.4932366974
| 17>  H        1.4811336865    -1.5843011590    -0.6542234754
| 18>  H        2.2162812933     0.0778339193    -0.3343478074
| 19>  H        2.1284960324     0.1184271661     2.3796117934
| 20>  H        0.1383196510    -1.8794250594     2.8731500454
| 21>  H       -2.9127400824    -1.7932329334    -1.4062078425
| 22> *
| 23>
| 24>                          ****END OF INPUT****

CARTESIAN COORDINATES (ANGSTROEM)
---------------------------------
  C     -0.130677    1.487540   -0.025464
  C      0.019336   -0.027538    0.001874
  C      1.402335   -0.619459   -0.166431
  C      0.787973   -0.631184    1.210457
  O      1.201787    0.287316    2.177690
  C      0.321387   -1.933327    1.777322
  O      0.160025   -2.945520    1.143415
  C     -1.105936   -0.746132   -0.532641
  C     -2.071034   -1.289518   -0.999804
  H      0.717102    1.972258    0.459616
  H     -0.197509    1.831366   -1.061810
  H     -1.043652    1.791945    0.493237
  H      1.481134   -1.584301   -0.654223
  H      2.216281    0.077834   -0.334348
  H      2.128496    0.118427    2.379612
  H      0.138320   -1.879425    2.873150
  H     -2.912740   -1.793233   -1.406208

 Total Charge           Charge          ....    0
 Multiplicity           Mult            ....    1
 Number of Electrons    NEL             ....   66
 Basis Dimension        Dim             ....  327

ORBITAL ENERGIES
----------------

  NO   OCC          E(Eh)            E(eV)
   0   2.0000     -20.591403      -560.3206
   1   2.0000     -20.559151      -559.4429
   2   2.0000     -11.334927      -308.4391
   3   2.0000     -11.315226      -307.9030
   4   2.0000     -11.285175      -307.0852
   5   2.0000     -11.253184      -306.2147
   6   2.0000     -11.233205      -305.6711
   7   2.0000     -11.230232      -305.5901
   8   2.0000     -11.222631      -305.3833
   9   2.0000      -1.410276       -38.3756
  10   2.0000      -1.392939       -37.9038
  11   2.0000      -1.174818       -31.9684
  12   2.0000      -1.028878       -27.9972
  13   2.0000      -0.983994       -26.7758
  14   2.0000      -0.921780       -25.0829
  15   2.0000      -0.844713       -22.9858
  16   2.0000      -0.796623       -21.6772
  17   2.0000      -0.725842       -19.7512
  18   2.0000      -0.716909       -19.5081
  19   2.0000      -0.687384       -18.7047
  20   2.0000      -0.655568       -17.8389
  21   2.0000      -0.639028       -17.3888
  22   2.0000      -0.605101       -16.4656
  23   2.0000      -0.589891       -16.0517
  24   2.0000      -0.558500       -15.1976
  25   2.0000      -0.552695       -15.0396
  26   2.0000      -0.537475       -14.6254
  27   2.0000      -0.528271       -14.3750
  28   2.0000      -0.479526       -13.0486
  29   2.0000      -0.440991       -12.0000
  30   2.0000      -0.422069       -11.4851
  31   2.0000      -0.384770       -10.4701
  32   2.0000      -0.363587        -9.8937
  33   0.0000       0.110753         3.0137
  34   0.0000       0.129050         3.5116
  35   0.0000       0.152591         4.1522
  36   0.0000       0.168738         4.5916
  37   0.0000       0.175411         4.7732

MULLIKEN ATOMIC CHARGES
-----------------------
   0 C :   -0.395884
   1 C :   -0.122022
   2 C :   -0.309856
   3 C :    0.174528
   4 O :   -0.459305
   5 C :    0.066311
   6 O :   -0.265371
   7 C :    0.055902
   8 C :   -0.114220
   9 H :    0.143814
  10 H :    0.143722
  11 H :    0.142387
  12 H :    0.159348
  13 H :    0.155293
  14 H :    0.335797
  15 H :    0.097407
  16 H :    0.192149
Sum of atomic charges:    0.0000000

LOEWDIN ATOMIC CHARGES
----------------------
   0 C :   -0.239454
   1 C :   -0.208794
   2 C :   -0.140985
   3 C :   -0.320115
   4 O :    0.040685
   5 C :   -0.266866
   6 O :    0.150018
   7 C :   -0.066897
   8 C :   -0.079098
   9 H :    0.131430
  10 H :    0.133862
  11 H :    0.135058
  12 H :    0.152581
  13 H :    0.143740
  14 H :    0.187109
  15 H :    0.119784
  16 H :    0.127940

  Mayer bond orders larger than 0.1
B(  0-C ,  1-C ) :   0.9541 B(  0-C ,  9-H ) :   0.9209 B(  0-C , 10-H ) :   0.9333
B(  0-C , 11-H ) :   0.9345 B(  1-C ,  2-C ) :   0.8389 B(  1-C ,  3-C ) :   0.7763
B(  1-C ,  7-C ) :   1.2228 B(  1-C ,  8-C ) :  -0.1500 B(  2-C ,  3-C ) :   0.8874
B(  2-C , 12-H ) :   0.9035 B(  2-C , 13-H ) :   0.9209 B(  3-C ,  4-O ) :   1.0473
B(  3-C ,  5-C ) :   0.8908 B(  4-O , 14-H ) :   0.8320 B(  5-C ,  6-O ) :   1.9668
B(  5-C , 15-H ) :   0.9418 B(  7-C ,  8-C ) :   2.5717 B(  8-C , 16-H ) :   0.8808

MP2 TOTAL ENERGY:     -421.070593403 Eh
FINAL SINGLE POINT ENERGY      -421.070593402735

DIPOLE MOMENT
-------------
                                X             Y             Z
Electronic contribution:     -0.75092      -5.07057       1.77382
Nuclear contribution   :      1.48040       5.75209      -1.68763
                        -----------------------------------------
Total Dipole Moment    :      0.72948       0.68152       0.08620
                        -----------------------------------------
Magnitude (a.u.)       :      1.00202
Magnitude (Debye)      :      2.54694

                             ****ORCA TERMINATED NORMALLY****
TOTAL RUN TIME: 0 days 0 hours 17 minutes 4 seconds 938 msec
