                         Program Version 3.0.3 - RELEASE   -
|  1> ! RI-MP2 RIJK def2-TZVP def2-TZVP/C def2-TZVP/JK TIGHTSCF
|  2> % maxcore 2000
|  3> % mp2 density relaxed end
|  4> *xyz 0 1
|  5>  N        0.0768739774     1.3448306450     0.2931561536
|  6>  C       -0.0281371017    -0.0106450313     0.0559561380
|  7>  N       -1.1378631270    -0.7239298644     0.1053124054
|  8>  C       -0.7177708977    -1.9689120923    -0.2828792727
|  9>  N        0.5680629049    -2.0673356715    -0.5643925626
| 10>  N        1.0027445225    -0.7916060071    -0.3380896286
| 11>  C       -1.6563044677    -3.1099449608    -0.3539807359
| 12>  C       -1.3193463467    -4.3574258511    -1.0537659387
| 13>  O       -1.3050273418    -4.3007855145     0.3689388875
| 14>  H        0.9150530295     1.6344214450     0.7780302855
| 15>  H       -0.7547435227     1.7026224298     0.7429167933
| 16>  H        1.9627464703    -0.5499604499    -0.5168976994
| 17>  H       -2.6993266385    -2.8162082528    -0.2586918105
| 18>  H       -2.1173628255    -4.9534176613    -1.4956750732
| 19>  H       -0.3429589851    -4.4404508927    -1.5264497218
| 20> *
| 21>
| 22>                          ****END OF INPUT****

CARTESIAN COORDINATES (ANGSTROEM)
---------------------------------
  N      0.076874    1.344831    0.293156
  C     -0.028137   -0.010645    0.055956
  N     -1.137863   -0.723930    0.105312
  C     -0.717771   -1.968912   -0.282879
  N      0.568063   -2.067336   -0.564393
  N      1.002745   -0.791606   -0.338090
  C     -1.656304   -3.109945   -0.353981
  C     -1.319346   -4.357426   -1.053766
  O     -1.305027   -4.300786    0.368939
  H      0.915053    1.634421    0.778030
  H     -0.754744    1.702622    0.742917
  H      1.962746   -0.549960   -0.516898
  H     -2.699327   -2.816208   -0.258692
  H     -2.117363   -4.953418   -1.495675
  H     -0.342959   -4.440451   -1.526450

 Total Charge           Charge          ....    0
 Multiplicity           Mult            ....    1
 Number of Electrons    NEL             ....   66
 Basis Dimension        Dim             ....  315

ORBITAL ENERGIES
----------------

  NO   OCC          E(Eh)            E(eV)
   0   2.0000     -20.566570      -559.6448
   1   2.0000     -15.641176      -425.6180
   2   2.0000     -15.599609      -424.4869
   3   2.0000     -15.585105      -424.0923
   4   2.0000     -15.548906      -423.1072
   5   2.0000     -11.359551      -309.1091
   6   2.0000     -11.294148      -307.3294
   7   2.0000     -11.289659      -307.2073
   8   2.0000     -11.280001      -306.9444
   9   2.0000      -1.416145       -38.5353
  10   2.0000      -1.403941       -38.2032
  11   2.0000      -1.252085       -34.0710
  12   2.0000      -1.191063       -32.4105
  13   2.0000      -1.096500       -29.8373
  14   2.0000      -0.952371       -25.9153
  15   2.0000      -0.891139       -24.2491
  16   2.0000      -0.848355       -23.0849
  17   2.0000      -0.793813       -21.6008
  18   2.0000      -0.762475       -20.7480
  19   2.0000      -0.698584       -19.0094
  20   2.0000      -0.685379       -18.6501
  21   2.0000      -0.656474       -17.8636
  22   2.0000      -0.650290       -17.6953
  23   2.0000      -0.629475       -17.1289
  24   2.0000      -0.552787       -15.0421
  25   2.0000      -0.540787       -14.7156
  26   2.0000      -0.509714       -13.8700
  27   2.0000      -0.504450       -13.7268
  28   2.0000      -0.462236       -12.5781
  29   2.0000      -0.449763       -12.2387
  30   2.0000      -0.445806       -12.1310
  31   2.0000      -0.408235       -11.1086
  32   2.0000      -0.341157        -9.2833
  33   0.0000       0.109500         2.9796
  34   0.0000       0.146502         3.9865
  35   0.0000       0.153538         4.1780
  36   0.0000       0.177597         4.8327
  37   0.0000       0.187240         5.0950

MULLIKEN ATOMIC CHARGES
-----------------------
   0 N :   -0.516856
   1 C :    0.324062
   2 N :   -0.328830
   3 C :    0.129861
   4 N :   -0.202974
   5 N :   -0.169171
   6 C :   -0.030368
   7 C :   -0.051950
   8 O :   -0.325809
   9 H :    0.255549
  10 H :    0.276933
  11 H :    0.260438
  12 H :    0.129134
  13 H :    0.116167
  14 H :    0.133814
Sum of atomic charges:   -0.0000000

LOEWDIN ATOMIC CHARGES
----------------------
   0 N :   -0.066869
   1 C :   -0.435096
   2 N :    0.104267
   3 C :   -0.353268
   4 N :    0.050412
   5 N :    0.128942
   6 C :   -0.255922
   7 C :   -0.259184
   8 O :    0.151779
   9 H :    0.171706
  10 H :    0.184307
  11 H :    0.188726
  12 H :    0.147466
  13 H :    0.117802
  14 H :    0.124930

  Mayer bond orders larger than 0.1
B(  0-N ,  1-C ) :   1.0639 B(  0-N ,  9-H ) :   0.8721 B(  0-N , 10-H ) :   0.8659
B(  1-C ,  2-N ) :   1.4953 B(  1-C ,  5-N ) :   1.2204 B(  2-N ,  3-C ) :   1.3312
B(  3-C ,  4-N ) :   1.6340 B(  3-C ,  6-C ) :   0.9112 B(  4-N ,  5-N ) :   1.0195
B(  5-N , 11-H ) :   0.8638 B(  6-C ,  7-C ) :   0.9593 B(  6-C ,  8-O ) :   0.9190
B(  6-C , 12-H ) :   0.9451 B(  7-C ,  8-O ) :   0.9080 B(  7-C , 13-H ) :   0.9198
B(  7-C , 14-H ) :   0.9123

MP2 TOTAL ENERGY:     -449.392171128 Eh
FINAL SINGLE POINT ENERGY      -449.392171128386

DIPOLE MOMENT
-------------
                                X             Y             Z
Electronic contribution:      0.95842       0.28211       0.96861
Nuclear contribution   :     -0.10254       1.10735      -1.09619
                        -----------------------------------------
Total Dipole Moment    :      0.85589       1.38947      -0.12758
                        -----------------------------------------
Magnitude (a.u.)       :      1.63690
Magnitude (Debye)      :      4.16067

                             ****ORCA TERMINATED NORMALLY****
TOTAL RUN TIME: 0 days 0 hours 15 minutes 30 seconds 869 msec
