                         Program Version 3.0.3 - RELEASE   -
|  1> ! RI-MP2 RIJK def2-TZVP def2-TZVP/C def2-TZVP/JK TIGHTSCF
|  2> % maxcore 2000
|  3> % mp2 density relaxed end
|  4> *xyz 0 1
|  5>  C       -0.1459797121     1.5228958974    -0.1228293756
|  6>  C        0.0331583201     0.0192739447     0.0108661475
|  7>  O        0.7535804795    -0.4096142356    -1.1486525785
|  8>  C        0.9325539970    -1.8144087584    -1.1740684945
|  9>  C        1.6525507912    -2.2796709734     0.0849932827
| 10>  O        0.9257113554    -1.8679016190     1.2362429882
| 11>  C        0.7534228739    -0.4687603972     1.2597675341
| 12>  C        1.8408928880     0.3181832248     1.9487787113
| 13>  C        0.5037283381     0.0780784741     2.6263164781
| 14>  H        0.8221389354     2.0292676597    -0.1609668892
| 15>  H       -0.6740959642     1.7387777602    -1.0549157289
| 16>  H       -0.7310039705     1.9313174409     0.7051910157
| 17>  H       -0.9567269800    -0.4707485763     0.0063406229
| 18>  H       -0.0428912252    -2.3237401042    -1.2470814384
| 19>  H        1.5157597670    -2.0454000045    -2.0712066515
| 20>  H        1.7163746061    -3.3713096722     0.1256977102
| 21>  H        2.6703212651    -1.8609900514     0.1070899374
| 22>  H        2.6895150848    -0.2491681370     2.3134731096
| 23>  H        2.0743256813     1.3196659899     1.6071326625
| 24>  H       -0.1758192977     0.9143520293     2.7434161475
| 25>  H        0.4736545567    -0.6502466417     3.4287814489
| 26> *
| 27>
| 28>                          ****END OF INPUT****

CARTESIAN COORDINATES (ANGSTROEM)
---------------------------------
  C     -0.145980    1.522896   -0.122829
  C      0.033158    0.019274    0.010866
  O      0.753580   -0.409614   -1.148653
  C      0.932554   -1.814409   -1.174068
  C      1.652551   -2.279671    0.084993
  O      0.925711   -1.867902    1.236243
  C      0.753423   -0.468760    1.259768
  C      1.840893    0.318183    1.948779
  C      0.503728    0.078078    2.626316
  H      0.822139    2.029268   -0.160967
  H     -0.674096    1.738778   -1.054916
  H     -0.731004    1.931317    0.705191
  H     -0.956727   -0.470749    0.006341
  H     -0.042891   -2.323740   -1.247081
  H      1.515760   -2.045400   -2.071207
  H      1.716375   -3.371310    0.125698
  H      2.670321   -1.860990    0.107090
  H      2.689515   -0.249168    2.313473
  H      2.074326    1.319666    1.607133
  H     -0.175819    0.914352    2.743416
  H      0.473655   -0.650247    3.428781

 Total Charge           Charge          ....    0
 Multiplicity           Mult            ....    1
 Number of Electrons    NEL             ....   70
 Basis Dimension        Dim             ....  351

ORBITAL ENERGIES
----------------

  NO   OCC          E(Eh)            E(eV)
   0   2.0000     -20.559448      -559.4510
   1   2.0000     -20.553809      -559.2976
   2   2.0000     -11.284332      -307.0623
   3   2.0000     -11.283439      -307.0380
   4   2.0000     -11.274526      -306.7954
   5   2.0000     -11.273748      -306.7743
   6   2.0000     -11.225979      -305.4744
   7   2.0000     -11.224625      -305.4376
   8   2.0000     -11.217733      -305.2500
   9   2.0000      -1.400534       -38.1105
  10   2.0000      -1.357746       -36.9461
  11   2.0000      -1.140033       -31.0219
  12   2.0000      -1.033673       -28.1277
  13   2.0000      -0.979052       -26.6413
  14   2.0000      -0.876706       -23.8564
  15   2.0000      -0.855892       -23.2900
  16   2.0000      -0.827529       -22.5182
  17   2.0000      -0.751164       -20.4402
  18   2.0000      -0.693474       -18.8704
  19   2.0000      -0.675433       -18.3795
  20   2.0000      -0.656290       -17.8586
  21   2.0000      -0.643910       -17.5217
  22   2.0000      -0.609889       -16.5959
  23   2.0000      -0.591170       -16.0865
  24   2.0000      -0.579873       -15.7791
  25   2.0000      -0.556593       -15.1457
  26   2.0000      -0.545113       -14.8333
  27   2.0000      -0.526001       -14.3132
  28   2.0000      -0.510787       -13.8992
  29   2.0000      -0.507710       -13.8155
  30   2.0000      -0.479908       -13.0589
  31   2.0000      -0.456567       -12.4238
  32   2.0000      -0.439281       -11.9534
  33   2.0000      -0.401003       -10.9118
  34   2.0000      -0.384579       -10.4649
  35   0.0000       0.146809         3.9949
  36   0.0000       0.156808         4.2670
  37   0.0000       0.161358         4.3908
  38   0.0000       0.181516         4.9393
  39   0.0000       0.190076         5.1722

MULLIKEN ATOMIC CHARGES
-----------------------
   0 C :   -0.387154
   1 C :    0.084165
   2 O :   -0.303480
   3 C :   -0.071240
   4 C :   -0.040881
   5 O :   -0.302001
   6 C :    0.181884
   7 C :   -0.310055
   8 C :   -0.281133
   9 H :    0.129571
  10 H :    0.144652
  11 H :    0.127528
  12 H :    0.071042
  13 H :    0.087901
  14 H :    0.123017
  15 H :    0.123207
  16 H :    0.087981
  17 H :    0.135678
  18 H :    0.130646
  19 H :    0.135327
  20 H :    0.133344
Sum of atomic charges:   -0.0000000

LOEWDIN ATOMIC CHARGES
----------------------
   0 C :   -0.281871
   1 C :   -0.305029
   2 O :    0.174924
   3 C :   -0.326779
   4 C :   -0.314280
   5 O :    0.207681
   6 C :   -0.328380
   7 C :   -0.207390
   8 C :   -0.199383
   9 H :    0.127408
  10 H :    0.130769
  11 H :    0.126686
  12 H :    0.144753
  13 H :    0.121694
  14 H :    0.131323
  15 H :    0.130828
  16 H :    0.123334
  17 H :    0.137721
  18 H :    0.132360
  19 H :    0.133192
  20 H :    0.140437

  Mayer bond orders larger than 0.1
B(  0-C ,  1-C ) :   0.8769 B(  0-C ,  9-H ) :   0.9375 B(  0-C , 10-H ) :   0.9336
B(  0-C , 11-H ) :   0.9371 B(  1-C ,  2-O ) :   0.9496 B(  1-C ,  6-C ) :   0.9227
B(  1-C , 12-H ) :   0.9324 B(  2-O ,  3-C ) :   0.9399 B(  3-C ,  4-C ) :   0.9667
B(  3-C , 13-H ) :   0.9268 B(  3-C , 14-H ) :   0.9163 B(  4-C ,  5-O ) :   0.9119
B(  4-C , 15-H ) :   0.9170 B(  4-C , 16-H ) :   0.9202 B(  5-O ,  6-C ) :   0.9769
B(  6-C ,  7-C ) :   0.8644 B(  6-C ,  8-C ) :   0.8622 B(  7-C ,  8-C ) :   0.9197
B(  7-C , 17-H ) :   0.9184 B(  7-C , 18-H ) :   0.9201 B(  8-C , 19-H ) :   0.9286
B(  8-C , 20-H ) :   0.9139

MP2 TOTAL ENERGY:     -423.506675944 Eh
FINAL SINGLE POINT ENERGY      -423.506675944098

DIPOLE MOMENT
-------------
                                X             Y             Z
Electronic contribution:      0.29015      -3.35753      -0.51426
Nuclear contribution   :     -0.26471       3.37068       0.49996
                        -----------------------------------------
Total Dipole Moment    :      0.02544       0.01315      -0.01431
                        -----------------------------------------
Magnitude (a.u.)       :      0.03201
Magnitude (Debye)      :      0.08136

                             ****ORCA TERMINATED NORMALLY****
TOTAL RUN TIME: 0 days 0 hours 18 minutes 59 seconds 518 msec
