                         Program Version 3.0.3 - RELEASE   -
|  1> ! RI-MP2 RIJK def2-TZVP def2-TZVP/C def2-TZVP/JK TIGHTSCF
|  2> % maxcore 2000
|  3> % mp2 density relaxed end
|  4> *xyz 0 1
|  5>  O        0.4544795554     1.2137309420     0.1018405213
|  6>  C        0.1224305365    -0.1082020899    -0.2356807237
|  7>  C       -1.3815648111    -0.4455285043    -0.0780570912
|  8>  C       -2.2354286803    -0.1186021995    -1.3169153574
|  9>  C       -2.3149147379     1.3077157365    -1.7994495196
| 10>  O       -1.6394838354     2.2393457377    -1.4297247248
| 11>  C       -1.5669008683    -1.9387987391     0.2699141887
| 12>  C       -1.0410904052    -2.2873195700     1.6469923059
| 13>  O       -0.3030557917    -3.2057589685     1.8901389137
| 14>  H       -0.1332095735     1.7970604952    -0.4016349787
| 15>  H        0.4421973333    -0.3732234796    -1.2605614906
| 16>  H        0.7030846602    -0.7457682950     0.4406022306
| 17>  H       -1.7460638759     0.1560871812     0.7653032491
| 18>  H       -1.8930431815    -0.7057295935    -2.1853489855
| 19>  H       -3.2753588416    -0.4448355508    -1.1670102411
| 20>  H       -3.0866513999     1.4673811506    -2.5838143736
| 21>  H       -2.6392801626    -2.1838542144     0.2718810559
| 22>  H       -1.0803523793    -2.5901510123    -0.4640290933
| 23>  H       -1.4076959513    -1.6147106364     2.4579985842
| 24> *
| 25>
| 26>                          ****END OF INPUT****

CARTESIAN COORDINATES (ANGSTROEM)
---------------------------------
  O      0.454480    1.213731    0.101841
  C      0.122431   -0.108202   -0.235681
  C     -1.381565   -0.445529   -0.078057
  C     -2.235429   -0.118602   -1.316915
  C     -2.314915    1.307716   -1.799450
  O     -1.639484    2.239346   -1.429725
  C     -1.566901   -1.938799    0.269914
  C     -1.041090   -2.287320    1.646992
  O     -0.303056   -3.205759    1.890139
  H     -0.133210    1.797060   -0.401635
  H      0.442197   -0.373223   -1.260561
  H      0.703085   -0.745768    0.440602
  H     -1.746064    0.156087    0.765303
  H     -1.893043   -0.705730   -2.185349
  H     -3.275359   -0.444836   -1.167010
  H     -3.086651    1.467381   -2.583814
  H     -2.639280   -2.183854    0.271881
  H     -1.080352   -2.590151   -0.464029
  H     -1.407696   -1.614711    2.457999

 Total Charge           Charge          ....    0
 Multiplicity           Mult            ....    1
 Number of Electrons    NEL             ....   70
 Basis Dimension        Dim             ....  339

ORBITAL ENERGIES
----------------

  NO   OCC          E(Eh)            E(eV)
   0   2.0000     -20.587549      -560.2157
   1   2.0000     -20.564645      -559.5924
   2   2.0000     -20.539466      -558.9073
   3   2.0000     -11.364262      -309.2373
   4   2.0000     -11.340054      -308.5786
   5   2.0000     -11.281511      -306.9855
   6   2.0000     -11.271550      -306.7145
   7   2.0000     -11.263893      -306.5061
   8   2.0000     -11.256737      -306.3114
   9   2.0000      -1.427981       -38.8573
  10   2.0000      -1.403782       -38.1988
  11   2.0000      -1.351934       -36.7880
  12   2.0000      -1.125492       -30.6262
  13   2.0000      -1.030275       -28.0352
  14   2.0000      -0.950898       -25.8752
  15   2.0000      -0.868578       -23.6352
  16   2.0000      -0.804735       -21.8979
  17   2.0000      -0.789007       -21.4700
  18   2.0000      -0.714637       -19.4463
  19   2.0000      -0.697201       -18.9718
  20   2.0000      -0.679882       -18.5005
  21   2.0000      -0.667158       -18.1543
  22   2.0000      -0.641764       -17.4633
  23   2.0000      -0.623647       -16.9703
  24   2.0000      -0.620588       -16.8871
  25   2.0000      -0.585526       -15.9330
  26   2.0000      -0.578286       -15.7359
  27   2.0000      -0.557792       -15.1783
  28   2.0000      -0.533108       -14.5066
  29   2.0000      -0.515073       -14.0158
  30   2.0000      -0.509415       -13.8619
  31   2.0000      -0.479881       -13.0582
  32   2.0000      -0.455059       -12.3828
  33   2.0000      -0.432097       -11.7580
  34   2.0000      -0.424680       -11.5561
  35   0.0000       0.107890         2.9358
  36   0.0000       0.112491         3.0610
  37   0.0000       0.129288         3.5181
  38   0.0000       0.143224         3.8973
  39   0.0000       0.155598         4.2340

MULLIKEN ATOMIC CHARGES
-----------------------
   0 O :   -0.479340
   1 C :   -0.034580
   2 C :   -0.164547
   3 C :   -0.224595
   4 C :    0.135344
   5 O :   -0.311001
   6 C :   -0.150136
   7 C :    0.073183
   8 O :   -0.254262
   9 H :    0.334825
  10 H :    0.089468
  11 H :    0.127160
  12 H :    0.115097
  13 H :    0.151587
  14 H :    0.143873
  15 H :    0.108184
  16 H :    0.130871
  17 H :    0.129177
  18 H :    0.079690
Sum of atomic charges:    0.0000000

LOEWDIN ATOMIC CHARGES
----------------------
   0 O :   -0.041733
   1 C :   -0.332847
   2 C :   -0.257113
   3 C :   -0.254687
   4 C :   -0.279959
   5 O :    0.127762
   6 C :   -0.241742
   7 C :   -0.297663
   8 O :    0.137572
   9 H :    0.163271
  10 H :    0.119242
  11 H :    0.135309
  12 H :    0.160745
  13 H :    0.164816
  14 H :    0.158677
  15 H :    0.121474
  16 H :    0.153936
  17 H :    0.150102
  18 H :    0.112838

  Mayer bond orders larger than 0.1
B(  0-O ,  1-C ) :   0.9677 B(  0-O ,  9-H ) :   0.8044 B(  1-C ,  2-C ) :   0.9107
B(  1-C , 10-H ) :   0.9153 B(  1-C , 11-H ) :   0.9285 B(  2-C ,  3-C ) :   0.8908
B(  2-C ,  6-C ) :   0.8718 B(  2-C , 12-H ) :   0.9379 B(  3-C ,  4-C ) :   0.9002
B(  3-C , 13-H ) :   0.8897 B(  3-C , 14-H ) :   0.9128 B(  4-C ,  5-O ) :   1.8957
B(  4-C , 15-H ) :   0.9459 B(  6-C ,  7-C ) :   0.8779 B(  6-C , 16-H ) :   0.9128
B(  6-C , 17-H ) :   0.8943 B(  7-C ,  8-O ) :   2.0040 B(  7-C , 18-H ) :   0.9397

MP2 TOTAL ENERGY:     -459.437280694 Eh
FINAL SINGLE POINT ENERGY      -459.437280693768

DIPOLE MOMENT
-------------
                                X             Y             Z
Electronic contribution:      1.49115       1.46977       1.84432
Nuclear contribution   :     -3.18795      -1.69072      -2.89704
                        -----------------------------------------
Total Dipole Moment    :     -1.69681      -0.22094      -1.05271
                        -----------------------------------------
Magnitude (a.u.)       :      2.00902
Magnitude (Debye)      :      5.10653

                             ****ORCA TERMINATED NORMALLY****
TOTAL RUN TIME: 0 days 0 hours 18 minutes 6 seconds 309 msec
