                         Program Version 3.0.3 - RELEASE   -
|  1> ! RI-MP2 RIJK def2-TZVP def2-TZVP/C def2-TZVP/JK TIGHTSCF
|  2> % maxcore 2000
|  3> % mp2 density relaxed end
|  4> *xyz 0 1
|  5>  C        0.0134725834     1.4095590477    -0.2648487583
|  6>  O       -0.0134993819     0.1245276475     0.3224284005
|  7>  C       -1.2279729372    -0.5422938265     0.1567893115
|  8>  C       -1.4924182073    -1.4815462877    -1.0710019763
|  9>  C       -1.8795251558    -1.1690180857    -2.4822562885
| 10>  C       -0.4151436009    -2.4517980635    -0.5255239021
| 11>  C       -1.3017843087    -2.0005376359     0.6645685405
| 12>  C       -1.3664895317    -2.5150370202     2.0669038768
| 13>  O       -2.4951316535    -2.1592584378    -0.2097330717
| 14>  H        0.9779466955     1.8587454908    -0.0171157009
| 15>  H       -0.0867430249     1.3665916817    -1.3590148770
| 16>  H       -0.7897595892     2.0494319637     0.1304880330
| 17>  H       -2.0940113954     0.0758582641     0.4297821009
| 18>  H       -1.0501625995    -0.6826691686    -3.0056144021
| 19>  H       -2.1346800174    -2.0862282168    -3.0225754466
| 20>  H       -2.7462804578    -0.5011293206    -2.5070665083
| 21>  H       -0.5451006295    -3.4940449359    -0.8234471886
| 22>  H        0.6237372561    -2.1186690746    -0.5369687259
| 23>  H       -0.4385221166    -2.2735229842     2.5944121221
| 24>  H       -2.2012123291    -2.0562769073     2.6058158925
| 25>  H       -1.4998896587    -3.6009254001     2.0766591887
| 26> *
| 27>
| 28>                          ****END OF INPUT****

CARTESIAN COORDINATES (ANGSTROEM)
---------------------------------
  C      0.013473    1.409559   -0.264849
  O     -0.013499    0.124528    0.322428
  C     -1.227973   -0.542294    0.156789
  C     -1.492418   -1.481546   -1.071002
  C     -1.879525   -1.169018   -2.482256
  C     -0.415144   -2.451798   -0.525524
  C     -1.301784   -2.000538    0.664569
  C     -1.366490   -2.515037    2.066904
  O     -2.495132   -2.159258   -0.209733
  H      0.977947    1.858745   -0.017116
  H     -0.086743    1.366592   -1.359015
  H     -0.789760    2.049432    0.130488
  H     -2.094011    0.075858    0.429782
  H     -1.050163   -0.682669   -3.005614
  H     -2.134680   -2.086228   -3.022575
  H     -2.746280   -0.501129   -2.507067
  H     -0.545101   -3.494045   -0.823447
  H      0.623737   -2.118669   -0.536969
  H     -0.438522   -2.273523    2.594412
  H     -2.201212   -2.056277    2.605816
  H     -1.499890   -3.600925    2.076659

 Total Charge           Charge          ....    0
 Multiplicity           Mult            ....    1
 Number of Electrons    NEL             ....   70
 Basis Dimension        Dim             ....  351

ORBITAL ENERGIES
----------------

  NO   OCC          E(Eh)            E(eV)
   0   2.0000     -20.564583      -559.5907
   1   2.0000     -20.540534      -558.9363
   2   2.0000     -11.295147      -307.3566
   3   2.0000     -11.294497      -307.3389
   4   2.0000     -11.284413      -307.0645
   5   2.0000     -11.278579      -306.9057
   6   2.0000     -11.224302      -305.4288
   7   2.0000     -11.224180      -305.4255
   8   2.0000     -11.219866      -305.3081
   9   2.0000      -1.403209       -38.1833
  10   2.0000      -1.372108       -37.3369
  11   2.0000      -1.065998       -29.0073
  12   2.0000      -1.020397       -27.7664
  13   2.0000      -0.971951       -26.4481
  14   2.0000      -0.948124       -25.7998
  15   2.0000      -0.889804       -24.2128
  16   2.0000      -0.777181       -21.1482
  17   2.0000      -0.741589       -20.1796
  18   2.0000      -0.671439       -18.2708
  19   2.0000      -0.658674       -17.9234
  20   2.0000      -0.643787       -17.5183
  21   2.0000      -0.619458       -16.8563
  22   2.0000      -0.600150       -16.3309
  23   2.0000      -0.590428       -16.0664
  24   2.0000      -0.580119       -15.7858
  25   2.0000      -0.566901       -15.4262
  26   2.0000      -0.555644       -15.1199
  27   2.0000      -0.527184       -14.3454
  28   2.0000      -0.504917       -13.7395
  29   2.0000      -0.491493       -13.3742
  30   2.0000      -0.472785       -12.8651
  31   2.0000      -0.465089       -12.6557
  32   2.0000      -0.438669       -11.9368
  33   2.0000      -0.414356       -11.2752
  34   2.0000      -0.393517       -10.7081
  35   0.0000       0.134482         3.6594
  36   0.0000       0.154211         4.1963
  37   0.0000       0.169773         4.6198
  38   0.0000       0.187296         5.0966
  39   0.0000       0.191752         5.2178

MULLIKEN ATOMIC CHARGES
-----------------------
   0 C :   -0.219957
   1 O :   -0.309927
   2 C :    0.157604
   3 C :    0.014391
   4 C :   -0.419512
   5 C :   -0.104541
   6 C :    0.064793
   7 C :   -0.425363
   8 O :   -0.306488
   9 H :    0.143676
  10 H :    0.112936
  11 H :    0.117742
  12 H :    0.084723
  13 H :    0.138571
  14 H :    0.147381
  15 H :    0.142808
  16 H :    0.106514
  17 H :    0.121672
  18 H :    0.147688
  19 H :    0.140995
  20 H :    0.144294
Sum of atomic charges:   -0.0000000

LOEWDIN ATOMIC CHARGES
----------------------
   0 C :   -0.349277
   1 O :    0.165582
   2 C :   -0.246748
   3 C :   -0.281322
   4 C :   -0.277444
   5 C :   -0.159697
   6 C :   -0.277764
   7 C :   -0.270971
   8 O :    0.164727
   9 H :    0.114360
  10 H :    0.102304
  11 H :    0.104551
  12 H :    0.136382
  13 H :    0.133010
  14 H :    0.135100
  15 H :    0.133917
  16 H :    0.132880
  17 H :    0.133483
  18 H :    0.138141
  19 H :    0.134650
  20 H :    0.134137

  Mayer bond orders larger than 0.1
B(  0-C ,  1-O ) :   0.9050 B(  0-C ,  9-H ) :   0.9411 B(  0-C , 10-H ) :   0.9336
B(  0-C , 11-H ) :   0.9385 B(  1-O ,  2-C ) :   0.9979 B(  2-C ,  3-C ) :   0.9064
B(  2-C ,  6-C ) :   0.9150 B(  2-C , 12-H ) :   0.9134 B(  3-C ,  4-C ) :   0.8075
B(  3-C ,  5-C ) :   0.9138 B(  3-C ,  8-O ) :   0.9496 B(  4-C , 13-H ) :   0.9385
B(  4-C , 14-H ) :   0.9435 B(  4-C , 15-H ) :   0.9464 B(  5-C ,  6-C ) :   0.9093
B(  5-C ,  8-O ) :  -0.1022 B(  5-C , 16-H ) :   0.9151 B(  5-C , 17-H ) :   0.8924
B(  6-C ,  7-C ) :   0.8142 B(  6-C ,  8-O ) :   0.9356 B(  7-C , 18-H ) :   0.9414
B(  7-C , 19-H ) :   0.9421 B(  7-C , 20-H ) :   0.9441

MP2 TOTAL ENERGY:     -423.460287995 Eh
FINAL SINGLE POINT ENERGY      -423.460287994676

DIPOLE MOMENT
-------------
                                X             Y             Z
Electronic contribution:     -1.01726      -1.83276       1.30177
Nuclear contribution   :      1.43071       2.35651      -1.53507
                        -----------------------------------------
Total Dipole Moment    :      0.41346       0.52375      -0.23329
                        -----------------------------------------
Magnitude (a.u.)       :      0.70689
Magnitude (Debye)      :      1.79676

                             ****ORCA TERMINATED NORMALLY****
TOTAL RUN TIME: 0 days 0 hours 20 minutes 9 seconds 380 msec
