                         Program Version 3.0.3 - RELEASE   -
|  1> ! RI-MP2 RIJK def2-TZVP def2-TZVP/C def2-TZVP/JK TIGHTSCF
|  2> % maxcore 2000
|  3> % mp2 density relaxed end
|  4> *xyz 0 1
|  5>  C       -0.0021089644     1.5200079717    -0.0472807114
|  6>  C        0.0564918656    -0.0214624480    -0.0197372194
|  7>  C        0.7374809881    -0.6125263185    -1.2622871802
|  8>  N       -0.0142674868    -0.3101625746    -2.4776359938
|  9>  C        0.4859857851     0.7795692049    -3.3136860324
| 10>  C        0.6557041498    -0.6370470360    -3.7320577523
| 11>  C        0.7866942962    -0.4651476324     1.2489620286
| 12>  C       -0.0557206810    -0.6086669578     2.5041322238
| 13>  O        1.9772162601    -0.6869565427     1.2530829209
| 14>  H        1.0058531267     1.9433216433    -0.1091139747
| 15>  H       -0.5772821626     1.8608134024    -0.9108919810
| 16>  H       -0.4807735291     1.9206618541     0.8518508192
| 17>  H       -0.9736800356    -0.3964798112     0.0198273299
| 18>  H        1.7817956498    -0.2640773175    -1.3094283518
| 19>  H        0.7751504167    -1.7030555510    -1.1582213658
| 20>  H       -0.2694001136     1.4072665123    -3.7781966138
| 21>  H        1.3780831722     1.3084268590    -2.9820584730
| 22>  H        1.6612374826    -1.0518289259    -3.6788548705
| 23>  H        0.0261808245    -1.0658726733    -4.5066277065
| 24>  H       -0.7186952000     0.2513862424     2.6423164774
| 25>  H       -0.7002389236    -1.4906866774     2.4038865079
| 26>  H        0.5877132696    -0.7332449538     3.3759880288
| 27> *
| 28>
| 29>                          ****END OF INPUT****

CARTESIAN COORDINATES (ANGSTROEM)
---------------------------------
  C     -0.002109    1.520008   -0.047281
  C      0.056492   -0.021462   -0.019737
  C      0.737481   -0.612526   -1.262287
  N     -0.014267   -0.310163   -2.477636
  C      0.485986    0.779569   -3.313686
  C      0.655704   -0.637047   -3.732058
  C      0.786694   -0.465148    1.248962
  C     -0.055721   -0.608667    2.504132
  O      1.977216   -0.686957    1.253083
  H      1.005853    1.943322   -0.109114
  H     -0.577282    1.860813   -0.910892
  H     -0.480774    1.920662    0.851851
  H     -0.973680   -0.396480    0.019827
  H      1.781796   -0.264077   -1.309428
  H      0.775150   -1.703056   -1.158221
  H     -0.269400    1.407267   -3.778197
  H      1.378083    1.308427   -2.982058
  H      1.661237   -1.051829   -3.678855
  H      0.026181   -1.065873   -4.506628
  H     -0.718695    0.251386    2.642316
  H     -0.700239   -1.490687    2.403887
  H      0.587713   -0.733245    3.375988

 Total Charge           Charge          ....    0
 Multiplicity           Mult            ....    1
 Number of Electrons    NEL             ....   70
 Basis Dimension        Dim             ....  357

ORBITAL ENERGIES
----------------

  NO   OCC          E(Eh)            E(eV)
   0   2.0000     -20.541315      -558.9576
   1   2.0000     -15.559805      -423.4038
   2   2.0000     -11.326901      -308.2206
   3   2.0000     -11.254919      -306.2619
   4   2.0000     -11.253636      -306.2270
   5   2.0000     -11.251554      -306.1704
   6   2.0000     -11.239324      -305.8375
   7   2.0000     -11.233613      -305.6821
   8   2.0000     -11.226836      -305.4977
   9   2.0000      -1.385794       -37.7094
  10   2.0000      -1.273618       -34.6569
  11   2.0000      -1.087106       -29.5817
  12   2.0000      -1.006145       -27.3786
  13   2.0000      -0.965332       -26.2680
  14   2.0000      -0.878436       -23.9035
  15   2.0000      -0.843544       -22.9540
  16   2.0000      -0.805114       -21.9083
  17   2.0000      -0.728419       -19.8213
  18   2.0000      -0.674367       -18.3505
  19   2.0000      -0.672830       -18.3086
  20   2.0000      -0.640730       -17.4352
  21   2.0000      -0.624835       -17.0026
  22   2.0000      -0.610217       -16.6048
  23   2.0000      -0.596213       -16.2238
  24   2.0000      -0.567571       -15.4444
  25   2.0000      -0.554124       -15.0785
  26   2.0000      -0.535971       -14.5845
  27   2.0000      -0.529567       -14.4103
  28   2.0000      -0.522196       -14.2097
  29   2.0000      -0.493695       -13.4341
  30   2.0000      -0.482906       -13.1405
  31   2.0000      -0.464069       -12.6280
  32   2.0000      -0.444507       -12.0957
  33   2.0000      -0.407351       -11.0846
  34   2.0000      -0.373854       -10.1731
  35   0.0000       0.129845         3.5333
  36   0.0000       0.145204         3.9512
  37   0.0000       0.151619         4.1258
  38   0.0000       0.165438         4.5018
  39   0.0000       0.179107         4.8738

MULLIKEN ATOMIC CHARGES
-----------------------
   0 C :   -0.447376
   1 C :    0.005781
   2 C :   -0.187076
   3 N :   -0.228961
   4 C :   -0.192342
   5 C :   -0.162488
   6 C :    0.210204
   7 C :   -0.427755
   8 O :   -0.295337
   9 H :    0.138165
  10 H :    0.154930
  11 H :    0.132533
  12 H :    0.100412
  13 H :    0.125149
  14 H :    0.125039
  15 H :    0.128611
  16 H :    0.126488
  17 H :    0.121411
  18 H :    0.130127
  19 H :    0.140297
  20 H :    0.149205
  21 H :    0.152984
Sum of atomic charges:   -0.0000000

LOEWDIN ATOMIC CHARGES
----------------------
   0 C :   -0.279423
   1 C :   -0.253879
   2 C :   -0.270064
   3 N :    0.090478
   4 C :   -0.275290
   5 C :   -0.269500
   6 C :   -0.326708
   7 C :   -0.278922
   8 O :    0.149453
   9 H :    0.128576
  10 H :    0.130438
  11 H :    0.123191
  12 H :    0.160744
  13 H :    0.132461
  14 H :    0.140024
  15 H :    0.123021
  16 H :    0.121974
  17 H :    0.123942
  18 H :    0.124129
  19 H :    0.133160
  20 H :    0.139887
  21 H :    0.132307

  Mayer bond orders larger than 0.1
B(  0-C ,  1-C ) :   0.8751 B(  0-C ,  9-H ) :   0.9364 B(  0-C , 10-H ) :   0.9353
B(  0-C , 11-H ) :   0.9306 B(  1-C ,  2-C ) :   0.9193 B(  1-C ,  6-C ) :   0.8583
B(  1-C , 12-H ) :   0.9167 B(  2-C ,  3-N ) :   0.8884 B(  2-C , 13-H ) :   0.9226
B(  2-C , 14-H ) :   0.9294 B(  3-N ,  4-C ) :   0.8865 B(  3-N ,  5-C ) :   0.8878
B(  4-C ,  5-C ) :   0.9480 B(  4-C , 15-H ) :   0.9290 B(  4-C , 16-H ) :   0.9244
B(  5-C , 17-H ) :   0.9223 B(  5-C , 18-H ) :   0.9267 B(  6-C ,  7-C ) :   0.9218
B(  6-C ,  8-O ) :   1.9811 B(  7-C , 19-H ) :   0.9165 B(  7-C , 20-H ) :   0.9148
B(  7-C , 21-H ) :   0.9409

MP2 TOTAL ENERGY:     -403.641528628 Eh
FINAL SINGLE POINT ENERGY      -403.641528628351

DIPOLE MOMENT
-------------
                                X             Y             Z
Electronic contribution:      2.55171      -2.89517       0.83207
Nuclear contribution   :     -3.12279       3.18479      -0.94468
                        -----------------------------------------
Total Dipole Moment    :     -0.57109       0.28962      -0.11261
                        -----------------------------------------
Magnitude (a.u.)       :      0.65016
Magnitude (Debye)      :      1.65256

                             ****ORCA TERMINATED NORMALLY****
TOTAL RUN TIME: 0 days 0 hours 20 minutes 4 seconds 551 msec
