                         Program Version 3.0.3 - RELEASE   -
|  1> ! RI-MP2 RIJK def2-TZVP def2-TZVP/C def2-TZVP/JK TIGHTSCF
|  2> % maxcore 2000
|  3> % mp2 density relaxed end
|  4> *xyz 0 1
|  5>  C        0.0128636617     1.5738657636     0.1655483383
|  6>  C        0.0146536385     0.0480878540     0.0344615292
|  7>  C        0.6516504827    -0.4722368772    -1.2652708771
|  8>  C        0.7798812517    -2.0191464927    -1.3214511788
|  9>  C        0.5662770762    -2.4170810109    -2.8008241044
| 10>  C       -0.1753977082    -1.2129557351    -3.3572359726
| 11>  C       -0.1195394160    -0.1633237637    -2.5262280755
| 12>  C       -0.7992478562    -1.2214996720    -4.6344695484
| 13>  N       -1.3012451893    -1.2622098041    -5.6780718065
| 14>  H        1.0307593436     1.9764262999     0.1174791955
| 15>  H       -0.5697300472     2.0513360700    -0.6292150347
| 16>  H       -0.4220509130     1.8842917241     1.1202452439
| 17>  H        0.5630462440    -0.3868130000     0.8795772935
| 18>  H       -1.0112079122    -0.3357074625     0.1048128855
| 19>  H        1.6482739291    -0.0094856995    -1.3540847581
| 20>  H        1.7323569052    -2.3750989781    -0.9219729263
| 21>  H       -0.0150613725    -2.4595905037    -0.7094799365
| 22>  H        1.5148622796    -2.5528565592    -3.3358102688
| 23>  H        0.0039513154    -3.3479291130    -2.9185719432
| 24>  H       -0.5468355430     0.8085660501    -2.7428530249
| 25> *
| 26>
| 27>                          ****END OF INPUT****

CARTESIAN COORDINATES (ANGSTROEM)
---------------------------------
  C      0.012864    1.573866    0.165548
  C      0.014654    0.048088    0.034462
  C      0.651650   -0.472237   -1.265271
  C      0.779881   -2.019146   -1.321451
  C      0.566277   -2.417081   -2.800824
  C     -0.175398   -1.212956   -3.357236
  C     -0.119539   -0.163324   -2.526228
  C     -0.799248   -1.221500   -4.634470
  N     -1.301245   -1.262210   -5.678072
  H      1.030759    1.976426    0.117479
  H     -0.569730    2.051336   -0.629215
  H     -0.422051    1.884292    1.120245
  H      0.563046   -0.386813    0.879577
  H     -1.011208   -0.335707    0.104813
  H      1.648274   -0.009486   -1.354085
  H      1.732357   -2.375099   -0.921973
  H     -0.015061   -2.459591   -0.709480
  H      1.514862   -2.552857   -3.335810
  H      0.003951   -3.347929   -2.918572
  H     -0.546836    0.808566   -2.742853

 Total Charge           Charge          ....    0
 Multiplicity           Mult            ....    1
 Number of Electrons    NEL             ....   66
 Basis Dimension        Dim             ....  345

ORBITAL ENERGIES
----------------

  NO   OCC          E(Eh)            E(eV)
   0   2.0000     -15.567942      -423.6252
   1   2.0000     -11.273701      -306.7730
   2   2.0000     -11.271466      -306.7122
   3   2.0000     -11.264908      -306.5337
   4   2.0000     -11.252115      -306.1856
   5   2.0000     -11.249187      -306.1059
   6   2.0000     -11.240229      -305.8622
   7   2.0000     -11.237810      -305.7963
   8   2.0000     -11.227551      -305.5172
   9   2.0000      -1.217027       -33.1170
  10   2.0000      -1.167102       -31.7584
  11   2.0000      -1.065989       -29.0070
  12   2.0000      -1.004249       -27.3270
  13   2.0000      -0.969642       -26.3853
  14   2.0000      -0.862748       -23.4766
  15   2.0000      -0.829171       -22.5629
  16   2.0000      -0.779516       -21.2117
  17   2.0000      -0.721024       -19.6201
  18   2.0000      -0.665089       -18.0980
  19   2.0000      -0.624584       -16.9958
  20   2.0000      -0.590045       -16.0559
  21   2.0000      -0.571001       -15.5377
  22   2.0000      -0.568628       -15.4732
  23   2.0000      -0.563008       -15.3202
  24   2.0000      -0.539451       -14.6792
  25   2.0000      -0.529765       -14.4157
  26   2.0000      -0.522593       -14.2205
  27   2.0000      -0.502976       -13.6867
  28   2.0000      -0.486501       -13.2384
  29   2.0000      -0.480372       -13.0716
  30   2.0000      -0.471291       -12.8245
  31   2.0000      -0.452740       -12.3197
  32   2.0000      -0.362430        -9.8622
  33   0.0000       0.094138         2.5616
  34   0.0000       0.126076         3.4307
  35   0.0000       0.142368         3.8740
  36   0.0000       0.153474         4.1762
  37   0.0000       0.155444         4.2298

MULLIKEN ATOMIC CHARGES
-----------------------
   0 C :   -0.406949
   1 C :   -0.216238
   2 C :    0.040662
   3 C :   -0.262092
   4 C :   -0.193426
   5 C :    0.192096
   6 C :   -0.295422
   7 C :   -0.217892
   8 N :   -0.053545
   9 H :    0.128163
  10 H :    0.127539
  11 H :    0.139937
  12 H :    0.120177
  13 H :    0.116765
  14 H :    0.104813
  15 H :    0.133047
  16 H :    0.120991
  17 H :    0.129837
  18 H :    0.142266
  19 H :    0.149272
Sum of atomic charges:   -0.0000000

LOEWDIN ATOMIC CHARGES
----------------------
   0 C :   -0.316572
   1 C :   -0.270977
   2 C :   -0.230764
   3 C :   -0.208225
   4 C :   -0.192301
   5 C :   -0.161318
   6 C :   -0.062334
   7 C :   -0.155434
   8 N :    0.071207
   9 H :    0.122213
  10 H :    0.120034
  11 H :    0.123709
  12 H :    0.140834
  13 H :    0.139152
  14 H :    0.161271
  15 H :    0.135795
  16 H :    0.143921
  17 H :    0.146982
  18 H :    0.144021
  19 H :    0.148786

  Mayer bond orders larger than 0.1
B(  0-C ,  1-C ) :   0.9198 B(  0-C ,  9-H ) :   0.9376 B(  0-C , 10-H ) :   0.9402
B(  0-C , 11-H ) :   0.9402 B(  1-C ,  2-C ) :   0.9003 B(  1-C , 12-H ) :   0.9362
B(  1-C , 13-H ) :   0.9254 B(  2-C ,  3-C ) :   0.9259 B(  2-C ,  6-C ) :   0.9246
B(  2-C , 14-H ) :   0.9085 B(  3-C ,  4-C ) :   0.9550 B(  3-C , 15-H ) :   0.9339
B(  3-C , 16-H ) :   0.9276 B(  4-C ,  5-C ) :   0.9094 B(  4-C , 17-H ) :   0.9029
B(  4-C , 18-H ) :   0.9294 B(  5-C ,  6-C ) :   1.6825 B(  5-C ,  7-C ) :   0.8989
B(  6-C , 19-H ) :   0.9179 B(  7-C ,  8-N ) :   2.8531

MP2 TOTAL ENERGY:     -365.384486008 Eh
FINAL SINGLE POINT ENERGY      -365.384486007974

DIPOLE MOMENT
-------------
                                X             Y             Z
Electronic contribution:     -3.15881      -3.38703     -12.30956
Nuclear contribution   :      3.94101       3.47576      13.96319
                        -----------------------------------------
Total Dipole Moment    :      0.78220       0.08873       1.65363
                        -----------------------------------------
Magnitude (a.u.)       :      1.83145
Magnitude (Debye)      :      4.65517

                             ****ORCA TERMINATED NORMALLY****
TOTAL RUN TIME: 0 days 0 hours 32 minutes 14 seconds 809 msec
