                         Program Version 3.0.3 - RELEASE   -
|  1> ! RI-MP2 RIJK def2-TZVP def2-TZVP/C def2-TZVP/JK TIGHTSCF
|  2> % maxcore 2000
|  3> % mp2 density relaxed end
|  4> *xyz 0 1
|  5>  O        0.0582036401     0.1230069228    -0.6661913342
|  6>  C        0.0180944907     1.1993438691    -0.1517698854
|  7>  C       -1.1282887164     2.1224916128     0.3082242217
|  8>  C       -0.0478766661     3.1211021233     0.7612778951
|  9>  C       -0.1123289887     4.6076232723     0.7006650333
| 10>  C       -0.0637008284     3.9110322179     2.0577121585
| 11>  C       -1.2386241217     3.8756715919     2.8807568088
| 12>  N       -2.1955262325     3.8225462058     3.5295348091
| 13>  C        1.1007099263     2.2051038041     0.2989211941
| 14>  H       -1.7782876162     2.4589013391    -0.5055894264
| 15>  H       -1.7549043213     1.7048551193     1.1028504686
| 16>  H        0.7757211051     5.1595729072     0.4117665421
| 17>  H       -1.0509457383     5.0703968466     0.4164229730
| 18>  H        0.8694712584     3.9726003219     2.6085438022
| 19>  H        1.7641028178     1.8260407174     1.0825394779
| 20>  H        1.7128417313     2.5891525184    -0.5235544883
| 21> *
| 22>
| 23>                          ****END OF INPUT****

CARTESIAN COORDINATES (ANGSTROEM)
---------------------------------
  O      0.058204    0.123007   -0.666191
  C      0.018094    1.199344   -0.151770
  C     -1.128289    2.122492    0.308224
  C     -0.047877    3.121102    0.761278
  C     -0.112329    4.607623    0.700665
  C     -0.063701    3.911032    2.057712
  C     -1.238624    3.875672    2.880757
  N     -2.195526    3.822546    3.529535
  C      1.100710    2.205104    0.298921
  H     -1.778288    2.458901   -0.505589
  H     -1.754904    1.704855    1.102850
  H      0.775721    5.159573    0.411767
  H     -1.050946    5.070397    0.416423
  H      0.869471    3.972600    2.608544
  H      1.764103    1.826041    1.082539
  H      1.712842    2.589153   -0.523554

 Total Charge           Charge          ....    0
 Multiplicity           Mult            ....    1
 Number of Electrons    NEL             ....   64
 Basis Dimension        Dim             ....  321

ORBITAL ENERGIES
----------------

  NO   OCC          E(Eh)            E(eV)
   0   2.0000     -20.568290      -559.6916
   1   2.0000     -15.576758      -423.8651
   2   2.0000     -11.350461      -308.8617
   3   2.0000     -11.297925      -307.4322
   4   2.0000     -11.290345      -307.2259
   5   2.0000     -11.282512      -307.0128
   6   2.0000     -11.275057      -306.8099
   7   2.0000     -11.264654      -306.5268
   8   2.0000     -11.260896      -306.4246
   9   2.0000      -1.412083       -38.4247
  10   2.0000      -1.236425       -33.6448
  11   2.0000      -1.204517       -32.7766
  12   2.0000      -1.104606       -30.0579
  13   2.0000      -0.958925       -26.0937
  14   2.0000      -0.923734       -25.1361
  15   2.0000      -0.814558       -22.1652
  16   2.0000      -0.748191       -20.3593
  17   2.0000      -0.732547       -19.9336
  18   2.0000      -0.701739       -19.0953
  19   2.0000      -0.662051       -18.0153
  20   2.0000      -0.634493       -17.2654
  21   2.0000      -0.620969       -16.8974
  22   2.0000      -0.601333       -16.3631
  23   2.0000      -0.580818       -15.8049
  24   2.0000      -0.558924       -15.2091
  25   2.0000      -0.535529       -14.5725
  26   2.0000      -0.519414       -14.1340
  27   2.0000      -0.502692       -13.6790
  28   2.0000      -0.488747       -13.2995
  29   2.0000      -0.444707       -12.1011
  30   2.0000      -0.423362       -11.5203
  31   2.0000      -0.414862       -11.2890
  32   0.0000       0.107102         2.9144
  33   0.0000       0.116324         3.1653
  34   0.0000       0.142942         3.8897
  35   0.0000       0.148058         4.0288
  36   0.0000       0.154295         4.1986

MULLIKEN ATOMIC CHARGES
-----------------------
   0 O :   -0.235437
   1 C :    0.123393
   2 C :   -0.217377
   3 C :    0.034028
   4 C :   -0.274436
   5 C :   -0.018268
   6 C :   -0.219654
   7 N :   -0.056212
   8 C :   -0.212994
   9 H :    0.145757
  10 H :    0.165553
  11 H :    0.151989
  12 H :    0.159836
  13 H :    0.163781
  14 H :    0.146167
  15 H :    0.143875
Sum of atomic charges:   -0.0000000

LOEWDIN ATOMIC CHARGES
----------------------
   0 O :    0.174604
   1 C :   -0.296862
   2 C :   -0.156593
   3 C :   -0.190059
   4 C :   -0.151338
   5 C :   -0.174861
   6 C :   -0.177328
   7 N :    0.064025
   8 C :   -0.162132
   9 H :    0.151549
  10 H :    0.156878
  11 H :    0.142848
  12 H :    0.147689
  13 H :    0.171865
  14 H :    0.149705
  15 H :    0.150012

  Mayer bond orders larger than 0.1
B(  0-O ,  1-C ) :   2.0533 B(  1-C ,  2-C ) :   0.8977 B(  1-C ,  8-C ) :   0.8881
B(  2-C ,  3-C ) :   0.9368 B(  2-C ,  8-C ) :  -0.1310 B(  2-C ,  9-H ) :   0.8994
B(  2-C , 10-H ) :   0.8926 B(  3-C ,  4-C ) :   0.8609 B(  3-C ,  5-C ) :   0.7939
B(  3-C ,  8-C ) :   0.9125 B(  4-C ,  5-C ) :   0.8604 B(  4-C , 11-H ) :   0.9247
B(  4-C , 12-H ) :   0.9235 B(  5-C ,  6-C ) :   0.9742 B(  5-C , 13-H ) :   0.9088
B(  6-C ,  7-N ) :   2.8403 B(  8-C , 14-H ) :   0.8953 B(  8-C , 15-H ) :   0.8967

MP2 TOTAL ENERGY:     -400.052722073 Eh
FINAL SINGLE POINT ENERGY      -400.052722073422

DIPOLE MOMENT
-------------
                                X             Y             Z
Electronic contribution:     -1.88877      -2.47921       1.87173
Nuclear contribution   :      3.04717       3.38455      -2.51991
                        -----------------------------------------
Total Dipole Moment    :      1.15840       0.90534      -0.64818
                        -----------------------------------------
Magnitude (a.u.)       :      1.60676
Magnitude (Debye)      :      4.08405

                             ****ORCA TERMINATED NORMALLY****
TOTAL RUN TIME: 0 days 0 hours 15 minutes 54 seconds 566 msec
