                         Program Version 3.0.3 - RELEASE   -
|  1> ! RI-MP2 RIJK def2-TZVP def2-TZVP/C def2-TZVP/JK TIGHTSCF
|  2> % maxcore 2000
|  3> % mp2 density relaxed end
|  4> *xyz 0 1
|  5>  C       -0.0643911358     1.5384041586    -0.0170942950
|  6>  C       -0.0777943375     0.0274254665     0.0440498581
|  7>  C       -1.2533782522    -0.6400289241    -0.6337998395
|  8>  O        1.1867917024    -0.6035138020    -0.1653327442
|  9>  C        0.6321526477    -0.6784040877     1.1685760979
| 10>  C        1.3276852562     0.0762462920     2.1871425590
| 11>  C        1.8950891174     0.6851062069     3.0538457183
| 12>  C        0.2007729697    -1.9884534700     1.6026521887
| 13>  C       -0.1537778911    -3.0688165897     1.9911637145
| 14>  H        0.8033100020     1.9493066271     0.4995006112
| 15>  H       -0.0347307994     1.8604861459    -1.0634642058
| 16>  H       -0.9725128677     1.9489046955     0.4357706540
| 17>  H       -1.2569255181    -0.3790996529    -1.6974773889
| 18>  H       -1.2022535969    -1.7250685439    -0.5405691773
| 19>  H       -2.1956098572    -0.2918888563    -0.1987363207
| 20>  H        2.4025490713     1.2216439419     3.8173403444
| 21>  H       -0.4618430607    -4.0266611577     2.3316661350
| 22> *
| 23>
| 24>                          ****END OF INPUT****

CARTESIAN COORDINATES (ANGSTROEM)
---------------------------------
  C     -0.064391    1.538404   -0.017094
  C     -0.077794    0.027425    0.044050
  C     -1.253378   -0.640029   -0.633800
  O      1.186792   -0.603514   -0.165333
  C      0.632153   -0.678404    1.168576
  C      1.327685    0.076246    2.187143
  C      1.895089    0.685106    3.053846
  C      0.200773   -1.988453    1.602652
  C     -0.153778   -3.068817    1.991164
  H      0.803310    1.949307    0.499501
  H     -0.034731    1.860486   -1.063464
  H     -0.972513    1.948905    0.435771
  H     -1.256926   -0.379100   -1.697477
  H     -1.202254   -1.725069   -0.540569
  H     -2.195610   -0.291889   -0.198736
  H      2.402549    1.221644    3.817340
  H     -0.461843   -4.026661    2.331666

 Total Charge           Charge          ....    0
 Multiplicity           Mult            ....    1
 Number of Electrons    NEL             ....   64
 Basis Dimension        Dim             ....  327

ORBITAL ENERGIES
----------------

  NO   OCC          E(Eh)            E(eV)
   0   2.0000     -20.584413      -560.1304
   1   2.0000     -11.343512      -308.6727
   2   2.0000     -11.316624      -307.9410
   3   2.0000     -11.247497      -306.0600
   4   2.0000     -11.247486      -306.0597
   5   2.0000     -11.239836      -305.8515
   6   2.0000     -11.239835      -305.8514
   7   2.0000     -11.229229      -305.5628
   8   2.0000     -11.229211      -305.5624
   9   2.0000      -1.430913       -38.9371
  10   2.0000      -1.083362       -29.4798
  11   2.0000      -1.051527       -28.6135
  12   2.0000      -1.034512       -28.1505
  13   2.0000      -0.958187       -26.0736
  14   2.0000      -0.946998       -25.7691
  15   2.0000      -0.806938       -21.9579
  16   2.0000      -0.776465       -21.1287
  17   2.0000      -0.720050       -19.5936
  18   2.0000      -0.699420       -19.0322
  19   2.0000      -0.676032       -18.3958
  20   2.0000      -0.623379       -16.9630
  21   2.0000      -0.594807       -16.1855
  22   2.0000      -0.587733       -15.9930
  23   2.0000      -0.553209       -15.0536
  24   2.0000      -0.540055       -14.6957
  25   2.0000      -0.527259       -14.3474
  26   2.0000      -0.491272       -13.3682
  27   2.0000      -0.467082       -12.7099
  28   2.0000      -0.423127       -11.5139
  29   2.0000      -0.407535       -11.0896
  30   2.0000      -0.394266       -10.7285
  31   2.0000      -0.373005       -10.1500
  32   0.0000       0.128168         3.4876
  33   0.0000       0.139800         3.8041
  34   0.0000       0.147351         4.0096
  35   0.0000       0.154783         4.2119
  36   0.0000       0.163675         4.4538

MULLIKEN ATOMIC CHARGES
-----------------------
   0 C :   -0.393981
   1 C :    0.194850
   2 C :   -0.393976
   3 O :   -0.304976
   4 C :   -0.250721
   5 C :    0.037190
   6 C :   -0.089388
   7 C :    0.037194
   8 C :   -0.089390
   9 H :    0.157750
  10 H :    0.138683
  11 H :    0.133172
  12 H :    0.138685
  13 H :    0.157750
  14 H :    0.133168
  15 H :    0.196996
  16 H :    0.196995
Sum of atomic charges:   -0.0000000

LOEWDIN ATOMIC CHARGES
----------------------
   0 C :   -0.256835
   1 C :   -0.306463
   2 C :   -0.256834
   3 O :    0.231646
   4 C :   -0.263583
   5 C :   -0.047170
   6 C :   -0.063477
   7 C :   -0.047171
   8 C :   -0.063477
   9 H :    0.138462
  10 H :    0.133819
  11 H :    0.134202
  12 H :    0.133820
  13 H :    0.138462
  14 H :    0.134202
  15 H :    0.130198
  16 H :    0.130198

  Mayer bond orders larger than 0.1
B(  0-C ,  1-C ) :   0.8943 B(  0-C ,  9-H ) :   0.9347 B(  0-C , 10-H ) :   0.9331
B(  0-C , 11-H ) :   0.9240 B(  1-C ,  2-C ) :   0.8943 B(  1-C ,  3-O ) :   0.8895
B(  1-C ,  4-C ) :   0.9844 B(  2-C , 12-H ) :   0.9331 B(  2-C , 13-H ) :   0.9347
B(  2-C , 14-H ) :   0.9240 B(  3-O ,  4-C ) :   0.9301 B(  4-C ,  5-C ) :   1.1612
B(  4-C ,  6-C ) :  -0.1403 B(  4-C ,  7-C ) :   1.1612 B(  4-C ,  8-C ) :  -0.1403
B(  5-C ,  6-C ) :   2.5625 B(  6-C , 15-H ) :   0.8882 B(  7-C ,  8-C ) :   2.5625
B(  8-C , 16-H ) :   0.8882

MP2 TOTAL ENERGY:     -383.912118357 Eh
FINAL SINGLE POINT ENERGY      -383.912118356504

DIPOLE MOMENT
-------------
                                X             Y             Z
Electronic contribution:      4.94485      -3.83399       4.00950
Nuclear contribution   :     -5.60857       4.12691      -3.76452
                        -----------------------------------------
Total Dipole Moment    :     -0.66372       0.29293       0.24498
                        -----------------------------------------
Magnitude (a.u.)       :      0.76573
Magnitude (Debye)      :      1.94633

                             ****ORCA TERMINATED NORMALLY****
TOTAL RUN TIME: 0 days 0 hours 17 minutes 55 seconds 589 msec
