                         Program Version 3.0.3 - RELEASE   -
|  1> ! RI-MP2 RIJK def2-TZVP def2-TZVP/C def2-TZVP/JK TIGHTSCF
|  2> % maxcore 2000
|  3> % mp2 density relaxed end
|  4> *xyz 0 1
|  5>  C        0.7673064532     1.1727260064     0.1900924737
|  6>  N       -0.0819967858    -0.0039430718     0.0287940301
|  7>  C       -0.9015460760    -0.3369303050     1.0715664542
|  8>  O       -0.9417126831     0.2526099287     2.1339259997
|  9>  C       -0.0330024817    -0.7185757533    -1.2680521045
| 10>  C        1.4146904044    -1.1959678664    -1.5378403503
| 11>  C       -0.9660298120    -1.9475172638    -1.3122862093
| 12>  C       -0.4474682925     0.2047477994    -2.3424447411
| 13>  C       -0.7825956922     0.9404186227    -3.2317585843
| 14>  H        1.8078643134     0.8985271087     0.3959806995
| 15>  H        0.7317707111     1.7855790731    -0.7143269478
| 16>  H        0.3854113143     1.7388374481     1.0387158262
| 17>  H       -1.5386740865    -1.2085846871     0.8681659228
| 18>  H        1.7312048181    -1.8752874352    -0.7407340629
| 19>  H        1.4603296623    -1.7228732271    -2.4940604018
| 20>  H        2.1108749018    -0.3570727657    -1.5829279563
| 21>  H       -2.0145622624    -1.6728946005    -1.1833566247
| 22>  H       -0.8623139638    -2.4125680757    -2.2949572126
| 23>  H       -0.6870128378    -2.6839778392    -0.5538064522
| 24>  H       -1.0853036446     1.5955371436    -4.0114247585
| 25> *
| 26>
| 27>                          ****END OF INPUT****

CARTESIAN COORDINATES (ANGSTROEM)
---------------------------------
  C      0.767306    1.172726    0.190092
  N     -0.081997   -0.003943    0.028794
  C     -0.901546   -0.336930    1.071566
  O     -0.941713    0.252610    2.133926
  C     -0.033002   -0.718576   -1.268052
  C      1.414690   -1.195968   -1.537840
  C     -0.966030   -1.947517   -1.312286
  C     -0.447468    0.204748   -2.342445
  C     -0.782596    0.940419   -3.231759
  H      1.807864    0.898527    0.395981
  H      0.731771    1.785579   -0.714327
  H      0.385411    1.738837    1.038716
  H     -1.538674   -1.208585    0.868166
  H      1.731205   -1.875287   -0.740734
  H      1.460330   -1.722873   -2.494060
  H      2.110875   -0.357073   -1.582928
  H     -2.014562   -1.672895   -1.183357
  H     -0.862314   -2.412568   -2.294957
  H     -0.687013   -2.683978   -0.553806
  H     -1.085304    1.595537   -4.011425

 Total Charge           Charge          ....    0
 Multiplicity           Mult            ....    1
 Number of Electrons    NEL             ....   68
 Basis Dimension        Dim             ....  345

ORBITAL ENERGIES
----------------

  NO   OCC          E(Eh)            E(eV)
   0   2.0000     -20.516625      -558.2858
   1   2.0000     -15.592866      -424.3034
   2   2.0000     -11.343006      -308.6589
   3   2.0000     -11.323999      -308.1417
   4   2.0000     -11.252181      -306.1874
   5   2.0000     -11.245546      -306.0069
   6   2.0000     -11.244351      -305.9743
   7   2.0000     -11.238483      -305.8147
   8   2.0000     -11.236757      -305.7677
   9   2.0000      -1.378651       -37.5150
  10   2.0000      -1.257660       -34.2227
  11   2.0000      -1.099391       -29.9159
  12   2.0000      -1.021177       -27.7876
  13   2.0000      -0.976459       -26.5708
  14   2.0000      -0.940903       -25.6033
  15   2.0000      -0.880046       -23.9473
  16   2.0000      -0.778238       -21.1769
  17   2.0000      -0.744283       -20.2530
  18   2.0000      -0.707707       -19.2577
  19   2.0000      -0.669749       -18.2248
  20   2.0000      -0.647822       -17.6281
  21   2.0000      -0.616871       -16.7859
  22   2.0000      -0.602334       -16.3903
  23   2.0000      -0.586368       -15.9559
  24   2.0000      -0.569431       -15.4950
  25   2.0000      -0.556358       -15.1393
  26   2.0000      -0.543760       -14.7965
  27   2.0000      -0.534451       -14.5431
  28   2.0000      -0.523753       -14.2521
  29   2.0000      -0.514926       -14.0118
  30   2.0000      -0.426713       -11.6114
  31   2.0000      -0.409285       -11.1372
  32   2.0000      -0.400865       -10.9081
  33   2.0000      -0.379598       -10.3294
  34   0.0000       0.124601         3.3906
  35   0.0000       0.147957         4.0261
  36   0.0000       0.154329         4.1995
  37   0.0000       0.161506         4.3948
  38   0.0000       0.164816         4.4849

MULLIKEN ATOMIC CHARGES
-----------------------
   0 C :   -0.358803
   1 N :   -0.069830
   2 C :    0.126227
   3 O :   -0.369733
   4 C :    0.047421
   5 C :   -0.400065
   6 C :   -0.444083
   7 C :   -0.066813
   8 C :   -0.146712
   9 H :    0.140902
  10 H :    0.152762
  11 H :    0.182869
  12 H :    0.105370
  13 H :    0.146389
  14 H :    0.139493
  15 H :    0.150449
  16 H :    0.159509
  17 H :    0.150227
  18 H :    0.158326
  19 H :    0.196095
Sum of atomic charges:   -0.0000000

LOEWDIN ATOMIC CHARGES
----------------------
   0 C :   -0.280815
   1 N :    0.192606
   2 C :   -0.415165
   3 O :    0.051546
   4 C :   -0.319380
   5 C :   -0.244469
   6 C :   -0.253890
   7 C :   -0.071444
   8 C :   -0.083964
   9 H :    0.117220
  10 H :    0.126407
  11 H :    0.135934
  12 H :    0.122046
  13 H :    0.130736
  14 H :    0.132956
  15 H :    0.130482
  16 H :    0.131865
  17 H :    0.138135
  18 H :    0.129869
  19 H :    0.129324

  Mayer bond orders larger than 0.1
B(  0-C ,  1-N ) :   0.8592 B(  0-C ,  9-H ) :   0.9348 B(  0-C , 10-H ) :   0.9246
B(  0-C , 11-H ) :   0.9157 B(  1-N ,  2-C ) :   1.1385 B(  1-N ,  4-C ) :   0.8974
B(  2-C ,  3-O ) :   1.8836 B(  2-C , 12-H ) :   0.9313 B(  4-C ,  5-C ) :   0.9093
B(  4-C ,  6-C ) :   0.8983 B(  4-C ,  7-C ) :   1.1321 B(  5-C , 13-H ) :   0.9342
B(  5-C , 14-H ) :   0.9290 B(  5-C , 15-H ) :   0.9262 B(  6-C , 16-H ) :   0.9309
B(  6-C , 17-H ) :   0.9262 B(  6-C , 18-H ) :   0.9363 B(  7-C ,  8-C ) :   2.6145
B(  8-C , 19-H ) :   0.8813

MP2 TOTAL ENERGY:     -402.437986437 Eh
FINAL SINGLE POINT ENERGY      -402.437986437306

DIPOLE MOMENT
-------------
                                X             Y             Z
Electronic contribution:     -3.54589       3.03885       2.64695
Nuclear contribution   :      4.01004      -3.51572      -4.09396
                        -----------------------------------------
Total Dipole Moment    :      0.46415      -0.47686      -1.44701
                        -----------------------------------------
Magnitude (a.u.)       :      1.59270
Magnitude (Debye)      :      4.04831

                             ****ORCA TERMINATED NORMALLY****
TOTAL RUN TIME: 0 days 0 hours 21 minutes 51 seconds 865 msec
