                         Program Version 3.0.3 - RELEASE   -
|  1> ! RI-MP2 RIJK def2-TZVP def2-TZVP/C def2-TZVP/JK TIGHTSCF
|  2> % maxcore 2000
|  3> % mp2 density relaxed end
|  4> *xyz 0 1
|  5>  N       -0.0254232413     1.2570019957     0.4306082545
|  6>  C        0.0082518456     0.1009115036    -0.2917373357
|  7>  O        0.9733886505    -0.2220028483    -0.9622403947
|  8>  C       -1.2489204240    -0.7196518775    -0.2152608780
|  9>  C       -1.5122017382    -1.6999677017    -1.3153392978
| 10>  C       -1.1667059292    -2.2339188968     0.0550591940
| 11>  C        0.1298448961    -2.9300975856     0.2800235610
| 12>  O        0.2482518200    -3.8421012348     1.0637995837
| 13>  H        0.8150266253     1.8106358358     0.4697580766
| 14>  H       -0.7679255059     1.4662214084     1.0743144828
| 15>  H       -2.1055954997    -0.2366105219     0.2435452561
| 16>  H       -2.5284725047    -1.8303128542    -1.6668197596
| 17>  H       -0.7358227306    -1.7611754441    -2.0704446623
| 18>  H       -1.9741394775    -2.6372485128     0.6570471183
| 19>  H        0.9771407238    -2.5644259756    -0.3296761989
| 20> *
| 21>
| 22>                          ****END OF INPUT****

CARTESIAN COORDINATES (ANGSTROEM)
---------------------------------
  N     -0.025423    1.257002    0.430608
  C      0.008252    0.100912   -0.291737
  O      0.973389   -0.222003   -0.962240
  C     -1.248920   -0.719652   -0.215261
  C     -1.512202   -1.699968   -1.315339
  C     -1.166706   -2.233919    0.055059
  C      0.129845   -2.930098    0.280024
  O      0.248252   -3.842101    1.063800
  H      0.815027    1.810636    0.469758
  H     -0.767926    1.466221    1.074314
  H     -2.105595   -0.236611    0.243545
  H     -2.528473   -1.830313   -1.666820
  H     -0.735823   -1.761175   -2.070445
  H     -1.974139   -2.637249    0.657047
  H      0.977141   -2.564426   -0.329676

 Total Charge           Charge          ....    0
 Multiplicity           Mult            ....    1
 Number of Electrons    NEL             ....   60
 Basis Dimension        Dim             ....  290

ORBITAL ENERGIES
----------------

  NO   OCC          E(Eh)            E(eV)
   0   2.0000     -20.548263      -559.1467
   1   2.0000     -20.530117      -558.6529
   2   2.0000     -15.598220      -424.4491
   3   2.0000     -11.370496      -309.4069
   4   2.0000     -11.325999      -308.1961
   5   2.0000     -11.274239      -306.7876
   6   2.0000     -11.265437      -306.5481
   7   2.0000     -11.260923      -306.4253
   8   2.0000      -1.397590       -38.0304
   9   2.0000      -1.386443       -37.7270
  10   2.0000      -1.226943       -33.3868
  11   2.0000      -1.178935       -32.0804
  12   2.0000      -0.941121       -25.6092
  13   2.0000      -0.898224       -24.4419
  14   2.0000      -0.808230       -21.9931
  15   2.0000      -0.787070       -21.4173
  16   2.0000      -0.731503       -19.9052
  17   2.0000      -0.711487       -19.3605
  18   2.0000      -0.675580       -18.3835
  19   2.0000      -0.642107       -17.4726
  20   2.0000      -0.626485       -17.0475
  21   2.0000      -0.594665       -16.1817
  22   2.0000      -0.589305       -16.0358
  23   2.0000      -0.556723       -15.1492
  24   2.0000      -0.540387       -14.7047
  25   2.0000      -0.470746       -12.8097
  26   2.0000      -0.456041       -12.4095
  27   2.0000      -0.433211       -11.7883
  28   2.0000      -0.430967       -11.7272
  29   2.0000      -0.409950       -11.1553
  30   0.0000       0.113909         3.0996
  31   0.0000       0.131790         3.5862
  32   0.0000       0.145148         3.9497
  33   0.0000       0.155830         4.2403
  34   0.0000       0.175512         4.7759

MULLIKEN ATOMIC CHARGES
-----------------------
   0 N :   -0.470728
   1 C :    0.287111
   2 O :   -0.372232
   3 C :   -0.123850
   4 C :   -0.280029
   5 C :   -0.061044
   6 C :    0.047726
   7 O :   -0.276930
   8 H :    0.265018
   9 H :    0.261429
  10 H :    0.133224
  11 H :    0.152097
  12 H :    0.167830
  13 H :    0.139036
  14 H :    0.131342
Sum of atomic charges:   -0.0000000

LOEWDIN ATOMIC CHARGES
----------------------
   0 N :   -0.008174
   1 C :   -0.466223
   2 O :    0.080796
   3 C :   -0.171522
   4 C :   -0.173776
   5 C :   -0.181405
   6 C :   -0.282278
   7 O :    0.124166
   8 H :    0.176553
   9 H :    0.171702
  10 H :    0.153563
  11 H :    0.139413
  12 H :    0.151927
  13 H :    0.157504
  14 H :    0.127754

  Mayer bond orders larger than 0.1
B(  0-N ,  1-C ) :   1.1640 B(  0-N ,  8-H ) :   0.8550 B(  0-N ,  9-H ) :   0.8705
B(  1-C ,  2-O ) :   1.9254 B(  1-C ,  3-C ) :   0.9286 B(  3-C ,  4-C ) :   0.8906
B(  3-C ,  5-C ) :   0.7814 B(  3-C , 10-H ) :   0.9045 B(  4-C ,  5-C ) :   0.8439
B(  4-C , 11-H ) :   0.9235 B(  4-C , 12-H ) :   0.9178 B(  5-C ,  6-C ) :   0.9027
B(  5-C , 13-H ) :   0.9180 B(  6-C ,  7-O ) :   1.9632 B(  6-C , 14-H ) :   0.9377

MP2 TOTAL ENERGY:     -399.179498799 Eh
FINAL SINGLE POINT ENERGY      -399.179498798562

DIPOLE MOMENT
-------------
                                X             Y             Z
Electronic contribution:      2.77982      -1.41494       1.02404
Nuclear contribution   :     -4.00253       2.90133      -0.82690
                        -----------------------------------------
Total Dipole Moment    :     -1.22272       1.48638       0.19714
                        -----------------------------------------
Magnitude (a.u.)       :      1.93474
Magnitude (Debye)      :      4.91772

                             ****ORCA TERMINATED NORMALLY****
TOTAL RUN TIME: 0 days 0 hours 9 minutes 53 seconds 974 msec
