                         Program Version 3.0.3 - RELEASE   -
|  1> ! RI-MP2 RIJK def2-TZVP def2-TZVP/C def2-TZVP/JK TIGHTSCF
|  2> % maxcore 2000
|  3> % mp2 density relaxed end
|  4> *xyz 0 1
|  5>  C       -0.0371633931     1.6052139585    -0.0224505364
|  6>  C        0.0952981915     0.0885232509    -0.0188804048
|  7>  C        0.7152509280    -0.6541599906    -1.1980008472
|  8>  C        2.2649501702    -0.7639972942    -1.1009124286
|  9>  C        3.0012119125     0.1462069810    -0.1781338861
| 10>  C        2.3974257240     0.1509722965     1.0158430465
| 11>  C        1.1343161323    -0.6712734089     0.9297166130
| 12>  C        1.3734482123    -1.6463455545    -0.2711830584
| 13>  H        0.9214266583     2.0953368118    -0.2080768235
| 14>  H       -0.7331891160     1.9206608650    -0.8082954239
| 15>  H       -0.4299975576     1.9729818280     0.9326776580
| 16>  H       -0.8819932897    -0.3667591714     0.1741400195
| 17>  H        0.2373055066    -0.8291653974    -2.1555634885
| 18>  H        2.7402412179    -1.1687253044    -1.9872706954
| 19>  H        3.8656512699     0.7297860507    -0.4704189868
| 20>  H        2.6565433873     0.7710471880     1.8652931784
| 21>  H        0.7284208743    -1.0526494955     1.8657476185
| 22>  H        1.3681000114    -2.7296729936    -0.2678208543
| 23> *
| 24>
| 25>                          ****END OF INPUT****

CARTESIAN COORDINATES (ANGSTROEM)
---------------------------------
  C     -0.037163    1.605214   -0.022451
  C      0.095298    0.088523   -0.018880
  C      0.715251   -0.654160   -1.198001
  C      2.264950   -0.763997   -1.100912
  C      3.001212    0.146207   -0.178134
  C      2.397426    0.150972    1.015843
  C      1.134316   -0.671273    0.929717
  C      1.373448   -1.646346   -0.271183
  H      0.921427    2.095337   -0.208077
  H     -0.733189    1.920661   -0.808295
  H     -0.429998    1.972982    0.932678
  H     -0.881993   -0.366759    0.174140
  H      0.237306   -0.829165   -2.155563
  H      2.740241   -1.168725   -1.987271
  H      3.865651    0.729786   -0.470419
  H      2.656543    0.771047    1.865293
  H      0.728421   -1.052649    1.865748
  H      1.368100   -2.729673   -0.267821

 Total Charge           Charge          ....    0
 Multiplicity           Mult            ....    1
 Number of Electrons    NEL             ....   58
 Basis Dimension        Dim             ....  308

ORBITAL ENERGIES
----------------

  NO   OCC          E(Eh)            E(eV)
   0   2.0000     -11.232837      -305.6610
   1   2.0000     -11.231598      -305.6273
   2   2.0000     -11.230789      -305.6053
   3   2.0000     -11.230190      -305.5890
   4   2.0000     -11.227834      -305.5249
   5   2.0000     -11.219724      -305.3042
   6   2.0000     -11.214633      -305.1657
   7   2.0000     -11.204037      -304.8773
   8   2.0000      -1.212520       -32.9943
   9   2.0000      -1.034821       -28.1589
  10   2.0000      -1.014204       -27.5979
  11   2.0000      -0.939906       -25.5761
  12   2.0000      -0.844208       -22.9721
  13   2.0000      -0.786810       -21.4102
  14   2.0000      -0.751684       -20.4544
  15   2.0000      -0.707520       -19.2526
  16   2.0000      -0.680849       -18.5268
  17   2.0000      -0.628906       -17.1134
  18   2.0000      -0.592128       -16.1126
  19   2.0000      -0.570495       -15.5240
  20   2.0000      -0.544514       -14.8170
  21   2.0000      -0.531791       -14.4708
  22   2.0000      -0.515043       -14.0150
  23   2.0000      -0.485415       -13.2088
  24   2.0000      -0.474371       -12.9083
  25   2.0000      -0.439094       -11.9483
  26   2.0000      -0.412623       -11.2280
  27   2.0000      -0.381670       -10.3858
  28   2.0000      -0.318603        -8.6696
  29   0.0000       0.139239         3.7889
  30   0.0000       0.148660         4.0453
  31   0.0000       0.166896         4.5415
  32   0.0000       0.176221         4.7952
  33   0.0000       0.180240         4.9046

MULLIKEN ATOMIC CHARGES
-----------------------
   0 C :   -0.419606
   1 C :   -0.038153
   2 C :   -0.151758
   3 C :   -0.092548
   4 C :   -0.196612
   5 C :   -0.229971
   6 C :    0.029991
   7 C :   -0.165717
   8 H :    0.141707
   9 H :    0.127031
  10 H :    0.124007
  11 H :    0.100386
  12 H :    0.125700
  13 H :    0.128405
  14 H :    0.122689
  15 H :    0.124525
  16 H :    0.130773
  17 H :    0.139153
Sum of atomic charges:   -0.0000000

LOEWDIN ATOMIC CHARGES
----------------------
   0 C :   -0.298969
   1 C :   -0.210851
   2 C :   -0.139682
   3 C :   -0.164576
   4 C :   -0.141449
   5 C :   -0.143448
   6 C :   -0.143887
   7 C :   -0.119507
   8 H :    0.126613
   9 H :    0.125056
  10 H :    0.123157
  11 H :    0.157167
  12 H :    0.135960
  13 H :    0.148880
  14 H :    0.137272
  15 H :    0.135858
  16 H :    0.138838
  17 H :    0.133569

  Mayer bond orders larger than 0.1
B(  0-C ,  1-C ) :   0.8986 B(  0-C ,  8-H ) :   0.9389 B(  0-C ,  9-H ) :   0.9350
B(  0-C , 10-H ) :   0.9365 B(  1-C ,  2-C ) :   0.9648 B(  1-C ,  6-C ) :   0.8836
B(  1-C , 11-H ) :   0.9280 B(  2-C ,  3-C ) :   0.8025 B(  2-C ,  7-C ) :   0.8475
B(  2-C , 12-H ) :   0.9239 B(  3-C ,  4-C ) :   0.9653 B(  3-C ,  7-C ) :   0.8900
B(  3-C , 13-H ) :   0.9313 B(  4-C ,  5-C ) :   1.7733 B(  4-C , 14-H ) :   0.9359
B(  5-C ,  6-C ) :   0.9420 B(  5-C , 15-H ) :   0.9292 B(  6-C ,  7-C ) :   0.9129
B(  6-C , 16-H ) :   0.9205 B(  7-C , 17-H ) :   0.9078

MP2 TOTAL ENERGY:     -310.060616382 Eh
FINAL SINGLE POINT ENERGY      -310.060616381897

DIPOLE MOMENT
-------------
                                X             Y             Z
Electronic contribution:      2.54994      -3.07131      -0.07203
Nuclear contribution   :     -2.72427       2.99216      -0.00389
                        -----------------------------------------
Total Dipole Moment    :     -0.17433      -0.07915      -0.07593
                        -----------------------------------------
Magnitude (a.u.)       :      0.20596
Magnitude (Debye)      :      0.52352

                             ****ORCA TERMINATED NORMALLY****
TOTAL RUN TIME: 0 days 0 hours 15 minutes 14 seconds 395 msec
