                         Program Version 3.0.3 - RELEASE   -
|  1> ! RI-MP2 RIJK def2-TZVP def2-TZVP/C def2-TZVP/JK TIGHTSCF
|  2> % maxcore 2000
|  3> % mp2 density relaxed end
|  4> *xyz 0 1
|  5>  C       -0.2473907615     1.4856577267     0.0282480945
|  6>  C        0.0405228682    -0.0179271691    -0.0321694642
|  7>  C        0.7926677713    -0.5352563793     1.1870619395
|  8>  C        0.0476601738    -0.5728029997     2.5593846874
|  9>  C        0.6225191189    -1.9795252495     2.7804874685
| 10>  C        1.4641484863    -2.4012908448     3.9539650998
| 11>  C        0.1302078983    -3.0675942550     3.6888503525
| 12>  C       -1.0440426931    -2.8368129479     4.6140938199
| 13>  C        1.0404204237    -2.0700168644     1.3071878754
| 14>  H        0.6818215610     2.0638411846     0.0837604229
| 15>  H       -0.7975463226     1.8236539025    -0.8555360047
| 16>  H       -0.8465107185     1.7392777104     0.9096637685
| 17>  H       -0.9044187160    -0.5701960076    -0.1298120808
| 18>  H        0.6205120335    -0.2455144652    -0.9367941907
| 19>  H        1.7393086375     0.0070557792     1.2922873160
| 20>  H        0.3083037513     0.1971510330     3.2908432500
| 21>  H       -1.0419735835    -0.5755068379     2.4329791363
| 22>  H        2.3728708001    -2.9644132653     3.7629253107
| 23>  H        1.5303488912    -1.7239361357     4.8014175339
| 24>  H        0.1876109732    -4.0740814522     3.2780088169
| 25>  H       -1.0555290731    -1.8076432987     4.9878050980
| 26>  H       -1.9977990758    -3.0125583980     4.1030958388
| 27>  H       -1.0046041153    -3.5037589454     5.4826668046
| 28>  H        0.3322610061    -2.6485460511     0.7018661297
| 29>  H        2.0517788851    -2.4288133496     1.0944837164
| 30> *
| 31>
| 32>                          ****END OF INPUT****

CARTESIAN COORDINATES (ANGSTROEM)
---------------------------------
  C     -0.247391    1.485658    0.028248
  C      0.040523   -0.017927   -0.032169
  C      0.792668   -0.535256    1.187062
  C      0.047660   -0.572803    2.559385
  C      0.622519   -1.979525    2.780487
  C      1.464148   -2.401291    3.953965
  C      0.130208   -3.067594    3.688850
  C     -1.044043   -2.836813    4.614094
  C      1.040420   -2.070017    1.307188
  H      0.681822    2.063841    0.083760
  H     -0.797546    1.823654   -0.855536
  H     -0.846511    1.739278    0.909664
  H     -0.904419   -0.570196   -0.129812
  H      0.620512   -0.245514   -0.936794
  H      1.739309    0.007056    1.292287
  H      0.308304    0.197151    3.290843
  H     -1.041974   -0.575507    2.432979
  H      2.372871   -2.964413    3.762925
  H      1.530349   -1.723936    4.801418
  H      0.187611   -4.074081    3.278009
  H     -1.055529   -1.807643    4.987805
  H     -1.997799   -3.012558    4.103096
  H     -1.004604   -3.503759    5.482667
  H      0.332261   -2.648546    0.701866
  H      2.051779   -2.428813    1.094484

 Total Charge           Charge          ....    0
 Multiplicity           Mult            ....    1
 Number of Electrons    NEL             ....   70
 Basis Dimension        Dim             ....  375

ORBITAL ENERGIES
----------------

  NO   OCC          E(Eh)            E(eV)
   0   2.0000     -11.224944      -305.4462
   1   2.0000     -11.221230      -305.3452
   2   2.0000     -11.220427      -305.3234
   3   2.0000     -11.214897      -305.1729
   4   2.0000     -11.214074      -305.1505
   5   2.0000     -11.213530      -305.1357
   6   2.0000     -11.213254      -305.1282
   7   2.0000     -11.212589      -305.1101
   8   2.0000     -11.209839      -305.0352
   9   2.0000      -1.162857       -31.6429
  10   2.0000      -1.085974       -29.5509
  11   2.0000      -1.011623       -27.5276
  12   2.0000      -0.950059       -25.8524
  13   2.0000      -0.898451       -24.4481
  14   2.0000      -0.867018       -23.5928
  15   2.0000      -0.792045       -21.5527
  16   2.0000      -0.762392       -20.7457
  17   2.0000      -0.709281       -19.3005
  18   2.0000      -0.653595       -17.7852
  19   2.0000      -0.632362       -17.2075
  20   2.0000      -0.617774       -16.8105
  21   2.0000      -0.590508       -16.0685
  22   2.0000      -0.564938       -15.3727
  23   2.0000      -0.560454       -15.2507
  24   2.0000      -0.542862       -14.7720
  25   2.0000      -0.529696       -14.4138
  26   2.0000      -0.517457       -14.0807
  27   2.0000      -0.503240       -13.6938
  28   2.0000      -0.489960       -13.3325
  29   2.0000      -0.469464       -12.7748
  30   2.0000      -0.460985       -12.5440
  31   2.0000      -0.449253       -12.2248
  32   2.0000      -0.426049       -11.5934
  33   2.0000      -0.384802       -10.4710
  34   2.0000      -0.371899       -10.1199
  35   0.0000       0.134417         3.6577
  36   0.0000       0.149223         4.0606
  37   0.0000       0.161378         4.3913
  38   0.0000       0.163014         4.4358
  39   0.0000       0.177228         4.8226

MULLIKEN ATOMIC CHARGES
-----------------------
   0 C :   -0.393771
   1 C :   -0.232202
   2 C :   -0.020887
   3 C :   -0.261914
   4 C :    0.064891
   5 C :   -0.337298
   6 C :   -0.055616
   7 C :   -0.427459
   8 C :   -0.210073
   9 H :    0.121964
  10 H :    0.133168
  11 H :    0.126639
  12 H :    0.103486
  13 H :    0.110656
  14 H :    0.091672
  15 H :    0.114923
  16 H :    0.107826
  17 H :    0.124250
  18 H :    0.119523
  19 H :    0.111882
  20 H :    0.129295
  21 H :    0.129607
  22 H :    0.134827
  23 H :    0.102453
  24 H :    0.112159
Sum of atomic charges:    0.0000000

LOEWDIN ATOMIC CHARGES
----------------------
   0 C :   -0.317629
   1 C :   -0.284254
   2 C :   -0.221853
   3 C :   -0.179119
   4 C :   -0.212691
   5 C :   -0.192872
   6 C :   -0.221862
   7 C :   -0.294517
   8 C :   -0.175750
   9 H :    0.120413
  10 H :    0.119997
  11 H :    0.121111
  12 H :    0.135740
  13 H :    0.137222
  14 H :    0.149314
  15 H :    0.127114
  16 H :    0.137552
  17 H :    0.131662
  18 H :    0.133607
  19 H :    0.147672
  20 H :    0.127096
  21 H :    0.124115
  22 H :    0.124477
  23 H :    0.136181
  24 H :    0.127271

  Mayer bond orders larger than 0.1
B(  0-C ,  1-C ) :   0.9221 B(  0-C ,  9-H ) :   0.9389 B(  0-C , 10-H ) :   0.9414
B(  0-C , 11-H ) :   0.9387 B(  1-C ,  2-C ) :   0.8951 B(  1-C , 12-H ) :   0.9300
B(  1-C , 13-H ) :   0.9384 B(  2-C ,  3-C ) :   0.9705 B(  2-C ,  8-C ) :   0.9668
B(  2-C , 14-H ) :   0.9201 B(  3-C ,  4-C ) :   0.9218 B(  3-C , 15-H ) :   0.9160
B(  3-C , 16-H ) :   0.9100 B(  4-C ,  5-C ) :   0.8479 B(  4-C ,  6-C ) :   0.8119
B(  4-C ,  8-C ) :   0.8917 B(  5-C ,  6-C ) :   0.9425 B(  5-C , 17-H ) :   0.9218
B(  5-C , 18-H ) :   0.9209 B(  6-C ,  7-C ) :   0.8881 B(  6-C , 19-H ) :   0.9239
B(  7-C , 20-H ) :   0.9368 B(  7-C , 21-H ) :   0.9416 B(  7-C , 22-H ) :   0.9406
B(  8-C , 23-H ) :   0.9119 B(  8-C , 24-H ) :   0.9169

MP2 TOTAL ENERGY:     -351.687905145 Eh
FINAL SINGLE POINT ENERGY      -351.687905145327

DIPOLE MOMENT
-------------
                                X             Y             Z
Electronic contribution:      2.34311      -2.92001       1.08993
Nuclear contribution   :     -2.35475       2.94015      -1.15171
                        -----------------------------------------
Total Dipole Moment    :     -0.01164       0.02014      -0.06177
                        -----------------------------------------
Magnitude (a.u.)       :      0.06601
Magnitude (Debye)      :      0.16778

                             ****ORCA TERMINATED NORMALLY****
TOTAL RUN TIME: 0 days 0 hours 33 minutes 25 seconds 45 msec
