                         Program Version 3.0.3 - RELEASE   -
|  1> ! RI-MP2 RIJK def2-TZVP def2-TZVP/C def2-TZVP/JK TIGHTSCF
|  2> % maxcore 2000
|  3> % mp2 density relaxed end
|  4> *xyz 0 1
|  5>  C       -0.0426074596     1.5645391440     0.0547059875
|  6>  C        0.0020396873     0.0208693855     0.0443081745
|  7>  C        0.7275958426    -0.5014661098     1.3035827809
|  8>  C       -1.3625562415    -0.5131196220     0.0024312204
|  9>  C       -2.4794728059    -0.9552397296    -0.0396275342
| 10>  C        0.7303646346    -0.4863506795    -1.2439592821
| 11>  C        2.1146421300    -0.0283785079    -1.3401260298
| 12>  N        3.2081448065     0.3405612977    -1.4046440366
| 13>  H        0.9721725853     1.9729735569     0.0640430825
| 14>  H       -0.5652170715     1.9478900449    -0.8261919969
| 15>  H       -0.5692940495     1.9213010874     0.9432285733
| 16>  H        0.2088364429    -0.1659898943     2.2049677907
| 17>  H        0.7554491533    -1.5946940779     1.3152592225
| 18>  H        1.7545123137    -0.1255878331     1.3326130838
| 19>  H       -3.4685020426    -1.3417146337    -0.0674231700
| 20>  H        0.7196321429    -1.5807981787    -1.2620755700
| 21>  H        0.1845559014    -0.1457359499    -2.1295883765
| 22> *
| 23>
| 24>                          ****END OF INPUT****

CARTESIAN COORDINATES (ANGSTROEM)
---------------------------------
  C     -0.042607    1.564539    0.054706
  C      0.002040    0.020869    0.044308
  C      0.727596   -0.501466    1.303583
  C     -1.362556   -0.513120    0.002431
  C     -2.479473   -0.955240   -0.039628
  C      0.730365   -0.486351   -1.243959
  C      2.114642   -0.028379   -1.340126
  N      3.208145    0.340561   -1.404644
  H      0.972173    1.972974    0.064043
  H     -0.565217    1.947890   -0.826192
  H     -0.569294    1.921301    0.943229
  H      0.208836   -0.165990    2.204968
  H      0.755449   -1.594694    1.315259
  H      1.754512   -0.125588    1.332613
  H     -3.468502   -1.341715   -0.067423
  H      0.719632   -1.580798   -1.262076
  H      0.184556   -0.145736   -2.129588

 Total Charge           Charge          ....    0
 Multiplicity           Mult            ....    1
 Number of Electrons    NEL             ....   58
 Basis Dimension        Dim             ....  302

ORBITAL ENERGIES
----------------

  NO   OCC          E(Eh)            E(eV)
   0   2.0000     -15.572729      -423.7555
   1   2.0000     -11.294257      -307.3324
   2   2.0000     -11.288516      -307.1761
   3   2.0000     -11.277091      -306.8653
   4   2.0000     -11.246104      -306.0221
   5   2.0000     -11.237246      -305.7810
   6   2.0000     -11.236460      -305.7596
   7   2.0000     -11.236446      -305.7592
   8   2.0000      -1.223803       -33.3014
   9   2.0000      -1.148844       -31.2616
  10   2.0000      -1.030895       -28.0521
  11   2.0000      -1.000046       -27.2126
  12   2.0000      -0.955825       -26.0093
  13   2.0000      -0.853731       -23.2312
  14   2.0000      -0.726962       -19.7816
  15   2.0000      -0.700740       -19.0681
  16   2.0000      -0.665885       -18.1196
  17   2.0000      -0.653219       -17.7750
  18   2.0000      -0.618223       -16.8227
  19   2.0000      -0.576635       -15.6910
  20   2.0000      -0.559843       -15.2341
  21   2.0000      -0.550499       -14.9798
  22   2.0000      -0.536749       -14.6057
  23   2.0000      -0.523384       -14.2420
  24   2.0000      -0.509462       -13.8632
  25   2.0000      -0.463525       -12.6131
  26   2.0000      -0.460821       -12.5396
  27   2.0000      -0.402016       -10.9394
  28   2.0000      -0.401384       -10.9222
  29   0.0000       0.115402         3.1403
  30   0.0000       0.152034         4.1371
  31   0.0000       0.158266         4.3066
  32   0.0000       0.159420         4.3380
  33   0.0000       0.168689         4.5903

MULLIKEN ATOMIC CHARGES
-----------------------
   0 C :   -0.410837
   1 C :   -0.061825
   2 C :   -0.410837
   3 C :   -0.051589
   4 C :   -0.113558
   5 C :   -0.121593
   6 C :   -0.196577
   7 N :   -0.048441
   8 H :    0.160245
   9 H :    0.138912
  10 H :    0.143195
  11 H :    0.143196
  12 H :    0.138909
  13 H :    0.160244
  14 H :    0.196383
  15 H :    0.167083
  16 H :    0.167091
Sum of atomic charges:   -0.0000000

LOEWDIN ATOMIC CHARGES
----------------------
   0 C :   -0.242363
   1 C :   -0.302153
   2 C :   -0.242356
   3 C :   -0.071339
   4 C :   -0.086463
   5 C :   -0.191105
   6 C :   -0.193583
   7 N :    0.059262
   8 H :    0.134809
   9 H :    0.131569
  10 H :    0.132860
  11 H :    0.132860
  12 H :    0.131568
  13 H :    0.134810
  14 H :    0.128900
  15 H :    0.171360
  16 H :    0.171364

  Mayer bond orders larger than 0.1
B(  0-C ,  1-C ) :   0.9216 B(  0-C ,  8-H ) :   0.9272 B(  0-C ,  9-H ) :   0.9288
B(  0-C , 10-H ) :   0.9307 B(  1-C ,  2-C ) :   0.9216 B(  1-C ,  3-C ) :   1.1529
B(  1-C ,  4-C ) :  -0.1132 B(  1-C ,  5-C ) :   0.9123 B(  2-C , 11-H ) :   0.9307
B(  2-C , 12-H ) :   0.9288 B(  2-C , 13-H ) :   0.9272 B(  3-C ,  4-C ) :   2.6003
B(  4-C , 14-H ) :   0.8739 B(  5-C ,  6-C ) :   0.8983 B(  5-C , 15-H ) :   0.9058
B(  5-C , 16-H ) :   0.9058 B(  6-C ,  7-N ) :   2.8791

MP2 TOTAL ENERGY:     -326.122302840 Eh
FINAL SINGLE POINT ENERGY      -326.122302839695

DIPOLE MOMENT
-------------
                                X             Y             Z
Electronic contribution:      1.95005      -1.56168      -3.78733
Nuclear contribution   :     -3.23867       1.23950       4.05006
                        -----------------------------------------
Total Dipole Moment    :     -1.28863      -0.32217       0.26273
                        -----------------------------------------
Magnitude (a.u.)       :      1.35402
Magnitude (Debye)      :      3.44166

                             ****ORCA TERMINATED NORMALLY****
TOTAL RUN TIME: 0 days 0 hours 12 minutes 59 seconds 511 msec
