                         Program Version 3.0.3 - RELEASE   -
|  1> ! RI-MP2 RIJK def2-TZVP def2-TZVP/C def2-TZVP/JK TIGHTSCF
|  2> % maxcore 2000
|  3> % mp2 density relaxed end
|  4> *xyz 0 1
|  5>  C       -0.0686995931     1.6305789668    -0.0012403764
|  6>  C       -0.0647272167     0.0993353701    -0.0133603452
|  7>  N       -1.4078142607    -0.4810450023     0.0006803928
|  8>  C       -2.0292620664    -0.7024665282    -1.2902131637
|  9>  C       -1.9951462135    -0.7102787465     1.2192184982
| 10>  O       -1.4155245922    -0.4361818958     2.2600482697
| 11>  C       -3.3953574158    -1.3299603233     1.2375479576
| 12>  C       -3.8820072719    -1.5831083324     2.6640004822
| 13>  H        0.9559341963     2.0139464308    -0.0411546442
| 14>  H       -0.6134011090     2.0417496250    -0.8577562534
| 15>  H       -0.5362952430     1.9947852738     0.9168242021
| 16>  H        0.4495338386    -0.2766522642    -0.9054341888
| 17>  H        0.4616541525    -0.2724975406     0.8672565540
| 18>  H       -3.0426533052    -1.0819165204    -1.1794691336
| 19>  H       -2.0825382613     0.2299279416    -1.8674413053
| 20>  H       -1.4560172618    -1.4288000486    -1.8818646599
| 21>  H       -4.0923825873    -0.6632355699     0.7139611497
| 22>  H       -3.3880612723    -2.2661206850     0.6657107980
| 23>  H       -4.8852405947    -2.0193473474     2.6522192399
| 24>  H       -3.2100140800    -2.2651026173     3.1898254545
| 25>  H       -3.9097995725    -0.6531866161     3.2358856917
| 26> *
| 27>
| 28>                          ****END OF INPUT****

CARTESIAN COORDINATES (ANGSTROEM)
---------------------------------
  C     -0.068700    1.630579   -0.001240
  C     -0.064727    0.099335   -0.013360
  N     -1.407814   -0.481045    0.000680
  C     -2.029262   -0.702467   -1.290213
  C     -1.995146   -0.710279    1.219218
  O     -1.415525   -0.436182    2.260048
  C     -3.395357   -1.329960    1.237548
  C     -3.882007   -1.583108    2.664000
  H      0.955934    2.013946   -0.041155
  H     -0.613401    2.041750   -0.857756
  H     -0.536295    1.994785    0.916824
  H      0.449534   -0.276652   -0.905434
  H      0.461654   -0.272498    0.867257
  H     -3.042653   -1.081917   -1.179469
  H     -2.082538    0.229928   -1.867441
  H     -1.456017   -1.428800   -1.881865
  H     -4.092383   -0.663236    0.713961
  H     -3.388061   -2.266121    0.665711
  H     -4.885241   -2.019347    2.652219
  H     -3.210014   -2.265103    3.189825
  H     -3.909800   -0.653187    3.235886

 Total Charge           Charge          ....    0
 Multiplicity           Mult            ....    1
 Number of Electrons    NEL             ....   64
 Basis Dimension        Dim             ....  326

ORBITAL ENERGIES
----------------

  NO   OCC          E(Eh)            E(eV)
   0   2.0000     -20.504844      -557.9652
   1   2.0000     -15.578296      -423.9070
   2   2.0000     -11.339463      -308.5625
   3   2.0000     -11.268052      -306.6193
   4   2.0000     -11.254766      -306.2578
   5   2.0000     -11.238246      -305.8082
   6   2.0000     -11.212790      -305.1155
   7   2.0000     -11.211155      -305.0710
   8   2.0000      -1.372524       -37.3483
   9   2.0000      -1.238504       -33.7014
  10   2.0000      -1.050971       -28.5984
  11   2.0000      -1.012972       -27.5644
  12   2.0000      -0.952124       -25.9086
  13   2.0000      -0.891681       -24.2639
  14   2.0000      -0.833475       -22.6800
  15   2.0000      -0.724803       -19.7229
  16   2.0000      -0.689660       -18.7666
  17   2.0000      -0.658072       -17.9070
  18   2.0000      -0.640496       -17.4288
  19   2.0000      -0.609623       -16.5887
  20   2.0000      -0.601382       -16.3644
  21   2.0000      -0.577465       -15.7136
  22   2.0000      -0.565057       -15.3760
  23   2.0000      -0.546006       -14.8576
  24   2.0000      -0.527987       -14.3673
  25   2.0000      -0.514563       -14.0020
  26   2.0000      -0.508819       -13.8457
  27   2.0000      -0.503999       -13.7145
  28   2.0000      -0.491014       -13.3612
  29   2.0000      -0.481443       -13.1007
  30   2.0000      -0.412739       -11.2312
  31   2.0000      -0.366526        -9.9737
  32   0.0000       0.124930         3.3995
  33   0.0000       0.150769         4.1026
  34   0.0000       0.165110         4.4929
  35   0.0000       0.178838         4.8664
  36   0.0000       0.182833         4.9751

MULLIKEN ATOMIC CHARGES
-----------------------
   0 C :   -0.413507
   1 C :   -0.114395
   2 N :   -0.099348
   3 C :   -0.337704
   4 C :    0.239222
   5 O :   -0.395287
   6 C :   -0.265131
   7 C :   -0.359089
   8 H :    0.129537
   9 H :    0.115097
  10 H :    0.155212
  11 H :    0.114963
  12 H :    0.145407
  13 H :    0.152754
  14 H :    0.138296
  15 H :    0.142643
  16 H :    0.129290
  17 H :    0.130396
  18 H :    0.125805
  19 H :    0.131889
  20 H :    0.133950
Sum of atomic charges:    0.0000000

LOEWDIN ATOMIC CHARGES
----------------------
   0 C :   -0.316306
   1 C :   -0.278763
   2 N :    0.161487
   3 C :   -0.297078
   4 C :   -0.430402
   5 O :    0.076052
   6 C :   -0.271545
   7 C :   -0.310491
   8 H :    0.123650
   9 H :    0.116750
  10 H :    0.129053
  11 H :    0.131034
  12 H :    0.144348
  13 H :    0.125672
  14 H :    0.117842
  15 H :    0.117886
  16 H :    0.144297
  17 H :    0.143911
  18 H :    0.118501
  19 H :    0.126843
  20 H :    0.127262

  Mayer bond orders larger than 0.1
B(  0-C ,  1-C ) :   0.9216 B(  0-C ,  8-H ) :   0.9371 B(  0-C ,  9-H ) :   0.9341
B(  0-C , 10-H ) :   0.9402 B(  1-C ,  2-N ) :   0.8430 B(  1-C , 11-H ) :   0.9296
B(  1-C , 12-H ) :   0.9175 B(  2-N ,  3-C ) :   0.9035 B(  2-N ,  4-C ) :   1.2119
B(  3-C , 13-H ) :   0.9316 B(  3-C , 14-H ) :   0.9268 B(  3-C , 15-H ) :   0.9343
B(  4-C ,  5-O ) :   1.8443 B(  4-C ,  6-C ) :   0.9142 B(  6-C ,  7-C ) :   0.9518
B(  6-C , 16-H ) :   0.9154 B(  6-C , 17-H ) :   0.9159 B(  7-C , 18-H ) :   0.9395
B(  7-C , 19-H ) :   0.9361 B(  7-C , 20-H ) :   0.9357

MP2 TOTAL ENERGY:     -365.675786669 Eh
FINAL SINGLE POINT ENERGY      -365.675786668926

DIPOLE MOMENT
-------------
                                X             Y             Z
Electronic contribution:      1.70389      -1.02157       2.74543
Nuclear contribution   :     -2.03840       0.89055      -4.08533
                        -----------------------------------------
Total Dipole Moment    :     -0.33451      -0.13102      -1.33990
                        -----------------------------------------
Magnitude (a.u.)       :      1.38723
Magnitude (Debye)      :      3.52606

                             ****ORCA TERMINATED NORMALLY****
TOTAL RUN TIME: 0 days 0 hours 14 minutes 47 seconds 974 msec
