                         Program Version 3.0.3 - RELEASE   -
|  1> ! RI-MP2 RIJK def2-TZVP def2-TZVP/C def2-TZVP/JK TIGHTSCF
|  2> % maxcore 2000
|  3> % mp2 density relaxed end
|  4> *xyz 0 1
|  5>  C       -0.6117857691     1.4256818408     0.0318756391
|  6>  C       -0.0489855740     0.0396632447    -0.0174505949
|  7>  N        0.1694064198    -0.5399790057    -1.1415260235
|  8>  C        0.5279652622    -1.8522766601    -1.2979161095
|  9>  C        0.1665431855    -2.9040680861    -0.5129268399
| 10>  C       -0.5232862480    -2.7708133939     0.7421208515
| 11>  N       -0.5147721763    -1.7601856411     1.5465317530
| 12>  C        0.2616910829    -0.6327226317     1.2906957165
| 13>  N        1.1036130754    -0.1048024139     2.0840731928
| 14>  H        0.0692593640     2.0730978673     0.5933823687
| 15>  H       -0.7632975350     1.8134477331    -0.9759017415
| 16>  H       -1.5649794311     1.4262920669     0.5736368961
| 17>  H        1.0401448974    -2.0517951572    -2.2364604705
| 18>  H        0.3181904815    -3.9084507420    -0.8965862148
| 19>  H       -1.1222243879    -3.6252577250     1.0652302218
| 20>  H        1.1961469327    -0.6821334661     2.9247838249
| 21> *
| 22>
| 23>                          ****END OF INPUT****

CARTESIAN COORDINATES (ANGSTROEM)
---------------------------------
  C     -0.611786    1.425682    0.031876
  C     -0.048986    0.039663   -0.017451
  N      0.169406   -0.539979   -1.141526
  C      0.527965   -1.852277   -1.297916
  C      0.166543   -2.904068   -0.512927
  C     -0.523286   -2.770813    0.742121
  N     -0.514772   -1.760186    1.546532
  C      0.261691   -0.632723    1.290696
  N      1.103613   -0.104802    2.084073
  H      0.069259    2.073098    0.593382
  H     -0.763298    1.813448   -0.975902
  H     -1.564979    1.426292    0.573637
  H      1.040145   -2.051795   -2.236460
  H      0.318190   -3.908451   -0.896586
  H     -1.122224   -3.625258    1.065230
  H      1.196147   -0.682133    2.924784

 Total Charge           Charge          ....    0
 Multiplicity           Mult            ....    1
 Number of Electrons    NEL             ....   64
 Basis Dimension        Dim             ....  321

ORBITAL ENERGIES
----------------

  NO   OCC          E(Eh)            E(eV)
   0   2.0000     -15.578976      -423.9255
   1   2.0000     -15.578714      -423.9184
   2   2.0000     -15.549761      -423.1305
   3   2.0000     -11.323029      -308.1153
   4   2.0000     -11.321490      -308.0734
   5   2.0000     -11.312098      -307.8178
   6   2.0000     -11.302743      -307.5633
   7   2.0000     -11.246970      -306.0456
   8   2.0000     -11.236739      -305.7672
   9   2.0000      -1.306607       -35.5546
  10   2.0000      -1.250311       -34.0227
  11   2.0000      -1.189332       -32.3634
  12   2.0000      -1.078594       -29.3500
  13   2.0000      -1.007404       -27.4128
  14   2.0000      -0.921394       -25.0724
  15   2.0000      -0.895121       -24.3575
  16   2.0000      -0.786738       -21.4082
  17   2.0000      -0.744182       -20.2502
  18   2.0000      -0.706380       -19.2216
  19   2.0000      -0.664942       -18.0940
  20   2.0000      -0.624606       -16.9964
  21   2.0000      -0.613482       -16.6937
  22   2.0000      -0.604942       -16.4613
  23   2.0000      -0.584806       -15.9134
  24   2.0000      -0.559347       -15.2206
  25   2.0000      -0.536921       -14.6104
  26   2.0000      -0.496603       -13.5133
  27   2.0000      -0.456021       -12.4090
  28   2.0000      -0.441382       -12.0106
  29   2.0000      -0.420987       -11.4556
  30   2.0000      -0.404494       -11.0068
  31   2.0000      -0.344654        -9.3785
  32   0.0000       0.061631         1.6771
  33   0.0000       0.102922         2.8007
  34   0.0000       0.147901         4.0246
  35   0.0000       0.157028         4.2730
  36   0.0000       0.176066         4.7910

MULLIKEN ATOMIC CHARGES
-----------------------
   0 C :   -0.398056
   1 C :    0.210593
   2 N :   -0.213727
   3 C :   -0.052147
   4 C :   -0.122745
   5 C :   -0.027358
   6 N :   -0.203981
   7 C :    0.051366
   8 N :   -0.344055
   9 H :    0.168834
  10 H :    0.147162
  11 H :    0.150998
  12 H :    0.138204
  13 H :    0.139373
  14 H :    0.138016
  15 H :    0.217526
Sum of atomic charges:   -0.0000000

LOEWDIN ATOMIC CHARGES
----------------------
   0 C :   -0.255988
   1 C :   -0.186166
   2 N :    0.188428
   3 C :   -0.198780
   4 C :   -0.170446
   5 C :   -0.208547
   6 N :    0.168730
   7 C :   -0.355666
   8 N :   -0.018747
   9 H :    0.146523
  10 H :    0.134338
  11 H :    0.141723
  12 H :    0.146847
  13 H :    0.155420
  14 H :    0.144411
  15 H :    0.167921

  Mayer bond orders larger than 0.1
B(  0-C ,  1-C ) :   0.9167 B(  0-C ,  9-H ) :   0.9161 B(  0-C , 10-H ) :   0.9384
B(  0-C , 11-H ) :   0.9161 B(  1-C ,  2-N ) :   1.7145 B(  1-C ,  7-C ) :   0.8633
B(  2-N ,  3-C ) :   1.1615 B(  3-C ,  4-C ) :   1.5557 B(  3-C , 12-H ) :   0.9424
B(  4-C ,  5-C ) :   1.0783 B(  4-C , 13-H ) :   0.9050 B(  5-C ,  6-N ) :   1.6901
B(  5-C , 14-H ) :   0.9293 B(  6-N ,  7-C ) :   1.0374 B(  7-C ,  8-N ) :   2.0653
B(  8-N , 15-H ) :   0.8543

MP2 TOTAL ENERGY:     -396.238038481 Eh
FINAL SINGLE POINT ENERGY      -396.238038480999

DIPOLE MOMENT
-------------
                                X             Y             Z
Electronic contribution:      0.86378      -2.56067       0.75159
Nuclear contribution   :     -1.15465       1.81040      -1.10951
                        -----------------------------------------
Total Dipole Moment    :     -0.29086      -0.75027      -0.35793
                        -----------------------------------------
Magnitude (a.u.)       :      0.88069
Magnitude (Debye)      :      2.23855

                             ****ORCA TERMINATED NORMALLY****
TOTAL RUN TIME: 0 days 0 hours 17 minutes 19 seconds 575 msec
