                         Program Version 3.0.3 - RELEASE   -
|  1> ! RI-MP2 RIJK def2-TZVP def2-TZVP/C def2-TZVP/JK TIGHTSCF
|  2> % maxcore 2000
|  3> % mp2 density relaxed end
|  4> *xyz 0 1
|  5>  C       -0.1375689957     1.4024241534     0.0129939765
|  6>  N        0.2031878445    -0.0033380022     0.1114261341
|  7>  C        0.6931211653    -0.6464964514    -1.0114040424
|  8>  C        1.2883480466    -0.1167764668    -2.1408634277
|  9>  N        1.6386179460    -1.1883951887    -2.9147213766
| 10>  N        1.3109219662    -2.3666645147    -2.3902799995
| 11>  C        0.7277320470    -2.0595898560    -1.2203148496
| 12>  C        0.2091622200    -3.0315846847    -0.3343461439
| 13>  C       -0.2637763551    -3.7978154090     0.4666596664
| 14>  H        0.7678824671     1.9951756828    -0.1621625007
| 15>  H       -0.8500181144     1.6265878298    -0.7978352886
| 16>  H       -0.5694916937     1.7348571468     0.9595302634
| 17>  H       -0.4668611054    -0.5646471887     0.6175381652
| 18>  H        1.4901878863     0.8963400463    -2.4443678828
| 19>  H        2.0957065085    -1.1686057521    -3.8100061831
| 20>  H       -0.6637884232    -4.4951909948     1.1600419694
| 21> *
| 22>
| 23>                          ****END OF INPUT****

CARTESIAN COORDINATES (ANGSTROEM)
---------------------------------
  C     -0.137569    1.402424    0.012994
  N      0.203188   -0.003338    0.111426
  C      0.693121   -0.646496   -1.011404
  C      1.288348   -0.116776   -2.140863
  N      1.638618   -1.188395   -2.914721
  N      1.310922   -2.366665   -2.390280
  C      0.727732   -2.059590   -1.220315
  C      0.209162   -3.031585   -0.334346
  C     -0.263776   -3.797815    0.466660
  H      0.767882    1.995176   -0.162163
  H     -0.850018    1.626588   -0.797835
  H     -0.569492    1.734857    0.959530
  H     -0.466861   -0.564647    0.617538
  H      1.490188    0.896340   -2.444368
  H      2.095707   -1.168606   -3.810006
  H     -0.663788   -4.495191    1.160042

 Total Charge           Charge          ....    0
 Multiplicity           Mult            ....    1
 Number of Electrons    NEL             ....   64
 Basis Dimension        Dim             ....  321

ORBITAL ENERGIES
----------------

  NO   OCC          E(Eh)            E(eV)
   0   2.0000     -15.642563      -425.6558
   1   2.0000     -15.601530      -424.5392
   2   2.0000     -15.564447      -423.5301
   3   2.0000     -11.271103      -306.7023
   4   2.0000     -11.269536      -306.6597
   5   2.0000     -11.265739      -306.5563
   6   2.0000     -11.259781      -306.3942
   7   2.0000     -11.238643      -305.8190
   8   2.0000     -11.229110      -305.5596
   9   2.0000      -1.383576       -37.6490
  10   2.0000      -1.235131       -33.6096
  11   2.0000      -1.114180       -30.3184
  12   2.0000      -1.049598       -28.5610
  13   2.0000      -1.017462       -27.6865
  14   2.0000      -0.930168       -25.3112
  15   2.0000      -0.861422       -23.4405
  16   2.0000      -0.795048       -21.6344
  17   2.0000      -0.760155       -20.6849
  18   2.0000      -0.715214       -19.4620
  19   2.0000      -0.661175       -17.9915
  20   2.0000      -0.645974       -17.5778
  21   2.0000      -0.631348       -17.1799
  22   2.0000      -0.628156       -17.0930
  23   2.0000      -0.597891       -16.2694
  24   2.0000      -0.567236       -15.4353
  25   2.0000      -0.540338       -14.7033
  26   2.0000      -0.471797       -12.8383
  27   2.0000      -0.463074       -12.6009
  28   2.0000      -0.436652       -11.8819
  29   2.0000      -0.398698       -10.8491
  30   2.0000      -0.334677        -9.1070
  31   2.0000      -0.297735        -8.1018
  32   0.0000       0.121651         3.3103
  33   0.0000       0.131475         3.5776
  34   0.0000       0.140494         3.8230
  35   0.0000       0.158635         4.3167
  36   0.0000       0.170513         4.6399

MULLIKEN ATOMIC CHARGES
-----------------------
   0 C :   -0.297372
   1 N :   -0.345644
   2 C :    0.097790
   3 C :   -0.174383
   4 N :   -0.098396
   5 N :   -0.223692
   6 C :   -0.078540
   7 C :    0.010973
   8 C :   -0.134413
   9 H :    0.133784
  10 H :    0.125993
  11 H :    0.142925
  12 H :    0.237020
  13 H :    0.154865
  14 H :    0.257535
  15 H :    0.191557
Sum of atomic charges:   -0.0000000

LOEWDIN ATOMIC CHARGES
----------------------
   0 C :   -0.328882
   1 N :    0.043168
   2 C :   -0.232370
   3 C :   -0.232334
   4 N :    0.127486
   5 N :    0.054166
   6 C :   -0.256953
   7 C :   -0.075877
   8 C :   -0.084184
   9 H :    0.117521
  10 H :    0.106342
  11 H :    0.119983
  12 H :    0.188210
  13 H :    0.137348
  14 H :    0.189243
  15 H :    0.127132

  Mayer bond orders larger than 0.1
B(  0-C ,  1-N ) :   0.9214 B(  0-C ,  9-H ) :   0.9342 B(  0-C , 10-H ) :   0.9294
B(  0-C , 11-H ) :   0.9366 B(  1-N ,  2-C ) :   1.1126 B(  1-N , 12-H ) :   0.8672
B(  2-C ,  3-C ) :   1.4111 B(  2-C ,  6-C ) :   1.1813 B(  3-C ,  4-N ) :   1.1592
B(  3-C ,  5-N ) :   0.1253 B(  3-C , 13-H ) :   0.9033 B(  4-N ,  5-N ) :   1.1051
B(  4-N , 14-H ) :   0.8731 B(  5-N ,  6-C ) :   1.4676 B(  6-C ,  7-C ) :   1.2137
B(  6-C ,  8-C ) :  -0.1428 B(  7-C ,  8-C ) :   2.6044 B(  8-C , 15-H ) :   0.8738

MP2 TOTAL ENERGY:     -396.205968487 Eh
FINAL SINGLE POINT ENERGY      -396.205968487406

DIPOLE MOMENT
-------------
                                X             Y             Z
Electronic contribution:      2.22556      -6.85921      -2.87640
Nuclear contribution   :     -2.43232       8.09603       2.72916
                        -----------------------------------------
Total Dipole Moment    :     -0.20676       1.23682      -0.14724
                        -----------------------------------------
Magnitude (a.u.)       :      1.26260
Magnitude (Debye)      :      3.20927

                             ****ORCA TERMINATED NORMALLY****
TOTAL RUN TIME: 0 days 0 hours 16 minutes 56 seconds 169 msec
