                         Program Version 3.0.3 - RELEASE   -
|  1> ! RI-MP2 RIJK def2-TZVP def2-TZVP/C def2-TZVP/JK TIGHTSCF
|  2> % maxcore 2000
|  3> % mp2 density relaxed end
|  4> *xyz 0 1
|  5>  C       -0.0341034260     1.5284260000    -0.0173021395
|  6>  C        0.0560804247     0.0234137568     0.0294198984
|  7>  C       -0.8257536355    -0.7838605168     0.9768695202
|  8>  O       -1.5917632438    -1.8835396531     0.6402422242
|  9>  C        0.6918541986    -0.7954648302     1.1486493944
| 10>  C        1.3799015571    -1.9287990227     0.4744027539
| 11>  C        1.2077384773    -1.9142513652    -0.8589320070
| 12>  C        0.4368193991    -0.7012148944    -1.2518408600
| 13>  O        0.1667415558    -0.3338962705    -2.3726908159
| 14>  H        0.9473508550     1.9802845432    -0.1967204635
| 15>  H       -0.6949617679     1.8332227378    -0.8340515132
| 16>  H       -0.4278222209     1.9360885123     0.9185622551
| 17>  H       -1.3692516881    -0.1826722278     1.7003572234
| 18>  H       -1.0693340539    -2.4690688928     0.0772706237
| 19>  H        1.1245783055    -0.3461995628     2.0357054123
| 20>  H        1.9032361906    -2.6985269947     1.0312339590
| 21>  H        1.5634964926    -2.6416016090    -1.5768571754
| 22> *
| 23>
| 24>                          ****END OF INPUT****

CARTESIAN COORDINATES (ANGSTROEM)
---------------------------------
  C     -0.034103    1.528426   -0.017302
  C      0.056080    0.023414    0.029420
  C     -0.825754   -0.783861    0.976870
  O     -1.591763   -1.883540    0.640242
  C      0.691854   -0.795465    1.148649
  C      1.379902   -1.928799    0.474403
  C      1.207738   -1.914251   -0.858932
  C      0.436819   -0.701215   -1.251841
  O      0.166742   -0.333896   -2.372691
  H      0.947351    1.980285   -0.196720
  H     -0.694962    1.833223   -0.834052
  H     -0.427822    1.936089    0.918562
  H     -1.369252   -0.182672    1.700357
  H     -1.069334   -2.469069    0.077271
  H      1.124578   -0.346200    2.035705
  H      1.903236   -2.698527    1.031234
  H      1.563496   -2.641602   -1.576857

 Total Charge           Charge          ....    0
 Multiplicity           Mult            ....    1
 Number of Electrons    NEL             ....   66
 Basis Dimension        Dim             ....  327

ORBITAL ENERGIES
----------------

  NO   OCC          E(Eh)            E(eV)
   0   2.0000     -20.578008      -559.9561
   1   2.0000     -20.547294      -559.1203
   2   2.0000     -11.335746      -308.4613
   3   2.0000     -11.315464      -307.9094
   4   2.0000     -11.281753      -306.9921
   5   2.0000     -11.258095      -306.3483
   6   2.0000     -11.255506      -306.2779
   7   2.0000     -11.249969      -306.1272
   8   2.0000     -11.230396      -305.5946
   9   2.0000      -1.395870       -37.9836
  10   2.0000      -1.386578       -37.7307
  11   2.0000      -1.201175       -32.6856
  12   2.0000      -1.071769       -29.1643
  13   2.0000      -0.983549       -26.7637
  14   2.0000      -0.913408       -24.8551
  15   2.0000      -0.859798       -23.3963
  16   2.0000      -0.780886       -21.2490
  17   2.0000      -0.753079       -20.4923
  18   2.0000      -0.700065       -19.0498
  19   2.0000      -0.680395       -18.5145
  20   2.0000      -0.640282       -17.4230
  21   2.0000      -0.619995       -16.8709
  22   2.0000      -0.602171       -16.3859
  23   2.0000      -0.593431       -16.1481
  24   2.0000      -0.573315       -15.6007
  25   2.0000      -0.562210       -15.2985
  26   2.0000      -0.551676       -15.0119
  27   2.0000      -0.538583       -14.6556
  28   2.0000      -0.534592       -14.5470
  29   2.0000      -0.456504       -12.4221
  30   2.0000      -0.415595       -11.3089
  31   2.0000      -0.401903       -10.9363
  32   2.0000      -0.370182       -10.0732
  33   0.0000       0.073323         1.9952
  34   0.0000       0.137862         3.7514
  35   0.0000       0.150377         4.0920
  36   0.0000       0.159392         4.3373
  37   0.0000       0.181842         4.9482

MULLIKEN ATOMIC CHARGES
-----------------------
   0 C :   -0.408827
   1 C :    0.065845
   2 C :   -0.033715
   3 O :   -0.424388
   4 C :   -0.025292
   5 C :   -0.144911
   6 C :   -0.284774
   7 C :    0.207130
   8 O :   -0.276340
   9 H :    0.136880
  10 H :    0.160685
  11 H :    0.128837
  12 H :    0.129018
  13 H :    0.331445
  14 H :    0.146219
  15 H :    0.146732
  16 H :    0.145456
Sum of atomic charges:    0.0000000

LOEWDIN ATOMIC CHARGES
----------------------
   0 C :   -0.257394
   1 C :   -0.190514
   2 C :   -0.250964
   3 O :    0.027043
   4 C :   -0.155595
   5 C :   -0.093353
   6 C :   -0.128114
   7 C :   -0.286081
   8 O :    0.156898
   9 H :    0.131000
  10 H :    0.139668
  11 H :    0.128858
  12 H :    0.150841
  13 H :    0.184095
  14 H :    0.151809
  15 H :    0.145658
  16 H :    0.146145

  Mayer bond orders larger than 0.1
B(  0-C ,  1-C ) :   0.8900 B(  0-C ,  9-H ) :   0.9370 B(  0-C , 10-H ) :   0.9342
B(  0-C , 11-H ) :   0.9321 B(  1-C ,  2-C ) :   0.8322 B(  1-C ,  4-C ) :   0.7746
B(  1-C ,  7-C ) :   0.8795 B(  2-C ,  3-O ) :   1.0453 B(  2-C ,  4-C ) :   0.8316
B(  2-C , 12-H ) :   0.9477 B(  3-O , 13-H ) :   0.8186 B(  4-C ,  5-C ) :   0.9209
B(  4-C , 14-H ) :   0.8963 B(  5-C ,  6-C ) :   1.6722 B(  5-C , 15-H ) :   0.9211
B(  6-C ,  7-C ) :   0.9843 B(  6-C , 16-H ) :   0.9316 B(  7-C ,  8-O ) :   1.9951

MP2 TOTAL ENERGY:     -421.128871066 Eh
FINAL SINGLE POINT ENERGY      -421.128871066101

DIPOLE MOMENT
-------------
                                X             Y             Z
Electronic contribution:     -0.22820      -3.39771      -3.00252
Nuclear contribution   :      0.97348       3.18351       4.05868
                        -----------------------------------------
Total Dipole Moment    :      0.74528      -0.21420       1.05616
                        -----------------------------------------
Magnitude (a.u.)       :      1.31027
Magnitude (Debye)      :      3.33044

                             ****ORCA TERMINATED NORMALLY****
TOTAL RUN TIME: 0 days 0 hours 19 minutes 23 seconds 21 msec
