                         Program Version 3.0.3 - RELEASE   -
|  1> ! RI-MP2 RIJK def2-TZVP def2-TZVP/C def2-TZVP/JK TIGHTSCF
|  2> % maxcore 2000
|  3> % mp2 density relaxed end
|  4> *xyz 0 1
|  5>  C       -0.4497063847     1.5321105276    -0.0138711789
|  6>  C        0.0778467714     0.1108987276    -0.0709736784
|  7>  O        1.1646469366     0.0475830460    -1.0490126431
|  8>  C        2.1201285904    -0.7057190929    -0.4627989071
|  9>  N        1.9906577560    -1.0950510900     0.7386369298
| 10>  C        0.7213644617    -0.5046077270     1.2168293854
| 11>  C        1.0107930274     0.4554451269     2.3731644726
| 12>  C        3.2583078076    -1.0070468471    -1.2886956156
| 13>  N        4.1709090439    -1.2461827588    -1.9548916301
| 14>  H        0.3182158170     2.2325475708     0.3224078433
| 15>  H       -0.7912633622     1.8445817128    -1.0039955190
| 16>  H       -1.2997707502     1.5906746190     0.6723631616
| 17>  H       -0.7022933426    -0.5587459249    -0.4500798690
| 18>  H        0.0899121987    -1.3167497531     1.5908579852
| 19>  H        1.6667439266     1.2729657234     2.0608843698
| 20>  H        0.0857141673     0.8825937382     2.7710442087
| 21>  H        1.5133533052    -0.0890426986     3.1759812448
| 22> *
| 23>
| 24>                          ****END OF INPUT****

CARTESIAN COORDINATES (ANGSTROEM)
---------------------------------
  C     -0.449706    1.532111   -0.013871
  C      0.077847    0.110899   -0.070974
  O      1.164647    0.047583   -1.049013
  C      2.120129   -0.705719   -0.462799
  N      1.990658   -1.095051    0.738637
  C      0.721364   -0.504608    1.216829
  C      1.010793    0.455445    2.373164
  C      3.258308   -1.007047   -1.288696
  N      4.170909   -1.246183   -1.954892
  H      0.318216    2.232548    0.322408
  H     -0.791263    1.844582   -1.003996
  H     -1.299771    1.590675    0.672363
  H     -0.702293   -0.558746   -0.450080
  H      0.089912   -1.316750    1.590858
  H      1.666744    1.272966    2.060884
  H      0.085714    0.882594    2.771044
  H      1.513353   -0.089043    3.175981

 Total Charge           Charge          ....    0
 Multiplicity           Mult            ....    1
 Number of Electrons    NEL             ....   66
 Basis Dimension        Dim             ....  327

ORBITAL ENERGIES
----------------

  NO   OCC          E(Eh)            E(eV)
   0   2.0000     -20.620377      -561.1090
   1   2.0000     -15.600184      -424.5026
   2   2.0000     -15.585913      -424.1143
   3   2.0000     -11.386784      -309.8501
   4   2.0000     -11.319463      -308.0183
   5   2.0000     -11.294988      -307.3522
   6   2.0000     -11.291021      -307.2443
   7   2.0000     -11.243739      -305.9577
   8   2.0000     -11.236965      -305.7734
   9   2.0000      -1.467682       -39.9377
  10   2.0000      -1.254209       -34.1288
  11   2.0000      -1.234902       -33.6034
  12   2.0000      -1.101411       -29.9709
  13   2.0000      -1.007669       -27.4201
  14   2.0000      -0.956321       -26.0228
  15   2.0000      -0.868582       -23.6353
  16   2.0000      -0.824893       -22.4465
  17   2.0000      -0.756002       -20.5719
  18   2.0000      -0.707961       -19.2646
  19   2.0000      -0.649966       -17.6865
  20   2.0000      -0.635554       -17.2943
  21   2.0000      -0.612579       -16.6691
  22   2.0000      -0.584944       -15.9171
  23   2.0000      -0.574075       -15.6214
  24   2.0000      -0.565314       -15.3830
  25   2.0000      -0.560091       -15.2408
  26   2.0000      -0.550234       -14.9726
  27   2.0000      -0.533433       -14.5155
  28   2.0000      -0.512720       -13.9518
  29   2.0000      -0.491743       -13.3810
  30   2.0000      -0.487776       -13.2731
  31   2.0000      -0.459424       -12.5016
  32   2.0000      -0.402470       -10.9518
  33   0.0000       0.085565         2.3283
  34   0.0000       0.121363         3.3024
  35   0.0000       0.147293         4.0080
  36   0.0000       0.165815         4.5121
  37   0.0000       0.170293         4.6339

MULLIKEN ATOMIC CHARGES
-----------------------
   0 C :   -0.380959
   1 C :    0.026917
   2 O :   -0.256039
   3 C :    0.326075
   4 N :   -0.251146
   5 C :    0.069753
   6 C :   -0.427179
   7 C :   -0.161388
   8 N :   -0.036209
   9 H :    0.135718
  10 H :    0.155395
  11 H :    0.138250
  12 H :    0.114148
  13 H :    0.120876
  14 H :    0.137863
  15 H :    0.131584
  16 H :    0.156342
Sum of atomic charges:   -0.0000000

LOEWDIN ATOMIC CHARGES
----------------------
   0 C :   -0.287899
   1 C :   -0.253636
   2 O :    0.270901
   3 C :   -0.385344
   4 N :    0.148471
   5 C :   -0.270977
   6 C :   -0.286806
   7 C :   -0.119712
   8 N :    0.105177
   9 H :    0.129869
  10 H :    0.132847
  11 H :    0.132893
  12 H :    0.145180
  13 H :    0.151995
  14 H :    0.126964
  15 H :    0.126457
  16 H :    0.133621

  Mayer bond orders larger than 0.1
B(  0-C ,  1-C ) :   0.9278 B(  0-C ,  9-H ) :   0.9273 B(  0-C , 10-H ) :   0.9315
B(  0-C , 11-H ) :   0.9335 B(  1-C ,  2-O ) :   0.8315 B(  1-C ,  5-C ) :   0.9045
B(  1-C , 12-H ) :   0.9307 B(  2-O ,  3-C ) :   1.1143 B(  3-C ,  4-N ) :   1.7841
B(  3-C ,  7-C ) :   0.9065 B(  4-N ,  5-C ) :   0.8709 B(  5-C ,  6-C ) :   0.8995
B(  5-C , 13-H ) :   0.9182 B(  6-C , 14-H ) :   0.9357 B(  6-C , 15-H ) :   0.9322
B(  6-C , 16-H ) :   0.9315 B(  7-C ,  8-N ) :   2.8270

MP2 TOTAL ENERGY:     -417.328187476 Eh
FINAL SINGLE POINT ENERGY      -417.328187476278

DIPOLE MOMENT
-------------
                                X             Y             Z
Electronic contribution:      8.64378      -6.42123      -7.87372
Nuclear contribution   :    -10.45288       7.15607       8.76719
                        -----------------------------------------
Total Dipole Moment    :     -1.80911       0.73483       0.89347
                        -----------------------------------------
Magnitude (a.u.)       :      2.14736
Magnitude (Debye)      :      5.45815

                             ****ORCA TERMINATED NORMALLY****
TOTAL RUN TIME: 0 days 0 hours 17 minutes 24 seconds 393 msec
