                         Program Version 3.0.3 - RELEASE   -
|  1> ! RI-MP2 RIJK def2-TZVP def2-TZVP/C def2-TZVP/JK TIGHTSCF
|  2> % maxcore 2000
|  3> % mp2 density relaxed end
|  4> *xyz 0 1
|  5>  O        0.0530175818     1.4640091661     0.0349604188
|  6>  C        0.0949304393     0.0518458591    -0.0007104895
|  7>  C        0.8741567444    -0.5300542189     1.1864471223
|  8>  C        1.0416988129    -2.0484404911     1.0464827902
|  9>  C       -0.2739750762    -2.7464324408     0.7676300020
| 10>  N       -1.4254245767    -2.3637738395     1.6031358502
| 11>  C       -1.4192372874    -2.0082930130     0.1672142248
| 12>  C       -1.3471581513    -0.4987184640    -0.0662290139
| 13>  O       -2.1569479449     0.1868970797     0.8864873473
| 14>  H       -0.7127905866     1.6732567508     0.5891529734
| 15>  H        0.6112686965    -0.2275706902    -0.9300378777
| 16>  H        1.8504174836    -0.0402127984     1.2400963704
| 17>  H        0.3464081888    -0.2915358321     2.1166319044
| 18>  H        1.7217380231    -2.2697419489     0.2129175002
| 19>  H        1.5016427188    -2.4741228447     1.9461164470
| 20>  H       -0.1923153911    -3.8019951099     0.5137470892
| 21>  H       -2.0326519029    -3.1589017022     1.7750573277
| 22>  H       -2.0952523928    -2.5591234866    -0.4808396052
| 23>  H       -1.7633078062    -0.2554210974    -1.0492087325
| 24>  H       -2.1041327931    -0.3552605877     1.6893077610
| 25> *
| 26>
| 27>                          ****END OF INPUT****

CARTESIAN COORDINATES (ANGSTROEM)
---------------------------------
  O      0.053018    1.464009    0.034960
  C      0.094930    0.051846   -0.000710
  C      0.874157   -0.530054    1.186447
  C      1.041699   -2.048440    1.046483
  C     -0.273975   -2.746432    0.767630
  N     -1.425425   -2.363774    1.603136
  C     -1.419237   -2.008293    0.167214
  C     -1.347158   -0.498718   -0.066229
  O     -2.156948    0.186897    0.886487
  H     -0.712791    1.673257    0.589153
  H      0.611269   -0.227571   -0.930038
  H      1.850417   -0.040213    1.240096
  H      0.346408   -0.291536    2.116632
  H      1.721738   -2.269742    0.212918
  H      1.501643   -2.474123    1.946116
  H     -0.192315   -3.801995    0.513747
  H     -2.032652   -3.158902    1.775057
  H     -2.095252   -2.559123   -0.480840
  H     -1.763308   -0.255421   -1.049209
  H     -2.104133   -0.355261    1.689308

 Total Charge           Charge          ....    0
 Multiplicity           Mult            ....    1
 Number of Electrons    NEL             ....   70
 Basis Dimension        Dim             ....  345

ORBITAL ENERGIES
----------------

  NO   OCC          E(Eh)            E(eV)
   0   2.0000     -20.554235      -559.3092
   1   2.0000     -20.538517      -558.8815
   2   2.0000     -15.574245      -423.7968
   3   2.0000     -11.283569      -307.0415
   4   2.0000     -11.276756      -306.8561
   5   2.0000     -11.272617      -306.7435
   6   2.0000     -11.272427      -306.7383
   7   2.0000     -11.233134      -305.6691
   8   2.0000     -11.217841      -305.2530
   9   2.0000      -1.376013       -37.4432
  10   2.0000      -1.339323       -36.4448
  11   2.0000      -1.277422       -34.7604
  12   2.0000      -1.070821       -29.1385
  13   2.0000      -0.997574       -27.1454
  14   2.0000      -0.935598       -25.4589
  15   2.0000      -0.845506       -23.0074
  16   2.0000      -0.831420       -22.6241
  17   2.0000      -0.761671       -20.7261
  18   2.0000      -0.739016       -20.1097
  19   2.0000      -0.681377       -18.5412
  20   2.0000      -0.665594       -18.1117
  21   2.0000      -0.638041       -17.3620
  22   2.0000      -0.625565       -17.0225
  23   2.0000      -0.597767       -16.2661
  24   2.0000      -0.566911       -15.4264
  25   2.0000      -0.556896       -15.1539
  26   2.0000      -0.524890       -14.2830
  27   2.0000      -0.518148       -14.0995
  28   2.0000      -0.513336       -13.9686
  29   2.0000      -0.500305       -13.6140
  30   2.0000      -0.470137       -12.7931
  31   2.0000      -0.464780       -12.6473
  32   2.0000      -0.444903       -12.1064
  33   2.0000      -0.416424       -11.3315
  34   2.0000      -0.399672       -10.8756
  35   0.0000       0.120390         3.2760
  36   0.0000       0.148980         4.0540
  37   0.0000       0.159222         4.3326
  38   0.0000       0.167985         4.5711
  39   0.0000       0.188275         5.1232

MULLIKEN ATOMIC CHARGES
-----------------------
   0 O :   -0.477285
   1 C :    0.077983
   2 C :   -0.211332
   3 C :   -0.225462
   4 C :   -0.021177
   5 N :   -0.462419
   6 C :   -0.065513
   7 C :    0.043971
   8 O :   -0.502252
   9 H :    0.332792
  10 H :    0.092291
  11 H :    0.134735
  12 H :    0.109460
  13 H :    0.113542
  14 H :    0.122207
  15 H :    0.129110
  16 H :    0.224452
  17 H :    0.136386
  18 H :    0.106241
  19 H :    0.342270
Sum of atomic charges:    0.0000000

LOEWDIN ATOMIC CHARGES
----------------------
   0 O :   -0.017495
   1 C :   -0.336972
   2 C :   -0.246472
   3 C :   -0.245288
   4 C :   -0.248518
   5 N :   -0.004235
   6 C :   -0.229554
   7 C :   -0.313645
   8 O :   -0.025934
   9 H :    0.179187
  10 H :    0.145702
  11 H :    0.142586
  12 H :    0.140218
  13 H :    0.145109
  14 H :    0.142991
  15 H :    0.139681
  16 H :    0.168553
  17 H :    0.138751
  18 H :    0.147607
  19 H :    0.177729

  Mayer bond orders larger than 0.1
B(  0-O ,  1-C ) :   0.9872 B(  0-O ,  9-H ) :   0.8139 B(  1-C ,  2-C ) :   0.8781
B(  1-C ,  7-C ) :   0.9266 B(  1-C , 10-H ) :   0.9293 B(  2-C ,  3-C ) :   0.9200
B(  2-C , 11-H ) :   0.9306 B(  2-C , 12-H ) :   0.9198 B(  3-C ,  4-C ) :   0.9268
B(  3-C , 13-H ) :   0.9286 B(  3-C , 14-H ) :   0.9160 B(  4-C ,  5-N ) :   0.8590
B(  4-C ,  6-C ) :   0.9168 B(  4-C , 15-H ) :   0.9279 B(  5-N ,  6-C ) :   0.8700
B(  5-N , 16-H ) :   0.8691 B(  6-C ,  7-C ) :   0.9353 B(  6-C , 17-H ) :   0.9220
B(  7-C ,  8-O ) :   0.9294 B(  7-C , 18-H ) :   0.9439 B(  8-O , 19-H ) :   0.8057

MP2 TOTAL ENERGY:     -439.571903266 Eh
FINAL SINGLE POINT ENERGY      -439.571903266203

DIPOLE MOMENT
-------------
                                X             Y             Z
Electronic contribution:     -2.87558       2.15804      -0.54384
Nuclear contribution   :      2.79212      -3.75769       0.58990
                        -----------------------------------------
Total Dipole Moment    :     -0.08346      -1.59966       0.04606
                        -----------------------------------------
Magnitude (a.u.)       :      1.60249
Magnitude (Debye)      :      4.07321

                             ****ORCA TERMINATED NORMALLY****
TOTAL RUN TIME: 0 days 0 hours 17 minutes 46 seconds 896 msec
