                         Program Version 3.0.3 - RELEASE   -
|  1> ! RI-MP2 RIJK def2-TZVP def2-TZVP/C def2-TZVP/JK TIGHTSCF
|  2> % maxcore 2000
|  3> % mp2 density relaxed end
|  4> *xyz 0 1
|  5>  C       -0.0139390720     1.3945565666     0.0111934756
|  6>  O       -0.0008436698    -0.0116160087     0.0025786452
|  7>  C        0.6341978513    -0.5487678731    -1.1361550197
|  8>  C        0.5854487672    -2.0682305971    -1.0482562445
|  9>  C        1.2738317434    -2.7420087387    -2.2483526683
| 10>  C        1.2650115860    -4.2460631294    -2.1623193292
| 11>  C        2.0299540440    -4.9410507959    -1.0670835855
| 12>  N        0.5805855911    -4.8569167631    -3.0531808304
| 13>  O        0.6192385635    -6.2517327307    -2.8732034388
| 14>  H        1.0050200897     1.8145004584     0.0080263505
| 15>  H       -0.5538184965     1.8053105784    -0.8572207631
| 16>  H       -0.5226952876     1.7126171024     0.9245690964
| 17>  H        0.1334519548    -0.2006885442    -2.0569784468
| 18>  H        1.6815712846    -0.2008029079    -1.1922901999
| 19>  H        1.0587983200    -2.3756407986    -0.1088648261
| 20>  H       -0.4609891079    -2.3881299591    -0.9953586710
| 21>  H        0.7789793813    -2.4487892874    -3.1790608802
| 22>  H        2.3158378519    -2.3957872475    -2.3065724160
| 23>  H        1.3458682928    -5.3437183220    -0.3115111968
| 24>  H        2.5823590953    -5.7922011224    -1.4736375087
| 25>  H        2.7241027031    -4.2585992980    -0.5719166269
| 26>  H        0.0986123137    -6.5635757820    -3.6204982360
| 27> *
| 28>
| 29>                          ****END OF INPUT****

CARTESIAN COORDINATES (ANGSTROEM)
---------------------------------
  C     -0.013939    1.394557    0.011193
  O     -0.000844   -0.011616    0.002579
  C      0.634198   -0.548768   -1.136155
  C      0.585449   -2.068231   -1.048256
  C      1.273832   -2.742009   -2.248353
  C      1.265012   -4.246063   -2.162319
  C      2.029954   -4.941051   -1.067084
  N      0.580586   -4.856917   -3.053181
  O      0.619239   -6.251733   -2.873203
  H      1.005020    1.814500    0.008026
  H     -0.553818    1.805311   -0.857221
  H     -0.522695    1.712617    0.924569
  H      0.133452   -0.200689   -2.056978
  H      1.681571   -0.200803   -1.192290
  H      1.058798   -2.375641   -0.108865
  H     -0.460989   -2.388130   -0.995359
  H      0.778979   -2.448789   -3.179061
  H      2.315838   -2.395787   -2.306572
  H      1.345868   -5.343718   -0.311511
  H      2.582359   -5.792201   -1.473638
  H      2.724103   -4.258599   -0.571917
  H      0.098612   -6.563576   -3.620498

 Total Charge           Charge          ....    0
 Multiplicity           Mult            ....    1
 Number of Electrons    NEL             ....   72
 Basis Dimension        Dim             ....  357

ORBITAL ENERGIES
----------------

  NO   OCC          E(Eh)            E(eV)
   0   2.0000     -20.583998      -560.1191
   1   2.0000     -20.556567      -559.3726
   2   2.0000     -15.606120      -424.6641
   3   2.0000     -11.277433      -306.8746
   4   2.0000     -11.275623      -306.8253
   5   2.0000     -11.271742      -306.7197
   6   2.0000     -11.234820      -305.7150
   7   2.0000     -11.227753      -305.5227
   8   2.0000     -11.226690      -305.4938
   9   2.0000      -1.410902       -38.3926
  10   2.0000      -1.378172       -37.5020
  11   2.0000      -1.167076       -31.7577
  12   2.0000      -1.061591       -28.8874
  13   2.0000      -0.983731       -26.7687
  14   2.0000      -0.956122       -26.0174
  15   2.0000      -0.889358       -24.2007
  16   2.0000      -0.821698       -22.3595
  17   2.0000      -0.730647       -19.8819
  18   2.0000      -0.690825       -18.7983
  19   2.0000      -0.679827       -18.4990
  20   2.0000      -0.656106       -17.8536
  21   2.0000      -0.647719       -17.6253
  22   2.0000      -0.634425       -17.2636
  23   2.0000      -0.607538       -16.5319
  24   2.0000      -0.597561       -16.2605
  25   2.0000      -0.572177       -15.5697
  26   2.0000      -0.550060       -14.9679
  27   2.0000      -0.543473       -14.7887
  28   2.0000      -0.529328       -14.4037
  29   2.0000      -0.515789       -14.0353
  30   2.0000      -0.497372       -13.5342
  31   2.0000      -0.484759       -13.1910
  32   2.0000      -0.476165       -12.9571
  33   2.0000      -0.427471       -11.6321
  34   2.0000      -0.425087       -11.5672
  35   2.0000      -0.375155       -10.2085
  36   0.0000       0.132191         3.5971
  37   0.0000       0.146204         3.9784
  38   0.0000       0.158696         4.3183
  39   0.0000       0.163845         4.4585
  40   0.0000       0.177906         4.8411

MULLIKEN ATOMIC CHARGES
-----------------------
   0 C :   -0.214956
   1 O :   -0.300734
   2 C :   -0.053396
   3 C :   -0.186799
   4 C :   -0.239495
   5 C :    0.093093
   6 C :   -0.432773
   7 N :   -0.108464
   8 O :   -0.374010
   9 H :    0.109768
  10 H :    0.111069
  11 H :    0.139041
  12 H :    0.092891
  13 H :    0.086409
  14 H :    0.115784
  15 H :    0.127278
  16 H :    0.125436
  17 H :    0.123606
  18 H :    0.153708
  19 H :    0.162258
  20 H :    0.135812
  21 H :    0.334476
Sum of atomic charges:   -0.0000000

LOEWDIN ATOMIC CHARGES
----------------------
   0 C :   -0.363231
   1 O :    0.134053
   2 C :   -0.332363
   3 C :   -0.257363
   4 C :   -0.233943
   5 C :   -0.308566
   6 C :   -0.285784
   7 N :    0.018122
   8 O :   -0.078000
   9 H :    0.100551
  10 H :    0.100972
  11 H :    0.113374
  12 H :    0.119168
  13 H :    0.117597
  14 H :    0.140725
  15 H :    0.143766
  16 H :    0.148586
  17 H :    0.145540
  18 H :    0.140415
  19 H :    0.138447
  20 H :    0.129621
  21 H :    0.168312

  Mayer bond orders larger than 0.1
B(  0-C ,  1-O ) :   0.9223 B(  0-C ,  9-H ) :   0.9371 B(  0-C , 10-H ) :   0.9375
B(  0-C , 11-H ) :   0.9395 B(  1-O ,  2-C ) :   0.9640 B(  2-C ,  3-C ) :   0.9456
B(  2-C , 12-H ) :   0.9253 B(  2-C , 13-H ) :   0.9223 B(  3-C ,  4-C ) :   0.9059
B(  3-C , 14-H ) :   0.9265 B(  3-C , 15-H ) :   0.9219 B(  4-C ,  5-C ) :   0.9467
B(  4-C , 16-H ) :   0.9170 B(  4-C , 17-H ) :   0.9246 B(  5-C ,  6-C ) :   0.9278
B(  5-C ,  7-N ) :   1.8536 B(  6-C , 18-H ) :   0.9199 B(  6-C , 19-H ) :   0.9212
B(  6-C , 20-H ) :   0.9319 B(  7-N ,  8-O ) :   0.8158 B(  8-O , 21-H ) :   0.8464

MP2 TOTAL ENERGY:     -440.713284417 Eh
FINAL SINGLE POINT ENERGY      -440.713284417073

DIPOLE MOMENT
-------------
                                X             Y             Z
Electronic contribution:     -1.84999      -7.41759      -3.61765
Nuclear contribution   :      2.15246       7.81189       3.49110
                        -----------------------------------------
Total Dipole Moment    :      0.30248       0.39431      -0.12654
                        -----------------------------------------
Magnitude (a.u.)       :      0.51282
Magnitude (Debye)      :      1.30348

                             ****ORCA TERMINATED NORMALLY****
TOTAL RUN TIME: 0 days 0 hours 16 minutes 27 seconds 614 msec
