                         Program Version 3.0.3 - RELEASE   -
|  1> ! RI-MP2 RIJK def2-TZVP def2-TZVP/C def2-TZVP/JK TIGHTSCF
|  2> % maxcore 2000
|  3> % mp2 density relaxed end
|  4> *xyz 0 1
|  5>  C       -0.2708761613     1.5264002762    -0.1601059714
|  6>  C       -0.0897101072     0.0247538318    -0.0268416031
|  7>  C        1.1551127603    -0.5515622872    -0.8383208461
|  8>  O        1.7531804217     0.2201473544    -1.8347284870
|  9>  C        1.8059830622    -0.5732015051     0.5291626992
| 10>  N        2.9122287346    -0.3153939151     1.0979424845
| 11>  C        2.5044789987    -0.0344040817     2.5057456444
| 12>  C        0.9571304274     0.2360666891     2.4647783283
| 13>  N        0.6051415249    -0.4620444533     1.2196039973
| 14>  H        0.6642466747     2.0681240934     0.0144680459
| 15>  H       -0.6076049499     1.7660691966    -1.1725383279
| 16>  H       -1.0184003817     1.8991195613     0.5469710824
| 17>  H       -1.0341059584    -0.5009449476    -0.1927129903
| 18>  H        0.9371182199    -1.5403110003    -1.2500267032
| 19>  H        2.4056958584     0.7909867967    -1.4136718033
| 20>  H        2.7280732741    -0.9066837330     3.1320840035
| 21>  H        3.0733807201     0.8106706250     2.9019620066
| 22>  H        0.4308783300    -0.1711393587     3.3312975545
| 23>  H        0.7380177717     1.3104421175     2.3981388556
| 24> *
| 25>
| 26>                          ****END OF INPUT****

CARTESIAN COORDINATES (ANGSTROEM)
---------------------------------
  C     -0.270876    1.526400   -0.160106
  C     -0.089710    0.024754   -0.026842
  C      1.155113   -0.551562   -0.838321
  O      1.753180    0.220147   -1.834728
  C      1.805983   -0.573202    0.529163
  N      2.912229   -0.315394    1.097942
  C      2.504479   -0.034404    2.505746
  C      0.957130    0.236067    2.464778
  N      0.605142   -0.462044    1.219604
  H      0.664247    2.068124    0.014468
  H     -0.607605    1.766069   -1.172538
  H     -1.018400    1.899120    0.546971
  H     -1.034106   -0.500945   -0.192713
  H      0.937118   -1.540311   -1.250027
  H      2.405696    0.790987   -1.413672
  H      2.728073   -0.906684    3.132084
  H      3.073381    0.810671    2.901962
  H      0.430878   -0.171139    3.331298
  H      0.738018    1.310442    2.398139

 Total Charge           Charge          ....    0
 Multiplicity           Mult            ....    1
 Number of Electrons    NEL             ....   68
 Basis Dimension        Dim             ....  339

ORBITAL ENERGIES
----------------

  NO   OCC          E(Eh)            E(eV)
   0   2.0000     -20.573558      -559.8350
   1   2.0000     -15.568805      -423.6487
   2   2.0000     -15.542035      -422.9203
   3   2.0000     -11.307486      -307.6923
   4   2.0000     -11.301985      -307.5426
   5   2.0000     -11.283660      -307.0440
   6   2.0000     -11.267817      -306.6129
   7   2.0000     -11.258145      -306.3497
   8   2.0000     -11.231806      -305.6330
   9   2.0000      -1.388914       -37.7943
  10   2.0000      -1.320149       -35.9231
  11   2.0000      -1.179960       -32.1084
  12   2.0000      -1.056816       -28.7574
  13   2.0000      -1.003590       -27.3091
  14   2.0000      -0.925137       -25.1743
  15   2.0000      -0.856806       -23.3149
  16   2.0000      -0.809698       -22.0330
  17   2.0000      -0.761115       -20.7110
  18   2.0000      -0.688782       -18.7427
  19   2.0000      -0.674704       -18.3596
  20   2.0000      -0.642384       -17.4802
  21   2.0000      -0.629195       -17.1213
  22   2.0000      -0.618857       -16.8400
  23   2.0000      -0.585445       -15.9308
  24   2.0000      -0.569368       -15.4933
  25   2.0000      -0.551072       -14.9954
  26   2.0000      -0.535947       -14.5839
  27   2.0000      -0.533244       -14.5103
  28   2.0000      -0.510521       -13.8920
  29   2.0000      -0.491718       -13.3803
  30   2.0000      -0.464898       -12.6505
  31   2.0000      -0.429485       -11.6869
  32   2.0000      -0.418781       -11.3956
  33   2.0000      -0.351339        -9.5604
  34   0.0000       0.125887         3.4256
  35   0.0000       0.147192         4.0053
  36   0.0000       0.159827         4.3491
  37   0.0000       0.168230         4.5778
  38   0.0000       0.172088         4.6828

MULLIKEN ATOMIC CHARGES
-----------------------
   0 C :   -0.459567
   1 C :    0.014808
   2 C :    0.136392
   3 O :   -0.461136
   4 C :   -0.077636
   5 N :   -0.250376
   6 C :   -0.103591
   7 C :   -0.175347
   8 N :   -0.116793
   9 H :    0.130843
  10 H :    0.154486
  11 H :    0.145474
  12 H :    0.111446
  13 H :    0.135353
  14 H :    0.334205
  15 H :    0.115586
  16 H :    0.122827
  17 H :    0.132152
  18 H :    0.110875
Sum of atomic charges:    0.0000000

LOEWDIN ATOMIC CHARGES
----------------------
   0 C :   -0.300614
   1 C :   -0.225519
   2 C :   -0.265632
   3 O :    0.011100
   4 C :   -0.336481
   5 N :    0.072395
   6 C :   -0.257955
   7 C :   -0.255891
   8 N :    0.187286
   9 H :    0.125392
  10 H :    0.136814
  11 H :    0.127624
  12 H :    0.136807
  13 H :    0.148550
  14 H :    0.186666
  15 H :    0.130050
  16 H :    0.126480
  17 H :    0.127536
  18 H :    0.125392

  Mayer bond orders larger than 0.1
B(  0-C ,  1-C ) :   0.9093 B(  0-C ,  9-H ) :   0.9324 B(  0-C , 10-H ) :   0.9272
B(  0-C , 11-H ) :   0.9353 B(  1-C ,  2-C ) :   0.8705 B(  1-C ,  8-N ) :   0.9160
B(  1-C , 12-H ) :   0.9071 B(  2-C ,  3-O ) :   1.0332 B(  2-C ,  4-C ) :   0.9088
B(  2-C , 13-H ) :   0.9242 B(  3-O , 14-H ) :   0.8285 B(  4-C ,  5-N ) :   1.9244
B(  4-C ,  8-N ) :   1.1073 B(  5-N ,  6-C ) :   0.9066 B(  6-C ,  7-C ) :   0.9353
B(  6-C , 15-H ) :   0.9214 B(  6-C , 16-H ) :   0.9253 B(  7-C ,  8-N ) :   0.8860
B(  7-C , 17-H ) :   0.9283 B(  7-C , 18-H ) :   0.9142

MP2 TOTAL ENERGY:     -418.485150270 Eh
FINAL SINGLE POINT ENERGY      -418.485150269756

DIPOLE MOMENT
-------------
                                X             Y             Z
Electronic contribution:      3.14617      -4.20853      -2.30772
Nuclear contribution   :     -3.97178       4.75513       2.90586
                        -----------------------------------------
Total Dipole Moment    :     -0.82560       0.54660       0.59814
                        -----------------------------------------
Magnitude (a.u.)       :      1.15679
Magnitude (Debye)      :      2.94032

                             ****ORCA TERMINATED NORMALLY****
TOTAL RUN TIME: 0 days 0 hours 18 minutes 18 seconds 536 msec
