                         Program Version 3.0.3 - RELEASE   -
|  1> ! RI-MP2 RIJK def2-TZVP def2-TZVP/C def2-TZVP/JK TIGHTSCF
|  2> % maxcore 2000
|  3> % mp2 density relaxed end
|  4> *xyz 0 1
|  5>  C        0.0580399608     1.5171609644     0.1119141494
|  6>  C        0.0148744584     0.0212064224     0.0183232142
|  7>  C        0.7871894686    -0.7126766191    -1.1042153618
|  8>  C        0.5831091783    -2.1722068130    -0.5888032254
|  9>  C       -0.2460173379    -1.8161946864     0.6601359452
| 10>  O        0.4902553383    -0.6887278247     1.2106045682
| 11>  C       -1.3103973337    -0.8212077592     0.1110077906
| 12>  C       -2.2824064740    -0.3487559044     1.0714934557
| 13>  C       -3.1110066148     0.0492141161     1.8469680310
| 14>  H        1.0865848047     1.8525265875     0.2800531274
| 15>  H       -0.3009723580     1.9684745353    -0.8187752934
| 16>  H       -0.5659655628     1.8705113905     0.9362868548
| 17>  H        0.3649852593    -0.5337466652    -2.0968045733
| 18>  H        1.8362891400    -0.4089483764    -1.1122590504
| 19>  H        0.0484908106    -2.8176565688    -1.2908257569
| 20>  H        1.5207453586    -2.6576273655    -0.3116852391
| 21>  H       -0.4933361324    -2.5876853469     1.3877646995
| 22>  H       -1.7869458545    -1.0865469442    -0.8386839303
| 23>  H       -3.8371929495     0.3944659276     2.5403604442
| 24> *
| 25>
| 26>                          ****END OF INPUT****

CARTESIAN COORDINATES (ANGSTROEM)
---------------------------------
  C      0.058040    1.517161    0.111914
  C      0.014874    0.021206    0.018323
  C      0.787189   -0.712677   -1.104215
  C      0.583109   -2.172207   -0.588803
  C     -0.246017   -1.816195    0.660136
  O      0.490255   -0.688728    1.210605
  C     -1.310397   -0.821208    0.111008
  C     -2.282406   -0.348756    1.071493
  C     -3.111007    0.049214    1.846968
  H      1.086585    1.852527    0.280053
  H     -0.300972    1.968475   -0.818775
  H     -0.565966    1.870511    0.936287
  H      0.364985   -0.533747   -2.096805
  H      1.836289   -0.408948   -1.112259
  H      0.048491   -2.817657   -1.290826
  H      1.520745   -2.657627   -0.311685
  H     -0.493336   -2.587685    1.387765
  H     -1.786946   -1.086547   -0.838684
  H     -3.837193    0.394466    2.540360

 Total Charge           Charge          ....    0
 Multiplicity           Mult            ....    1
 Number of Electrons    NEL             ....   66
 Basis Dimension        Dim             ....  339

ORBITAL ENERGIES
----------------

  NO   OCC          E(Eh)            E(eV)
   0   2.0000     -20.548075      -559.1415
   1   2.0000     -11.300118      -307.4919
   2   2.0000     -11.293573      -307.3138
   3   2.0000     -11.259180      -306.3779
   4   2.0000     -11.232762      -305.6590
   5   2.0000     -11.231451      -305.6233
   6   2.0000     -11.230765      -305.6047
   7   2.0000     -11.220414      -305.3230
   8   2.0000     -11.219645      -305.3021
   9   2.0000      -1.393491       -37.9188
  10   2.0000      -1.094666       -29.7874
  11   2.0000      -1.044839       -28.4315
  12   2.0000      -1.022086       -27.8124
  13   2.0000      -0.965226       -26.2651
  14   2.0000      -0.905234       -24.6327
  15   2.0000      -0.793981       -21.6053
  16   2.0000      -0.777968       -21.1696
  17   2.0000      -0.707879       -19.2624
  18   2.0000      -0.673646       -18.3308
  19   2.0000      -0.662411       -18.0251
  20   2.0000      -0.647640       -17.6232
  21   2.0000      -0.616390       -16.7728
  22   2.0000      -0.573658       -15.6100
  23   2.0000      -0.562176       -15.2976
  24   2.0000      -0.536293       -14.5933
  25   2.0000      -0.505031       -13.7426
  26   2.0000      -0.500299       -13.6138
  27   2.0000      -0.491923       -13.3859
  28   2.0000      -0.476752       -12.9731
  29   2.0000      -0.466582       -12.6963
  30   2.0000      -0.422711       -11.5025
  31   2.0000      -0.383678       -10.4404
  32   2.0000      -0.371819       -10.1177
  33   0.0000       0.134716         3.6658
  34   0.0000       0.151701         4.1280
  35   0.0000       0.161755         4.4016
  36   0.0000       0.169016         4.5992
  37   0.0000       0.176404         4.8002

MULLIKEN ATOMIC CHARGES
-----------------------
   0 C :   -0.420005
   1 C :    0.139772
   2 C :   -0.205454
   3 C :   -0.205983
   4 C :    0.018576
   5 O :   -0.316694
   6 C :   -0.204736
   7 C :   -0.030326
   8 C :   -0.140207
   9 H :    0.143143
  10 H :    0.133133
  11 H :    0.159078
  12 H :    0.119127
  13 H :    0.118384
  14 H :    0.114887
  15 H :    0.123916
  16 H :    0.133869
  17 H :    0.130228
  18 H :    0.189294
Sum of atomic charges:    0.0000000

LOEWDIN ATOMIC CHARGES
----------------------
   0 C :   -0.262208
   1 C :   -0.296185
   2 C :   -0.205230
   3 C :   -0.227693
   4 C :   -0.227153
   5 O :    0.183483
   6 C :   -0.160456
   7 C :   -0.086851
   8 C :   -0.095375
   9 H :    0.135736
  10 H :    0.134753
  11 H :    0.137838
  12 H :    0.135154
  13 H :    0.138393
  14 H :    0.134000
  15 H :    0.136982
  16 H :    0.135048
  17 H :    0.163165
  18 H :    0.126600

  Mayer bond orders larger than 0.1
B(  0-C ,  1-C ) :   0.8689 B(  0-C ,  9-H ) :   0.9390 B(  0-C , 10-H ) :   0.9320
B(  0-C , 11-H ) :   0.9387 B(  1-C ,  2-C ) :   0.9552 B(  1-C ,  5-O ) :   0.9359
B(  1-C ,  6-C ) :   0.8607 B(  2-C ,  3-C ) :   0.9770 B(  2-C , 12-H ) :   0.9173
B(  2-C , 13-H ) :   0.9182 B(  3-C ,  4-C ) :   0.9486 B(  3-C , 14-H ) :   0.9168
B(  3-C , 15-H ) :   0.9200 B(  4-C ,  5-O ) :   0.9366 B(  4-C ,  6-C ) :   0.8996
B(  4-C , 16-H ) :   0.9114 B(  5-O ,  6-C ) :  -0.1340 B(  6-C ,  7-C ) :   1.1523
B(  6-C ,  8-C ) :  -0.1340 B(  6-C , 17-H ) :   0.9151 B(  7-C ,  8-C ) :   2.5988
B(  8-C , 18-H ) :   0.8866

MP2 TOTAL ENERGY:     -385.166161124 Eh
FINAL SINGLE POINT ENERGY      -385.166161123648

DIPOLE MOMENT
-------------
                                X             Y             Z
Electronic contribution:     -2.79148      -1.44542       3.89621
Nuclear contribution   :      2.66029       1.34660      -4.57665
                        -----------------------------------------
Total Dipole Moment    :     -0.13119      -0.09882      -0.68044
                        -----------------------------------------
Magnitude (a.u.)       :      0.69998
Magnitude (Debye)      :      1.77922

                             ****ORCA TERMINATED NORMALLY****
TOTAL RUN TIME: 0 days 0 hours 18 minutes 35 seconds 838 msec
