                         Program Version 3.0.3 - RELEASE   -
|  1> ! RI-MP2 RIJK def2-TZVP def2-TZVP/C def2-TZVP/JK TIGHTSCF
|  2> % maxcore 2000
|  3> % mp2 density relaxed end
|  4> *xyz 0 1
|  5>  C       -0.0416186087     1.5871582498    -0.0173097371
|  6>  C        0.1092693660     0.1050473876    -0.0525839237
|  7>  C        0.1235235427    -0.7701732780    -1.1347717529
|  8>  N        0.0095340732    -0.3639440534    -2.4878144594
|  9>  C        0.2921767301    -2.1204625744    -0.6678054545
| 10>  C        0.3194074379    -2.0197582692     0.7027172415
| 11>  C        0.7324343284    -2.4414499468     2.1029227389
| 12>  C        0.6722983089    -0.9018551481     2.4306292352
| 13>  N        0.1689235033    -0.7113278382     1.0578028615
| 14>  H        0.2339694533     2.0026112795    -0.9912590067
| 15>  H       -1.0657855988     1.9174914633     0.2069726016
| 16>  H        0.6134541926     2.0444553613     0.7342025923
| 17>  H       -0.8399471414     0.1602542769    -2.6642074291
| 18>  H        0.0142513346    -1.1615967821    -3.1108268019
| 19>  H        0.3627432497    -3.0044465829    -1.2833727323
| 20>  H        0.0223212436    -3.0592188533     2.6602495356
| 21>  H        1.7302002324    -2.8786024208     2.1966380153
| 22>  H       -0.0228579238    -0.5839160167     3.2134931866
| 23>  H        1.6538292860    -0.4500888046     2.6057752889
| 24> *
| 25>
| 26>                          ****END OF INPUT****

CARTESIAN COORDINATES (ANGSTROEM)
---------------------------------
  C     -0.041619    1.587158   -0.017310
  C      0.109269    0.105047   -0.052584
  C      0.123524   -0.770173   -1.134772
  N      0.009534   -0.363944   -2.487814
  C      0.292177   -2.120463   -0.667805
  C      0.319407   -2.019758    0.702717
  C      0.732434   -2.441450    2.102923
  C      0.672298   -0.901855    2.430629
  N      0.168924   -0.711328    1.057803
  H      0.233969    2.002611   -0.991259
  H     -1.065786    1.917491    0.206973
  H      0.613454    2.044455    0.734203
  H     -0.839947    0.160254   -2.664207
  H      0.014251   -1.161597   -3.110827
  H      0.362743   -3.004447   -1.283373
  H      0.022321   -3.059219    2.660250
  H      1.730200   -2.878602    2.196638
  H     -0.022858   -0.583916    3.213493
  H      1.653829   -0.450089    2.605775

 Total Charge           Charge          ....    0
 Multiplicity           Mult            ....    1
 Number of Electrons    NEL             ....   66
 Basis Dimension        Dim             ....  339

ORBITAL ENERGIES
----------------

  NO   OCC          E(Eh)            E(eV)
   0   2.0000     -15.578002      -423.8990
   1   2.0000     -15.541827      -422.9146
   2   2.0000     -11.281325      -306.9805
   3   2.0000     -11.248500      -306.0872
   4   2.0000     -11.245363      -306.0019
   5   2.0000     -11.238043      -305.8027
   6   2.0000     -11.233055      -305.6670
   7   2.0000     -11.218426      -305.2689
   8   2.0000     -11.198821      -304.7354
   9   2.0000      -1.310588       -35.6629
  10   2.0000      -1.185005       -32.2456
  11   2.0000      -1.077406       -29.3177
  12   2.0000      -1.014889       -27.6165
  13   2.0000      -0.961350       -26.1597
  14   2.0000      -0.882420       -24.0119
  15   2.0000      -0.858030       -23.3482
  16   2.0000      -0.760742       -20.7008
  17   2.0000      -0.711527       -19.3616
  18   2.0000      -0.666149       -18.1268
  19   2.0000      -0.660972       -17.9860
  20   2.0000      -0.625650       -17.0248
  21   2.0000      -0.601918       -16.3790
  22   2.0000      -0.573472       -15.6050
  23   2.0000      -0.555950       -15.1282
  24   2.0000      -0.546356       -14.8671
  25   2.0000      -0.533247       -14.5104
  26   2.0000      -0.523391       -14.2422
  27   2.0000      -0.510286       -13.8856
  28   2.0000      -0.491718       -13.3803
  29   2.0000      -0.474205       -12.9038
  30   2.0000      -0.439287       -11.9536
  31   2.0000      -0.310601        -8.4519
  32   2.0000      -0.261392        -7.1128
  33   0.0000       0.133572         3.6347
  34   0.0000       0.148493         4.0407
  35   0.0000       0.155954         4.2437
  36   0.0000       0.174784         4.7561
  37   0.0000       0.182988         4.9794

MULLIKEN ATOMIC CHARGES
-----------------------
   0 C :   -0.463610
   1 C :   -0.068049
   2 C :    0.240943
   3 N :   -0.553094
   4 C :   -0.373778
   5 C :    0.062480
   6 C :   -0.193992
   7 C :   -0.141504
   8 N :   -0.050345
   9 H :    0.159264
  10 H :    0.139763
  11 H :    0.133383
  12 H :    0.249115
  13 H :    0.238402
  14 H :    0.119932
  15 H :    0.131576
  16 H :    0.126717
  17 H :    0.121675
  18 H :    0.121122
Sum of atomic charges:   -0.0000000

LOEWDIN ATOMIC CHARGES
----------------------
   0 C :   -0.287379
   1 C :   -0.235410
   2 C :   -0.251551
   3 N :   -0.111941
   4 C :   -0.179891
   5 C :   -0.204590
   6 C :   -0.201968
   7 C :   -0.193936
   8 N :    0.294829
   9 H :    0.138218
  10 H :    0.125695
  11 H :    0.128674
  12 H :    0.163038
  13 H :    0.163364
  14 H :    0.133965
  15 H :    0.132471
  16 H :    0.134687
  17 H :    0.123303
  18 H :    0.128422

  Mayer bond orders larger than 0.1
B(  0-C ,  1-C ) :   0.8614 B(  0-C ,  9-H ) :   0.9513 B(  0-C , 10-H ) :   0.9323
B(  0-C , 11-H ) :   0.9397 B(  1-C ,  2-C ) :   1.4368 B(  1-C ,  8-N ) :   1.1504
B(  2-C ,  3-N ) :   0.8981 B(  2-C ,  4-C ) :   1.2528 B(  3-N , 12-H ) :   0.8738
B(  3-N , 13-H ) :   0.8922 B(  4-C ,  5-C ) :   1.4774 B(  4-C , 14-H ) :   0.9130
B(  5-C ,  6-C ) :   0.9211 B(  5-C ,  8-N ) :   1.1071 B(  6-C ,  7-C ) :   0.9651
B(  6-C , 15-H ) :   0.9334 B(  6-C , 16-H ) :   0.8981 B(  7-C ,  8-N ) :   0.8794
B(  7-C , 17-H ) :   0.9128 B(  7-C , 18-H ) :   0.9107

MP2 TOTAL ENERGY:     -381.388061176 Eh
FINAL SINGLE POINT ENERGY      -381.388061176307

DIPOLE MOMENT
-------------
                                X             Y             Z
Electronic contribution:     -0.28593      -2.91191      -0.97551
Nuclear contribution   :      0.09604       2.89649       1.49646
                        -----------------------------------------
Total Dipole Moment    :     -0.18989      -0.01542       0.52096
                        -----------------------------------------
Magnitude (a.u.)       :      0.55470
Magnitude (Debye)      :      1.40994

                             ****ORCA TERMINATED NORMALLY****
TOTAL RUN TIME: 0 days 0 hours 19 minutes 20 seconds 268 msec
