                         Program Version 3.0.3 - RELEASE   -
|  1> ! RI-MP2 RIJK def2-TZVP def2-TZVP/C def2-TZVP/JK TIGHTSCF
|  2> % maxcore 2000
|  3> % mp2 density relaxed end
|  4> *xyz 0 1
|  5>  C       -0.1165827589     1.5442829463     0.0402978990
|  6>  C        0.0415890493     0.0520714880     0.0013855166
|  7>  C       -0.7883920160    -0.8924762047     0.8164618810
|  8>  C        0.7104323508    -0.8989223124     1.0198196312
|  9>  C        1.3384165696    -1.6677599844    -0.1133051804
| 10>  C        2.5926028730    -2.4330552761    -0.1920411743
| 11>  N        1.2855746207    -3.1133305728    -0.3548606478
| 12>  C        0.7196087836    -0.7185346195    -1.1555053698
| 13>  O       -0.0878144547    -1.3331139956    -2.1237862080
| 14>  H        0.8093958700     2.0523365118    -0.2524202315
| 15>  H       -0.9062330055     1.8719368631    -0.6460357263
| 16>  H       -0.3863503660     1.8906383865     1.0435649661
| 17>  H       -1.3608168613    -0.4312176034     1.6154840322
| 18>  H       -1.2804157513    -1.7386516820     0.3448616036
| 19>  H        1.1750221415    -0.6634008208     1.9704771472
| 20>  H        3.2036754664    -2.3931265946    -1.0903024502
| 21>  H        3.1496685749    -2.6066486757     0.7257023368
| 22>  H        1.0333661151    -3.6120508253     0.4951328879
| 23>  H        1.4761237458    -0.0860156200    -1.6413204045
| 24>  H        0.0373340029    -2.2851349584    -1.9922266889
| 25> *
| 26>
| 27>                          ****END OF INPUT****

CARTESIAN COORDINATES (ANGSTROEM)
---------------------------------
  C     -0.116583    1.544283    0.040298
  C      0.041589    0.052071    0.001386
  C     -0.788392   -0.892476    0.816462
  C      0.710432   -0.898922    1.019820
  C      1.338417   -1.667760   -0.113305
  C      2.592603   -2.433055   -0.192041
  N      1.285575   -3.113331   -0.354861
  C      0.719609   -0.718535   -1.155505
  O     -0.087814   -1.333114   -2.123786
  H      0.809396    2.052337   -0.252420
  H     -0.906233    1.871937   -0.646036
  H     -0.386350    1.890638    1.043565
  H     -1.360817   -0.431218    1.615484
  H     -1.280416   -1.738652    0.344862
  H      1.175022   -0.663401    1.970477
  H      3.203675   -2.393127   -1.090302
  H      3.149669   -2.606649    0.725702
  H      1.033366   -3.612051    0.495133
  H      1.476124   -0.086016   -1.641320
  H      0.037334   -2.285135   -1.992227

 Total Charge           Charge          ....    0
 Multiplicity           Mult            ....    1
 Number of Electrons    NEL             ....   68
 Basis Dimension        Dim             ....  345

ORBITAL ENERGIES
----------------

  NO   OCC          E(Eh)            E(eV)
   0   2.0000     -20.541185      -558.9541
   1   2.0000     -15.564397      -423.5288
   2   2.0000     -11.278570      -306.9055
   3   2.0000     -11.270375      -306.6825
   4   2.0000     -11.264076      -306.5111
   5   2.0000     -11.241574      -305.8988
   6   2.0000     -11.239803      -305.8506
   7   2.0000     -11.230924      -305.6090
   8   2.0000     -11.221496      -305.3524
   9   2.0000      -1.357040       -36.9269
  10   2.0000      -1.269491       -34.5446
  11   2.0000      -1.179625       -32.0992
  12   2.0000      -0.979510       -26.6538
  13   2.0000      -0.960152       -26.1271
  14   2.0000      -0.890239       -24.2246
  15   2.0000      -0.846534       -23.0354
  16   2.0000      -0.781802       -21.2739
  17   2.0000      -0.739636       -20.1265
  18   2.0000      -0.698220       -18.9995
  19   2.0000      -0.675660       -18.3856
  20   2.0000      -0.644994       -17.5512
  21   2.0000      -0.611741       -16.6463
  22   2.0000      -0.597465       -16.2578
  23   2.0000      -0.571283       -15.5454
  24   2.0000      -0.563715       -15.3395
  25   2.0000      -0.543019       -14.7763
  26   2.0000      -0.538467       -14.6524
  27   2.0000      -0.493738       -13.4353
  28   2.0000      -0.491317       -13.3694
  29   2.0000      -0.468433       -12.7467
  30   2.0000      -0.432156       -11.7596
  31   2.0000      -0.417994       -11.3742
  32   2.0000      -0.391621       -10.6565
  33   2.0000      -0.369775       -10.0621
  34   0.0000       0.136993         3.7278
  35   0.0000       0.144576         3.9341
  36   0.0000       0.161041         4.3821
  37   0.0000       0.177875         4.8402
  38   0.0000       0.184031         5.0077

MULLIKEN ATOMIC CHARGES
-----------------------
   0 C :   -0.411612
   1 C :    0.099653
   2 C :   -0.294079
   3 C :   -0.086458
   4 C :   -0.024278
   5 C :   -0.176301
   6 N :   -0.427039
   7 C :    0.081044
   8 O :   -0.480943
   9 H :    0.128906
  10 H :    0.146590
  11 H :    0.128610
  12 H :    0.131234
  13 H :    0.141778
  14 H :    0.133050
  15 H :    0.126382
  16 H :    0.130678
  17 H :    0.224303
  18 H :    0.088214
  19 H :    0.340266
Sum of atomic charges:   -0.0000000

LOEWDIN ATOMIC CHARGES
----------------------
   0 C :   -0.273646
   1 C :   -0.196248
   2 C :   -0.178438
   3 C :   -0.132550
   4 C :   -0.270621
   5 C :   -0.230911
   6 N :   -0.008800
   7 C :   -0.249581
   8 O :   -0.012051
   9 H :    0.127364
  10 H :    0.133357
  11 H :    0.129453
  12 H :    0.141576
  13 H :    0.135503
  14 H :    0.138129
  15 H :    0.129152
  16 H :    0.125905
  17 H :    0.168830
  18 H :    0.141652
  19 H :    0.181925

  Mayer bond orders larger than 0.1
B(  0-C ,  1-C ) :   0.9053 B(  0-C ,  9-H ) :   0.9364 B(  0-C , 10-H ) :   0.9399
B(  0-C , 11-H ) :   0.9398 B(  1-C ,  2-C ) :   0.8660 B(  1-C ,  3-C ) :   0.8008
B(  1-C ,  7-C ) :   0.8682 B(  1-C ,  8-O ) :  -0.1106 B(  2-C ,  3-C ) :   0.8565
B(  2-C , 12-H ) :   0.9312 B(  2-C , 13-H ) :   0.9175 B(  3-C ,  4-C ) :   0.9313
B(  3-C , 14-H ) :   0.9075 B(  4-C ,  5-C ) :   0.9462 B(  4-C ,  6-N ) :   0.8637
B(  4-C ,  7-C ) :   0.9776 B(  5-C ,  6-N ) :   0.9392 B(  5-C , 15-H ) :   0.9127
B(  5-C , 16-H ) :   0.9248 B(  6-N , 17-H ) :   0.8666 B(  7-C ,  8-O ) :   1.0818
B(  7-C , 18-H ) :   0.9752 B(  8-O , 19-H ) :   0.8088

MP2 TOTAL ENERGY:     -402.406683246 Eh
FINAL SINGLE POINT ENERGY      -402.406683245607

DIPOLE MOMENT
-------------
                                X             Y             Z
Electronic contribution:      0.40985      -3.40195      -2.18420
Nuclear contribution   :      0.11390       3.46247       3.26009
                        -----------------------------------------
Total Dipole Moment    :      0.52374       0.06052       1.07589
                        -----------------------------------------
Magnitude (a.u.)       :      1.19813
Magnitude (Debye)      :      3.04540

                             ****ORCA TERMINATED NORMALLY****
TOTAL RUN TIME: 0 days 0 hours 17 minutes 51 seconds 413 msec
