                         Program Version 3.0.3 - RELEASE   -
|  1> ! RI-MP2 RIJK def2-TZVP def2-TZVP/C def2-TZVP/JK TIGHTSCF
|  2> % maxcore 2000
|  3> % mp2 density relaxed end
|  4> *xyz 0 1
|  5>  O        0.0026009520    -0.0386801977     0.0035372446
|  6>  C       -0.0138222064     1.1709573053     0.0098256725
|  7>  N       -1.1110048539     1.9918308134    -0.2341863527
|  8>  C       -0.8105898897     3.3732957269     0.1110843592
|  9>  C        0.7228459109     3.3950496192    -0.0684093465
| 10>  N        1.0607036098     2.0187337431     0.2625161880
| 11>  H       -2.0179269303     1.5961582941    -0.0437597986
| 12>  H       -1.3139681322     4.0824069599    -0.5512833507
| 13>  H       -1.0811368885     3.6135874308     1.1495519268
| 14>  H        0.9866219841     3.6533860441    -1.1042834742
| 15>  H        1.2068812294     4.1106376323     0.6013689544
| 16>  H        1.9780081249     1.6498303985     0.0681220472
| 17> *
| 18>
| 19>                          ****END OF INPUT****

CARTESIAN COORDINATES (ANGSTROEM)
---------------------------------
  O      0.002601   -0.038680    0.003537
  C     -0.013822    1.170957    0.009826
  N     -1.111005    1.991831   -0.234186
  C     -0.810590    3.373296    0.111084
  C      0.722846    3.395050   -0.068409
  N      1.060704    2.018734    0.262516
  H     -2.017927    1.596158   -0.043760
  H     -1.313968    4.082407   -0.551283
  H     -1.081137    3.613587    1.149552
  H      0.986622    3.653386   -1.104283
  H      1.206881    4.110638    0.601369
  H      1.978008    1.649830    0.068122

 Total Charge           Charge          ....    0
 Multiplicity           Mult            ....    1
 Number of Electrons    NEL             ....   46
 Basis Dimension        Dim             ....  222

ORBITAL ENERGIES
----------------

  NO   OCC          E(Eh)            E(eV)
   0   2.0000     -20.509279      -558.0859
   1   2.0000     -15.578921      -423.9240
   2   2.0000     -15.578892      -423.9232
   3   2.0000     -11.368141      -309.3428
   4   2.0000     -11.281832      -306.9942
   5   2.0000     -11.281246      -306.9783
   6   2.0000      -1.391579       -37.8668
   7   2.0000      -1.281479       -34.8708
   8   2.0000      -1.180171       -32.1141
   9   2.0000      -1.009462       -27.4689
  10   2.0000      -0.861618       -23.4458
  11   2.0000      -0.825932       -22.4747
  12   2.0000      -0.700686       -19.0666
  13   2.0000      -0.693850       -18.8806
  14   2.0000      -0.657373       -17.8880
  15   2.0000      -0.604221       -16.4417
  16   2.0000      -0.597383       -16.2556
  17   2.0000      -0.568890       -15.4803
  18   2.0000      -0.563160       -15.3244
  19   2.0000      -0.532387       -14.4870
  20   2.0000      -0.434651       -11.8275
  21   2.0000      -0.404421       -11.0048
  22   2.0000      -0.398544       -10.8449
  23   0.0000       0.127558         3.4710
  24   0.0000       0.152316         4.1447
  25   0.0000       0.159441         4.3386
  26   0.0000       0.181119         4.9285
  27   0.0000       0.196205         5.3390

MULLIKEN ATOMIC CHARGES
-----------------------
   0 O :   -0.359111
   1 C :    0.299219
   2 N :   -0.344101
   3 C :   -0.111852
   4 C :   -0.111851
   5 N :   -0.344101
   6 H :    0.243998
   7 H :    0.126779
   8 H :    0.115121
   9 H :    0.115121
  10 H :    0.126779
  11 H :    0.243998
Sum of atomic charges:   -0.0000000

LOEWDIN ATOMIC CHARGES
----------------------
   0 O :    0.063195
   1 C :   -0.542350
   2 N :    0.073828
   3 C :   -0.272051
   4 C :   -0.272051
   5 N :    0.073829
   6 H :    0.183288
   7 H :    0.129107
   8 H :    0.125405
   9 H :    0.125405
  10 H :    0.129107
  11 H :    0.183288

  Mayer bond orders larger than 0.1
B(  0-O ,  1-C ) :   2.0139 B(  1-C ,  2-N ) :   1.0950 B(  1-C ,  5-N ) :   1.0950
B(  2-N ,  3-C ) :   0.9045 B(  2-N ,  6-H ) :   0.8729 B(  3-C ,  4-C ) :   0.9485
B(  3-C ,  7-H ) :   0.9311 B(  3-C ,  8-H ) :   0.9283 B(  4-C ,  5-N ) :   0.9045
B(  4-C ,  9-H ) :   0.9283 B(  4-C , 10-H ) :   0.9311 B(  5-N , 11-H ) :   0.8729

MP2 TOTAL ENERGY:     -302.110340364 Eh
FINAL SINGLE POINT ENERGY      -302.110340364178

DIPOLE MOMENT
-------------
                                X             Y             Z
Electronic contribution:      0.06433      -4.73771      -0.02464
Nuclear contribution   :     -0.08717       6.42003       0.03340
                        -----------------------------------------
Total Dipole Moment    :     -0.02284       1.68232       0.00875
                        -----------------------------------------
Magnitude (a.u.)       :      1.68250
Magnitude (Debye)      :      4.27657

                             ****ORCA TERMINATED NORMALLY****
TOTAL RUN TIME: 0 days 0 hours 4 minutes 55 seconds 349 msec
