                         Program Version 3.0.3 - RELEASE   -
|  1> ! RI-MP2 RIJK def2-TZVP def2-TZVP/C def2-TZVP/JK TIGHTSCF
|  2> % maxcore 2000
|  3> % mp2 density relaxed end
|  4> *xyz 0 1
|  5>  N        0.1202408791     1.3905114850     0.1568966174
|  6>  C        0.0276060499     0.0264223333     0.0562323666
|  7>  C       -1.0936879331    -0.7662831941     0.0224749641
|  8>  O       -0.6150814208    -2.0990588800    -0.0125785407
|  9>  C        0.7121883804    -1.9597896249    -0.0036730176
| 10>  O        1.4460661228    -3.0650246780    -0.0381010317
| 11>  N        1.1733491293    -0.7504426259     0.0348707304
| 12>  C       -2.4608922375    -0.5125180792     0.0165624187
| 13>  C       -3.6414720200    -0.2549294975     0.0034216291
| 14>  H        0.9912925976     1.7690452175    -0.1839572668
| 15>  H       -0.6951067695     1.9049359008    -0.1403088354
| 16>  H        0.8520355692    -3.8256957200    -0.0639930155
| 17>  H       -4.6794812974    -0.0335125269     0.0108407915
| 18> *
| 19>
| 20>                          ****END OF INPUT****

CARTESIAN COORDINATES (ANGSTROEM)
---------------------------------
  N      0.120241    1.390511    0.156897
  C      0.027606    0.026422    0.056232
  C     -1.093688   -0.766283    0.022475
  O     -0.615081   -2.099059   -0.012579
  C      0.712188   -1.959790   -0.003673
  O      1.446066   -3.065025   -0.038101
  N      1.173349   -0.750443    0.034871
  C     -2.460892   -0.512518    0.016562
  C     -3.641472   -0.254929    0.003422
  H      0.991293    1.769045   -0.183957
  H     -0.695107    1.904936   -0.140309
  H      0.852036   -3.825696   -0.063993
  H     -4.679481   -0.033513    0.010841

 Total Charge           Charge          ....    0
 Multiplicity           Mult            ....    1
 Number of Electrons    NEL             ....   64
 Basis Dimension        Dim             ....  303

ORBITAL ENERGIES
----------------

  NO   OCC          E(Eh)            E(eV)
   0   2.0000     -20.645004      -561.7791
   1   2.0000     -20.638962      -561.6147
   2   2.0000     -15.583950      -424.0609
   3   2.0000     -15.565237      -423.5516
   4   2.0000     -11.420409      -310.7651
   5   2.0000     -11.330085      -308.3073
   6   2.0000     -11.289115      -307.1924
   7   2.0000     -11.245469      -306.0048
   8   2.0000     -11.231786      -305.6324
   9   2.0000      -1.523573       -41.4585
  10   2.0000      -1.436165       -39.0800
  11   2.0000      -1.281541       -34.8725
  12   2.0000      -1.203177       -32.7401
  13   2.0000      -1.070417       -29.1275
  14   2.0000      -0.990788       -26.9607
  15   2.0000      -0.880342       -23.9553
  16   2.0000      -0.847013       -23.0484
  17   2.0000      -0.785840       -21.3838
  18   2.0000      -0.764339       -20.7987
  19   2.0000      -0.706917       -19.2362
  20   2.0000      -0.702751       -19.1228
  21   2.0000      -0.694732       -18.9046
  22   2.0000      -0.654192       -17.8015
  23   2.0000      -0.620406       -16.8821
  24   2.0000      -0.596805       -16.2399
  25   2.0000      -0.592237       -16.1156
  26   2.0000      -0.533807       -14.5256
  27   2.0000      -0.483534       -13.1576
  28   2.0000      -0.446720       -12.1559
  29   2.0000      -0.422418       -11.4946
  30   2.0000      -0.405290       -11.0285
  31   2.0000      -0.293268        -7.9802
  32   0.0000       0.124394         3.3849
  33   0.0000       0.125263         3.4086
  34   0.0000       0.138374         3.7653
  35   0.0000       0.160117         4.3570
  36   0.0000       0.161214         4.3869

MULLIKEN ATOMIC CHARGES
-----------------------
   0 N :   -0.513238
   1 C :    0.166206
   2 C :   -0.044843
   3 O :   -0.240686
   4 C :    0.375513
   5 O :   -0.386616
   6 N :   -0.301971
   7 C :    0.033526
   8 C :   -0.162787
   9 H :    0.266727
  10 H :    0.259671
  11 H :    0.352960
  12 H :    0.195539
Sum of atomic charges:   -0.0000000

LOEWDIN ATOMIC CHARGES
----------------------
   0 N :   -0.041874
   1 C :   -0.319961
   2 C :   -0.232865
   3 O :    0.337983
   4 C :   -0.506149
   5 O :    0.122044
   6 N :    0.124609
   7 C :   -0.104197
   8 C :   -0.074154
   9 H :    0.178475
  10 H :    0.176700
  11 H :    0.210721
  12 H :    0.128667

  Mayer bond orders larger than 0.1
B(  0-N ,  1-C ) :   1.0963 B(  0-N ,  9-H ) :   0.8670 B(  0-N , 10-H ) :   0.8714
B(  1-C ,  2-C ) :   1.4855 B(  1-C ,  6-N ) :   1.1867 B(  2-C ,  3-O ) :   0.9444
B(  2-C ,  7-C ) :   1.2173 B(  2-C ,  8-C ) :  -0.1066 B(  3-O ,  4-C ) :   1.1555
B(  4-C ,  5-O ) :   1.1594 B(  4-C ,  6-N ) :   1.6383 B(  5-O , 11-H ) :   0.8116
B(  7-C ,  8-C ) :   2.6032 B(  8-C , 12-H ) :   0.8800

MP2 TOTAL ENERGY:     -452.002341007 Eh
FINAL SINGLE POINT ENERGY      -452.002341007306

DIPOLE MOMENT
-------------
                                X             Y             Z
Electronic contribution:      1.14839      -3.28836       0.05499
Nuclear contribution   :     -1.77463       3.28336      -0.43436
                        -----------------------------------------
Total Dipole Moment    :     -0.62624      -0.00500      -0.37937
                        -----------------------------------------
Magnitude (a.u.)       :      0.73220
Magnitude (Debye)      :      1.86110

                             ****ORCA TERMINATED NORMALLY****
TOTAL RUN TIME: 0 days 0 hours 13 minutes 11 seconds 872 msec
