                         Program Version 3.0.3 - RELEASE   -
|  1> ! RI-MP2 RIJK def2-TZVP def2-TZVP/C def2-TZVP/JK TIGHTSCF
|  2> % maxcore 2000
|  3> % mp2 density relaxed end
|  4> *xyz 0 1
|  5>  C        0.0200545408     1.4763685916     0.0415405372
|  6>  C       -0.0311841358    -0.0318386892    -0.0372963955
|  7>  C        0.7061550347    -0.6834509735    -1.2397377967
|  8>  C        1.0818804625    -2.0834453494    -0.6738650824
|  9>  C        0.4860946057    -1.9915012975     0.7550844657
| 10>  O        0.6635735221    -0.6153142484     1.0933781454
| 11>  C       -1.0388349372    -2.0841921255     0.6004313209
| 12>  O       -1.7516833459    -3.0311919929     0.7933263730
| 13>  C       -1.4278400719    -0.6799161649     0.1079020290
| 14>  H        1.0578547595     1.8222912509     0.0469511542
| 15>  H       -0.4883174816     1.9221605090    -0.8188920839
| 16>  H       -0.4678414653     1.8338909270     0.9528224648
| 17>  H        0.0763344074    -0.7357882810    -2.1314177207
| 18>  H        1.5972673807    -0.1040832312    -1.4919292225
| 19>  H        0.6697607550    -2.9165922203    -1.2487654379
| 20>  H        2.1643125041    -2.2146173765    -0.6139935429
| 21>  H        0.9165495003    -2.6475512132     1.5091034841
| 22>  H       -2.0129426535    -0.1682080636     0.8793352355
| 23>  H       -2.0280539915    -0.7291292812    -0.8039398774
| 24> *
| 25>
| 26>                          ****END OF INPUT****

CARTESIAN COORDINATES (ANGSTROEM)
---------------------------------
  C      0.020055    1.476369    0.041541
  C     -0.031184   -0.031839   -0.037296
  C      0.706155   -0.683451   -1.239738
  C      1.081880   -2.083445   -0.673865
  C      0.486095   -1.991501    0.755084
  O      0.663574   -0.615314    1.093378
  C     -1.038835   -2.084192    0.600431
  O     -1.751683   -3.031192    0.793326
  C     -1.427840   -0.679916    0.107902
  H      1.057855    1.822291    0.046951
  H     -0.488317    1.922161   -0.818892
  H     -0.467841    1.833891    0.952822
  H      0.076334   -0.735788   -2.131418
  H      1.597267   -0.104083   -1.491929
  H      0.669761   -2.916592   -1.248765
  H      2.164313   -2.214617   -0.613994
  H      0.916550   -2.647551    1.509103
  H     -2.012943   -0.168208    0.879335
  H     -2.028054   -0.729129   -0.803940

 Total Charge           Charge          ....    0
 Multiplicity           Mult            ....    1
 Number of Electrons    NEL             ....   68
 Basis Dimension        Dim             ....  339

ORBITAL ENERGIES
----------------

  NO   OCC          E(Eh)            E(eV)
   0   2.0000     -20.567419      -559.6679
   1   2.0000     -20.552712      -559.2677
   2   2.0000     -11.332807      -308.3814
   3   2.0000     -11.301736      -307.5359
   4   2.0000     -11.292537      -307.2856
   5   2.0000     -11.242196      -305.9157
   6   2.0000     -11.241242      -305.8898
   7   2.0000     -11.238380      -305.8119
   8   2.0000     -11.228913      -305.5543
   9   2.0000      -1.412027       -38.4232
  10   2.0000      -1.388465       -37.7821
  11   2.0000      -1.091842       -29.7105
  12   2.0000      -1.052854       -28.6496
  13   2.0000      -1.010041       -27.4846
  14   2.0000      -0.935698       -25.4616
  15   2.0000      -0.837594       -22.7921
  16   2.0000      -0.780287       -21.2327
  17   2.0000      -0.750470       -20.4213
  18   2.0000      -0.693064       -18.8592
  19   2.0000      -0.680622       -18.5207
  20   2.0000      -0.645886       -17.5755
  21   2.0000      -0.619750       -16.8643
  22   2.0000      -0.607112       -16.5204
  23   2.0000      -0.586547       -15.9608
  24   2.0000      -0.570947       -15.5363
  25   2.0000      -0.553252       -15.0547
  26   2.0000      -0.531239       -14.4557
  27   2.0000      -0.525702       -14.3051
  28   2.0000      -0.511691       -13.9238
  29   2.0000      -0.507331       -13.8052
  30   2.0000      -0.492174       -13.3927
  31   2.0000      -0.469478       -12.7751
  32   2.0000      -0.448745       -12.2110
  33   2.0000      -0.389916       -10.6102
  34   0.0000       0.124616         3.3910
  35   0.0000       0.130034         3.5384
  36   0.0000       0.156279         4.2526
  37   0.0000       0.175283         4.7697
  38   0.0000       0.178557         4.8588

MULLIKEN ATOMIC CHARGES
-----------------------
   0 C :   -0.387656
   1 C :    0.205989
   2 C :   -0.269866
   3 C :   -0.257595
   4 C :    0.103469
   5 O :   -0.312848
   6 C :    0.073056
   7 O :   -0.259641
   8 C :   -0.235332
   9 H :    0.139099
  10 H :    0.134197
  11 H :    0.139855
  12 H :    0.123847
  13 H :    0.122971
  14 H :    0.129129
  15 H :    0.130249
  16 H :    0.146778
  17 H :    0.138486
  18 H :    0.135811
Sum of atomic charges:    0.0000000

LOEWDIN ATOMIC CHARGES
----------------------
   0 C :   -0.265091
   1 C :   -0.349059
   2 C :   -0.205811
   3 C :   -0.220666
   4 C :   -0.267833
   5 O :    0.214592
   6 C :   -0.291832
   7 O :    0.159268
   8 C :   -0.182097
   9 H :    0.132079
  10 H :    0.132905
  11 H :    0.131587
  12 H :    0.138322
  13 H :    0.139651
  14 H :    0.141055
  15 H :    0.140422
  16 H :    0.146457
  17 H :    0.157196
  18 H :    0.148853

  Mayer bond orders larger than 0.1
B(  0-C ,  1-C ) :   0.8542 B(  0-C ,  9-H ) :   0.9399 B(  0-C , 10-H ) :   0.9374
B(  0-C , 11-H ) :   0.9401 B(  1-C ,  2-C ) :   0.9377 B(  1-C ,  5-O ) :   0.8973
B(  1-C ,  8-C ) :   0.9359 B(  2-C ,  3-C ) :   0.9732 B(  2-C , 12-H ) :   0.9204
B(  2-C , 13-H ) :   0.9220 B(  3-C ,  4-C ) :   0.9060 B(  3-C , 14-H ) :   0.9181
B(  3-C , 15-H ) :   0.9184 B(  4-C ,  5-O ) :   0.9573 B(  4-C ,  6-C ) :   0.8815
B(  4-C , 16-H ) :   0.8938 B(  6-C ,  7-O ) :   2.0526 B(  6-C ,  8-C ) :   0.9228
B(  8-C , 17-H ) :   0.8846 B(  8-C , 18-H ) :   0.9030

MP2 TOTAL ENERGY:     -422.364243994 Eh
FINAL SINGLE POINT ENERGY      -422.364243993621

DIPOLE MOMENT
-------------
                                X             Y             Z
Electronic contribution:     -2.32550      -5.64692       4.28270
Nuclear contribution   :      2.74658       6.34636      -5.03529
                        -----------------------------------------
Total Dipole Moment    :      0.42108       0.69945      -0.75260
                        -----------------------------------------
Magnitude (a.u.)       :      1.11038
Magnitude (Debye)      :      2.82235

                             ****ORCA TERMINATED NORMALLY****
TOTAL RUN TIME: 0 days 0 hours 21 minutes 3 seconds 7 msec
