                         Program Version 3.0.3 - RELEASE   -
|  1> ! RI-MP2 RIJK def2-TZVP def2-TZVP/C def2-TZVP/JK TIGHTSCF
|  2> % maxcore 2000
|  3> % mp2 density relaxed end
|  4> *xyz 0 1
|  5>  O        0.0128046108    -0.0954736303     0.0245862594
|  6>  C       -0.0019451716     1.1109694049     0.0020521046
|  7>  C       -1.2917156773     1.9197315702     0.0000209844
|  8>  C       -1.7228601154     2.2758735777     1.4453607656
|  9>  C       -0.7804597653     3.1995143998     2.2369757068
| 10>  C        0.6268123677     2.6228855457     2.4941858286
| 11>  C        1.5402280241     2.7344941005     1.2881541601
| 12>  N        2.3371294123     1.5455627421     0.9262949131
| 13>  C        1.2475124461     1.9646911960     0.0487904928
| 14>  H       -1.1587660268     2.8421761458    -0.5791390801
| 15>  H       -2.0740577347     1.3183805100    -0.4711283374
| 16>  H       -2.7097027820     2.7490567787     1.3895035248
| 17>  H       -1.8587799359     1.3394725873     2.0006277939
| 18>  H       -0.6930988509     4.1670417349     1.7232738034
| 19>  H       -1.2569982976     3.4116308557     3.2009021822
| 20>  H        1.0901575410     3.1379518366     3.3434206214
| 21>  H        0.5526411751     1.5660012966     2.7746636054
| 22>  H        2.0006770073     3.7113068880     1.1458325539
| 23>  H        3.2348169640     1.8151559593     0.5328720271
| 24>  H        1.4788016190     2.4499910505    -0.9000024601
| 25> *
| 26>
| 27>                          ****END OF INPUT****

CARTESIAN COORDINATES (ANGSTROEM)
---------------------------------
  O      0.012805   -0.095474    0.024586
  C     -0.001945    1.110969    0.002052
  C     -1.291716    1.919732    0.000021
  C     -1.722860    2.275874    1.445361
  C     -0.780460    3.199514    2.236976
  C      0.626812    2.622886    2.494186
  C      1.540228    2.734494    1.288154
  N      2.337129    1.545563    0.926295
  C      1.247512    1.964691    0.048790
  H     -1.158766    2.842176   -0.579139
  H     -2.074058    1.318381   -0.471128
  H     -2.709703    2.749057    1.389504
  H     -1.858780    1.339473    2.000628
  H     -0.693099    4.167042    1.723274
  H     -1.256998    3.411631    3.200902
  H      1.090158    3.137952    3.343421
  H      0.552641    1.566001    2.774664
  H      2.000677    3.711307    1.145833
  H      3.234817    1.815156    0.532872
  H      1.478802    2.449991   -0.900002

 Total Charge           Charge          ....    0
 Multiplicity           Mult            ....    1
 Number of Electrons    NEL             ....   68
 Basis Dimension        Dim             ....  345

ORBITAL ENERGIES
----------------

  NO   OCC          E(Eh)            E(eV)
   0   2.0000     -20.541794      -558.9706
   1   2.0000     -15.566783      -423.5937
   2   2.0000     -11.324930      -308.1670
   3   2.0000     -11.271836      -306.7223
   4   2.0000     -11.269753      -306.6656
   5   2.0000     -11.237053      -305.7757
   6   2.0000     -11.236276      -305.7546
   7   2.0000     -11.232439      -305.6502
   8   2.0000     -11.229766      -305.5775
   9   2.0000      -1.385431       -37.6995
  10   2.0000      -1.273823       -34.6625
  11   2.0000      -1.094827       -29.7918
  12   2.0000      -1.025299       -27.8998
  13   2.0000      -0.960046       -26.1242
  14   2.0000      -0.897656       -24.4265
  15   2.0000      -0.844258       -22.9734
  16   2.0000      -0.783464       -21.3191
  17   2.0000      -0.726262       -19.7626
  18   2.0000      -0.714320       -19.4376
  19   2.0000      -0.669198       -18.2098
  20   2.0000      -0.647864       -17.6293
  21   2.0000      -0.608777       -16.5657
  22   2.0000      -0.592420       -16.1206
  23   2.0000      -0.581934       -15.8352
  24   2.0000      -0.569397       -15.4941
  25   2.0000      -0.528872       -14.3914
  26   2.0000      -0.519714       -14.1421
  27   2.0000      -0.502159       -13.6644
  28   2.0000      -0.494526       -13.4567
  29   2.0000      -0.476601       -12.9690
  30   2.0000      -0.461101       -12.5472
  31   2.0000      -0.451350       -12.2819
  32   2.0000      -0.412970       -11.2375
  33   2.0000      -0.388300       -10.5662
  34   0.0000       0.114516         3.1161
  35   0.0000       0.139837         3.8052
  36   0.0000       0.153052         4.1648
  37   0.0000       0.156641         4.2624
  38   0.0000       0.167297         4.5524

MULLIKEN ATOMIC CHARGES
-----------------------
   0 O :   -0.262273
   1 C :    0.165986
   2 C :   -0.209775
   3 C :   -0.250322
   4 C :   -0.227817
   5 C :   -0.223324
   6 C :   -0.078710
   7 N :   -0.379545
   8 C :   -0.030008
   9 H :    0.113617
  10 H :    0.136615
  11 H :    0.128216
  12 H :    0.128301
  13 H :    0.104568
  14 H :    0.129618
  15 H :    0.127629
  16 H :    0.147456
  17 H :    0.118798
  18 H :    0.219645
  19 H :    0.141326
Sum of atomic charges:    0.0000000

LOEWDIN ATOMIC CHARGES
----------------------
   0 O :    0.170350
   1 C :   -0.317454
   2 C :   -0.227205
   3 C :   -0.256393
   4 C :   -0.262806
   5 C :   -0.245497
   6 C :   -0.250635
   7 N :    0.023804
   8 C :   -0.238057
   9 H :    0.144844
  10 H :    0.147822
  11 H :    0.140839
  12 H :    0.144513
  13 H :    0.137739
  14 H :    0.140656
  15 H :    0.141418
  16 H :    0.153194
  17 H :    0.137040
  18 H :    0.168809
  19 H :    0.147021

  Mayer bond orders larger than 0.1
B(  0-O ,  1-C ) :   2.0540 B(  1-C ,  2-C ) :   0.9105 B(  1-C ,  8-C ) :   0.8603
B(  2-C ,  3-C ) :   0.9005 B(  2-C ,  9-H ) :   0.9135 B(  2-C , 10-H ) :   0.9167
B(  3-C ,  4-C ) :   0.9361 B(  3-C , 11-H ) :   0.9284 B(  3-C , 12-H ) :   0.9302
B(  4-C ,  5-C ) :   0.9105 B(  4-C , 13-H ) :   0.9279 B(  4-C , 14-H ) :   0.9282
B(  5-C ,  6-C ) :   0.8824 B(  5-C , 15-H ) :   0.9259 B(  5-C , 16-H ) :   0.9368
B(  6-C ,  7-N ) :   1.0001 B(  6-C ,  8-C ) :   0.9201 B(  6-C , 17-H ) :   0.9242
B(  7-N ,  8-C ) :   0.9207 B(  7-N , 18-H ) :   0.8654 B(  8-C , 19-H ) :   0.8996

MP2 TOTAL ENERGY:     -402.461572522 Eh
FINAL SINGLE POINT ENERGY      -402.461572521875

DIPOLE MOMENT
-------------
                                X             Y             Z
Electronic contribution:      3.46179      -5.39534      -3.65423
Nuclear contribution   :     -3.52072       7.01179       3.55030
                        -----------------------------------------
Total Dipole Moment    :     -0.05892       1.61645      -0.10393
                        -----------------------------------------
Magnitude (a.u.)       :      1.62086
Magnitude (Debye)      :      4.11990

                             ****ORCA TERMINATED NORMALLY****
TOTAL RUN TIME: 0 days 0 hours 18 minutes 36 seconds 607 msec
