                         Program Version 3.0.3 - RELEASE   -
|  1> ! RI-MP2 RIJK def2-TZVP def2-TZVP/C def2-TZVP/JK TIGHTSCF
|  2> % maxcore 2000
|  3> % mp2 density relaxed end
|  4> *xyz 0 1
|  5>  C       -0.0796437669     1.3922859374     0.0230686122
|  6>  N        0.1224030321    -0.0450782287    -0.0209405980
|  7>  C        0.6607603805    -0.6112983091    -1.1343097408
|  8>  N        1.2471573748    -0.0119696125    -2.1051884110
|  9>  C        1.7417536725    -1.0656078290    -2.9560880628
| 10>  C        2.7513663943    -2.0267401134    -2.3456215242
| 11>  C        1.2854168472    -2.3746297658    -2.3416556395
| 12>  C        0.6909145719    -3.5805676355    -3.0038308228
| 13>  O        0.5824935977    -1.9767160469    -1.1603290210
| 14>  H        0.8452453727     1.8852007015    -0.2819153440
| 15>  H       -0.8800240706     1.7342514218    -0.6469330012
| 16>  H       -0.3207475959     1.6863792105     1.0471684138
| 17>  H       -0.5468388196    -0.6259308575     0.4595200527
| 18>  H        1.7602294386    -0.8679849276    -4.0222095192
| 19>  H        3.3736307029    -2.5932828377    -3.0309179885
| 20>  H        3.2281188609    -1.7414474994    -1.4134191694
| 21>  H        1.2174049623    -3.7900434897    -3.9389359579
| 22>  H        0.7739812222    -4.4665516420    -2.3648202223
| 23>  H       -0.3674593578    -3.4198407865    -3.2325465963
| 24> *
| 25>
| 26>                          ****END OF INPUT****

CARTESIAN COORDINATES (ANGSTROEM)
---------------------------------
  C     -0.079644    1.392286    0.023069
  N      0.122403   -0.045078   -0.020941
  C      0.660760   -0.611298   -1.134310
  N      1.247157   -0.011970   -2.105188
  C      1.741754   -1.065608   -2.956088
  C      2.751366   -2.026740   -2.345622
  C      1.285417   -2.374630   -2.341656
  C      0.690915   -3.580568   -3.003831
  O      0.582494   -1.976716   -1.160329
  H      0.845245    1.885201   -0.281915
  H     -0.880024    1.734251   -0.646933
  H     -0.320748    1.686379    1.047168
  H     -0.546839   -0.625931    0.459520
  H      1.760229   -0.867985   -4.022210
  H      3.373631   -2.593283   -3.030918
  H      3.228119   -1.741447   -1.413419
  H      1.217405   -3.790043   -3.938936
  H      0.773981   -4.466552   -2.364820
  H     -0.367459   -3.419841   -3.232547

 Total Charge           Charge          ....    0
 Multiplicity           Mult            ....    1
 Number of Electrons    NEL             ....   68
 Basis Dimension        Dim             ....  339

ORBITAL ENERGIES
----------------

  NO   OCC          E(Eh)            E(eV)
   0   2.0000     -20.594691      -560.4100
   1   2.0000     -15.578998      -423.9261
   2   2.0000     -15.520278      -422.3282
   3   2.0000     -11.356632      -309.0297
   4   2.0000     -11.292288      -307.2788
   5   2.0000     -11.256735      -306.3113
   6   2.0000     -11.255377      -306.2744
   7   2.0000     -11.227148      -305.5062
   8   2.0000     -11.224026      -305.4213
   9   2.0000      -1.447044       -39.3761
  10   2.0000      -1.251597       -34.0577
  11   2.0000      -1.202560       -32.7233
  12   2.0000      -1.106093       -30.0983
  13   2.0000      -0.976554       -26.5734
  14   2.0000      -0.947574       -25.7848
  15   2.0000      -0.840729       -22.8774
  16   2.0000      -0.801963       -21.8225
  17   2.0000      -0.763676       -20.7807
  18   2.0000      -0.725790       -19.7497
  19   2.0000      -0.670119       -18.2349
  20   2.0000      -0.638234       -17.3672
  21   2.0000      -0.624023       -16.9805
  22   2.0000      -0.602434       -16.3931
  23   2.0000      -0.581569       -15.8253
  24   2.0000      -0.578541       -15.7429
  25   2.0000      -0.562510       -15.3067
  26   2.0000      -0.550376       -14.9765
  27   2.0000      -0.539243       -14.6735
  28   2.0000      -0.527247       -14.3471
  29   2.0000      -0.490550       -13.3485
  30   2.0000      -0.456594       -12.4246
  31   2.0000      -0.422101       -11.4859
  32   2.0000      -0.377447       -10.2709
  33   2.0000      -0.330715        -8.9992
  34   0.0000       0.139282         3.7901
  35   0.0000       0.148546         4.0422
  36   0.0000       0.174341         4.7441
  37   0.0000       0.183855         5.0029
  38   0.0000       0.188468         5.1285

MULLIKEN ATOMIC CHARGES
-----------------------
   0 C :   -0.262308
   1 N :   -0.349968
   2 C :    0.319516
   3 N :   -0.342800
   4 C :   -0.042689
   5 C :   -0.279499
   6 C :    0.185948
   7 C :   -0.408875
   8 O :   -0.287634
   9 H :    0.159030
  10 H :    0.128965
  11 H :    0.135818
  12 H :    0.244327
  13 H :    0.125922
  14 H :    0.128045
  15 H :    0.140192
  16 H :    0.128658
  17 H :    0.141309
  18 H :    0.136045
Sum of atomic charges:    0.0000000

LOEWDIN ATOMIC CHARGES
----------------------
   0 C :   -0.313623
   1 N :    0.064157
   2 C :   -0.458102
   3 N :    0.072391
   4 C :   -0.234831
   5 C :   -0.192014
   6 C :   -0.303735
   7 C :   -0.268575
   8 O :    0.275458
   9 H :    0.128488
  10 H :    0.111335
  11 H :    0.116754
  12 H :    0.188218
  13 H :    0.138512
  14 H :    0.138615
  15 H :    0.140527
  16 H :    0.134354
  17 H :    0.131268
  18 H :    0.130803

  Mayer bond orders larger than 0.1
B(  0-C ,  1-N ) :   0.8835 B(  0-C ,  9-H ) :   0.9311 B(  0-C , 10-H ) :   0.9374
B(  0-C , 11-H ) :   0.9324 B(  1-N ,  2-C ) :   1.1455 B(  1-N , 12-H ) :   0.8679
B(  2-C ,  3-N ) :   1.7248 B(  2-C ,  8-O ) :   1.0801 B(  3-N ,  4-C ) :   0.9966
B(  4-C ,  5-C ) :   0.8482 B(  4-C ,  6-C ) :   0.8821 B(  4-C , 13-H ) :   0.9347
B(  5-C ,  6-C ) :   0.8855 B(  5-C , 14-H ) :   0.9203 B(  5-C , 15-H ) :   0.9040
B(  6-C ,  7-C ) :   0.9113 B(  6-C ,  8-O ) :   0.8870 B(  7-C , 16-H ) :   0.9320
B(  7-C , 17-H ) :   0.9385 B(  7-C , 18-H ) :   0.9354

MP2 TOTAL ENERGY:     -418.505539916 Eh
FINAL SINGLE POINT ENERGY      -418.505539916085

DIPOLE MOMENT
-------------
                                X             Y             Z
Electronic contribution:      0.15781       0.35053       1.12473
Nuclear contribution   :     -0.58492      -0.73582      -0.93037
                        -----------------------------------------
Total Dipole Moment    :     -0.42711      -0.38529       0.19436
                        -----------------------------------------
Magnitude (a.u.)       :      0.60716
Magnitude (Debye)      :      1.54328

                             ****ORCA TERMINATED NORMALLY****
TOTAL RUN TIME: 0 days 0 hours 16 minutes 32 seconds 542 msec
