                         Program Version 3.0.3 - RELEASE   -
|  1> ! RI-MP2 RIJK def2-TZVP def2-TZVP/C def2-TZVP/JK TIGHTSCF
|  2> % maxcore 2000
|  3> % mp2 density relaxed end
|  4> *xyz 0 1
|  5>  C       -0.1298924199     1.5517971000     0.0264165658
|  6>  C       -0.0645839081     0.0257775513     0.0006194047
|  7>  C       -1.4208334106    -0.5634181528    -0.3829193499
|  8>  C        1.1918880771    -0.6143352272    -0.6541312213
|  9>  C        2.1095389727    -0.2815356310     0.5753404948
| 10>  C        2.6137721900    -1.7335936847     0.6451859481
| 11>  O        3.0926539582    -2.2605299389     1.8576803373
| 12>  C        1.1305725970    -1.8855861214     0.2648913935
| 13>  C        0.6981131610    -0.6649223692     1.1642990676
| 14>  H        0.8253351406     2.0053701164     0.3034458433
| 15>  H       -0.4140422947     1.9453770899    -0.9565649904
| 16>  H       -0.8841906694     1.8965409742     0.7435551564
| 17>  H       -1.7311182133    -0.2119562254    -1.3739267011
| 18>  H       -1.4092858620    -1.6562525493    -0.4055768771
| 19>  H       -2.1950911179    -0.2518941462     0.3281227693
| 20>  H        1.5031711850    -0.6016384040    -1.7013080688
| 21>  H        2.6596407894     0.6436284597     0.7481569554
| 22>  H        3.3399828703    -2.0289876328    -0.1185797892
| 23>  H        2.4741733412    -2.0179667476     2.5554528525
| 24>  H        0.5601262463    -2.7964532021     0.0823613271
| 25>  H        0.4181481671    -0.6986002789     2.2211156917
| 26> *
| 27>
| 28>                          ****END OF INPUT****

CARTESIAN COORDINATES (ANGSTROEM)
---------------------------------
  C     -0.129892    1.551797    0.026417
  C     -0.064584    0.025778    0.000619
  C     -1.420833   -0.563418   -0.382919
  C      1.191888   -0.614335   -0.654131
  C      2.109539   -0.281536    0.575340
  C      2.613772   -1.733594    0.645186
  O      3.092654   -2.260530    1.857680
  C      1.130573   -1.885586    0.264891
  C      0.698113   -0.664922    1.164299
  H      0.825335    2.005370    0.303446
  H     -0.414042    1.945377   -0.956565
  H     -0.884191    1.896541    0.743555
  H     -1.731118   -0.211956   -1.373927
  H     -1.409286   -1.656253   -0.405577
  H     -2.195091   -0.251894    0.328123
  H      1.503171   -0.601638   -1.701308
  H      2.659641    0.643628    0.748157
  H      3.339983   -2.028988   -0.118580
  H      2.474173   -2.017967    2.555453
  H      0.560126   -2.796453    0.082361
  H      0.418148   -0.698600    2.221116

 Total Charge           Charge          ....    0
 Multiplicity           Mult            ....    1
 Number of Electrons    NEL             ....   68
 Basis Dimension        Dim             ....  351

ORBITAL ENERGIES
----------------

  NO   OCC          E(Eh)            E(eV)
   0   2.0000     -20.552434      -559.2601
   1   2.0000     -11.278631      -306.9071
   2   2.0000     -11.246110      -306.0222
   3   2.0000     -11.244733      -305.9848
   4   2.0000     -11.241504      -305.8969
   5   2.0000     -11.240200      -305.8614
   6   2.0000     -11.240178      -305.8608
   7   2.0000     -11.213252      -305.1281
   8   2.0000     -11.213232      -305.1276
   9   2.0000      -1.362675       -37.0803
  10   2.0000      -1.239922       -33.7400
  11   2.0000      -1.055341       -28.7173
  12   2.0000      -0.937095       -25.4997
  13   2.0000      -0.924392       -25.1540
  14   2.0000      -0.866451       -23.5773
  15   2.0000      -0.862074       -23.4582
  16   2.0000      -0.788805       -21.4645
  17   2.0000      -0.690817       -18.7981
  18   2.0000      -0.680931       -18.5291
  19   2.0000      -0.668159       -18.1815
  20   2.0000      -0.624156       -16.9842
  21   2.0000      -0.595471       -16.2036
  22   2.0000      -0.590925       -16.0799
  23   2.0000      -0.583484       -15.8774
  24   2.0000      -0.545367       -14.8402
  25   2.0000      -0.534517       -14.5449
  26   2.0000      -0.527871       -14.3641
  27   2.0000      -0.506384       -13.7794
  28   2.0000      -0.454525       -12.3683
  29   2.0000      -0.430414       -11.7122
  30   2.0000      -0.429669       -11.6919
  31   2.0000      -0.421472       -11.4688
  32   2.0000      -0.415691       -11.3115
  33   2.0000      -0.406468       -11.0606
  34   0.0000       0.133870         3.6428
  35   0.0000       0.142909         3.8888
  36   0.0000       0.161304         4.3893
  37   0.0000       0.167143         4.5482
  38   0.0000       0.178317         4.8523

MULLIKEN ATOMIC CHARGES
-----------------------
   0 C :   -0.415719
   1 C :    0.100444
   2 C :   -0.415718
   3 C :   -0.118476
   4 C :   -0.158772
   5 C :    0.091284
   6 O :   -0.465844
   7 C :   -0.158754
   8 C :   -0.154399
   9 H :    0.131691
  10 H :    0.129536
  11 H :    0.128466
  12 H :    0.129532
  13 H :    0.131691
  14 H :    0.128469
  15 H :    0.125229
  16 H :    0.125597
  17 H :    0.105591
  18 H :    0.314638
  19 H :    0.125598
  20 H :    0.119915
Sum of atomic charges:    0.0000000

LOEWDIN ATOMIC CHARGES
----------------------
   0 C :   -0.268205
   1 C :   -0.263510
   2 C :   -0.268204
   3 C :   -0.097407
   4 C :   -0.130069
   5 C :   -0.297925
   6 O :   -0.014509
   7 C :   -0.130066
   8 C :   -0.112693
   9 H :    0.126674
  10 H :    0.126840
  11 H :    0.126433
  12 H :    0.126839
  13 H :    0.126674
  14 H :    0.126434
  15 H :    0.129853
  16 H :    0.126912
  17 H :    0.138345
  18 H :    0.176247
  19 H :    0.126913
  20 H :    0.124427

  Mayer bond orders larger than 0.1
B(  0-C ,  1-C ) :   0.9171 B(  0-C ,  9-H ) :   0.9343 B(  0-C , 10-H ) :   0.9355
B(  0-C , 11-H ) :   0.9355 B(  1-C ,  2-C ) :   0.9171 B(  1-C ,  3-C ) :   0.8928
B(  1-C ,  8-C ) :   0.8904 B(  2-C , 12-H ) :   0.9355 B(  2-C , 13-H ) :   0.9343
B(  2-C , 14-H ) :   0.9355 B(  3-C ,  4-C ) :   0.8304 B(  3-C ,  7-C ) :   0.8304
B(  3-C , 15-H ) :   0.8948 B(  4-C ,  5-C ) :   0.8923 B(  4-C ,  8-C ) :   0.8112
B(  4-C , 16-H ) :   0.9180 B(  5-C ,  6-O ) :   0.9741 B(  5-C ,  7-C ) :   0.8923
B(  5-C , 17-H ) :   0.9579 B(  6-O , 18-H ) :   0.8408 B(  7-C ,  8-C ) :   0.8112
B(  7-C , 19-H ) :   0.9180 B(  8-C , 20-H ) :   0.8951

MP2 TOTAL ENERGY:     -386.347400285 Eh
FINAL SINGLE POINT ENERGY      -386.347400284971

DIPOLE MOMENT
-------------
                                X             Y             Z
Electronic contribution:      6.15058      -4.19882       2.29944
Nuclear contribution   :     -6.77022       4.59732      -2.40405
                        -----------------------------------------
Total Dipole Moment    :     -0.61964       0.39850      -0.10461
                        -----------------------------------------
Magnitude (a.u.)       :      0.74411
Magnitude (Debye)      :      1.89138

                             ****ORCA TERMINATED NORMALLY****
TOTAL RUN TIME: 0 days 0 hours 18 minutes 54 seconds 917 msec
