                         Program Version 3.0.3 - RELEASE   -
|  1> ! RI-MP2 RIJK def2-TZVP def2-TZVP/C def2-TZVP/JK TIGHTSCF
|  2> % maxcore 2000
|  3> % mp2 density relaxed end
|  4> *xyz 0 1
|  5>  C       -0.5208529845     1.4415306724     0.0048517693
|  6>  C       -0.3075120592    -0.0654813030    -0.0144782697
|  7>  O       -0.4653297774    -0.7299539353     0.9851411338
|  8>  N        0.0896267322    -0.6610675154    -1.2228150250
|  9>  C        0.0473963913     0.0218352628    -2.4366151612
| 10>  N        0.1810191451    -0.5711081738    -3.5534830219
| 11>  C        0.3214589674    -2.0904765993    -1.2433606203
| 12>  C        1.6260864720    -2.6078062692    -1.7821111897
| 13>  C        1.3341259110    -2.6869036511    -0.3086907325
| 14>  H        0.3507616968     1.9912001371    -0.3619907919
| 15>  H       -1.3848747043     1.7356167363    -0.5992962892
| 16>  H       -0.7105971135     1.7177725252     1.0415062096
| 17>  H       -0.1118897513     1.0941935047    -2.3205668479
| 18>  H        0.1260430108     0.1077184017    -4.3109042648
| 19>  H       -0.5707609224    -2.6701622032    -1.4575366038
| 20>  H        1.5907707798    -3.5068822854    -2.3858968768
| 21>  H        2.3480613632    -1.8739671094    -2.1180665653
| 22>  H        1.8618248403    -2.0123655230     0.3536164023
| 23>  H        1.0895394826    -3.6440983021     0.1369918949
| 24> *
| 25>
| 26>                          ****END OF INPUT****

CARTESIAN COORDINATES (ANGSTROEM)
---------------------------------
  C     -0.520853    1.441531    0.004852
  C     -0.307512   -0.065481   -0.014478
  O     -0.465330   -0.729954    0.985141
  N      0.089627   -0.661068   -1.222815
  C      0.047396    0.021835   -2.436615
  N      0.181019   -0.571108   -3.553483
  C      0.321459   -2.090477   -1.243361
  C      1.626086   -2.607806   -1.782111
  C      1.334126   -2.686904   -0.308691
  H      0.350762    1.991200   -0.361991
  H     -1.384875    1.735617   -0.599296
  H     -0.710597    1.717773    1.041506
  H     -0.111890    1.094194   -2.320567
  H      0.126043    0.107718   -4.310904
  H     -0.570761   -2.670162   -1.457537
  H      1.590771   -3.506882   -2.385897
  H      2.348061   -1.873967   -2.118067
  H      1.861825   -2.012366    0.353616
  H      1.089539   -3.644098    0.136992

 Total Charge           Charge          ....    0
 Multiplicity           Mult            ....    1
 Number of Electrons    NEL             ....   68
 Basis Dimension        Dim             ....  339

ORBITAL ENERGIES
----------------

  NO   OCC          E(Eh)            E(eV)
   0   2.0000     -20.535052      -558.7872
   1   2.0000     -15.610491      -424.7831
   2   2.0000     -15.547031      -423.0562
   3   2.0000     -11.367244      -309.3184
   4   2.0000     -11.328583      -308.2664
   5   2.0000     -11.263405      -306.4928
   6   2.0000     -11.251490      -306.1686
   7   2.0000     -11.222454      -305.3785
   8   2.0000     -11.221675      -305.3573
   9   2.0000      -1.402452       -38.1627
  10   2.0000      -1.292869       -35.1808
  11   2.0000      -1.187558       -32.3151
  12   2.0000      -1.124759       -30.6062
  13   2.0000      -1.017577       -27.6897
  14   2.0000      -0.879760       -23.9395
  15   2.0000      -0.854538       -23.2532
  16   2.0000      -0.818269       -22.2662
  17   2.0000      -0.741652       -20.1814
  18   2.0000      -0.709837       -19.3156
  19   2.0000      -0.682092       -18.5607
  20   2.0000      -0.667684       -18.1686
  21   2.0000      -0.642561       -17.4850
  22   2.0000      -0.623779       -16.9739
  23   2.0000      -0.607778       -16.5385
  24   2.0000      -0.581135       -15.8135
  25   2.0000      -0.561935       -15.2910
  26   2.0000      -0.542418       -14.7599
  27   2.0000      -0.516070       -14.0430
  28   2.0000      -0.493268       -13.4225
  29   2.0000      -0.453714       -12.3462
  30   2.0000      -0.438060       -11.9202
  31   2.0000      -0.422026       -11.4839
  32   2.0000      -0.417787       -11.3686
  33   2.0000      -0.373419       -10.1613
  34   0.0000       0.121030         3.2934
  35   0.0000       0.129938         3.5358
  36   0.0000       0.157081         4.2744
  37   0.0000       0.159092         4.3291
  38   0.0000       0.175939         4.7876

MULLIKEN ATOMIC CHARGES
-----------------------
   0 C :   -0.459216
   1 C :    0.248281
   2 O :   -0.314410
   3 N :   -0.070921
   4 C :   -0.032009
   5 N :   -0.368928
   6 C :   -0.044920
   7 C :   -0.222326
   8 C :   -0.225790
   9 H :    0.150948
  10 H :    0.156657
  11 H :    0.169089
  12 H :    0.125842
  13 H :    0.220810
  14 H :    0.131404
  15 H :    0.130281
  16 H :    0.134096
  17 H :    0.139195
  18 H :    0.131918
Sum of atomic charges:    0.0000000

LOEWDIN ATOMIC CHARGES
----------------------
   0 C :   -0.283582
   1 C :   -0.413572
   2 O :    0.131013
   3 N :    0.219437
   4 C :   -0.317166
   5 N :   -0.071397
   6 C :   -0.221892
   7 C :   -0.218062
   8 C :   -0.217740
   9 H :    0.131882
  10 H :    0.135076
  11 H :    0.140666
  12 H :    0.128419
  13 H :    0.164726
  14 H :    0.147215
  15 H :    0.134527
  16 H :    0.137372
  17 H :    0.138067
  18 H :    0.135012

  Mayer bond orders larger than 0.1
B(  0-C ,  1-C ) :   0.9009 B(  0-C ,  9-H ) :   0.9199 B(  0-C , 10-H ) :   0.9170
B(  0-C , 11-H ) :   0.9355 B(  1-C ,  2-O ) :   1.9633 B(  1-C ,  3-N ) :   1.0554
B(  3-N ,  4-C ) :   1.0284 B(  3-N ,  6-C ) :   0.8310 B(  4-C ,  5-N ) :   1.9249
B(  4-C , 12-H ) :   0.9209 B(  5-N , 13-H ) :   0.8551 B(  6-C ,  7-C ) :   0.8974
B(  6-C ,  8-C ) :   0.8931 B(  6-C , 14-H ) :   0.9241 B(  7-C ,  8-C ) :   0.8943
B(  7-C , 15-H ) :   0.9288 B(  7-C , 16-H ) :   0.9285 B(  8-C , 17-H ) :   0.9275
B(  8-C , 18-H ) :   0.9303

MP2 TOTAL ENERGY:     -418.508886600 Eh
FINAL SINGLE POINT ENERGY      -418.508886600201

DIPOLE MOMENT
-------------
                                X             Y             Z
Electronic contribution:     -1.90208      -0.38617       0.86670
Nuclear contribution   :      1.98757       1.40910      -1.39626
                        -----------------------------------------
Total Dipole Moment    :      0.08549       1.02293      -0.52956
                        -----------------------------------------
Magnitude (a.u.)       :      1.15505
Magnitude (Debye)      :      2.93590

                             ****ORCA TERMINATED NORMALLY****
TOTAL RUN TIME: 0 days 0 hours 18 minutes 45 seconds 388 msec
