                         Program Version 3.0.3 - RELEASE   -
|  1> ! RI-MP2 RIJK def2-TZVP def2-TZVP/C def2-TZVP/JK TIGHTSCF
|  2> % maxcore 2000
|  3> % mp2 density relaxed end
|  4> *xyz 0 1
|  5>  C       -0.0082421535     1.5506852722     0.0488250987
|  6>  C       -0.0129662983     0.0337054008     0.0094241086
|  7>  O        0.7091018568    -0.4406501626     1.1369220894
|  8>  C        0.7977597382    -1.7868171342     1.2474471149
|  9>  C        0.3055510515    -2.8038512852     0.4509735156
| 10>  N        0.6960985084    -3.9666621607     1.0407437103
| 11>  N        1.4124275079    -3.7709970626     2.1720942590
| 12>  C        1.4743978014    -2.4562239983     2.2983699848
| 13>  O        2.1149253955    -1.8501165873     3.3199946915
| 14>  H        1.0158008084     1.9323221321     0.0152624644
| 15>  H       -0.5582453395     1.9521094862    -0.8073695418
| 16>  H       -0.4799842594     1.9120566430     0.9666062526
| 17>  H       -1.0414359761    -0.3584411061     0.0379561092
| 18>  H        0.4577915377    -0.3384700703    -0.9137271333
| 19>  H       -0.2720147883    -2.7884259999    -0.4575845269
| 20>  H        0.5154180454    -4.9046665359     0.7345374232
| 21>  H        2.4780233040    -2.5504561010     3.8763061598
| 22> *
| 23>
| 24>                          ****END OF INPUT****

CARTESIAN COORDINATES (ANGSTROEM)
---------------------------------
  C     -0.008242    1.550685    0.048825
  C     -0.012966    0.033705    0.009424
  O      0.709102   -0.440650    1.136922
  C      0.797760   -1.786817    1.247447
  C      0.305551   -2.803851    0.450974
  N      0.696099   -3.966662    1.040744
  N      1.412428   -3.770997    2.172094
  C      1.474398   -2.456224    2.298370
  O      2.114925   -1.850117    3.319995
  H      1.015801    1.932322    0.015262
  H     -0.558245    1.952109   -0.807370
  H     -0.479984    1.912057    0.966606
  H     -1.041436   -0.358441    0.037956
  H      0.457792   -0.338470   -0.913727
  H     -0.272015   -2.788426   -0.457585
  H      0.515418   -4.904667    0.734537
  H      2.478023   -2.550456    3.876306

 Total Charge           Charge          ....    0
 Multiplicity           Mult            ....    1
 Number of Electrons    NEL             ....   68
 Basis Dimension        Dim             ....  327

ORBITAL ENERGIES
----------------

  NO   OCC          E(Eh)            E(eV)
   0   2.0000     -20.585526      -560.1607
   1   2.0000     -20.578505      -559.9696
   2   2.0000     -15.627223      -425.2384
   3   2.0000     -15.578717      -423.9184
   4   2.0000     -11.312419      -307.8266
   5   2.0000     -11.288266      -307.1693
   6   2.0000     -11.281565      -306.9870
   7   2.0000     -11.274739      -306.8013
   8   2.0000     -11.221177      -305.3438
   9   2.0000      -1.423339       -38.7310
  10   2.0000      -1.400263       -38.1031
  11   2.0000      -1.355438       -36.8834
  12   2.0000      -1.088313       -29.6145
  13   2.0000      -1.059627       -28.8339
  14   2.0000      -1.009815       -27.4785
  15   2.0000      -0.876382       -23.8476
  16   2.0000      -0.822863       -22.3912
  17   2.0000      -0.789560       -21.4850
  18   2.0000      -0.752904       -20.4876
  19   2.0000      -0.697011       -18.9666
  20   2.0000      -0.674017       -18.3409
  21   2.0000      -0.670750       -18.2520
  22   2.0000      -0.631135       -17.1741
  23   2.0000      -0.627720       -17.0811
  24   2.0000      -0.576570       -15.6893
  25   2.0000      -0.554127       -15.0786
  26   2.0000      -0.550704       -14.9854
  27   2.0000      -0.547456       -14.8970
  28   2.0000      -0.540453       -14.7065
  29   2.0000      -0.496770       -13.5178
  30   2.0000      -0.477665       -12.9979
  31   2.0000      -0.463698       -12.6179
  32   2.0000      -0.346440        -9.4271
  33   2.0000      -0.315025        -8.5723
  34   0.0000       0.130791         3.5590
  35   0.0000       0.140892         3.8339
  36   0.0000       0.155654         4.2356
  37   0.0000       0.159710         4.3459
  38   0.0000       0.168317         4.5801

MULLIKEN ATOMIC CHARGES
-----------------------
   0 C :   -0.369676
   1 C :   -0.068130
   2 O :   -0.273865
   3 C :    0.152473
   4 C :   -0.152947
   5 N :   -0.142346
   6 N :   -0.223731
   7 C :    0.145702
   8 O :   -0.423874
   9 H :    0.136255
  10 H :    0.125711
  11 H :    0.136280
  12 H :    0.104730
  13 H :    0.104740
  14 H :    0.156245
  15 H :    0.256542
  16 H :    0.335891
Sum of atomic charges:    0.0000000

LOEWDIN ATOMIC CHARGES
----------------------
   0 C :   -0.312236
   1 C :   -0.327428
   2 O :    0.251105
   3 C :   -0.292201
   4 C :   -0.252933
   5 N :    0.106789
   6 N :    0.011148
   7 C :   -0.403631
   8 O :    0.075064
   9 H :    0.126748
  10 H :    0.126058
  11 H :    0.126772
  12 H :    0.122169
  13 H :    0.122174
  14 H :    0.137094
  15 H :    0.184953
  16 H :    0.198351

  Mayer bond orders larger than 0.1
B(  0-C ,  1-C ) :   0.9562 B(  0-C ,  9-H ) :   0.9365 B(  0-C , 10-H ) :   0.9330
B(  0-C , 11-H ) :   0.9365 B(  1-C ,  2-O ) :   0.8769 B(  1-C , 12-H ) :   0.9203
B(  1-C , 13-H ) :   0.9203 B(  2-O ,  3-C ) :   1.0857 B(  3-C ,  4-C ) :   1.4050
B(  3-C ,  7-C ) :   1.2594 B(  4-C ,  5-N ) :   1.1485 B(  4-C ,  6-N ) :   0.1107
B(  4-C , 14-H ) :   0.9080 B(  5-N ,  6-N ) :   1.0491 B(  5-N , 15-H ) :   0.8735
B(  6-N ,  7-C ) :   1.5603 B(  7-C ,  8-O ) :   1.1276 B(  8-O , 16-H ) :   0.8208

MP2 TOTAL ENERGY:     -454.414389299 Eh
FINAL SINGLE POINT ENERGY      -454.414389298758

DIPOLE MOMENT
-------------
                                X             Y             Z
Electronic contribution:      3.67787      -8.19411       5.61804
Nuclear contribution   :     -4.29622       7.80821      -6.60086
                        -----------------------------------------
Total Dipole Moment    :     -0.61835      -0.38590      -0.98282
                        -----------------------------------------
Magnitude (a.u.)       :      1.22361
Magnitude (Debye)      :      3.11017

                             ****ORCA TERMINATED NORMALLY****
TOTAL RUN TIME: 0 days 0 hours 15 minutes 33 seconds 132 msec
