                         Program Version 3.0.3 - RELEASE   -
|  1> ! RI-MP2 RIJK def2-TZVP def2-TZVP/C def2-TZVP/JK TIGHTSCF
|  2> % maxcore 2000
|  3> % mp2 density relaxed end
|  4> *xyz 0 1
|  5>  O       -0.0241166728     0.0173517272     0.0659810319
|  6>  C       -0.0384499322     1.2131209657     0.0034999605
|  7>  C       -1.1177460059     2.2959552758     0.0948920580
|  8>  C       -0.0150595191     3.1544399429     0.7970533264
|  9>  C        1.0364239470     2.3149394596    -0.0053842568
| 10>  C        1.1219276452     2.9224125870    -1.4029719214
| 11>  C        0.6846111869     2.1525562701    -2.5991999058
| 12>  N       -0.1552725914     3.2272239532    -2.0625984804
| 13>  C       -1.3764832335     2.8697235541    -1.3223035484
| 14>  H       -2.0537712520     2.0730631628     0.6101069955
| 15>  H       -0.0314425824     4.2277804631     0.5956645635
| 16>  H        0.0331854497     2.9700758817     1.8716364370
| 17>  H        2.0178586659     2.0997465744     0.4195087384
| 18>  H        1.8835329250     3.6930345748    -1.5114836433
| 19>  H        1.1178160688     2.3578521493    -3.5746811715
| 20>  H        0.3796718734     1.1185631230    -2.4498576067
| 21>  H       -1.9685430128     2.1643485060    -1.9159933783
| 22>  H       -1.9729184897     3.7830261495    -1.2095488087
| 23> *
| 24>
| 25>                          ****END OF INPUT****

CARTESIAN COORDINATES (ANGSTROEM)
---------------------------------
  O     -0.024117    0.017352    0.065981
  C     -0.038450    1.213121    0.003500
  C     -1.117746    2.295955    0.094892
  C     -0.015060    3.154440    0.797053
  C      1.036424    2.314939   -0.005384
  C      1.121928    2.922413   -1.402972
  C      0.684611    2.152556   -2.599200
  N     -0.155273    3.227224   -2.062598
  C     -1.376483    2.869724   -1.322304
  H     -2.053771    2.073063    0.610107
  H     -0.031443    4.227780    0.595665
  H      0.033185    2.970076    1.871636
  H      2.017859    2.099747    0.419509
  H      1.883533    3.693035   -1.511484
  H      1.117816    2.357852   -3.574681
  H      0.379672    1.118563   -2.449858
  H     -1.968543    2.164349   -1.915993
  H     -1.972918    3.783026   -1.209549

 Total Charge           Charge          ....    0
 Multiplicity           Mult            ....    1
 Number of Electrons    NEL             ....   66
 Basis Dimension        Dim             ....  333

ORBITAL ENERGIES
----------------

  NO   OCC          E(Eh)            E(eV)
   0   2.0000     -20.555420      -559.3414
   1   2.0000     -15.567032      -423.6005
   2   2.0000     -11.334387      -308.4244
   3   2.0000     -11.276107      -306.8385
   4   2.0000     -11.270923      -306.6974
   5   2.0000     -11.261808      -306.4494
   6   2.0000     -11.255265      -306.2713
   7   2.0000     -11.252111      -306.1855
   8   2.0000     -11.248014      -306.0740
   9   2.0000      -1.398717       -38.0610
  10   2.0000      -1.290775       -35.1238
  11   2.0000      -1.149393       -31.2766
  12   2.0000      -1.038258       -28.2524
  13   2.0000      -0.909260       -24.7422
  14   2.0000      -0.882635       -24.0177
  15   2.0000      -0.836367       -22.7587
  16   2.0000      -0.824040       -22.4233
  17   2.0000      -0.704649       -19.1745
  18   2.0000      -0.689682       -18.7672
  19   2.0000      -0.663769       -18.0621
  20   2.0000      -0.649535       -17.6747
  21   2.0000      -0.640907       -17.4400
  22   2.0000      -0.603750       -16.4289
  23   2.0000      -0.575574       -15.6622
  24   2.0000      -0.551786       -15.0149
  25   2.0000      -0.539113       -14.6700
  26   2.0000      -0.520319       -14.1586
  27   2.0000      -0.517798       -14.0900
  28   2.0000      -0.500072       -13.6077
  29   2.0000      -0.448293       -12.1987
  30   2.0000      -0.438015       -11.9190
  31   2.0000      -0.394522       -10.7355
  32   2.0000      -0.376286       -10.2393
  33   0.0000       0.129482         3.5234
  34   0.0000       0.147490         4.0134
  35   0.0000       0.154154         4.1947
  36   0.0000       0.168489         4.5848
  37   0.0000       0.173499         4.7211

MULLIKEN ATOMIC CHARGES
-----------------------
   0 O :   -0.245697
   1 C :   -0.028019
   2 C :    0.049090
   3 C :   -0.356217
   4 C :    0.114506
   5 C :   -0.172116
   6 C :   -0.167277
   7 N :   -0.219813
   8 C :   -0.190345
   9 H :    0.134688
  10 H :    0.138125
  11 H :    0.138537
  12 H :    0.140517
  13 H :    0.127606
  14 H :    0.128133
  15 H :    0.140753
  16 H :    0.136709
  17 H :    0.130819
Sum of atomic charges:    0.0000000

LOEWDIN ATOMIC CHARGES
----------------------
   0 O :    0.162987
   1 C :   -0.289226
   2 C :   -0.188069
   3 C :   -0.179413
   4 C :   -0.169912
   5 C :   -0.225221
   6 C :   -0.233614
   7 N :    0.115696
   8 C :   -0.250209
   9 H :    0.147724
  10 H :    0.136989
  11 H :    0.139248
  12 H :    0.149832
  13 H :    0.144653
  14 H :    0.126566
  15 H :    0.133685
  16 H :    0.138610
  17 H :    0.139672

  Mayer bond orders larger than 0.1
B(  0-O ,  1-C ) :   2.0485 B(  1-C ,  2-C ) :   0.8432 B(  1-C ,  4-C ) :   0.8010
B(  2-C ,  3-C ) :   0.8848 B(  2-C ,  4-C ) :  -0.1415 B(  2-C ,  8-C ) :   0.8765
B(  2-C ,  9-H ) :   0.9005 B(  3-C ,  4-C ) :   0.8711 B(  3-C , 10-H ) :   0.9147
B(  3-C , 11-H ) :   0.9213 B(  4-C ,  5-C ) :   0.8587 B(  4-C , 12-H ) :   0.8989
B(  5-C ,  6-C ) :   0.9481 B(  5-C ,  7-N ) :   0.9306 B(  5-C , 13-H ) :   0.9137
B(  6-C ,  7-N ) :   0.8799 B(  6-C , 14-H ) :   0.9279 B(  6-C , 15-H ) :   0.9021
B(  7-N ,  8-C ) :   0.9254 B(  8-C , 16-H ) :   0.9349 B(  8-C , 17-H ) :   0.9237

MP2 TOTAL ENERGY:     -401.233878264 Eh
FINAL SINGLE POINT ENERGY      -401.233878264171

DIPOLE MOMENT
-------------
                                X             Y             Z
Electronic contribution:      0.60668      -3.51032       0.84008
Nuclear contribution   :     -0.58558       4.20010      -0.66233
                        -----------------------------------------
Total Dipole Moment    :      0.02111       0.68979       0.17775
                        -----------------------------------------
Magnitude (a.u.)       :      0.71264
Magnitude (Debye)      :      1.81138

                             ****ORCA TERMINATED NORMALLY****
TOTAL RUN TIME: 0 days 0 hours 19 minutes 25 seconds 917 msec
