                         Program Version 3.0.3 - RELEASE   -
|  1> ! RI-MP2 RIJK def2-TZVP def2-TZVP/C def2-TZVP/JK TIGHTSCF
|  2> % maxcore 2000
|  3> % mp2 density relaxed end
|  4> *xyz 0 1
|  5>  C       -0.9335891186     1.1322453361     0.0941837909
|  6>  C       -0.0017204623    -0.0761900957    -0.0160942632
|  7>  C        0.7465502361    -0.0856129770    -1.3420833554
|  8>  N        1.8330182366     0.8984040729    -1.5292765006
|  9>  C        2.1546213027    -0.5396378647    -1.4199324425
| 10>  C        2.8724183225    -1.0102494544    -0.1728588099
| 11>  C        2.2029374345    -0.6205737856     1.1386645141
| 12>  C        1.8749121549     0.7971430127     1.4682878787
| 13>  N        0.8101770564    -0.1779234435     1.2032857901
| 14>  H       -0.3609033054     2.0625034433     0.0363819798
| 15>  H       -1.6673693598     1.1324263627    -0.7184475628
| 16>  H       -1.4689649088     1.1104589915     1.0471499282
| 17>  H       -0.6217031828    -0.9853696675    -0.0226885954
| 18>  H        0.1073796262    -0.2892839397    -2.2005609624
| 19>  H        1.8772328035     1.1933559443    -2.5005857795
| 20>  H        2.4666723698    -1.0417906257    -2.3336086048
| 21>  H        2.9240016031    -2.1058734147    -0.2215051584
| 22>  H        3.9104917805    -0.6535779814    -0.1773946977
| 23>  H        2.4786535297    -1.2755919759     1.9646991901
| 24>  H        1.9298878954     1.1388867108     2.4998632926
| 25>  H        2.0983838958     1.5389278814     0.7105179480
| 26> *
| 27>
| 28>                          ****END OF INPUT****

CARTESIAN COORDINATES (ANGSTROEM)
---------------------------------
  C     -0.933589    1.132245    0.094184
  C     -0.001720   -0.076190   -0.016094
  C      0.746550   -0.085613   -1.342083
  N      1.833018    0.898404   -1.529277
  C      2.154621   -0.539638   -1.419932
  C      2.872418   -1.010249   -0.172859
  C      2.202937   -0.620574    1.138665
  C      1.874912    0.797143    1.468288
  N      0.810177   -0.177923    1.203286
  H     -0.360903    2.062503    0.036382
  H     -1.667369    1.132426   -0.718448
  H     -1.468965    1.110459    1.047150
  H     -0.621703   -0.985370   -0.022689
  H      0.107380   -0.289284   -2.200561
  H      1.877233    1.193356   -2.500586
  H      2.466672   -1.041791   -2.333609
  H      2.924002   -2.105873   -0.221505
  H      3.910492   -0.653578   -0.177395
  H      2.478654   -1.275592    1.964699
  H      1.929888    1.138887    2.499863
  H      2.098384    1.538928    0.710518

 Total Charge           Charge          ....    0
 Multiplicity           Mult            ....    1
 Number of Electrons    NEL             ....   68
 Basis Dimension        Dim             ....  351

ORBITAL ENERGIES
----------------

  NO   OCC          E(Eh)            E(eV)
   0   2.0000     -15.555306      -423.2814
   1   2.0000     -15.544048      -422.9751
   2   2.0000     -11.261899      -306.4518
   3   2.0000     -11.257184      -306.3235
   4   2.0000     -11.254245      -306.2436
   5   2.0000     -11.249894      -306.1252
   6   2.0000     -11.231496      -305.6245
   7   2.0000     -11.228848      -305.5525
   8   2.0000     -11.205967      -304.9299
   9   2.0000      -1.279622       -34.8203
  10   2.0000      -1.241103       -33.7721
  11   2.0000      -1.054045       -28.6820
  12   2.0000      -1.003811       -27.3151
  13   2.0000      -0.908864       -24.7314
  14   2.0000      -0.865364       -23.5477
  15   2.0000      -0.841386       -22.8953
  16   2.0000      -0.791015       -21.5246
  17   2.0000      -0.724656       -19.7189
  18   2.0000      -0.702324       -19.1112
  19   2.0000      -0.655362       -17.8333
  20   2.0000      -0.626324       -17.0432
  21   2.0000      -0.604698       -16.4547
  22   2.0000      -0.595296       -16.1988
  23   2.0000      -0.551239       -15.0000
  24   2.0000      -0.541610       -14.7380
  25   2.0000      -0.521303       -14.1854
  26   2.0000      -0.517671       -14.0865
  27   2.0000      -0.496941       -13.5224
  28   2.0000      -0.472677       -12.8622
  29   2.0000      -0.455825       -12.4036
  30   2.0000      -0.434454       -11.8221
  31   2.0000      -0.426065       -11.5938
  32   2.0000      -0.384792       -10.4707
  33   2.0000      -0.349399        -9.5076
  34   0.0000       0.127990         3.4828
  35   0.0000       0.154093         4.1931
  36   0.0000       0.164294         4.4707
  37   0.0000       0.172369         4.6904
  38   0.0000       0.193209         5.2575

MULLIKEN ATOMIC CHARGES
-----------------------
   0 C :   -0.422073
   1 C :    0.055320
   2 C :   -0.048553
   3 N :   -0.421931
   4 C :   -0.075335
   5 C :   -0.146231
   6 C :   -0.081392
   7 C :   -0.191465
   8 N :   -0.222686
   9 H :    0.136155
  10 H :    0.120677
  11 H :    0.142020
  12 H :    0.087865
  13 H :    0.125232
  14 H :    0.214072
  15 H :    0.120853
  16 H :    0.113030
  17 H :    0.113236
  18 H :    0.113012
  19 H :    0.115851
  20 H :    0.152343
Sum of atomic charges:    0.0000000

LOEWDIN ATOMIC CHARGES
----------------------
   0 C :   -0.285637
   1 C :   -0.301046
   2 C :   -0.237025
   3 N :   -0.000509
   4 C :   -0.250822
   5 C :   -0.230822
   6 C :   -0.247809
   7 C :   -0.244230
   8 N :    0.134320
   9 H :    0.126999
  10 H :    0.123002
  11 H :    0.127673
  12 H :    0.155328
  13 H :    0.140356
  14 H :    0.164821
  15 H :    0.137932
  16 H :    0.148185
  17 H :    0.148153
  18 H :    0.140315
  19 H :    0.119808
  20 H :    0.131008

  Mayer bond orders larger than 0.1
B(  0-C ,  1-C ) :   0.9059 B(  0-C ,  9-H ) :   0.9344 B(  0-C , 10-H ) :   0.9364
B(  0-C , 11-H ) :   0.9402 B(  1-C ,  2-C ) :   0.9296 B(  1-C ,  8-N ) :   0.9570
B(  1-C , 12-H ) :   0.9298 B(  2-C ,  3-N ) :   0.8749 B(  2-C ,  4-C ) :   0.9013
B(  2-C , 13-H ) :   0.9177 B(  3-N ,  4-C ) :   0.9137 B(  3-N , 14-H ) :   0.8705
B(  4-C ,  5-C ) :   0.9531 B(  4-C , 15-H ) :   0.9333 B(  5-C ,  6-C ) :   0.9415
B(  5-C , 16-H ) :   0.9213 B(  5-C , 17-H ) :   0.9034 B(  6-C ,  7-C ) :   0.9374
B(  6-C ,  8-N ) :   0.9242 B(  6-C , 18-H ) :   0.9291 B(  7-C ,  8-N ) :   0.8603
B(  7-C , 19-H ) :   0.9252 B(  7-C , 20-H ) :   0.9019

MP2 TOTAL ENERGY:     -382.554869353 Eh
FINAL SINGLE POINT ENERGY      -382.554869353478

DIPOLE MOMENT
-------------
                                X             Y             Z
Electronic contribution:      1.66416      -1.35126       0.04667
Nuclear contribution   :     -1.48522       1.07261      -0.93759
                        -----------------------------------------
Total Dipole Moment    :      0.17894      -0.27865      -0.89092
                        -----------------------------------------
Magnitude (a.u.)       :      0.95048
Magnitude (Debye)      :      2.41592

                             ****ORCA TERMINATED NORMALLY****
TOTAL RUN TIME: 0 days 0 hours 20 minutes 1 seconds 869 msec
