                         Program Version 3.0.3 - RELEASE   -
|  1> ! RI-MP2 RIJK def2-TZVP def2-TZVP/C def2-TZVP/JK TIGHTSCF
|  2> % maxcore 2000
|  3> % mp2 density relaxed end
|  4> *xyz 0 1
|  5>  C       -0.0141857084     1.5635240706     0.0526777918
|  6>  C       -0.0248568974     0.0357359867    -0.0157220089
|  7>  C        0.7390120576    -0.4965074816    -1.2457138640
|  8>  O        2.0948646313    -0.0717688892    -1.2784745219
|  9>  C        0.6390181918    -1.9572900906    -1.3360074754
| 10>  C        0.5791547144    -3.1640053920    -1.3719527925
| 11>  C        0.5090731020    -4.5268042854    -1.4177079303
| 12>  N        0.4489868007    -5.6863772545    -1.4535102688
| 13>  H        1.0097244288     1.9449161161     0.0578647913
| 14>  H       -0.5298948363     2.0002915743    -0.8093477305
| 15>  H       -0.5188019399     1.9131673118     0.9574146536
| 16>  H        0.4305386457    -0.3951343678     0.8852555695
| 17>  H       -1.0517607190    -0.3447511249    -0.0555100849
| 18>  H        0.2915288589    -0.0654156455    -2.1505957578
| 19>  H        2.5532237797    -0.4823668780    -0.5357600413
| 20> *
| 21>
| 22>                          ****END OF INPUT****

CARTESIAN COORDINATES (ANGSTROEM)
---------------------------------
  C     -0.014186    1.563524    0.052678
  C     -0.024857    0.035736   -0.015722
  C      0.739012   -0.496507   -1.245714
  O      2.094865   -0.071769   -1.278475
  C      0.639018   -1.957290   -1.336007
  C      0.579155   -3.164005   -1.371953
  C      0.509073   -4.526804   -1.417708
  N      0.448987   -5.686377   -1.453510
  H      1.009724    1.944916    0.057865
  H     -0.529895    2.000292   -0.809348
  H     -0.518802    1.913167    0.957415
  H      0.430539   -0.395134    0.885256
  H     -1.051761   -0.344751   -0.055510
  H      0.291529   -0.065416   -2.150596
  H      2.553224   -0.482367   -0.535760

 Total Charge           Charge          ....    0
 Multiplicity           Mult            ....    1
 Number of Electrons    NEL             ....   58
 Basis Dimension        Dim             ....  290

ORBITAL ENERGIES
----------------

  NO   OCC          E(Eh)            E(eV)
   0   2.0000     -20.590005      -560.2825
   1   2.0000     -15.598122      -424.4465
   2   2.0000     -11.338790      -308.5442
   3   2.0000     -11.305095      -307.6273
   4   2.0000     -11.295525      -307.3669
   5   2.0000     -11.285166      -307.0850
   6   2.0000     -11.255787      -306.2855
   7   2.0000     -11.233547      -305.6804
   8   2.0000      -1.398320       -38.0502
   9   2.0000      -1.237997       -33.6876
  10   2.0000      -1.113880       -30.3102
  11   2.0000      -1.068390       -29.0724
  12   2.0000      -0.976284       -26.5660
  13   2.0000      -0.884588       -24.0709
  14   2.0000      -0.847382       -23.0584
  15   2.0000      -0.746982       -20.3264
  16   2.0000      -0.678505       -18.4631
  17   2.0000      -0.665511       -18.1095
  18   2.0000      -0.603504       -16.4222
  19   2.0000      -0.582743       -15.8572
  20   2.0000      -0.574905       -15.6440
  21   2.0000      -0.558219       -15.1899
  22   2.0000      -0.537923       -14.6376
  23   2.0000      -0.533531       -14.5181
  24   2.0000      -0.519196       -14.1280
  25   2.0000      -0.511375       -13.9152
  26   2.0000      -0.485945       -13.2232
  27   2.0000      -0.414177       -11.2703
  28   2.0000      -0.407209       -11.0807
  29   0.0000       0.083863         2.2820
  30   0.0000       0.094473         2.5708
  31   0.0000       0.118159         3.2153
  32   0.0000       0.143936         3.9167
  33   0.0000       0.155918         4.2427

MULLIKEN ATOMIC CHARGES
-----------------------
   0 C :   -0.398943
   1 C :   -0.169065
   2 C :   -0.019962
   3 O :   -0.449322
   4 C :   -0.125052
   5 C :    0.313025
   6 C :   -0.216370
   7 N :   -0.035870
   8 H :    0.143059
   9 H :    0.125858
  10 H :    0.141823
  11 H :    0.113421
  12 H :    0.126279
  13 H :    0.128258
  14 H :    0.322861
Sum of atomic charges:   -0.0000000

LOEWDIN ATOMIC CHARGES
----------------------
   0 C :   -0.313156
   1 C :   -0.265783
   2 C :   -0.335874
   3 O :    0.004849
   4 C :    0.021554
   5 C :   -0.051094
   6 C :   -0.174920
   7 N :    0.101983
   8 H :    0.126102
   9 H :    0.123983
  10 H :    0.124849
  11 H :    0.140394
  12 H :    0.146388
  13 H :    0.168083
  14 H :    0.182641

  Mayer bond orders larger than 0.1
B(  0-C ,  1-C ) :   0.9220 B(  0-C ,  8-H ) :   0.9349 B(  0-C ,  9-H ) :   0.9357
B(  0-C , 10-H ) :   0.9394 B(  1-C ,  2-C ) :   0.9707 B(  1-C , 11-H ) :   0.9090
B(  1-C , 12-H ) :   0.9264 B(  2-C ,  3-O ) :   0.8902 B(  2-C ,  4-C ) :   1.0433
B(  2-C ,  5-C ) :  -0.1049 B(  2-C , 13-H ) :   0.8965 B(  3-O ,  4-C ) :   0.1120
B(  3-O , 14-H ) :   0.8365 B(  4-C ,  5-C ) :   2.5548 B(  4-C ,  7-N ) :   0.1117
B(  5-C ,  6-C ) :   0.9545 B(  6-C ,  7-N ) :   2.7591

MP2 TOTAL ENERGY:     -362.019304592 Eh
FINAL SINGLE POINT ENERGY      -362.019304591718

DIPOLE MOMENT
-------------
                                X             Y             Z
Electronic contribution:      2.03394     -13.54516      -4.24442
Nuclear contribution   :     -2.21263      15.05075       4.85633
                        -----------------------------------------
Total Dipole Moment    :     -0.17869       1.50559       0.61190
                        -----------------------------------------
Magnitude (a.u.)       :      1.63498
Magnitude (Debye)      :      4.15580

                             ****ORCA TERMINATED NORMALLY****
TOTAL RUN TIME: 0 days 0 hours 9 minutes 42 seconds 207 msec
