                         Program Version 3.0.3 - RELEASE   -
|  1> ! RI-MP2 RIJK def2-TZVP def2-TZVP/C def2-TZVP/JK TIGHTSCF
|  2> % maxcore 2000
|  3> % mp2 density relaxed end
|  4> *xyz 0 1
|  5>  C       -0.0567237183     1.5613299911     0.2137284306
|  6>  C        0.0005838044     0.0451844503     0.0433476762
|  7>  C       -1.4243593179    -0.5489596776    -0.0889465695
|  8>  C       -1.4059677778    -1.9907790712    -0.3140624173
|  9>  N       -1.3872976664    -3.1316075438    -0.4953847980
| 10>  O        0.7755573581    -0.2590036350    -1.1046126703
| 11>  C        1.7651961668    -1.2231725276    -0.7422078893
| 12>  C        1.9316221487    -0.9802285232     0.7556630305
| 13>  O        0.6250512996    -0.5777748526     1.1536935023
| 14>  H        0.9550360676     1.9466000383     0.3582735922
| 15>  H       -0.4813136801     2.0307908514    -0.6776859245
| 16>  H       -0.6634405981     1.8288579850     1.0828627312
| 17>  H       -1.9864952865    -0.3363370247     0.8257846459
| 18>  H       -1.9400455453    -0.0615018333    -0.9219470199
| 19>  H        1.4102829334    -2.2388159324    -0.9501480321
| 20>  H        2.6683786374    -1.0232495800    -1.3239304825
| 21>  H        2.2028136752    -1.8739030718     1.3216929554
| 22>  H        2.6646504093    -0.1868420929     0.9588061593
| 23> *
| 24>
| 25>                          ****END OF INPUT****

CARTESIAN COORDINATES (ANGSTROEM)
---------------------------------
  C     -0.056724    1.561330    0.213728
  C      0.000584    0.045184    0.043348
  C     -1.424359   -0.548960   -0.088947
  C     -1.405968   -1.990779   -0.314062
  N     -1.387298   -3.131608   -0.495385
  O      0.775557   -0.259004   -1.104613
  C      1.765196   -1.223173   -0.742208
  C      1.931622   -0.980229    0.755663
  O      0.625051   -0.577775    1.153694
  H      0.955036    1.946600    0.358274
  H     -0.481314    2.030791   -0.677686
  H     -0.663441    1.828858    1.082863
  H     -1.986495   -0.336337    0.825785
  H     -1.940046   -0.061502   -0.921947
  H      1.410283   -2.238816   -0.950148
  H      2.668379   -1.023250   -1.323930
  H      2.202814   -1.873903    1.321693
  H      2.664650   -0.186842    0.958806

 Total Charge           Charge          ....    0
 Multiplicity           Mult            ....    1
 Number of Electrons    NEL             ....   68
 Basis Dimension        Dim             ....  333

ORBITAL ENERGIES
----------------

  NO   OCC          E(Eh)            E(eV)
   0   2.0000     -20.578562      -559.9712
   1   2.0000     -20.577066      -559.9304
   2   2.0000     -15.565713      -423.5646
   3   2.0000     -11.366354      -309.2942
   4   2.0000     -11.293398      -307.3090
   5   2.0000     -11.289684      -307.2079
   6   2.0000     -11.280725      -306.9641
   7   2.0000     -11.271841      -306.7224
   8   2.0000     -11.234178      -305.6975
   9   2.0000      -1.455710       -39.6119
  10   2.0000      -1.347427       -36.6653
  11   2.0000      -1.215978       -33.0884
  12   2.0000      -1.101732       -29.9797
  13   2.0000      -1.010989       -27.5104
  14   2.0000      -0.977610       -26.6021
  15   2.0000      -0.869184       -23.6517
  16   2.0000      -0.815759       -22.1979
  17   2.0000      -0.726676       -19.7739
  18   2.0000      -0.720559       -19.6074
  19   2.0000      -0.677635       -18.4394
  20   2.0000      -0.663121       -18.0444
  21   2.0000      -0.626894       -17.0586
  22   2.0000      -0.610523       -16.6132
  23   2.0000      -0.588351       -16.0099
  24   2.0000      -0.578161       -15.7326
  25   2.0000      -0.556638       -15.1469
  26   2.0000      -0.554148       -15.0791
  27   2.0000      -0.543865       -14.7993
  28   2.0000      -0.529096       -14.3974
  29   2.0000      -0.508936       -13.8488
  30   2.0000      -0.471793       -12.8381
  31   2.0000      -0.457124       -12.4390
  32   2.0000      -0.451390       -12.2830
  33   2.0000      -0.425729       -11.5847
  34   0.0000       0.124594         3.3904
  35   0.0000       0.147699         4.0191
  36   0.0000       0.163945         4.4612
  37   0.0000       0.169533         4.6132
  38   0.0000       0.180756         4.9186

MULLIKEN ATOMIC CHARGES
-----------------------
   0 C :   -0.382161
   1 C :    0.303255
   2 C :   -0.076429
   3 C :   -0.209311
   4 N :   -0.064318
   5 O :   -0.327956
   6 C :   -0.071710
   7 C :   -0.057295
   8 O :   -0.326839
   9 H :    0.137344
  10 H :    0.140919
  11 H :    0.134280
  12 H :    0.156315
  13 H :    0.153471
  14 H :    0.128052
  15 H :    0.128186
  16 H :    0.133826
  17 H :    0.100372
Sum of atomic charges:   -0.0000000

LOEWDIN ATOMIC CHARGES
----------------------
   0 C :   -0.263005
   1 C :   -0.446972
   2 C :   -0.206700
   3 C :   -0.186289
   4 N :    0.056194
   5 O :    0.197966
   6 C :   -0.297129
   7 C :   -0.300950
   8 O :    0.200884
   9 H :    0.131924
  10 H :    0.131834
  11 H :    0.130555
  12 H :    0.170470
  13 H :    0.169656
  14 H :    0.128091
  15 H :    0.129193
  16 H :    0.133262
  17 H :    0.121015

  Mayer bond orders larger than 0.1
B(  0-C ,  1-C ) :   0.9116 B(  0-C ,  9-H ) :   0.9314 B(  0-C , 10-H ) :   0.9370
B(  0-C , 11-H ) :   0.9329 B(  1-C ,  2-C ) :   0.8946 B(  1-C ,  5-O ) :   0.9520
B(  1-C ,  8-O ) :   0.9408 B(  2-C ,  3-C ) :   0.9427 B(  2-C , 12-H ) :   0.8963
B(  2-C , 13-H ) :   0.8952 B(  3-C ,  4-N ) :   2.8611 B(  5-O ,  6-C ) :   0.9164
B(  6-C ,  7-C ) :   0.9639 B(  6-C , 14-H ) :   0.9308 B(  6-C , 15-H ) :   0.9162
B(  7-C ,  8-O ) :   0.9163 B(  7-C , 16-H ) :   0.9163 B(  7-C , 17-H ) :   0.9285

MP2 TOTAL ENERGY:     -438.392075889 Eh
FINAL SINGLE POINT ENERGY      -438.392075889057

DIPOLE MOMENT
-------------
                                X             Y             Z
Electronic contribution:     -2.80216      -5.08276      -0.85205
Nuclear contribution   :      3.37213       6.37518       1.10124
                        -----------------------------------------
Total Dipole Moment    :      0.56997       1.29242       0.24919
                        -----------------------------------------
Magnitude (a.u.)       :      1.43433
Magnitude (Debye)      :      3.64579

                             ****ORCA TERMINATED NORMALLY****
TOTAL RUN TIME: 0 days 0 hours 18 minutes 6 seconds 723 msec
