                         Program Version 3.0.3 - RELEASE   -
|  1> ! RI-MP2 RIJK def2-TZVP def2-TZVP/C def2-TZVP/JK TIGHTSCF
|  2> % maxcore 2000
|  3> % mp2 density relaxed end
|  4> *xyz 0 1
|  5>  C       -0.1832627231     1.5367888516     0.0329774237
|  6>  C       -0.0140898080     0.0189588509    -0.0235542538
|  7>  C        0.5251930611    -0.5604120693    -1.3275750657
|  8>  C        2.0157774830    -0.4799244947    -1.5509807522
|  9>  C        2.8437522505     0.2020371248    -0.4730475951
| 10>  C        2.3192429670    -0.3889491214     0.8259531301
| 11>  C        1.5953975848    -1.6650680712     0.5322921264
| 12>  C        1.3994554916    -1.7444613084    -0.9725657167
| 13>  N        0.8641706748    -0.4935773505     1.0509402833
| 14>  H        0.7529970563     2.0639717962    -0.1648821307
| 15>  H       -0.9160345475     1.8652000468    -0.7110709725
| 16>  H       -0.5416253588     1.8392412725     1.0211013981
| 17>  H       -0.9976210743    -0.4348943952     0.1620215004
| 18>  H       -0.1237329248    -0.5896207531    -2.1971139506
| 19>  H        2.3715315347    -0.4625123151    -2.5754758146
| 20>  H        3.9032533042    -0.0621244908    -0.5825507588
| 21>  H        2.7819752735     1.2948974451    -0.5037192860
| 22>  H        2.8934525118    -0.2350893636     1.7358078879
| 23>  H        1.6388330477    -2.5589529176     1.1442419229
| 24>  H        1.3716595554    -2.6915071071    -1.4942313361
| 25> *
| 26>
| 27>                          ****END OF INPUT****

CARTESIAN COORDINATES (ANGSTROEM)
---------------------------------
  C     -0.183263    1.536789    0.032977
  C     -0.014090    0.018959   -0.023554
  C      0.525193   -0.560412   -1.327575
  C      2.015777   -0.479924   -1.550981
  C      2.843752    0.202037   -0.473048
  C      2.319243   -0.388949    0.825953
  C      1.595398   -1.665068    0.532292
  C      1.399455   -1.744461   -0.972566
  N      0.864171   -0.493577    1.050940
  H      0.752997    2.063972   -0.164882
  H     -0.916035    1.865200   -0.711071
  H     -0.541625    1.839241    1.021101
  H     -0.997621   -0.434894    0.162022
  H     -0.123733   -0.589621   -2.197114
  H      2.371532   -0.462512   -2.575476
  H      3.903253   -0.062124   -0.582551
  H      2.781975    1.294897   -0.503719
  H      2.893453   -0.235089    1.735808
  H      1.638833   -2.558953    1.144242
  H      1.371660   -2.691507   -1.494231

 Total Charge           Charge          ....    0
 Multiplicity           Mult            ....    1
 Number of Electrons    NEL             ....   66
 Basis Dimension        Dim             ....  345

ORBITAL ENERGIES
----------------

  NO   OCC          E(Eh)            E(eV)
   0   2.0000     -15.548138      -423.0863
   1   2.0000     -11.252069      -306.1844
   2   2.0000     -11.251308      -306.1637
   3   2.0000     -11.249708      -306.1201
   4   2.0000     -11.231960      -305.6372
   5   2.0000     -11.228880      -305.5534
   6   2.0000     -11.227697      -305.5212
   7   2.0000     -11.226514      -305.4890
   8   2.0000     -11.209582      -305.0282
   9   2.0000      -1.290827       -35.1252
  10   2.0000      -1.132298       -30.8114
  11   2.0000      -1.051381       -28.6095
  12   2.0000      -0.989031       -26.9129
  13   2.0000      -0.901371       -24.5276
  14   2.0000      -0.827396       -22.5146
  15   2.0000      -0.820908       -22.3380
  16   2.0000      -0.756907       -20.5965
  17   2.0000      -0.717100       -19.5133
  18   2.0000      -0.706566       -19.2266
  19   2.0000      -0.626959       -17.0604
  20   2.0000      -0.616942       -16.7878
  21   2.0000      -0.581252       -15.8167
  22   2.0000      -0.571515       -15.5517
  23   2.0000      -0.553418       -15.0593
  24   2.0000      -0.534649       -14.5486
  25   2.0000      -0.520980       -14.1766
  26   2.0000      -0.512914       -13.9571
  27   2.0000      -0.494007       -13.4426
  28   2.0000      -0.441781       -12.0215
  29   2.0000      -0.432304       -11.7636
  30   2.0000      -0.402396       -10.9498
  31   2.0000      -0.390941       -10.6381
  32   2.0000      -0.353660        -9.6236
  33   0.0000       0.140223         3.8157
  34   0.0000       0.159942         4.3522
  35   0.0000       0.166277         4.5246
  36   0.0000       0.179581         4.8866
  37   0.0000       0.191641         5.2148

MULLIKEN ATOMIC CHARGES
-----------------------
   0 C :   -0.422316
   1 C :    0.061639
   2 C :   -0.114843
   3 C :   -0.154479
   4 C :   -0.193796
   5 C :   -0.088243
   6 C :   -0.078374
   7 C :   -0.146187
   8 N :   -0.214772
   9 H :    0.121261
  10 H :    0.126815
  11 H :    0.142208
  12 H :    0.092167
  13 H :    0.124647
  14 H :    0.125739
  15 H :    0.117324
  16 H :    0.116504
  17 H :    0.120004
  18 H :    0.130654
  19 H :    0.134047
Sum of atomic charges:   -0.0000000

LOEWDIN ATOMIC CHARGES
----------------------
   0 C :   -0.284863
   1 C :   -0.274573
   2 C :   -0.162212
   3 C :   -0.171028
   4 C :   -0.218557
   5 C :   -0.217707
   6 C :   -0.192382
   7 C :   -0.154565
   8 N :    0.153190
   9 H :    0.121867
  10 H :    0.125520
  11 H :    0.128132
  12 H :    0.153086
  13 H :    0.146642
  14 H :    0.144873
  15 H :    0.146847
  16 H :    0.137539
  17 H :    0.138141
  18 H :    0.137604
  19 H :    0.142446

  Mayer bond orders larger than 0.1
B(  0-C ,  1-C ) :   0.9010 B(  0-C ,  9-H ) :   0.9370 B(  0-C , 10-H ) :   0.9369
B(  0-C , 11-H ) :   0.9391 B(  1-C ,  2-C ) :   0.9540 B(  1-C ,  8-N ) :   0.9395
B(  1-C , 12-H ) :   0.9207 B(  2-C ,  3-C ) :   0.8646 B(  2-C ,  7-C ) :   0.8443
B(  2-C , 13-H ) :   0.9244 B(  3-C ,  4-C ) :   0.9685 B(  3-C ,  7-C ) :   0.8600
B(  3-C , 14-H ) :   0.9315 B(  4-C ,  5-C ) :   0.9441 B(  4-C , 15-H ) :   0.9078
B(  4-C , 16-H ) :   0.9206 B(  5-C ,  6-C ) :   0.8843 B(  5-C ,  8-N ) :   0.8990
B(  5-C , 17-H ) :   0.9339 B(  6-C ,  7-C ) :   0.9525 B(  6-C ,  8-N ) :   0.9020
B(  6-C , 18-H ) :   0.9166 B(  7-C , 19-H ) :   0.9244

MP2 TOTAL ENERGY:     -365.345382398 Eh
FINAL SINGLE POINT ENERGY      -365.345382397944

DIPOLE MOMENT
-------------
                                X             Y             Z
Electronic contribution:      0.79114      -3.80227       1.16219
Nuclear contribution   :     -0.57927       3.76387      -1.77332
                        -----------------------------------------
Total Dipole Moment    :      0.21187      -0.03840      -0.61113
                        -----------------------------------------
Magnitude (a.u.)       :      0.64795
Magnitude (Debye)      :      1.64696

                             ****ORCA TERMINATED NORMALLY****
TOTAL RUN TIME: 0 days 0 hours 20 minutes 27 seconds 895 msec
