                         Program Version 3.0.3 - RELEASE   -
|  1> ! RI-MP2 RIJK def2-TZVP def2-TZVP/C def2-TZVP/JK TIGHTSCF
|  2> % maxcore 2000
|  3> % mp2 density relaxed end
|  4> *xyz 0 1
|  5>  C       -0.0415960730     1.5667647884     0.0208658791
|  6>  C        0.0014957925     0.0270240505     0.0745069211
|  7>  C        0.7336801561    -0.4617530520     1.3396630869
|  8>  C       -1.3623397845    -0.5683119595    -0.0394608499
|  9>  C       -1.9498193222    -1.3907330008    -0.9552794353
| 10>  O       -1.3229581186    -1.8762300928    -2.0661622570
| 11>  C       -3.2974348115    -1.6237125917    -0.5231474977
| 12>  C       -3.4325658397    -0.9214932862     0.6322744413
| 13>  O       -2.2823516789    -0.2799180209     0.9412668106
| 14>  H        0.9695103011     1.9837595351     0.0725851606
| 15>  H       -0.5107744682     1.9159927431    -0.9034909212
| 16>  H       -0.6162666732     1.9662256340     0.8625348638
| 17>  H        0.5518471542    -0.3330511599    -0.8028342355
| 18>  H        0.8149375009    -1.5525228391     1.3513921532
| 19>  H        1.7432653807    -0.0407803801     1.3889272837
| 20>  H        0.1939640464    -0.1540663570     2.2409278873
| 21>  H       -1.9402577741    -2.4291985384    -2.5525230712
| 22>  H       -4.0501536496    -2.2274398833    -1.0074054134
| 23>  H       -4.2504796984    -0.7850915093     1.3203725836
| 24> *
| 25>
| 26>                          ****END OF INPUT****

CARTESIAN COORDINATES (ANGSTROEM)
---------------------------------
  C     -0.041596    1.566765    0.020866
  C      0.001496    0.027024    0.074507
  C      0.733680   -0.461753    1.339663
  C     -1.362340   -0.568312   -0.039461
  C     -1.949819   -1.390733   -0.955279
  O     -1.322958   -1.876230   -2.066162
  C     -3.297435   -1.623713   -0.523147
  C     -3.432566   -0.921493    0.632274
  O     -2.282352   -0.279918    0.941267
  H      0.969510    1.983760    0.072585
  H     -0.510774    1.915993   -0.903491
  H     -0.616267    1.966226    0.862535
  H      0.551847   -0.333051   -0.802834
  H      0.814938   -1.552523    1.351392
  H      1.743265   -0.040780    1.388927
  H      0.193964   -0.154066    2.240928
  H     -1.940258   -2.429199   -2.552523
  H     -4.050154   -2.227440   -1.007405
  H     -4.250480   -0.785092    1.320373

 Total Charge           Charge          ....    0
 Multiplicity           Mult            ....    1
 Number of Electrons    NEL             ....   68
 Basis Dimension        Dim             ....  339

ORBITAL ENERGIES
----------------

  NO   OCC          E(Eh)            E(eV)
   0   2.0000     -20.612956      -560.9070
   1   2.0000     -20.586506      -560.1873
   2   2.0000     -11.289232      -307.1956
   3   2.0000     -11.283319      -307.0347
   4   2.0000     -11.267341      -306.5999
   5   2.0000     -11.234360      -305.7025
   6   2.0000     -11.230173      -305.5885
   7   2.0000     -11.209493      -305.0258
   8   2.0000     -11.209475      -305.0253
   9   2.0000      -1.451439       -39.4957
  10   2.0000      -1.398168       -38.0461
  11   2.0000      -1.084978       -29.5238
  12   2.0000      -1.071875       -29.1672
  13   2.0000      -0.980212       -26.6729
  14   2.0000      -0.924607       -25.1598
  15   2.0000      -0.831398       -22.6235
  16   2.0000      -0.820909       -22.3381
  17   2.0000      -0.757774       -20.6201
  18   2.0000      -0.719870       -19.5887
  19   2.0000      -0.664333       -18.0774
  20   2.0000      -0.641958       -17.4686
  21   2.0000      -0.624787       -17.0013
  22   2.0000      -0.604414       -16.4469
  23   2.0000      -0.590164       -16.0592
  24   2.0000      -0.570415       -15.5218
  25   2.0000      -0.565116       -15.3776
  26   2.0000      -0.552445       -15.0328
  27   2.0000      -0.529292       -14.4028
  28   2.0000      -0.529238       -14.4013
  29   2.0000      -0.483182       -13.1480
  30   2.0000      -0.477910       -13.0046
  31   2.0000      -0.470496       -12.8029
  32   2.0000      -0.377845       -10.2817
  33   2.0000      -0.295736        -8.0474
  34   0.0000       0.132777         3.6130
  35   0.0000       0.146294         3.9809
  36   0.0000       0.148488         4.0406
  37   0.0000       0.175044         4.7632
  38   0.0000       0.194231         5.2853

MULLIKEN ATOMIC CHARGES
-----------------------
   0 C :   -0.408002
   1 C :   -0.045314
   2 C :   -0.407999
   3 C :    0.173776
   4 C :    0.100543
   5 O :   -0.439984
   6 C :   -0.223170
   7 C :   -0.041182
   8 O :   -0.237587
   9 H :    0.128711
  10 H :    0.135804
  11 H :    0.132481
  12 H :    0.116665
  13 H :    0.135824
  14 H :    0.128695
  15 H :    0.132453
  16 H :    0.335720
  17 H :    0.136942
  18 H :    0.145623
Sum of atomic charges:    0.0000000

LOEWDIN ATOMIC CHARGES
----------------------
   0 C :   -0.284941
   1 C :   -0.275386
   2 C :   -0.284933
   3 C :   -0.214317
   4 C :   -0.292556
   5 O :    0.057751
   6 C :   -0.190258
   7 C :   -0.252606
   8 O :    0.359618
   9 H :    0.121949
  10 H :    0.124975
  11 H :    0.125454
  12 H :    0.167041
  13 H :    0.124975
  14 H :    0.121945
  15 H :    0.125450
  16 H :    0.192588
  17 H :    0.141677
  18 H :    0.131571

  Mayer bond orders larger than 0.1
B(  0-C ,  1-C ) :   0.9176 B(  0-C ,  9-H ) :   0.9379 B(  0-C , 10-H ) :   0.9380
B(  0-C , 11-H ) :   0.9319 B(  1-C ,  2-C ) :   0.9176 B(  1-C ,  3-C ) :   0.9107
B(  1-C , 12-H ) :   0.9322 B(  2-C , 13-H ) :   0.9380 B(  2-C , 14-H ) :   0.9378
B(  2-C , 15-H ) :   0.9319 B(  3-C ,  4-C ) :   1.4912 B(  3-C ,  8-O ) :   0.9672
B(  4-C ,  5-O ) :   1.1069 B(  4-C ,  6-C ) :   1.2050 B(  5-O , 16-H ) :   0.8339
B(  6-C ,  7-C ) :   1.5048 B(  6-C , 17-H ) :   0.9150 B(  7-C ,  8-O ) :   1.0949
B(  7-C , 18-H ) :   0.9345

MP2 TOTAL ENERGY:     -422.345628156 Eh
FINAL SINGLE POINT ENERGY      -422.345628155658

DIPOLE MOMENT
-------------
                                X             Y             Z
Electronic contribution:     -6.94602      -4.47922      -2.80460
Nuclear contribution   :      6.50415       4.13397       2.53416
                        -----------------------------------------
Total Dipole Moment    :     -0.44187      -0.34525      -0.27044
                        -----------------------------------------
Magnitude (a.u.)       :      0.62256
Magnitude (Debye)      :      1.58243

                             ****ORCA TERMINATED NORMALLY****
TOTAL RUN TIME: 0 days 0 hours 18 minutes 54 seconds 470 msec
