                         Program Version 3.0.3 - RELEASE   -
|  1> ! RI-MP2 RIJK def2-TZVP def2-TZVP/C def2-TZVP/JK TIGHTSCF
|  2> % maxcore 2000
|  3> % mp2 density relaxed end
|  4> *xyz 0 1
|  5>  C       -0.0865386375     1.5095842868    -0.1857769481
|  6>  C        0.0150502751     0.0208841562     0.0486084507
|  7>  N        1.3489708490    -0.5996633354    -0.0666042147
|  8>  C        0.6524024643    -0.6094380596     1.2350679858
|  9>  C        1.3363701338     0.1611902118     2.3516104149
| 10>  C        2.3427350961    -0.7655127757     3.0551536179
| 11>  C        1.6668707497    -2.0762672890     3.4635882659
| 12>  O        1.0712915424    -2.7295112646     2.3518036201
| 13>  C        0.0811937108    -1.9235268066     1.7351137959
| 14>  H        0.7792437968     2.0380203027     0.2183069550
| 15>  H       -0.1338037836     1.7231359001    -1.2589981205
| 16>  H       -0.9916632824     1.9170923019     0.2779162321
| 17>  H       -0.8172451918    -0.5444820307    -0.3742092747
| 18>  H        1.2868425991    -1.5133025774    -0.5102471021
| 19>  H        1.8399406098     1.0460980220     1.9570869003
| 20>  H        0.5808974646     0.5025279448     3.0731627020
| 21>  H        3.1651692998    -0.9903810885     2.3667725683
| 22>  H        2.7718355652    -0.2794022111     3.9386043292
| 23>  H        2.3886213842    -2.7846867928     3.8801819621
| 24>  H        0.9009617728    -1.8802731936     4.2356198072
| 25>  H       -0.7393512111    -1.7238537623     2.4481187026
| 26>  H       -0.3274639171    -2.5134256489     0.9074222502
| 27> *
| 28>
| 29>                          ****END OF INPUT****

CARTESIAN COORDINATES (ANGSTROEM)
---------------------------------
  C     -0.086539    1.509584   -0.185777
  C      0.015050    0.020884    0.048608
  N      1.348971   -0.599663   -0.066604
  C      0.652402   -0.609438    1.235068
  C      1.336370    0.161190    2.351610
  C      2.342735   -0.765513    3.055154
  C      1.666871   -2.076267    3.463588
  O      1.071292   -2.729511    2.351804
  C      0.081194   -1.923527    1.735114
  H      0.779244    2.038020    0.218307
  H     -0.133804    1.723136   -1.258998
  H     -0.991663    1.917092    0.277916
  H     -0.817245   -0.544482   -0.374209
  H      1.286843   -1.513303   -0.510247
  H      1.839941    1.046098    1.957087
  H      0.580897    0.502528    3.073163
  H      3.165169   -0.990381    2.366773
  H      2.771836   -0.279402    3.938604
  H      2.388621   -2.784687    3.880182
  H      0.900962   -1.880273    4.235620
  H     -0.739351   -1.723854    2.448119
  H     -0.327464   -2.513426    0.907422

 Total Charge           Charge          ....    0
 Multiplicity           Mult            ....    1
 Number of Electrons    NEL             ....   70
 Basis Dimension        Dim             ....  357

ORBITAL ENERGIES
----------------

  NO   OCC          E(Eh)            E(eV)
   0   2.0000     -20.552835      -559.2711
   1   2.0000     -15.549443      -423.1218
   2   2.0000     -11.278191      -306.8952
   3   2.0000     -11.271771      -306.7205
   4   2.0000     -11.259914      -306.3978
   5   2.0000     -11.258682      -306.3643
   6   2.0000     -11.223693      -305.4122
   7   2.0000     -11.220188      -305.3168
   8   2.0000     -11.217690      -305.2489
   9   2.0000      -1.375277       -37.4232
  10   2.0000      -1.260527       -34.3007
  11   2.0000      -1.060315       -28.8526
  12   2.0000      -1.002786       -27.2872
  13   2.0000      -0.988095       -26.8874
  14   2.0000      -0.888504       -24.1774
  15   2.0000      -0.853308       -23.2197
  16   2.0000      -0.802731       -21.8434
  17   2.0000      -0.747025       -20.3276
  18   2.0000      -0.698613       -19.0102
  19   2.0000      -0.670543       -18.2464
  20   2.0000      -0.634190       -17.2572
  21   2.0000      -0.614285       -16.7156
  22   2.0000      -0.593628       -16.1534
  23   2.0000      -0.583335       -15.8734
  24   2.0000      -0.568736       -15.4761
  25   2.0000      -0.552741       -15.0409
  26   2.0000      -0.542010       -14.7488
  27   2.0000      -0.527383       -14.3508
  28   2.0000      -0.494707       -13.4617
  29   2.0000      -0.490595       -13.3498
  30   2.0000      -0.462873       -12.5954
  31   2.0000      -0.451545       -12.2872
  32   2.0000      -0.442040       -12.0285
  33   2.0000      -0.403991       -10.9931
  34   2.0000      -0.380646       -10.3579
  35   0.0000       0.133256         3.6261
  36   0.0000       0.152332         4.1452
  37   0.0000       0.161122         4.3843
  38   0.0000       0.168296         4.5796
  39   0.0000       0.191822         5.2197

MULLIKEN ATOMIC CHARGES
-----------------------
   0 C :   -0.392453
   1 C :   -0.076959
   2 N :   -0.397059
   3 C :    0.099916
   4 C :   -0.205592
   5 C :   -0.204273
   6 C :   -0.086987
   7 O :   -0.307744
   8 C :   -0.045965
   9 H :    0.134329
  10 H :    0.133317
  11 H :    0.124676
  12 H :    0.114058
  13 H :    0.216397
  14 H :    0.124429
  15 H :    0.107038
  16 H :    0.116781
  17 H :    0.119593
  18 H :    0.130068
  19 H :    0.088021
  20 H :    0.098388
  21 H :    0.110021
Sum of atomic charges:    0.0000000

LOEWDIN ATOMIC CHARGES
----------------------
   0 C :   -0.293770
   1 C :   -0.264300
   2 N :    0.025801
   3 C :   -0.296395
   4 C :   -0.220664
   5 C :   -0.263215
   6 C :   -0.317264
   7 O :    0.152244
   8 C :   -0.285622
   9 H :    0.127320
  10 H :    0.127285
  11 H :    0.125725
  12 H :    0.138830
  13 H :    0.165761
  14 H :    0.143648
  15 H :    0.142576
  16 H :    0.144444
  17 H :    0.138173
  18 H :    0.129298
  19 H :    0.119289
  20 H :    0.127584
  21 H :    0.133252

  Mayer bond orders larger than 0.1
B(  0-C ,  1-C ) :   0.8780 B(  0-C ,  9-H ) :   0.9452 B(  0-C , 10-H ) :   0.9348
B(  0-C , 11-H ) :   0.9347 B(  1-C ,  2-N ) :   0.9759 B(  1-C ,  3-C ) :   0.9008
B(  1-C , 12-H ) :   0.9249 B(  2-N ,  3-C ) :   0.8349 B(  2-N , 13-H ) :   0.8687
B(  3-C ,  4-C ) :   0.8997 B(  3-C ,  8-C ) :   0.9548 B(  4-C ,  5-C ) :   0.9362
B(  4-C , 14-H ) :   0.9269 B(  4-C , 15-H ) :   0.9342 B(  5-C ,  6-C ) :   0.9496
B(  5-C , 16-H ) :   0.9195 B(  5-C , 17-H ) :   0.9258 B(  6-C ,  7-O ) :   0.9330
B(  6-C , 18-H ) :   0.9298 B(  6-C , 19-H ) :   0.9331 B(  7-O ,  8-C ) :   0.9604
B(  8-C , 20-H ) :   0.9424 B(  8-C , 21-H ) :   0.9041

MP2 TOTAL ENERGY:     -403.650243718 Eh
FINAL SINGLE POINT ENERGY      -403.650243717601

DIPOLE MOMENT
-------------
                                X             Y             Z
Electronic contribution:      0.82720      -4.71929      -0.54628
Nuclear contribution   :     -1.36350       4.99753       0.81081
                        -----------------------------------------
Total Dipole Moment    :     -0.53630       0.27825       0.26453
                        -----------------------------------------
Magnitude (a.u.)       :      0.65956
Magnitude (Debye)      :      1.67646

                             ****ORCA TERMINATED NORMALLY****
TOTAL RUN TIME: 0 days 0 hours 19 minutes 9 seconds 626 msec
