                         Program Version 3.0.3 - RELEASE   -
|  1> ! RI-MP2 RIJK def2-TZVP def2-TZVP/C def2-TZVP/JK TIGHTSCF
|  2> % maxcore 2000
|  3> % mp2 density relaxed end
|  4> *xyz 0 1
|  5>  C       -0.0121072979     1.4732575096    -0.2224604913
|  6>  N       -0.0502630916     0.0793347622     0.2171334293
|  7>  C       -1.3602474058    -0.5519393056     0.0868790226
|  8>  C       -1.8775685613    -0.5647845434    -1.3129549014
|  9>  N       -2.2241899014    -0.5231980592    -2.4147315164
| 10>  C       -1.3448628737    -1.9121286734     0.6236126047
| 11>  C       -1.3324369831    -3.0347592461     1.0699791959
| 12>  C       -1.3137205462    -4.2995493009     1.5709865113
| 13>  C       -1.2973612003    -5.4212705090     2.0158762565
| 14>  H        1.0065335596     1.8480400421    -0.0991003016
| 15>  H       -0.3195550059     1.6268288207    -1.2681784763
| 16>  H       -0.6689381232     2.0713071951     0.4186607012
| 17>  H        0.6370557552    -0.4749299732    -0.2828351791
| 18>  H       -2.0696788258     0.0504487417     0.6735917900
| 19>  H       -1.2833302886    -6.4090505105     2.4058992946
| 20> *
| 21>
| 22>                          ****END OF INPUT****

CARTESIAN COORDINATES (ANGSTROEM)
---------------------------------
  C     -0.012107    1.473258   -0.222460
  N     -0.050263    0.079335    0.217133
  C     -1.360247   -0.551939    0.086879
  C     -1.877569   -0.564785   -1.312955
  N     -2.224190   -0.523198   -2.414732
  C     -1.344863   -1.912129    0.623613
  C     -1.332437   -3.034759    1.069979
  C     -1.313721   -4.299549    1.570987
  C     -1.297361   -5.421271    2.015876
  H      1.006534    1.848040   -0.099100
  H     -0.319555    1.626829   -1.268178
  H     -0.668938    2.071307    0.418661
  H      0.637056   -0.474930   -0.282835
  H     -2.069679    0.050449    0.673592
  H     -1.283330   -6.409051    2.405899

 Total Charge           Charge          ....    0
 Multiplicity           Mult            ....    1
 Number of Electrons    NEL             ....   62
 Basis Dimension        Dim             ....  315

ORBITAL ENERGIES
----------------

  NO   OCC          E(Eh)            E(eV)
   0   2.0000     -15.587044      -424.1450
   1   2.0000     -15.584834      -424.0849
   2   2.0000     -11.355547      -309.0001
   3   2.0000     -11.284909      -307.0780
   4   2.0000     -11.277025      -306.8635
   5   2.0000     -11.273307      -306.7623
   6   2.0000     -11.270904      -306.6969
   7   2.0000     -11.268455      -306.6302
   8   2.0000     -11.264207      -306.5147
   9   2.0000      -1.264899       -34.4197
  10   2.0000      -1.221580       -33.2409
  11   2.0000      -1.109861       -30.2009
  12   2.0000      -1.061436       -28.8831
  13   2.0000      -1.001510       -27.2525
  14   2.0000      -0.914544       -24.8860
  15   2.0000      -0.852210       -23.1898
  16   2.0000      -0.754351       -20.5269
  17   2.0000      -0.739951       -20.1351
  18   2.0000      -0.718192       -19.5430
  19   2.0000      -0.662119       -18.0172
  20   2.0000      -0.617764       -16.8102
  21   2.0000      -0.586550       -15.9608
  22   2.0000      -0.570009       -15.5107
  23   2.0000      -0.553648       -15.0655
  24   2.0000      -0.500903       -13.6303
  25   2.0000      -0.500013       -13.6060
  26   2.0000      -0.481035       -13.0896
  27   2.0000      -0.476715       -12.9721
  28   2.0000      -0.419236       -11.4080
  29   2.0000      -0.375390       -10.2149
  30   2.0000      -0.373883       -10.1739
  31   0.0000       0.090605         2.4655
  32   0.0000       0.096624         2.6293
  33   0.0000       0.123752         3.3675
  34   0.0000       0.147606         4.0166
  35   0.0000       0.149777         4.0757

MULLIKEN ATOMIC CHARGES
-----------------------
   0 C :   -0.320416
   1 N :   -0.300382
   2 C :   -0.050973
   3 C :   -0.149525
   4 N :   -0.060904
   5 C :   -0.120489
   6 C :    0.120025
   7 C :   -0.001828
   8 C :   -0.123507
   9 H :    0.148423
  10 H :    0.143052
  11 H :    0.134500
  12 H :    0.223370
  13 H :    0.158712
  14 H :    0.199942
Sum of atomic charges:   -0.0000000

LOEWDIN ATOMIC CHARGES
----------------------
   0 C :   -0.335816
   1 N :    0.004079
   2 C :   -0.290945
   3 C :   -0.160260
   4 N :    0.071428
   5 C :    0.013686
   6 C :   -0.036334
   7 C :   -0.091222
   8 C :   -0.029304
   9 H :    0.122075
  10 H :    0.110058
  11 H :    0.119645
  12 H :    0.180267
  13 H :    0.189872
  14 H :    0.132772

  Mayer bond orders larger than 0.1
B(  0-C ,  1-N ) :   0.9189 B(  0-C ,  9-H ) :   0.9341 B(  0-C , 10-H ) :   0.9264
B(  0-C , 11-H ) :   0.9332 B(  1-N ,  2-C ) :   1.0358 B(  1-N , 12-H ) :   0.8713
B(  2-C ,  3-C ) :   0.8872 B(  2-C ,  5-C ) :   1.0927 B(  2-C ,  6-C ) :  -0.1374
B(  2-C , 13-H ) :   0.8929 B(  3-C ,  4-N ) :   2.8408 B(  5-C ,  6-C ) :   2.5179
B(  5-C ,  8-C ) :   0.1204 B(  6-C ,  7-C ) :   1.2834 B(  7-C ,  8-C ) :   2.5418
B(  8-C , 14-H ) :   0.8839

MP2 TOTAL ENERGY:     -378.908603772 Eh
FINAL SINGLE POINT ENERGY      -378.908603772235

DIPOLE MOMENT
-------------
                                X             Y             Z
Electronic contribution:     -3.44980      -7.25482       0.00443
Nuclear contribution   :      4.00314       7.35482       0.90502
                        -----------------------------------------
Total Dipole Moment    :      0.55334       0.10001       0.90945
                        -----------------------------------------
Magnitude (a.u.)       :      1.06925
Magnitude (Debye)      :      2.71781

                             ****ORCA TERMINATED NORMALLY****
TOTAL RUN TIME: 0 days 0 hours 12 minutes 47 seconds 8 msec
