                         Program Version 3.0.3 - RELEASE   -
|  1> ! RI-MP2 RIJK def2-TZVP def2-TZVP/C def2-TZVP/JK TIGHTSCF
|  2> % maxcore 2000
|  3> % mp2 density relaxed end
|  4> *xyz 0 1
|  5>  C        0.0401206928     1.4183076302    -0.1079279602
|  6>  O        0.0083630948     0.0019266199     0.0482406641
|  7>  C       -1.2532950313    -0.5832144800     0.0531082393
|  8>  C       -1.0691018399    -2.0977464948     0.3661414672
|  9>  N       -1.5396893005    -2.2705803893     1.7425259592
| 10>  C       -2.0215246209    -1.1526602824     2.0843851158
| 11>  O       -2.0128737416    -0.1130708824     1.2070826497
| 12>  C       -2.0307775295    -0.2903892918    -1.1533538808
| 13>  C       -2.6444839387    -0.0914880686    -2.1664705779
| 14>  H        1.0935391722     1.7008764419    -0.0792320124
| 15>  H       -0.3946182557     1.7212899544    -1.0674904779
| 16>  H       -0.4958420829     1.9162192201     0.7066365215
| 17>  H       -1.6469252474    -2.7298334327    -0.3129243392
| 18>  H       -0.0110606530    -2.3546108400     0.2742585688
| 19>  H       -2.4727411273    -0.9231889847     3.0431821866
| 20>  H       -3.1935213410     0.0865525204    -3.0586517237
| 21> *
| 22>
| 23>                          ****END OF INPUT****

CARTESIAN COORDINATES (ANGSTROEM)
---------------------------------
  C      0.040121    1.418308   -0.107928
  O      0.008363    0.001927    0.048241
  C     -1.253295   -0.583214    0.053108
  C     -1.069102   -2.097746    0.366141
  N     -1.539689   -2.270580    1.742526
  C     -2.021525   -1.152660    2.084385
  O     -2.012874   -0.113071    1.207083
  C     -2.030778   -0.290389   -1.153354
  C     -2.644484   -0.091488   -2.166471
  H      1.093539    1.700876   -0.079232
  H     -0.394618    1.721290   -1.067490
  H     -0.495842    1.916219    0.706637
  H     -1.646925   -2.729833   -0.312924
  H     -0.011061   -2.354611    0.274259
  H     -2.472741   -0.923189    3.043182
  H     -3.193521    0.086553   -3.058652

 Total Charge           Charge          ....    0
 Multiplicity           Mult            ....    1
 Number of Electrons    NEL             ....   66
 Basis Dimension        Dim             ....  321

ORBITAL ENERGIES
----------------

  NO   OCC          E(Eh)            E(eV)
   0   2.0000     -20.605652      -560.7083
   1   2.0000     -20.582826      -560.0872
   2   2.0000     -15.556374      -423.3105
   3   2.0000     -11.385049      -309.8029
   4   2.0000     -11.337597      -308.5117
   5   2.0000     -11.278956      -306.9160
   6   2.0000     -11.268219      -306.6238
   7   2.0000     -11.250951      -306.1539
   8   2.0000     -11.247005      -306.0466
   9   2.0000      -1.466536       -39.9065
  10   2.0000      -1.389045       -37.7978
  11   2.0000      -1.222902       -33.2768
  12   2.0000      -1.078711       -29.3532
  13   2.0000      -1.015651       -27.6373
  14   2.0000      -0.935855       -25.4659
  15   2.0000      -0.879791       -23.9403
  16   2.0000      -0.825238       -22.4559
  17   2.0000      -0.753075       -20.4922
  18   2.0000      -0.724091       -19.7035
  19   2.0000      -0.712980       -19.4012
  20   2.0000      -0.676009       -18.3951
  21   2.0000      -0.637526       -17.3480
  22   2.0000      -0.608634       -16.5618
  23   2.0000      -0.605374       -16.4731
  24   2.0000      -0.578743       -15.7484
  25   2.0000      -0.571040       -15.5388
  26   2.0000      -0.534281       -14.5385
  27   2.0000      -0.505817       -13.7640
  28   2.0000      -0.465764       -12.6741
  29   2.0000      -0.457662       -12.4536
  30   2.0000      -0.420658       -11.4467
  31   2.0000      -0.404427       -11.0050
  32   2.0000      -0.395579       -10.7642
  33   0.0000       0.147455         4.0125
  34   0.0000       0.151842         4.1318
  35   0.0000       0.156634         4.2622
  36   0.0000       0.161470         4.3938
  37   0.0000       0.166387         4.5276

MULLIKEN ATOMIC CHARGES
-----------------------
   0 C :   -0.240172
   1 O :   -0.286652
   2 C :    0.308770
   3 C :   -0.138757
   4 N :   -0.256599
   5 C :    0.088358
   6 O :   -0.276122
   7 C :   -0.114836
   8 C :   -0.131285
   9 H :    0.145228
  10 H :    0.131646
  11 H :    0.140505
  12 H :    0.142408
  13 H :    0.139866
  14 H :    0.148324
  15 H :    0.199318
Sum of atomic charges:    0.0000000

LOEWDIN ATOMIC CHARGES
----------------------
   0 C :   -0.326676
   1 O :    0.204219
   2 C :   -0.402198
   3 C :   -0.217107
   4 N :    0.070688
   5 C :   -0.339617
   6 O :    0.250108
   7 C :   -0.066768
   8 C :   -0.064737
   9 H :    0.116163
  10 H :    0.111533
  11 H :    0.109990
  12 H :    0.142595
  13 H :    0.145753
  14 H :    0.134989
  15 H :    0.131067

  Mayer bond orders larger than 0.1
B(  0-C ,  1-O ) :   0.8758 B(  0-C ,  9-H ) :   0.9371 B(  0-C , 10-H ) :   0.9293
B(  0-C , 11-H ) :   0.9370 B(  1-O ,  2-C ) :   1.0408 B(  2-C ,  3-C ) :   0.8986
B(  2-C ,  6-O ) :   0.8783 B(  2-C ,  7-C ) :   1.0951 B(  3-C ,  4-N ) :   0.9458
B(  3-C , 12-H ) :   0.9221 B(  3-C , 13-H ) :   0.9136 B(  4-N ,  5-C ) :   1.8309
B(  5-C ,  6-O ) :   1.0552 B(  5-C , 14-H ) :   0.9212 B(  7-C ,  8-C ) :   2.6140
B(  8-C , 15-H ) :   0.8867

MP2 TOTAL ENERGY:     -437.122141554 Eh
FINAL SINGLE POINT ENERGY      -437.122141553717

DIPOLE MOMENT
-------------
                                X             Y             Z
Electronic contribution:     -2.33266      -2.31497       1.57481
Nuclear contribution   :      2.18042       3.01489      -2.17114
                        -----------------------------------------
Total Dipole Moment    :     -0.15225       0.69992      -0.59634
                        -----------------------------------------
Magnitude (a.u.)       :      0.93203
Magnitude (Debye)      :      2.36903

                             ****ORCA TERMINATED NORMALLY****
TOTAL RUN TIME: 0 days 0 hours 15 minutes 34 seconds 463 msec
