                         Program Version 3.0.3 - RELEASE   -
|  1> ! RI-MP2 RIJK def2-TZVP def2-TZVP/C def2-TZVP/JK TIGHTSCF
|  2> % maxcore 2000
|  3> % mp2 density relaxed end
|  4> *xyz 0 1
|  5>  C       -0.0710885763     1.4472263641    -0.0532262785
|  6>  C        0.0362598782    -0.0497836817    -0.0170776521
|  7>  C        0.9439769844    -0.9036685778    -0.9039506124
|  8>  C        0.0935582003    -2.1141300325    -0.4441979540
|  9>  C        0.4229897906    -2.2414901732     1.0641309387
| 10>  C       -0.2958188137    -0.9024874196     1.2373304216
| 11>  C       -0.7575202995    -0.3152695795     2.5395901287
| 12>  C       -1.0654522474    -1.0970220946    -0.0596309827
| 13>  C       -2.5184981076    -1.0306128051    -0.3991450636
| 14>  H        0.8340475453     1.9230839762     0.3440587540
| 15>  H       -0.2056600118     1.8046982913    -1.0809690177
| 16>  H       -0.9180360952     1.8163459108     0.5333876094
| 17>  H        0.7865136858    -0.6670344168    -1.9616346421
| 18>  H        2.0212305164    -0.9347545938    -0.6948042384
| 19>  H       -0.0094759850    -2.9976593610    -1.0720598198
| 20>  H       -0.1411407358    -3.0491096513     1.5426627239
| 21>  H        1.4812757038    -2.3212859681     1.3449297008
| 22>  H        0.0902493386     0.0141211353     3.1530509436
| 23>  H       -1.4115510144     0.5502403668     2.3952744934
| 24>  H       -1.3183384422    -1.0539556606     3.1243757870
| 25>  H       -2.9897615107    -0.1589326801     0.0688125484
| 26>  H       -2.6803765815    -0.9488632188    -1.4808886888
| 27>  H       -3.0585163624    -1.9201384901    -0.0524739595
| 28> *
| 29>
| 30>                          ****END OF INPUT****

CARTESIAN COORDINATES (ANGSTROEM)
---------------------------------
  C     -0.071089    1.447226   -0.053226
  C      0.036260   -0.049784   -0.017078
  C      0.943977   -0.903669   -0.903951
  C      0.093558   -2.114130   -0.444198
  C      0.422990   -2.241490    1.064131
  C     -0.295819   -0.902487    1.237330
  C     -0.757520   -0.315270    2.539590
  C     -1.065452   -1.097022   -0.059631
  C     -2.518498   -1.030613   -0.399145
  H      0.834048    1.923084    0.344059
  H     -0.205660    1.804698   -1.080969
  H     -0.918036    1.816346    0.533388
  H      0.786514   -0.667034   -1.961635
  H      2.021231   -0.934755   -0.694804
  H     -0.009476   -2.997659   -1.072060
  H     -0.141141   -3.049110    1.542663
  H      1.481276   -2.321286    1.344930
  H      0.090249    0.014121    3.153051
  H     -1.411551    0.550240    2.395274
  H     -1.318338   -1.053956    3.124376
  H     -2.989762   -0.158933    0.068813
  H     -2.680377   -0.948863   -1.480889
  H     -3.058516   -1.920138   -0.052474

 Total Charge           Charge          ....    0
 Multiplicity           Mult            ....    1
 Number of Electrons    NEL             ....   68
 Basis Dimension        Dim             ....  363

ORBITAL ENERGIES
----------------

  NO   OCC          E(Eh)            E(eV)
   0   2.0000     -11.225841      -305.4707
   1   2.0000     -11.225208      -305.4534
   2   2.0000     -11.225060      -305.4494
   3   2.0000     -11.222889      -305.3903
   4   2.0000     -11.218570      -305.2728
   5   2.0000     -11.214276      -305.1560
   6   2.0000     -11.214273      -305.1559
   7   2.0000     -11.213164      -305.1257
   8   2.0000     -11.213139      -305.1250
   9   2.0000      -1.222253       -33.2592
  10   2.0000      -1.003110       -27.2960
  11   2.0000      -1.002480       -27.2789
  12   2.0000      -0.983742       -26.7690
  13   2.0000      -0.916846       -24.9486
  14   2.0000      -0.895718       -24.3737
  15   2.0000      -0.805600       -21.9215
  16   2.0000      -0.690480       -18.7889
  17   2.0000      -0.678873       -18.4731
  18   2.0000      -0.649850       -17.6833
  19   2.0000      -0.616083       -16.7645
  20   2.0000      -0.591098       -16.0846
  21   2.0000      -0.583948       -15.8900
  22   2.0000      -0.561562       -15.2809
  23   2.0000      -0.549302       -14.9473
  24   2.0000      -0.545429       -14.8419
  25   2.0000      -0.543735       -14.7958
  26   2.0000      -0.535789       -14.5796
  27   2.0000      -0.514629       -14.0038
  28   2.0000      -0.502546       -13.6750
  29   2.0000      -0.459908       -12.5147
  30   2.0000      -0.427281       -11.6269
  31   2.0000      -0.419746       -11.4219
  32   2.0000      -0.356327        -9.6962
  33   2.0000      -0.339189        -9.2298
  34   0.0000       0.128620         3.4999
  35   0.0000       0.162465         4.4209
  36   0.0000       0.166347         4.5265
  37   0.0000       0.169727         4.6185
  38   0.0000       0.188167         5.1203

MULLIKEN ATOMIC CHARGES
-----------------------
   0 C :   -0.417992
   1 C :   -0.012874
   2 C :   -0.201929
   3 C :   -0.090999
   4 C :   -0.201929
   5 C :   -0.012864
   6 C :   -0.418026
   7 C :    0.037249
   8 C :   -0.412502
   9 H :    0.137377
  10 H :    0.132893
  11 H :    0.124777
  12 H :    0.107783
  13 H :    0.098850
  14 H :    0.123598
  15 H :    0.107781
  16 H :    0.098852
  17 H :    0.137381
  18 H :    0.124782
  19 H :    0.132898
  20 H :    0.131825
  21 H :    0.136533
  22 H :    0.136534
Sum of atomic charges:    0.0000000

LOEWDIN ATOMIC CHARGES
----------------------
   0 C :   -0.273545
   1 C :   -0.179143
   2 C :   -0.177720
   3 C :   -0.139960
   4 C :   -0.177720
   5 C :   -0.179144
   6 C :   -0.273547
   7 C :   -0.129798
   8 C :   -0.279709
   9 H :    0.129574
  10 H :    0.128376
  11 H :    0.127147
  12 H :    0.137953
  13 H :    0.123156
  14 H :    0.128152
  15 H :    0.137953
  16 H :    0.123157
  17 H :    0.129570
  18 H :    0.127146
  19 H :    0.128379
  20 H :    0.131532
  21 H :    0.129095
  22 H :    0.129096

  Mayer bond orders larger than 0.1
B(  0-C ,  1-C ) :   0.8853 B(  0-C ,  9-H ) :   0.9448 B(  0-C , 10-H ) :   0.9385
B(  0-C , 11-H ) :   0.9381 B(  1-C ,  2-C ) :   0.9451 B(  1-C ,  5-C ) :   0.8273
B(  1-C ,  7-C ) :   0.8175 B(  2-C ,  3-C ) :   0.9246 B(  2-C , 12-H ) :   0.9237
B(  2-C , 13-H ) :   0.9131 B(  3-C ,  4-C ) :   0.9246 B(  3-C ,  7-C ) :   0.8855
B(  3-C , 14-H ) :   0.9170 B(  4-C ,  5-C ) :   0.9451 B(  4-C , 15-H ) :   0.9237
B(  4-C , 16-H ) :   0.9131 B(  5-C ,  6-C ) :   0.8853 B(  5-C ,  7-C ) :   0.8175
B(  6-C , 17-H ) :   0.9448 B(  6-C , 18-H ) :   0.9381 B(  6-C , 19-H ) :   0.9385
B(  7-C ,  8-C ) :   0.8061 B(  8-C , 20-H ) :   0.9460 B(  8-C , 21-H ) :   0.9453
B(  8-C , 22-H ) :   0.9453

MP2 TOTAL ENERGY:     -350.474621485 Eh
FINAL SINGLE POINT ENERGY      -350.474621484511

DIPOLE MOMENT
-------------
                                X             Y             Z
Electronic contribution:      1.92061      -2.64555      -1.28985
Nuclear contribution   :     -2.09430       2.71194       1.28902
                        -----------------------------------------
Total Dipole Moment    :     -0.17369       0.06639      -0.00083
                        -----------------------------------------
Magnitude (a.u.)       :      0.18595
Magnitude (Debye)      :      0.47265

                             ****ORCA TERMINATED NORMALLY****
TOTAL RUN TIME: 0 days 0 hours 22 minutes 20 seconds 290 msec
