                         Program Version 3.0.3 - RELEASE   -
|  1> ! RI-MP2 RIJK def2-TZVP def2-TZVP/C def2-TZVP/JK TIGHTSCF
|  2> % maxcore 2000
|  3> % mp2 density relaxed end
|  4> *xyz 0 1
|  5>  C       -0.0098186270     1.7073200331    -0.1693333834
|  6>  C        0.0564819093     0.1859983504    -0.0913623364
|  7>  C       -1.3366584096    -0.4664893788    -0.0552828255
|  8>  C       -2.1909969214    -0.0107832617     1.1109360132
|  9>  O       -3.3033225649     0.4383514498     1.0009984376
| 10>  C        0.9800074794    -0.4509427436    -1.1757233505
| 11>  N        2.0439448950    -1.1445406556    -0.4353720953
| 12>  C        1.8114461138    -0.9222981284     0.7889543996
| 13>  O        0.7418920160    -0.1759308206     1.1543100652
| 14>  H        0.9979921190     2.1311461084    -0.1617809281
| 15>  H       -0.5076496745     2.0146486062    -1.0945319962
| 16>  H       -0.5676126144     2.1281904605     0.6720653082
| 17>  H       -1.8751293105    -0.2614258363    -0.9853697417
| 18>  H       -1.2013085389    -1.5530626251     0.0327636820
| 19>  H       -1.7113855276    -0.1281123103     2.1063517887
| 20>  H        0.4418164748    -1.1614439374    -1.8119443753
| 21>  H        1.4194634000     0.3072444820    -1.8334221230
| 22>  H        2.4103099715    -1.2819160427     1.6186857910
| 23> *
| 24>
| 25>                          ****END OF INPUT****

CARTESIAN COORDINATES (ANGSTROEM)
---------------------------------
  C     -0.009819    1.707320   -0.169333
  C      0.056482    0.185998   -0.091362
  C     -1.336658   -0.466489   -0.055283
  C     -2.190997   -0.010783    1.110936
  O     -3.303323    0.438351    1.000998
  C      0.980007   -0.450943   -1.175723
  N      2.043945   -1.144541   -0.435372
  C      1.811446   -0.922298    0.788954
  O      0.741892   -0.175931    1.154310
  H      0.997992    2.131146   -0.161781
  H     -0.507650    2.014649   -1.094532
  H     -0.567613    2.128190    0.672065
  H     -1.875129   -0.261426   -0.985370
  H     -1.201309   -1.553063    0.032764
  H     -1.711386   -0.128112    2.106352
  H      0.441816   -1.161444   -1.811944
  H      1.419463    0.307244   -1.833422
  H      2.410310   -1.281916    1.618686

 Total Charge           Charge          ....    0
 Multiplicity           Mult            ....    1
 Number of Electrons    NEL             ....   68
 Basis Dimension        Dim             ....  333

ORBITAL ENERGIES
----------------

  NO   OCC          E(Eh)            E(eV)
   0   2.0000     -20.605413      -560.7018
   1   2.0000     -20.562859      -559.5438
   2   2.0000     -15.559552      -423.3969
   3   2.0000     -11.341161      -308.6087
   4   2.0000     -11.336967      -308.4946
   5   2.0000     -11.323465      -308.1271
   6   2.0000     -11.272256      -306.7337
   7   2.0000     -11.253671      -306.2280
   8   2.0000     -11.238974      -305.8280
   9   2.0000      -1.449181       -39.4342
  10   2.0000      -1.401064       -38.1249
  11   2.0000      -1.224010       -33.3070
  12   2.0000      -1.110474       -30.2175
  13   2.0000      -0.999073       -27.1862
  14   2.0000      -0.955680       -26.0054
  15   2.0000      -0.843114       -22.9423
  16   2.0000      -0.828537       -22.5456
  17   2.0000      -0.769338       -20.9347
  18   2.0000      -0.720330       -19.6012
  19   2.0000      -0.694518       -18.8988
  20   2.0000      -0.657205       -17.8834
  21   2.0000      -0.640343       -17.4246
  22   2.0000      -0.631203       -17.1759
  23   2.0000      -0.600004       -16.3269
  24   2.0000      -0.589918       -16.0525
  25   2.0000      -0.572886       -15.5890
  26   2.0000      -0.556080       -15.1317
  27   2.0000      -0.538716       -14.6592
  28   2.0000      -0.533489       -14.5170
  29   2.0000      -0.521274       -14.1846
  30   2.0000      -0.497703       -13.5432
  31   2.0000      -0.450042       -12.2463
  32   2.0000      -0.421556       -11.4711
  33   2.0000      -0.392805       -10.6888
  34   0.0000       0.120189         3.2705
  35   0.0000       0.135952         3.6994
  36   0.0000       0.151095         4.1115
  37   0.0000       0.168639         4.5889
  38   0.0000       0.169550         4.6137

MULLIKEN ATOMIC CHARGES
-----------------------
   0 C :   -0.432106
   1 C :    0.198804
   2 C :   -0.190976
   3 C :    0.065862
   4 O :   -0.259151
   5 C :   -0.155675
   6 N :   -0.256433
   7 C :    0.085996
   8 O :   -0.286022
   9 H :    0.148851
  10 H :    0.142190
  11 H :    0.151483
  12 H :    0.128488
  13 H :    0.144892
  14 H :    0.102246
  15 H :    0.133120
  16 H :    0.130508
  17 H :    0.147923
Sum of atomic charges:    0.0000000

LOEWDIN ATOMIC CHARGES
----------------------
   0 C :   -0.262510
   1 C :   -0.317260
   2 C :   -0.224948
   3 C :   -0.292082
   4 O :    0.133726
   5 C :   -0.234822
   6 N :    0.064159
   7 C :   -0.353032
   8 O :    0.244714
   9 H :    0.133176
  10 H :    0.135537
  11 H :    0.132927
  12 H :    0.153884
  13 H :    0.160845
  14 H :    0.116298
  15 H :    0.137071
  16 H :    0.137343
  17 H :    0.134973

  Mayer bond orders larger than 0.1
B(  0-C ,  1-C ) :   0.9349 B(  0-C ,  9-H ) :   0.9324 B(  0-C , 10-H ) :   0.9294
B(  0-C , 11-H ) :   0.9254 B(  1-C ,  2-C ) :   0.9072 B(  1-C ,  5-C ) :   0.8778
B(  1-C ,  8-O ) :   0.7806 B(  2-C ,  3-C ) :   0.8761 B(  2-C , 12-H ) :   0.9059
B(  2-C , 13-H ) :   0.9048 B(  3-C ,  4-O ) :   1.9932 B(  3-C , 14-H ) :   0.9374
B(  5-C ,  6-N ) :   0.9405 B(  5-C , 15-H ) :   0.9239 B(  5-C , 16-H ) :   0.9243
B(  6-N ,  7-C ) :   1.8232 B(  7-C ,  8-O ) :   1.0767 B(  7-C , 17-H ) :   0.9220

MP2 TOTAL ENERGY:     -438.388235038 Eh
FINAL SINGLE POINT ENERGY      -438.388235038485

DIPOLE MOMENT
-------------
                                X             Y             Z
Electronic contribution:     -0.43092      -2.58612       3.30266
Nuclear contribution   :      0.83238       2.66438      -3.45946
                        -----------------------------------------
Total Dipole Moment    :      0.40146       0.07826      -0.15680
                        -----------------------------------------
Magnitude (a.u.)       :      0.43804
Magnitude (Debye)      :      1.11342

                             ****ORCA TERMINATED NORMALLY****
TOTAL RUN TIME: 0 days 0 hours 18 minutes 6 seconds 762 msec
