                         Program Version 3.0.3 - RELEASE   -
|  1> ! RI-MP2 RIJK def2-TZVP def2-TZVP/C def2-TZVP/JK TIGHTSCF
|  2> % maxcore 2000
|  3> % mp2 density relaxed end
|  4> *xyz 0 1
|  5>  C        0.0486608536     1.5975434675    -0.3363970676
|  6>  C       -0.0854888440     0.1019771326    -0.1447834330
|  7>  C       -1.4365023736    -0.4188262155     0.3172690094
|  8>  C       -1.7047286768    -0.0694395163     1.7980746092
|  9>  C       -2.9714666022    -0.6168679828     2.2749383155
| 10>  N       -3.9786625780    -1.0557449272     2.6332758724
| 11>  C        0.8140487964    -0.8056218576    -0.8735102330
| 12>  O        1.0267429533    -0.5274201961     0.5133377160
| 13>  H        1.0678304861     1.8525609836    -0.6352614386
| 14>  H       -0.6419617899     1.9526662887    -1.1086159263
| 15>  H       -0.1733760071     2.1415208947     0.5876652781
| 16>  H       -2.2328112418    -0.0059146289    -0.3112088283
| 17>  H       -1.4662366605    -1.5060368224     0.2061650690
| 18>  H       -0.8895770389    -0.4665912273     2.4122900964
| 19>  H       -1.7213399950     1.0151894970     1.9489893339
| 20>  H        0.4919412000    -1.8203216484    -1.1036234028
| 21>  H        1.5610536384    -0.3935877415    -1.5508508203
| 22> *
| 23>
| 24>                          ****END OF INPUT****

CARTESIAN COORDINATES (ANGSTROEM)
---------------------------------
  C      0.048661    1.597543   -0.336397
  C     -0.085489    0.101977   -0.144783
  C     -1.436502   -0.418826    0.317269
  C     -1.704729   -0.069440    1.798075
  C     -2.971467   -0.616868    2.274938
  N     -3.978663   -1.055745    2.633276
  C      0.814049   -0.805622   -0.873510
  O      1.026743   -0.527420    0.513338
  H      1.067830    1.852561   -0.635261
  H     -0.641962    1.952666   -1.108616
  H     -0.173376    2.141521    0.587665
  H     -2.232811   -0.005915   -0.311209
  H     -1.466237   -1.506037    0.206165
  H     -0.889577   -0.466591    2.412290
  H     -1.721340    1.015189    1.948989
  H      0.491941   -1.820322   -1.103623
  H      1.561054   -0.393588   -1.550851

 Total Charge           Charge          ....    0
 Multiplicity           Mult            ....    1
 Number of Electrons    NEL             ....   60
 Basis Dimension        Dim             ....  302

ORBITAL ENERGIES
----------------

  NO   OCC          E(Eh)            E(eV)
   0   2.0000     -20.579588      -559.9991
   1   2.0000     -15.567874      -423.6234
   2   2.0000     -11.311104      -307.7908
   3   2.0000     -11.295327      -307.3615
   4   2.0000     -11.284052      -307.0547
   5   2.0000     -11.272731      -306.7466
   6   2.0000     -11.260905      -306.4248
   7   2.0000     -11.241359      -305.8929
   8   2.0000      -1.424822       -38.7714
   9   2.0000      -1.218178       -33.1483
  10   2.0000      -1.102409       -29.9981
  11   2.0000      -1.024042       -27.8656
  12   2.0000      -0.941840       -25.6288
  13   2.0000      -0.913118       -24.8472
  14   2.0000      -0.789237       -21.4762
  15   2.0000      -0.712834       -19.3972
  16   2.0000      -0.695455       -18.9243
  17   2.0000      -0.665824       -18.1180
  18   2.0000      -0.643502       -17.5106
  19   2.0000      -0.608754       -16.5650
  20   2.0000      -0.580011       -15.7829
  21   2.0000      -0.570525       -15.5248
  22   2.0000      -0.556411       -15.1407
  23   2.0000      -0.548871       -14.9355
  24   2.0000      -0.525765       -14.3068
  25   2.0000      -0.522539       -14.2190
  26   2.0000      -0.467772       -12.7287
  27   2.0000      -0.458881       -12.4868
  28   2.0000      -0.455022       -12.3818
  29   2.0000      -0.435140       -11.8408
  30   0.0000       0.119888         3.2623
  31   0.0000       0.149365         4.0644
  32   0.0000       0.155425         4.2293
  33   0.0000       0.167259         4.5514
  34   0.0000       0.178677         4.8620

MULLIKEN ATOMIC CHARGES
-----------------------
   0 C :   -0.427449
   1 C :    0.202977
   2 C :   -0.218566
   3 C :   -0.156595
   4 C :   -0.187840
   5 N :   -0.057436
   6 C :   -0.077470
   7 O :   -0.348970
   8 H :    0.146100
   9 H :    0.139294
  10 H :    0.139374
  11 H :    0.136236
  12 H :    0.140233
  13 H :    0.179228
  14 H :    0.154131
  15 H :    0.118046
  16 H :    0.118708
Sum of atomic charges:    0.0000000

LOEWDIN ATOMIC CHARGES
----------------------
   0 C :   -0.264060
   1 C :   -0.352312
   2 C :   -0.204390
   3 C :   -0.236619
   4 C :   -0.194045
   5 N :    0.054761
   6 C :   -0.241408
   7 O :    0.159424
   8 H :    0.135103
   9 H :    0.133032
  10 H :    0.128605
  11 H :    0.151236
  12 H :    0.153753
  13 H :    0.170629
  14 H :    0.162195
  15 H :    0.121809
  16 H :    0.122289

  Mayer bond orders larger than 0.1
B(  0-C ,  1-C ) :   0.9024 B(  0-C ,  8-H ) :   0.9345 B(  0-C ,  9-H ) :   0.9340
B(  0-C , 10-H ) :   0.9380 B(  1-C ,  2-C ) :   0.8953 B(  1-C ,  6-C ) :   0.9964
B(  1-C ,  7-O ) :   0.8079 B(  2-C ,  3-C ) :   0.9119 B(  2-C , 11-H ) :   0.9308
B(  2-C , 12-H ) :   0.9317 B(  3-C ,  4-C ) :   0.9341 B(  3-C , 13-H ) :   0.9083
B(  3-C , 14-H ) :   0.9030 B(  4-C ,  5-N ) :   2.8874 B(  6-C ,  7-O ) :   0.9100
B(  6-C , 15-H ) :   0.8980 B(  6-C , 16-H ) :   0.9173

MP2 TOTAL ENERGY:     -363.243026207 Eh
FINAL SINGLE POINT ENERGY      -363.243026206653

DIPOLE MOMENT
-------------
                                X             Y             Z
Electronic contribution:     -3.42748      -3.61083       4.58422
Nuclear contribution   :      4.41690       4.33399      -5.80492
                        -----------------------------------------
Total Dipole Moment    :      0.98943       0.72316      -1.22070
                        -----------------------------------------
Magnitude (a.u.)       :      1.72975
Magnitude (Debye)      :      4.39668

                             ****ORCA TERMINATED NORMALLY****
TOTAL RUN TIME: 0 days 0 hours 11 minutes 46 seconds 65 msec
