                         Program Version 3.0.3 - RELEASE   -
|  1> ! RI-MP2 RIJK def2-TZVP def2-TZVP/C def2-TZVP/JK TIGHTSCF
|  2> % maxcore 2000
|  3> % mp2 density relaxed end
|  4> *xyz 0 1
|  5>  O       -0.0086722493    -0.0872709416     0.0033977386
|  6>  C        0.0090699509     1.1262484490     0.0090499988
|  7>  N       -1.1539392528     1.8949201673     0.0280483722
|  8>  N       -1.2436663812     3.2269984452     0.0357094513
|  9>  C       -0.1051473120     3.8749320806     0.0238943819
| 10>  N        1.1467463368     3.2836012033     0.0046078977
| 11>  C        1.1957501514     1.9937424140    -0.0023101086
| 12>  C       -0.1517150482     5.2996883962     0.0315376802
| 13>  C       -0.1689830327     6.5015437101     0.0376907355
| 14>  H       -2.0390291575     1.4016213254     0.0372771954
| 15>  H        2.1651203752     1.4987044089    -0.0174335758
| 16>  H       -0.1871492007     7.5638102716     0.0431736427
| 17> *
| 18>
| 19>                          ****END OF INPUT****

CARTESIAN COORDINATES (ANGSTROEM)
---------------------------------
  O     -0.008672   -0.087271    0.003398
  C      0.009070    1.126248    0.009050
  N     -1.153939    1.894920    0.028048
  N     -1.243666    3.226998    0.035709
  C     -0.105147    3.874932    0.023894
  N      1.146746    3.283601    0.004608
  C      1.195750    1.993742   -0.002310
  C     -0.151715    5.299688    0.031538
  C     -0.168983    6.501544    0.037691
  H     -2.039029    1.401621    0.037277
  H      2.165120    1.498704   -0.017434
  H     -0.187149    7.563810    0.043174

 Total Charge           Charge          ....    0
 Multiplicity           Mult            ....    1
 Number of Electrons    NEL             ....   62
 Basis Dimension        Dim             ....  297

ORBITAL ENERGIES
----------------

  NO   OCC          E(Eh)            E(eV)
   0   2.0000     -20.552524      -559.2626
   1   2.0000     -15.673270      -426.4914
   2   2.0000     -15.660012      -426.1306
   3   2.0000     -15.628392      -425.2702
   4   2.0000     -11.390276      -309.9452
   5   2.0000     -11.355751      -309.0057
   6   2.0000     -11.333011      -308.3869
   7   2.0000     -11.257757      -306.3392
   8   2.0000     -11.253481      -306.2228
   9   2.0000      -1.439103       -39.1600
  10   2.0000      -1.385533       -37.7023
  11   2.0000      -1.285549       -34.9816
  12   2.0000      -1.164387       -31.6846
  13   2.0000      -1.052332       -28.6354
  14   2.0000      -0.977342       -26.5948
  15   2.0000      -0.940601       -25.5950
  16   2.0000      -0.831688       -22.6314
  17   2.0000      -0.789839       -21.4926
  18   2.0000      -0.736190       -20.0328
  19   2.0000      -0.686895       -18.6914
  20   2.0000      -0.669096       -18.2070
  21   2.0000      -0.668128       -18.1807
  22   2.0000      -0.649214       -17.6660
  23   2.0000      -0.558889       -15.2081
  24   2.0000      -0.556835       -15.1523
  25   2.0000      -0.517542       -14.0830
  26   2.0000      -0.512863       -13.9557
  27   2.0000      -0.443426       -12.0662
  28   2.0000      -0.433369       -11.7926
  29   2.0000      -0.421692       -11.4748
  30   2.0000      -0.350715        -9.5434
  31   0.0000       0.035376         0.9626
  32   0.0000       0.088966         2.4209
  33   0.0000       0.134358         3.6561
  34   0.0000       0.155431         4.2295
  35   0.0000       0.163595         4.4516

MULLIKEN ATOMIC CHARGES
-----------------------
   0 O :   -0.337376
   1 C :    0.239988
   2 N :   -0.130111
   3 N :   -0.133193
   4 C :   -0.031359
   5 N :   -0.198919
   6 C :   -0.049306
   7 C :    0.072986
   8 C :   -0.069830
   9 H :    0.270746
  10 H :    0.163242
  11 H :    0.203132
Sum of atomic charges:    0.0000000

LOEWDIN ATOMIC CHARGES
----------------------
   0 O :    0.097885
   1 C :   -0.461565
   2 N :    0.147655
   3 N :    0.111491
   4 C :   -0.316203
   5 N :    0.182403
   6 C :   -0.141509
   7 C :   -0.064673
   8 C :   -0.043696
   9 H :    0.203510
  10 H :    0.152485
  11 H :    0.132217

  Mayer bond orders larger than 0.1
B(  0-O ,  1-C ) :   1.9211 B(  1-C ,  2-N ) :   1.0688 B(  1-C ,  6-C ) :   1.0110
B(  2-N ,  3-N ) :   1.0025 B(  2-N ,  9-H ) :   0.8574 B(  3-N ,  4-C ) :   1.6441
B(  4-C ,  5-N ) :   1.2160 B(  4-C ,  7-C ) :   1.1893 B(  4-C ,  8-C ) :  -0.1455
B(  5-N ,  6-C ) :   1.6182 B(  6-C , 10-H ) :   0.9200 B(  7-C ,  8-C ) :   2.6080
B(  8-C , 11-H ) :   0.8729

MP2 TOTAL ENERGY:     -430.914831866 Eh
FINAL SINGLE POINT ENERGY      -430.914831866109

DIPOLE MOMENT
-------------
                                X             Y             Z
Electronic contribution:     -0.43399      -0.97124       0.00082
Nuclear contribution   :      0.13227       1.57493       0.00609
                        -----------------------------------------
Total Dipole Moment    :     -0.30171       0.60369       0.00691
                        -----------------------------------------
Magnitude (a.u.)       :      0.67493
Magnitude (Debye)      :      1.71552

                             ****ORCA TERMINATED NORMALLY****
TOTAL RUN TIME: 0 days 0 hours 13 minutes 48 seconds 786 msec
