                         Program Version 3.0.3 - RELEASE   -
|  1> ! RI-MP2 RIJK def2-TZVP def2-TZVP/C def2-TZVP/JK TIGHTSCF
|  2> % maxcore 2000
|  3> % mp2 density relaxed end
|  4> *xyz 0 1
|  5>  C       -0.0263043273     1.5449188821    -0.0022321454
|  6>  C        0.0082599568     0.0446563983     0.0033021495
|  7>  C        0.6444709193    -0.8640844630    -1.1229187480
|  8>  C       -0.6199551486    -1.8005735111    -1.0887887430
|  9>  C        0.0630979343    -2.6490737784     0.0266178494
| 10>  C        1.3369016849    -1.7515121425    -0.0229341881
| 11>  C        0.6693511246    -0.8776544006     1.0806608481
| 12>  N       -0.5595301449    -1.7889301237     1.1301373063
| 13>  C       -1.2188445045    -0.9249947205     0.0522068601
| 14>  H        0.9863007896     1.9649678158    -0.0303450357
| 15>  H       -0.5661924729     1.9260956874    -0.8773467621
| 16>  H       -0.5246395510     1.9344381326     0.8933056681
| 17>  H        1.1257783996    -0.4874039160    -2.0239217608
| 18>  H       -1.1492439030    -2.1814129490    -1.9604285527
| 19>  H        0.0358965663    -3.7345864034     0.1265261413
| 20>  H        2.3702390219    -2.0931760904    -0.0434444555
| 21>  H        1.1229430001    -0.5513064423     2.0181746767
| 22>  H       -2.2643904152    -0.6362361252     0.1731762019
| 23> *
| 24>
| 25>                          ****END OF INPUT****

CARTESIAN COORDINATES (ANGSTROEM)
---------------------------------
  C     -0.026304    1.544919   -0.002232
  C      0.008260    0.044656    0.003302
  C      0.644471   -0.864084   -1.122919
  C     -0.619955   -1.800574   -1.088789
  C      0.063098   -2.649074    0.026618
  C      1.336902   -1.751512   -0.022934
  C      0.669351   -0.877654    1.080661
  N     -0.559530   -1.788930    1.130137
  C     -1.218845   -0.924995    0.052207
  H      0.986301    1.964968   -0.030345
  H     -0.566192    1.926096   -0.877347
  H     -0.524640    1.934438    0.893306
  H      1.125778   -0.487404   -2.023922
  H     -1.149244   -2.181413   -1.960429
  H      0.035897   -3.734586    0.126526
  H      2.370239   -2.093176   -0.043444
  H      1.122943   -0.551306    2.018175
  H     -2.264390   -0.636236    0.173176

 Total Charge           Charge          ....    0
 Multiplicity           Mult            ....    1
 Number of Electrons    NEL             ....   64
 Basis Dimension        Dim             ....  333

ORBITAL ENERGIES
----------------

  NO   OCC          E(Eh)            E(eV)
   0   2.0000     -15.538362      -422.8203
   1   2.0000     -11.254903      -306.2615
   2   2.0000     -11.252194      -306.1878
   3   2.0000     -11.252191      -306.1877
   4   2.0000     -11.235932      -305.7453
   5   2.0000     -11.232299      -305.6464
   6   2.0000     -11.230239      -305.5903
   7   2.0000     -11.230166      -305.5883
   8   2.0000     -11.221223      -305.3450
   9   2.0000      -1.304948       -35.5094
  10   2.0000      -1.065994       -29.0072
  11   2.0000      -1.024935       -27.8899
  12   2.0000      -0.996051       -27.1039
  13   2.0000      -0.931162       -25.3382
  14   2.0000      -0.796559       -21.6755
  15   2.0000      -0.782072       -21.2813
  16   2.0000      -0.756720       -20.5914
  17   2.0000      -0.705946       -19.2098
  18   2.0000      -0.637766       -17.3545
  19   2.0000      -0.619616       -16.8606
  20   2.0000      -0.616988       -16.7891
  21   2.0000      -0.595399       -16.2016
  22   2.0000      -0.573524       -15.6064
  23   2.0000      -0.554988       -15.1020
  24   2.0000      -0.547616       -14.9014
  25   2.0000      -0.527560       -14.3556
  26   2.0000      -0.423424       -11.5219
  27   2.0000      -0.415106       -11.2956
  28   2.0000      -0.399754       -10.8779
  29   2.0000      -0.392527       -10.6812
  30   2.0000      -0.389782       -10.6065
  31   2.0000      -0.340282        -9.2595
  32   0.0000       0.133462         3.6317
  33   0.0000       0.157987         4.2990
  34   0.0000       0.163671         4.4537
  35   0.0000       0.164362         4.4725
  36   0.0000       0.191310         5.2058

MULLIKEN ATOMIC CHARGES
-----------------------
   0 C :   -0.388175
   1 C :    0.232971
   2 C :   -0.195826
   3 C :   -0.074385
   4 C :   -0.118535
   5 C :   -0.074383
   6 C :   -0.203041
   7 N :   -0.126268
   8 C :   -0.203037
   9 H :    0.133162
  10 H :    0.133161
  11 H :    0.138943
  12 H :    0.125076
  13 H :    0.127552
  14 H :    0.128160
  15 H :    0.127552
  16 H :    0.118536
  17 H :    0.118535
Sum of atomic charges:    0.0000000

LOEWDIN ATOMIC CHARGES
----------------------
   0 C :   -0.282794
   1 C :   -0.186759
   2 C :   -0.100233
   3 C :   -0.134242
   4 C :   -0.151757
   5 C :   -0.134242
   6 C :   -0.133016
   7 N :    0.115597
   8 C :   -0.133017
   9 H :    0.129427
  10 H :    0.129424
  11 H :    0.130637
  12 H :    0.127890
  13 H :    0.126958
  14 H :    0.122447
  15 H :    0.126958
  16 H :    0.123360
  17 H :    0.123360

  Mayer bond orders larger than 0.1
B(  0-C ,  1-C ) :   0.8144 B(  0-C ,  9-H ) :   0.9447 B(  0-C , 10-H ) :   0.9447
B(  0-C , 11-H ) :   0.9474 B(  1-C ,  2-C ) :   1.0051 B(  1-C ,  6-C ) :   0.9012
B(  1-C ,  8-C ) :   0.9012 B(  2-C ,  3-C ) :   1.0297 B(  2-C ,  5-C ) :   1.0297
B(  2-C , 12-H ) :   0.9198 B(  3-C ,  4-C ) :   0.9270 B(  3-C ,  8-C ) :   0.9278
B(  3-C , 13-H ) :   0.9353 B(  4-C ,  5-C ) :   0.9270 B(  4-C ,  7-N ) :   1.0110
B(  4-C , 14-H ) :   0.8776 B(  5-C ,  6-C ) :   0.9278 B(  5-C , 15-H ) :   0.9353
B(  6-C ,  7-N ) :   1.0335 B(  6-C , 16-H ) :   0.8844 B(  7-N ,  8-C ) :   1.0335
B(  8-C , 17-H ) :   0.8843

MP2 TOTAL ENERGY:     -364.013685753 Eh
FINAL SINGLE POINT ENERGY      -364.013685753133

DIPOLE MOMENT
-------------
                                X             Y             Z
Electronic contribution:     -0.46670      -4.26731       1.05310
Nuclear contribution   :      0.80798       4.62065      -1.69591
                        -----------------------------------------
Total Dipole Moment    :      0.34127       0.35334      -0.64282
                        -----------------------------------------
Magnitude (a.u.)       :      0.80903
Magnitude (Debye)      :      2.05639

                             ****ORCA TERMINATED NORMALLY****
TOTAL RUN TIME: 0 days 0 hours 18 minutes 58 seconds 434 msec
