                         Program Version 3.0.3 - RELEASE   -
|  1> ! RI-MP2 RIJK def2-TZVP def2-TZVP/C def2-TZVP/JK TIGHTSCF
|  2> % maxcore 2000
|  3> % mp2 density relaxed end
|  4> *xyz 0 1
|  5>  C       -0.0407476732     1.5802984260    -0.0841726208
|  6>  C        0.0872322239     0.0708791005     0.0203075670
|  7>  O        0.9816742033    -0.3976717834    -0.9803370952
|  8>  C        1.4308959585    -1.6670020919    -0.5704041932
|  9>  O        1.2313563538    -1.7670429526     0.8344693597
| 10>  C        0.7357037078    -0.5305194760     1.2941070488
| 11>  C        1.8411146835     0.3515824603     1.8630427557
| 12>  O        3.0131868363     0.1716926572     1.6701922744
| 13>  H        0.9372300844     2.0632816271    -0.0111835005
| 14>  H       -0.4785393030     1.8463183066    -1.0495533052
| 15>  H       -0.6920619042     1.9701206318     0.7039931099
| 16>  H       -0.9014472018    -0.4005063909    -0.1019148458
| 17>  H        0.8574651954    -2.4743066921    -1.0519929542
| 18>  H        2.4944956328    -1.7511153974    -0.8198495262
| 19>  H       -0.0091160692    -0.7100440188     2.0798169308
| 20>  H        1.4741274218     1.2009955935     2.4855186746
| 21> *
| 22>
| 23>                          ****END OF INPUT****

CARTESIAN COORDINATES (ANGSTROEM)
---------------------------------
  C     -0.040748    1.580298   -0.084173
  C      0.087232    0.070879    0.020308
  O      0.981674   -0.397672   -0.980337
  C      1.430896   -1.667002   -0.570404
  O      1.231356   -1.767043    0.834469
  C      0.735704   -0.530519    1.294107
  C      1.841115    0.351582    1.863043
  O      3.013187    0.171693    1.670192
  H      0.937230    2.063282   -0.011184
  H     -0.478539    1.846318   -1.049553
  H     -0.692062    1.970121    0.703993
  H     -0.901447   -0.400506   -0.101915
  H      0.857465   -2.474307   -1.051993
  H      2.494496   -1.751115   -0.819850
  H     -0.009116   -0.710044    2.079817
  H      1.474127    1.200996    2.485519

 Total Charge           Charge          ....    0
 Multiplicity           Mult            ....    1
 Number of Electrons    NEL             ....   62
 Basis Dimension        Dim             ....  296

ORBITAL ENERGIES
----------------

  NO   OCC          E(Eh)            E(eV)
   0   2.0000     -20.575590      -559.8903
   1   2.0000     -20.574119      -559.8502
   2   2.0000     -20.565494      -559.6156
   3   2.0000     -11.336783      -308.4896
   4   2.0000     -11.333762      -308.4073
   5   2.0000     -11.309292      -307.7415
   6   2.0000     -11.306990      -307.6789
   7   2.0000     -11.238641      -305.8190
   8   2.0000      -1.453937       -39.5636
   9   2.0000      -1.402452       -38.1627
  10   2.0000      -1.346629       -36.6436
  11   2.0000      -1.084322       -29.5059
  12   2.0000      -0.980442       -26.6792
  13   2.0000      -0.904923       -24.6242
  14   2.0000      -0.851658       -23.1748
  15   2.0000      -0.787843       -21.4383
  16   2.0000      -0.736876       -20.0514
  17   2.0000      -0.703073       -19.1316
  18   2.0000      -0.675897       -18.3921
  19   2.0000      -0.657506       -17.8916
  20   2.0000      -0.628789       -17.1102
  21   2.0000      -0.603988       -16.4353
  22   2.0000      -0.593881       -16.1603
  23   2.0000      -0.554407       -15.0862
  24   2.0000      -0.549490       -14.9524
  25   2.0000      -0.539519       -14.6811
  26   2.0000      -0.522573       -14.2199
  27   2.0000      -0.496367       -13.5068
  28   2.0000      -0.482329       -13.1248
  29   2.0000      -0.433496       -11.7960
  30   2.0000      -0.412618       -11.2279
  31   0.0000       0.114671         3.1204
  32   0.0000       0.136679         3.7192
  33   0.0000       0.157209         4.2779
  34   0.0000       0.175661         4.7800
  35   0.0000       0.186145         5.0653

MULLIKEN ATOMIC CHARGES
-----------------------
   0 C :   -0.406268
   1 C :    0.035988
   2 O :   -0.318248
   3 C :    0.124896
   4 O :   -0.327682
   5 C :    0.149102
   6 C :    0.048556
   7 O :   -0.247205
   8 H :    0.149559
   9 H :    0.150371
  10 H :    0.135490
  11 H :    0.091663
  12 H :    0.093671
  13 H :    0.117100
  14 H :    0.124001
  15 H :    0.079005
Sum of atomic charges:   -0.0000000

LOEWDIN ATOMIC CHARGES
----------------------
   0 C :   -0.286028
   1 C :   -0.317567
   2 O :    0.180788
   3 C :   -0.350890
   4 O :    0.182220
   5 C :   -0.312620
   6 C :   -0.279880
   7 O :    0.155079
   8 H :    0.131767
   9 H :    0.133020
  10 H :    0.130176
  11 H :    0.141039
  12 H :    0.109029
  13 H :    0.118617
  14 H :    0.153166
  15 H :    0.112085

  Mayer bond orders larger than 0.1
B(  0-C ,  1-C ) :   0.9015 B(  0-C ,  8-H ) :   0.9284 B(  0-C ,  9-H ) :   0.9316
B(  0-C , 10-H ) :   0.9334 B(  1-C ,  2-O ) :   0.9620 B(  1-C ,  5-C ) :   0.9101
B(  1-C , 11-H ) :   0.9388 B(  2-O ,  3-C ) :   0.9578 B(  3-C ,  4-O ) :   0.9370
B(  3-C , 12-H ) :   0.9255 B(  3-C , 13-H ) :   0.9238 B(  4-O ,  5-C ) :   0.9518
B(  5-C ,  6-C ) :   0.8289 B(  5-C , 14-H ) :   0.8948 B(  6-C ,  7-O ) :   2.0187
B(  6-C , 15-H ) :   0.9276

MP2 TOTAL ENERGY:     -420.214206888 Eh
FINAL SINGLE POINT ENERGY      -420.214206888065

DIPOLE MOMENT
-------------
                                X             Y             Z
Electronic contribution:      4.08467      -3.35804       1.66151
Nuclear contribution   :     -5.31218       3.71838      -1.58316
                        -----------------------------------------
Total Dipole Moment    :     -1.22750       0.36034       0.07835
                        -----------------------------------------
Magnitude (a.u.)       :      1.28170
Magnitude (Debye)      :      3.25781

                             ****ORCA TERMINATED NORMALLY****
TOTAL RUN TIME: 0 days 0 hours 11 minutes 22 seconds 640 msec
