                         Program Version 3.0.3 - RELEASE   -
|  1> ! RI-MP2 RIJK def2-TZVP def2-TZVP/C def2-TZVP/JK TIGHTSCF
|  2> % maxcore 2000
|  3> % mp2 density relaxed end
|  4> *xyz 0 1
|  5>  C       -0.0034061843     1.4619491679    -0.0184424664
|  6>  C        0.0276894740    -0.0408210806    -0.0588271080
|  7>  C        0.5673544265    -0.9582425772    -1.1791782105
|  8>  C        0.0666112978    -1.9362498207    -0.1093135960
|  9>  C        0.0813881186    -3.4166839881    -0.1147631338
| 10>  O        0.5177986743    -4.0882686506    -1.0192164889
| 11>  C        0.5374639018    -1.0058754030     1.0808479638
| 12>  C       -0.8360601952    -1.0398118658     1.7755595141
| 13>  C       -1.1653221378    -1.0193925667     0.2717199222
| 14>  H        1.0083415932     1.8754131579    -0.0937809388
| 15>  H       -0.5890728442     1.8627564569    -0.8530739886
| 16>  H       -0.4486000045     1.8307836676     0.9120096644
| 17>  H        0.0222566781    -0.9517151840    -2.1280688202
| 18>  H        1.6471559077    -0.9388943254    -1.3558473296
| 19>  H       -0.3492310512    -3.8944982346     0.7957612875
| 20>  H        1.5385365989    -1.0157107772     1.5162507251
| 21>  H       -1.0937307815    -1.9445557533     2.3329446982
| 22>  H       -1.1160882628    -0.1515914027     2.3500518692
| 23>  H       -2.1349755894    -1.0447325804    -0.2292316138
| 24> *
| 25>
| 26>                          ****END OF INPUT****

CARTESIAN COORDINATES (ANGSTROEM)
---------------------------------
  C     -0.003406    1.461949   -0.018442
  C      0.027689   -0.040821   -0.058827
  C      0.567354   -0.958243   -1.179178
  C      0.066611   -1.936250   -0.109314
  C      0.081388   -3.416684   -0.114763
  O      0.517799   -4.088269   -1.019216
  C      0.537464   -1.005875    1.080848
  C     -0.836060   -1.039812    1.775560
  C     -1.165322   -1.019393    0.271720
  H      1.008342    1.875413   -0.093781
  H     -0.589073    1.862756   -0.853074
  H     -0.448600    1.830784    0.912010
  H      0.022257   -0.951715   -2.128069
  H      1.647156   -0.938894   -1.355847
  H     -0.349231   -3.894498    0.795761
  H      1.538537   -1.015711    1.516251
  H     -1.093731   -1.944556    2.332945
  H     -1.116088   -0.151591    2.350052
  H     -2.134976   -1.044733   -0.229232

 Total Charge           Charge          ....    0
 Multiplicity           Mult            ....    1
 Number of Electrons    NEL             ....   66
 Basis Dimension        Dim             ....  339

ORBITAL ENERGIES
----------------

  NO   OCC          E(Eh)            E(eV)
   0   2.0000     -20.551553      -559.2362
   1   2.0000     -11.326859      -308.2195
   2   2.0000     -11.260069      -306.4021
   3   2.0000     -11.258212      -306.3515
   4   2.0000     -11.258166      -306.3503
   5   2.0000     -11.256170      -306.2960
   6   2.0000     -11.238327      -305.8104
   7   2.0000     -11.229008      -305.5568
   8   2.0000     -11.226100      -305.4777
   9   2.0000      -1.388284       -37.7771
  10   2.0000      -1.255903       -34.1748
  11   2.0000      -1.021184       -27.7878
  12   2.0000      -1.000210       -27.2171
  13   2.0000      -0.918308       -24.9884
  14   2.0000      -0.876626       -23.8542
  15   2.0000      -0.843562       -22.9545
  16   2.0000      -0.757676       -20.6174
  17   2.0000      -0.699426       -19.0324
  18   2.0000      -0.683386       -18.5959
  19   2.0000      -0.648424       -17.6445
  20   2.0000      -0.638581       -17.3767
  21   2.0000      -0.608633       -16.5617
  22   2.0000      -0.608060       -16.5462
  23   2.0000      -0.571823       -15.5601
  24   2.0000      -0.558463       -15.1966
  25   2.0000      -0.532077       -14.4785
  26   2.0000      -0.488278       -13.2867
  27   2.0000      -0.468575       -12.7506
  28   2.0000      -0.456893       -12.4327
  29   2.0000      -0.435159       -11.8413
  30   2.0000      -0.434023       -11.8104
  31   2.0000      -0.416730       -11.3398
  32   2.0000      -0.399920       -10.8824
  33   0.0000       0.123851         3.3701
  34   0.0000       0.134001         3.6463
  35   0.0000       0.150289         4.0896
  36   0.0000       0.161863         4.4045
  37   0.0000       0.185757         5.0547

MULLIKEN ATOMIC CHARGES
-----------------------
   0 C :   -0.421470
   1 C :   -0.040771
   2 C :   -0.177808
   3 C :    0.004687
   4 C :    0.018755
   5 O :   -0.261299
   6 C :   -0.044456
   7 C :   -0.267156
   8 C :   -0.044379
   9 H :    0.139774
  10 H :    0.139773
  11 H :    0.135578
  12 H :    0.116077
  13 H :    0.116094
  14 H :    0.075839
  15 H :    0.136750
  16 H :    0.119666
  17 H :    0.117605
  18 H :    0.136739
Sum of atomic charges:   -0.0000000

LOEWDIN ATOMIC CHARGES
----------------------
   0 C :   -0.275739
   1 C :   -0.184707
   2 C :   -0.147801
   3 C :   -0.168304
   4 C :   -0.267929
   5 O :    0.133346
   6 C :   -0.090974
   7 C :   -0.201128
   8 C :   -0.091015
   9 H :    0.131321
  10 H :    0.131321
  11 H :    0.130554
  12 H :    0.133793
  13 H :    0.133802
  14 H :    0.115923
  15 H :    0.131325
  16 H :    0.126896
  17 H :    0.127995
  18 H :    0.131321

  Mayer bond orders larger than 0.1
B(  0-C ,  1-C ) :   0.8506 B(  0-C ,  9-H ) :   0.9423 B(  0-C , 10-H ) :   0.9423
B(  0-C , 11-H ) :   0.9433 B(  1-C ,  2-C ) :   0.9062 B(  1-C ,  6-C ) :   0.8454
B(  1-C ,  8-C ) :   0.8454 B(  2-C ,  3-C ) :   0.8663 B(  2-C , 12-H ) :   0.9193
B(  2-C , 13-H ) :   0.9193 B(  3-C ,  4-C ) :   0.7865 B(  3-C ,  5-O ) :  -0.1415
B(  3-C ,  6-C ) :   0.8038 B(  3-C ,  8-C ) :   0.8039 B(  3-C , 14-H ) :  -0.1296
B(  4-C ,  5-O ) :   2.0505 B(  4-C , 14-H ) :   0.9942 B(  6-C ,  7-C ) :   0.9104
B(  6-C , 15-H ) :   0.8839 B(  7-C ,  8-C ) :   0.9104 B(  7-C , 16-H ) :   0.9207
B(  7-C , 17-H ) :   0.9212 B(  8-C , 18-H ) :   0.8839

MP2 TOTAL ENERGY:     -385.150521328 Eh
FINAL SINGLE POINT ENERGY      -385.150521328290

DIPOLE MOMENT
-------------
                                X             Y             Z
Electronic contribution:      0.93016      -7.53458      -1.82671
Nuclear contribution   :     -1.26464       8.55629       2.51157
                        -----------------------------------------
Total Dipole Moment    :     -0.33449       1.02171       0.68486
                        -----------------------------------------
Magnitude (a.u.)       :      1.27468
Magnitude (Debye)      :      3.23998

                             ****ORCA TERMINATED NORMALLY****
TOTAL RUN TIME: 0 days 0 hours 19 minutes 0 seconds 388 msec
