                         Program Version 3.0.3 - RELEASE   -
|  1> ! RI-MP2 RIJK def2-TZVP def2-TZVP/C def2-TZVP/JK TIGHTSCF
|  2> % maxcore 2000
|  3> % mp2 density relaxed end
|  4> *xyz 0 1
|  5>  C       -0.0775759690     1.3817404582    -0.0149604360
|  6>  O       -0.0763711667    -0.0431019029    -0.0620784846
|  7>  C        0.6441669788    -0.5585048839    -1.1193756760
|  8>  C        0.0718388991    -0.4709045993    -2.5767382901
|  9>  C        0.2933487351    -2.0083124794    -2.7453210896
| 10>  C        0.8868561253    -2.0756232349    -1.3263375305
| 11>  O        2.3342010573    -1.8373789151    -1.3400904177
| 12>  C        2.1828977386    -0.4927227037    -1.0854572090
| 13>  O        3.0374037058     0.3154194409    -0.9076597745
| 14>  H        0.9400042839     1.7764179974     0.0801023497
| 15>  H       -0.5466931753     1.8110251808    -0.9110547918
| 16>  H       -0.6635867895     1.6618538515     0.8619345260
| 17>  H       -0.9853828825    -0.1987687049    -2.5526068666
| 18>  H        0.5969525414     0.1890946966    -3.2689367616
| 19>  H       -0.6384410463    -2.5675901741    -2.8503799025
| 20>  H        0.9873970963    -2.3197071272    -3.5271836843
| 21>  H        0.6192027077    -2.8568838001    -0.6183290509
| 22> *
| 23>
| 24>                          ****END OF INPUT****

CARTESIAN COORDINATES (ANGSTROEM)
---------------------------------
  C     -0.077576    1.381740   -0.014960
  O     -0.076371   -0.043102   -0.062078
  C      0.644167   -0.558505   -1.119376
  C      0.071839   -0.470905   -2.576738
  C      0.293349   -2.008312   -2.745321
  C      0.886856   -2.075623   -1.326338
  O      2.334201   -1.837379   -1.340090
  C      2.182898   -0.492723   -1.085457
  O      3.037404    0.315419   -0.907660
  H      0.940004    1.776418    0.080102
  H     -0.546693    1.811025   -0.911055
  H     -0.663587    1.661854    0.861935
  H     -0.985383   -0.198769   -2.552607
  H      0.596953    0.189095   -3.268937
  H     -0.638441   -2.567590   -2.850380
  H      0.987397   -2.319707   -3.527184
  H      0.619203   -2.856884   -0.618329

 Total Charge           Charge          ....    0
 Multiplicity           Mult            ....    1
 Number of Electrons    NEL             ....   68
 Basis Dimension        Dim             ....  327

ORBITAL ENERGIES
----------------

  NO   OCC          E(Eh)            E(eV)
   0   2.0000     -20.604060      -560.6650
   1   2.0000     -20.586295      -560.1816
   2   2.0000     -20.557537      -559.3990
   3   2.0000     -11.384093      -309.7769
   4   2.0000     -11.320907      -308.0575
   5   2.0000     -11.311092      -307.7905
   6   2.0000     -11.285476      -307.0934
   7   2.0000     -11.254880      -306.2608
   8   2.0000     -11.250480      -306.1411
   9   2.0000      -1.469228       -39.9797
  10   2.0000      -1.405867       -38.2556
  11   2.0000      -1.383423       -37.6448
  12   2.0000      -1.137334       -30.9484
  13   2.0000      -0.983184       -26.7538
  14   2.0000      -0.934338       -25.4246
  15   2.0000      -0.914557       -24.8864
  16   2.0000      -0.832491       -22.6532
  17   2.0000      -0.734479       -19.9862
  18   2.0000      -0.722627       -19.6637
  19   2.0000      -0.717024       -19.5112
  20   2.0000      -0.681263       -18.5381
  21   2.0000      -0.644127       -17.5276
  22   2.0000      -0.633027       -17.2255
  23   2.0000      -0.626373       -17.0445
  24   2.0000      -0.599630       -16.3168
  25   2.0000      -0.590822       -16.0771
  26   2.0000      -0.545748       -14.8505
  27   2.0000      -0.527304       -14.3487
  28   2.0000      -0.516961       -14.0672
  29   2.0000      -0.510514       -13.8918
  30   2.0000      -0.487703       -13.2711
  31   2.0000      -0.459057       -12.4916
  32   2.0000      -0.449680       -12.2364
  33   2.0000      -0.409217       -11.1354
  34   0.0000       0.131505         3.5784
  35   0.0000       0.146971         3.9993
  36   0.0000       0.157116         4.2753
  37   0.0000       0.166846         4.5401
  38   0.0000       0.184314         5.0154

MULLIKEN ATOMIC CHARGES
-----------------------
   0 C :   -0.229132
   1 O :   -0.304734
   2 C :    0.236750
   3 C :   -0.301744
   4 C :   -0.223477
   5 C :    0.016467
   6 O :   -0.236160
   7 C :    0.209843
   8 O :   -0.265680
   9 H :    0.153369
  10 H :    0.118664
  11 H :    0.146828
  12 H :    0.135197
  13 H :    0.143283
  14 H :    0.127457
  15 H :    0.135280
  16 H :    0.137790
Sum of atomic charges:   -0.0000000

LOEWDIN ATOMIC CHARGES
----------------------
   0 C :   -0.323559
   1 O :    0.193839
   2 C :   -0.304045
   3 C :   -0.191759
   4 C :   -0.214034
   5 C :   -0.178736
   6 O :    0.253682
   7 C :   -0.419534
   8 O :    0.156803
   9 H :    0.114581
  10 H :    0.105779
  11 H :    0.116192
  12 H :    0.142428
  13 H :    0.135331
  14 H :    0.139000
  15 H :    0.138558
  16 H :    0.135475

  Mayer bond orders larger than 0.1
B(  0-C ,  1-O ) :   0.8661 B(  0-C ,  9-H ) :   0.9310 B(  0-C , 10-H ) :   0.9335
B(  0-C , 11-H ) :   0.9377 B(  1-O ,  2-C ) :   1.0172 B(  2-C ,  3-C ) :   0.8875
B(  2-C ,  5-C ) :   0.9025 B(  2-C ,  7-C ) :   0.9014 B(  3-C ,  4-C ) :   0.9606
B(  3-C , 12-H ) :   0.9091 B(  3-C , 13-H ) :   0.9040 B(  4-C ,  5-C ) :   0.9328
B(  4-C , 14-H ) :   0.9142 B(  4-C , 15-H ) :   0.9167 B(  5-C ,  6-O ) :   0.8761
B(  5-C , 16-H ) :   0.9113 B(  6-O ,  7-C ) :   1.0868 B(  7-C ,  8-O ) :   2.0197

MP2 TOTAL ENERGY:     -458.217279455 Eh
FINAL SINGLE POINT ENERGY      -458.217279454756

DIPOLE MOMENT
-------------
                                X             Y             Z
Electronic contribution:      6.09576      -2.31315       2.34487
Nuclear contribution   :     -7.47375       2.24104      -2.81675
                        -----------------------------------------
Total Dipole Moment    :     -1.37799      -0.07210      -0.47189
                        -----------------------------------------
Magnitude (a.u.)       :      1.45833
Magnitude (Debye)      :      3.70678

                             ****ORCA TERMINATED NORMALLY****
TOTAL RUN TIME: 0 days 0 hours 17 minutes 39 seconds 340 msec
