                         Program Version 3.0.3 - RELEASE   -
|  1> ! RI-MP2 RIJK def2-TZVP def2-TZVP/C def2-TZVP/JK TIGHTSCF
|  2> % maxcore 2000
|  3> % mp2 density relaxed end
|  4> *xyz 0 1
|  5>  O       -0.1222254079    -0.0378048516     0.1002400343
|  6>  C       -0.0199608452     1.1750448498     0.1052655217
|  7>  C        1.2200940668     1.9128805846    -0.0174483236
|  8>  C        1.1896022536     3.2698386619    -0.0143298440
|  9>  N        2.3014279471     4.0471602500    -0.1320410320
| 10>  C        3.5367345365     3.5271990999    -0.7242616032
| 11>  C        3.7317495139     2.0477666748    -0.4490311960
| 12>  C        3.5819710251     1.4708656306     0.9305378978
| 13>  C        2.5188358868     1.2056118176    -0.1270356103
| 14>  H       -0.9252131603     1.8226736468     0.1948208325
| 15>  H        0.2544123955     3.8045300320     0.1283113082
| 16>  H        2.1554339295     5.0380815665    -0.2354082133
| 17>  H        3.5207094473     3.6740686674    -1.8154845009
| 18>  H        4.3749859610     4.1154092792    -0.3313185770
| 19>  H        4.4868736672     1.6004634866    -1.0883077117
| 20>  H        4.2343698559     0.6521879101     1.2136023470
| 21>  H        3.3170931995     2.1388756179     1.7433681934
| 22>  H        2.4594910780     0.1994699158    -0.5251003930
| 23> *
| 24>
| 25>                          ****END OF INPUT****

CARTESIAN COORDINATES (ANGSTROEM)
---------------------------------
  O     -0.122225   -0.037805    0.100240
  C     -0.019961    1.175045    0.105266
  C      1.220094    1.912881   -0.017448
  C      1.189602    3.269839   -0.014330
  N      2.301428    4.047160   -0.132041
  C      3.536735    3.527199   -0.724262
  C      3.731750    2.047767   -0.449031
  C      3.581971    1.470866    0.930538
  C      2.518836    1.205612   -0.127036
  H     -0.925213    1.822674    0.194821
  H      0.254412    3.804530    0.128311
  H      2.155434    5.038082   -0.235408
  H      3.520709    3.674069   -1.815485
  H      4.374986    4.115409   -0.331319
  H      4.486874    1.600463   -1.088308
  H      4.234370    0.652188    1.213602
  H      3.317093    2.138876    1.743368
  H      2.459491    0.199470   -0.525100

 Total Charge           Charge          ....    0
 Multiplicity           Mult            ....    1
 Number of Electrons    NEL             ....   66
 Basis Dimension        Dim             ....  333

ORBITAL ENERGIES
----------------

  NO   OCC          E(Eh)            E(eV)
   0   2.0000     -20.520299      -558.3857
   1   2.0000     -15.594107      -424.3372
   2   2.0000     -11.310108      -307.7637
   3   2.0000     -11.300136      -307.4923
   4   2.0000     -11.280219      -306.9504
   5   2.0000     -11.241290      -305.8911
   6   2.0000     -11.234307      -305.7010
   7   2.0000     -11.226542      -305.4897
   8   2.0000     -11.219567      -305.3000
   9   2.0000      -1.358610       -36.9697
  10   2.0000      -1.272161       -34.6173
  11   2.0000      -1.149593       -31.2820
  12   2.0000      -1.066312       -29.0158
  13   2.0000      -0.959205       -26.1013
  14   2.0000      -0.869430       -23.6584
  15   2.0000      -0.839256       -22.8373
  16   2.0000      -0.795637       -21.6504
  17   2.0000      -0.730556       -19.8794
  18   2.0000      -0.696258       -18.9461
  19   2.0000      -0.682567       -18.5736
  20   2.0000      -0.652948       -17.7676
  21   2.0000      -0.628555       -17.1039
  22   2.0000      -0.616627       -16.7793
  23   2.0000      -0.600104       -16.3297
  24   2.0000      -0.574418       -15.6307
  25   2.0000      -0.534886       -14.5550
  26   2.0000      -0.516918       -14.0661
  27   2.0000      -0.501745       -13.6532
  28   2.0000      -0.484261       -13.1774
  29   2.0000      -0.432540       -11.7700
  30   2.0000      -0.417804       -11.3690
  31   2.0000      -0.399878       -10.8812
  32   2.0000      -0.305505        -8.3132
  33   0.0000       0.111146         3.0244
  34   0.0000       0.120125         3.2688
  35   0.0000       0.150847         4.1048
  36   0.0000       0.169096         4.6013
  37   0.0000       0.178355         4.8533

MULLIKEN ATOMIC CHARGES
-----------------------
   0 O :   -0.320687
   1 C :    0.035120
   2 C :   -0.010999
   3 C :   -0.014959
   4 N :   -0.318874
   5 C :   -0.117215
   6 C :   -0.076260
   7 C :   -0.289906
   8 C :   -0.120063
   9 H :    0.052970
  10 H :    0.137643
  11 H :    0.238279
  12 H :    0.121966
  13 H :    0.126639
  14 H :    0.130565
  15 H :    0.137035
  16 H :    0.143720
  17 H :    0.145027
Sum of atomic charges:   -0.0000000

LOEWDIN ATOMIC CHARGES
----------------------
   0 O :    0.088835
   1 C :   -0.303410
   2 C :   -0.201265
   3 C :   -0.185016
   4 N :    0.091141
   5 C :   -0.248911
   6 C :   -0.204822
   7 C :   -0.186168
   8 C :   -0.153998
   9 H :    0.111777
  10 H :    0.147293
  11 H :    0.185888
  12 H :    0.135372
  13 H :    0.135990
  14 H :    0.152613
  15 H :    0.134564
  16 H :    0.140540
  17 H :    0.159576

  Mayer bond orders larger than 0.1
B(  0-O ,  1-C ) :   1.9571 B(  0-O ,  2-C ) :  -0.1169 B(  1-C ,  2-C ) :   0.9266
B(  1-C ,  9-H ) :   0.9922 B(  2-C ,  3-C ) :   1.5503 B(  2-C ,  8-C ) :   0.9293
B(  2-C ,  9-H ) :  -0.1249 B(  3-C ,  4-N ) :   1.1763 B(  3-C , 10-H ) :   0.8979
B(  4-N ,  5-C ) :   0.8870 B(  4-N , 11-H ) :   0.8792 B(  5-C ,  6-C ) :   0.9456
B(  5-C , 12-H ) :   0.9327 B(  5-C , 13-H ) :   0.9247 B(  6-C ,  7-C ) :   0.8919
B(  6-C ,  8-C ) :   0.8502 B(  6-C , 14-H ) :   0.9252 B(  7-C ,  8-C ) :   0.8423
B(  7-C , 15-H ) :   0.9273 B(  7-C , 16-H ) :   0.9261 B(  8-C , 17-H ) :   0.9387

MP2 TOTAL ENERGY:     -401.266885738 Eh
FINAL SINGLE POINT ENERGY      -401.266885738236

DIPOLE MOMENT
-------------
                                X             Y             Z
Electronic contribution:     -4.63092      -2.19572       0.05907
Nuclear contribution   :      5.66910       4.13250      -0.35948
                        -----------------------------------------
Total Dipole Moment    :      1.03818       1.93678      -0.30041
                        -----------------------------------------
Magnitude (a.u.)       :      2.21792
Magnitude (Debye)      :      5.63751

                             ****ORCA TERMINATED NORMALLY****
TOTAL RUN TIME: 0 days 0 hours 17 minutes 17 seconds 974 msec
