                         Program Version 3.0.3 - RELEASE   -
|  1> ! RI-MP2 RIJK def2-TZVP def2-TZVP/C def2-TZVP/JK TIGHTSCF
|  2> % maxcore 2000
|  3> % mp2 density relaxed end
|  4> *xyz 0 1
|  5>  C       -0.0297770145     1.4652658837    -0.1236443386
|  6>  C       -0.1729753311    -0.0585691668    -0.1121386959
|  7>  C       -1.4847159264    -0.5143476734     0.5391374943
|  8>  N       -1.6401225122    -1.9593490026     0.5705297591
|  9>  C       -2.4203046522    -2.6379746489    -0.3209546269
| 10>  O       -3.0852346730    -2.0775208858    -1.1772921807
| 11>  C       -2.4239423996    -4.1625599377    -0.1709959023
| 12>  C       -3.8473175372    -4.6300264883     0.1718043587
| 13>  C       -1.9269471704    -4.7989719087    -1.4781718642
| 14>  H        0.9083034237     1.7720021439    -0.5953699169
| 15>  H       -0.8504158853     1.9341972061    -0.6772225742
| 16>  H       -0.0400526103     1.8747089712     0.8928799357
| 17>  H       -0.1399615272    -0.4493283520    -1.1355344004
| 18>  H        0.6741723695    -0.5086841845     0.4223304022
| 19>  H       -1.5515707216    -0.1257498879     1.5633014470
| 20>  H       -2.3378254166    -0.1267668362    -0.0231859114
| 21>  H       -1.0781011512    -2.4886347745     1.2165952994
| 22>  H       -1.7493273467    -4.4530933759     0.6452133746
| 23>  H       -4.5439463288    -4.2902249772    -0.5992082323
| 24>  H       -3.8915074910    -5.7221313257     0.2283618893
| 25>  H       -4.1817861516    -4.2253542133     1.1324343389
| 26>  H       -0.8929765608    -4.5126590477    -1.6965006091
| 27>  H       -1.9718418159    -5.8907060221    -1.4168814709
| 28>  H       -2.5521927196    -4.4678320357    -2.3115664954
| 29> *
| 30>
| 31>                          ****END OF INPUT****

CARTESIAN COORDINATES (ANGSTROEM)
---------------------------------
  C     -0.029777    1.465266   -0.123644
  C     -0.172975   -0.058569   -0.112139
  C     -1.484716   -0.514348    0.539137
  N     -1.640123   -1.959349    0.570530
  C     -2.420305   -2.637975   -0.320955
  O     -3.085235   -2.077521   -1.177292
  C     -2.423942   -4.162560   -0.170996
  C     -3.847318   -4.630026    0.171804
  C     -1.926947   -4.798972   -1.478172
  H      0.908303    1.772002   -0.595370
  H     -0.850416    1.934197   -0.677223
  H     -0.040053    1.874709    0.892880
  H     -0.139962   -0.449328   -1.135534
  H      0.674172   -0.508684    0.422330
  H     -1.551571   -0.125750    1.563301
  H     -2.337825   -0.126767   -0.023186
  H     -1.078101   -2.488635    1.216595
  H     -1.749327   -4.453093    0.645213
  H     -4.543946   -4.290225   -0.599208
  H     -3.891507   -5.722131    0.228362
  H     -4.181786   -4.225354    1.132434
  H     -0.892977   -4.512659   -1.696501
  H     -1.971842   -5.890706   -1.416881
  H     -2.552193   -4.467832   -2.311566

 Total Charge           Charge          ....    0
 Multiplicity           Mult            ....    1
 Number of Electrons    NEL             ....   72
 Basis Dimension        Dim             ....  369

ORBITAL ENERGIES
----------------

  NO   OCC          E(Eh)            E(eV)
   0   2.0000     -20.505689      -557.9882
   1   2.0000     -15.579084      -423.9284
   2   2.0000     -11.338080      -308.5248
   3   2.0000     -11.257515      -306.3326
   4   2.0000     -11.242412      -305.9216
   5   2.0000     -11.223786      -305.4147
   6   2.0000     -11.217548      -305.2450
   7   2.0000     -11.217530      -305.2445
   8   2.0000     -11.216878      -305.2268
   9   2.0000      -1.372154       -37.3382
  10   2.0000      -1.225723       -33.3536
  11   2.0000      -1.080257       -29.3953
  12   2.0000      -1.047764       -28.5111
  13   2.0000      -0.936730       -25.4897
  14   2.0000      -0.933187       -25.3933
  15   2.0000      -0.847428       -23.0597
  16   2.0000      -0.806634       -21.9496
  17   2.0000      -0.775401       -21.0997
  18   2.0000      -0.691977       -18.8297
  19   2.0000      -0.654023       -17.7969
  20   2.0000      -0.630674       -17.1615
  21   2.0000      -0.606578       -16.5058
  22   2.0000      -0.600818       -16.3491
  23   2.0000      -0.597958       -16.2713
  24   2.0000      -0.569971       -15.5097
  25   2.0000      -0.543498       -14.7893
  26   2.0000      -0.535342       -14.5674
  27   2.0000      -0.533493       -14.5171
  28   2.0000      -0.517933       -14.0937
  29   2.0000      -0.506464       -13.7816
  30   2.0000      -0.492629       -13.4051
  31   2.0000      -0.480956       -13.0875
  32   2.0000      -0.477666       -12.9979
  33   2.0000      -0.472852       -12.8670
  34   2.0000      -0.409222       -11.1355
  35   2.0000      -0.384690       -10.4679
  36   0.0000       0.121892         3.3168
  37   0.0000       0.143370         3.9013
  38   0.0000       0.155821         4.2401
  39   0.0000       0.168317         4.5801
  40   0.0000       0.183496         4.9932

MULLIKEN ATOMIC CHARGES
-----------------------
   0 C :   -0.397934
   1 C :   -0.191274
   2 C :   -0.131529
   3 N :   -0.323360
   4 C :    0.296192
   5 O :   -0.394442
   6 C :   -0.038729
   7 C :   -0.413466
   8 C :   -0.408275
   9 H :    0.136071
  10 H :    0.133166
  11 H :    0.120287
  12 H :    0.128832
  13 H :    0.093459
  14 H :    0.124778
  15 H :    0.151908
  16 H :    0.234096
  17 H :    0.069167
  18 H :    0.150781
  19 H :    0.128988
  20 H :    0.126945
  21 H :    0.124674
  22 H :    0.128837
  23 H :    0.150828
Sum of atomic charges:   -0.0000000

LOEWDIN ATOMIC CHARGES
----------------------
   0 C :   -0.319244
   1 C :   -0.299960
   2 C :   -0.280514
   3 N :    0.110615
   4 C :   -0.436249
   5 O :    0.075181
   6 C :   -0.278402
   7 C :   -0.285249
   8 C :   -0.285991
   9 H :    0.122561
  10 H :    0.123820
  11 H :    0.120069
  12 H :    0.139643
  13 H :    0.129788
  14 H :    0.131382
  15 H :    0.147873
  16 H :    0.183477
  17 H :    0.143787
  18 H :    0.132700
  19 H :    0.122591
  20 H :    0.123616
  21 H :    0.123147
  22 H :    0.122607
  23 H :    0.132749

  Mayer bond orders larger than 0.1
B(  0-C ,  1-C ) :   0.9175 B(  0-C ,  9-H ) :   0.9388 B(  0-C , 10-H ) :   0.9394
B(  0-C , 11-H ) :   0.9366 B(  1-C ,  2-C ) :   0.9227 B(  1-C , 12-H ) :   0.9348
B(  1-C , 13-H ) :   0.9297 B(  2-C ,  3-N ) :   0.8372 B(  2-C , 14-H ) :   0.9330
B(  2-C , 15-H ) :   0.9176 B(  3-N ,  4-C ) :   1.1720 B(  3-N , 16-H ) :   0.8739
B(  4-C ,  5-O ) :   1.8899 B(  4-C ,  6-C ) :   0.8916 B(  6-C ,  7-C ) :   0.9109
B(  6-C ,  8-C ) :   0.9135 B(  6-C , 17-H ) :   0.9278 B(  7-C , 18-H ) :   0.9314
B(  7-C , 19-H ) :   0.9376 B(  7-C , 20-H ) :   0.9342 B(  8-C , 21-H ) :   0.9340
B(  8-C , 22-H ) :   0.9378 B(  8-C , 23-H ) :   0.9310

MP2 TOTAL ENERGY:     -404.905178741 Eh
FINAL SINGLE POINT ENERGY      -404.905178741098

DIPOLE MOMENT
-------------
                                X             Y             Z
Electronic contribution:     -2.99718      -0.66050      -0.20294
Nuclear contribution   :      3.91512       0.43248       1.17719
                        -----------------------------------------
Total Dipole Moment    :      0.91794      -0.22802       0.97425
                        -----------------------------------------
Magnitude (a.u.)       :      1.35785
Magnitude (Debye)      :      3.45139

                             ****ORCA TERMINATED NORMALLY****
TOTAL RUN TIME: 0 days 0 hours 18 minutes 24 seconds 178 msec
