                         Program Version 3.0.3 - RELEASE   -
|  1> ! RI-MP2 RIJK def2-TZVP def2-TZVP/C def2-TZVP/JK TIGHTSCF
|  2> % maxcore 2000
|  3> % mp2 density relaxed end
|  4> *xyz 0 1
|  5>  C       -0.2106679032     1.5595673731     0.0097018539
|  6>  C       -0.0274374539     0.0357034898     0.0564070602
|  7>  C        0.6313403271    -0.4886869852    -1.2371960014
|  8>  C        1.0317874087    -1.9485378915    -1.1256940013
|  9>  O        0.7143986089    -2.7795934906    -1.9448835593
| 10>  C        1.8987775743    -2.3080016891     0.0824704588
| 11>  C        3.3899588182    -2.2958426296    -0.3271082957
| 12>  C        1.6267664491    -1.4162768193     1.2673026689
| 13>  C        0.7710164163    -0.3953848605     1.2629019192
| 14>  H        0.7578118268     2.0678383264    -0.0558096612
| 15>  H       -0.8084866226     1.8564875872    -0.8577472380
| 16>  H       -0.7195458964     1.9214132137     0.9091293707
| 17>  H       -1.0304656427    -0.4124641012     0.1315018915
| 18>  H       -0.0185415740    -0.3665469971    -2.1070414274
| 19>  H        1.5477100684     0.0936848887    -1.4119697589
| 20>  H        1.6434817255    -3.3443644185     0.3395908835
| 21>  H        3.7056281211    -1.2967393532    -0.6442322198
| 22>  H        4.0185495869    -2.5906808850     0.5189652030
| 23>  H        3.5646068556    -2.9953983297    -1.1489112328
| 24>  H        2.1675655791    -1.6625889007     2.1792430469
| 25>  H        0.6163483867     0.1768014523     2.1754598392
| 26> *
| 27>
| 28>                          ****END OF INPUT****

CARTESIAN COORDINATES (ANGSTROEM)
---------------------------------
  C     -0.210668    1.559567    0.009702
  C     -0.027437    0.035703    0.056407
  C      0.631340   -0.488687   -1.237196
  C      1.031787   -1.948538   -1.125694
  O      0.714399   -2.779593   -1.944884
  C      1.898778   -2.308002    0.082470
  C      3.389959   -2.295843   -0.327108
  C      1.626766   -1.416277    1.267303
  C      0.771016   -0.395385    1.262902
  H      0.757812    2.067838   -0.055810
  H     -0.808487    1.856488   -0.857747
  H     -0.719546    1.921413    0.909129
  H     -1.030466   -0.412464    0.131502
  H     -0.018542   -0.366547   -2.107041
  H      1.547710    0.093685   -1.411970
  H      1.643482   -3.344364    0.339591
  H      3.705628   -1.296739   -0.644232
  H      4.018550   -2.590681    0.518965
  H      3.564607   -2.995398   -1.148911
  H      2.167566   -1.662589    2.179243
  H      0.616348    0.176801    2.175460

 Total Charge           Charge          ....    0
 Multiplicity           Mult            ....    1
 Number of Electrons    NEL             ....   68
 Basis Dimension        Dim             ....  351

ORBITAL ENERGIES
----------------

  NO   OCC          E(Eh)            E(eV)
   0   2.0000     -20.541008      -558.9493
   1   2.0000     -11.324133      -308.1453
   2   2.0000     -11.248744      -306.0939
   3   2.0000     -11.245368      -306.0020
   4   2.0000     -11.237743      -305.7945
   5   2.0000     -11.235442      -305.7319
   6   2.0000     -11.235375      -305.7301
   7   2.0000     -11.230110      -305.5868
   8   2.0000     -11.226586      -305.4909
   9   2.0000      -1.384605       -37.6770
  10   2.0000      -1.138280       -30.9742
  11   2.0000      -1.067155       -29.0388
  12   2.0000      -1.004343       -27.3296
  13   2.0000      -0.969171       -26.3725
  14   2.0000      -0.888860       -24.1871
  15   2.0000      -0.831304       -22.6209
  16   2.0000      -0.780308       -21.2333
  17   2.0000      -0.696146       -18.9431
  18   2.0000      -0.677940       -18.4477
  19   2.0000      -0.648233       -17.6393
  20   2.0000      -0.628593       -17.1049
  21   2.0000      -0.618005       -16.8168
  22   2.0000      -0.584614       -15.9082
  23   2.0000      -0.570505       -15.5242
  24   2.0000      -0.561819       -15.2879
  25   2.0000      -0.553992       -15.0749
  26   2.0000      -0.531492       -14.4626
  27   2.0000      -0.520464       -14.1625
  28   2.0000      -0.510924       -13.9029
  29   2.0000      -0.500374       -13.6159
  30   2.0000      -0.477024       -12.9805
  31   2.0000      -0.464409       -12.6372
  32   2.0000      -0.396884       -10.7998
  33   2.0000      -0.360440        -9.8081
  34   0.0000       0.127542         3.4706
  35   0.0000       0.135872         3.6973
  36   0.0000       0.142719         3.8836
  37   0.0000       0.159217         4.3325
  38   0.0000       0.164407         4.4737

MULLIKEN ATOMIC CHARGES
-----------------------
   0 C :   -0.412808
   1 C :    0.039501
   2 C :   -0.259614
   3 C :    0.164998
   4 O :   -0.275716
   5 C :    0.050305
   6 C :   -0.435366
   7 C :   -0.195707
   8 C :   -0.228088
   9 H :    0.129143
  10 H :    0.137621
  11 H :    0.135890
  12 H :    0.110273
  13 H :    0.135478
  14 H :    0.126660
  15 H :    0.113793
  16 H :    0.129515
  17 H :    0.135974
  18 H :    0.152118
  19 H :    0.124394
  20 H :    0.121638
Sum of atomic charges:    0.0000000

LOEWDIN ATOMIC CHARGES
----------------------
   0 C :   -0.287950
   1 C :   -0.261375
   2 C :   -0.195311
   3 C :   -0.293446
   4 O :    0.153090
   5 C :   -0.234839
   6 C :   -0.274173
   7 C :   -0.143141
   8 C :   -0.148130
   9 H :    0.124765
  10 H :    0.125253
  11 H :    0.124478
  12 H :    0.162629
  13 H :    0.147886
  14 H :    0.157483
  15 H :    0.169404
  16 H :    0.123885
  17 H :    0.126155
  18 H :    0.130039
  19 H :    0.146361
  20 H :    0.146935

  Mayer bond orders larger than 0.1
B(  0-C ,  1-C ) :   0.8964 B(  0-C ,  9-H ) :   0.9333 B(  0-C , 10-H ) :   0.9394
B(  0-C , 11-H ) :   0.9390 B(  1-C ,  2-C ) :   0.9015 B(  1-C ,  8-C ) :   0.8988
B(  1-C , 12-H ) :   0.9124 B(  2-C ,  3-C ) :   0.9351 B(  2-C , 13-H ) :   0.9131
B(  2-C , 14-H ) :   0.9019 B(  3-C ,  4-O ) :   2.0507 B(  3-C ,  5-C ) :   0.8778
B(  5-C ,  6-C ) :   0.8763 B(  5-C ,  7-C ) :   0.9009 B(  5-C , 15-H ) :   0.9089
B(  6-C , 16-H ) :   0.9304 B(  6-C , 17-H ) :   0.9344 B(  6-C , 18-H ) :   0.9349
B(  7-C ,  8-C ) :   1.8118 B(  7-C , 19-H ) :   0.9192 B(  8-C , 20-H ) :   0.9233

MP2 TOTAL ENERGY:     -386.448444865 Eh
FINAL SINGLE POINT ENERGY      -386.448444864612

DIPOLE MOMENT
-------------
                                X             Y             Z
Electronic contribution:     -1.85535      -5.61190      -2.12643
Nuclear contribution   :      2.11514       6.36085       2.83194
                        -----------------------------------------
Total Dipole Moment    :      0.25979       0.74894       0.70551
                        -----------------------------------------
Magnitude (a.u.)       :      1.06120
Magnitude (Debye)      :      2.69736

                             ****ORCA TERMINATED NORMALLY****
TOTAL RUN TIME: 0 days 0 hours 19 minutes 49 seconds 720 msec
