                         Program Version 3.0.3 - RELEASE   -
|  1> ! RI-MP2 RIJK def2-TZVP def2-TZVP/C def2-TZVP/JK TIGHTSCF
|  2> % maxcore 2000
|  3> % mp2 density relaxed end
|  4> *xyz 0 1
|  5>  C       -0.0102275272     1.4689696640    -0.0060980172
|  6>  N        0.0107271651     0.0210934706    -0.0126931185
|  7>  C        0.0565746832    -0.7975780828    -1.1361050437
|  8>  C        0.0697361290    -2.1201319934    -0.8545227450
|  9>  C        0.0289907916    -2.2521648779     0.5996736075
| 10>  O        0.0243161965    -3.2208322305     1.3179363588
| 11>  C       -0.0099827890    -0.7691575484     1.1332423776
| 12>  O       -0.0477300245    -0.3777009353     2.2695881802
| 13>  H        0.8925077212     1.8825049722    -0.4680593481
| 14>  H       -0.8896642285     1.8563941176    -0.5311801558
| 15>  H       -0.0516774351     1.7833590975     1.0381838321
| 16>  H        0.0776822280    -0.3265615921    -2.1112471339
| 17>  H        0.1036381296    -2.9297996516    -1.5651748840
| 18> *
| 19>
| 20>                          ****END OF INPUT****

CARTESIAN COORDINATES (ANGSTROEM)
---------------------------------
  C     -0.010228    1.468970   -0.006098
  N      0.010727    0.021093   -0.012693
  C      0.056575   -0.797578   -1.136105
  C      0.069736   -2.120132   -0.854523
  C      0.028991   -2.252165    0.599674
  O      0.024316   -3.220832    1.317936
  C     -0.009983   -0.769158    1.133242
  O     -0.047730   -0.377701    2.269588
  H      0.892508    1.882505   -0.468059
  H     -0.889664    1.856394   -0.531180
  H     -0.051677    1.783359    1.038184
  H      0.077682   -0.326562   -2.111247
  H      0.103638   -2.929800   -1.565175

 Total Charge           Charge          ....    0
 Multiplicity           Mult            ....    1
 Number of Electrons    NEL             ....   58
 Basis Dimension        Dim             ....  278

ORBITAL ENERGIES
----------------

  NO   OCC          E(Eh)            E(eV)
   0   2.0000     -20.566199      -559.6347
   1   2.0000     -20.563886      -559.5718
   2   2.0000     -15.626224      -425.2112
   3   2.0000     -11.376047      -309.5580
   4   2.0000     -11.351156      -308.8806
   5   2.0000     -11.335717      -308.4605
   6   2.0000     -11.290545      -307.2313
   7   2.0000     -11.247532      -306.0609
   8   2.0000      -1.428269       -38.8652
   9   2.0000      -1.396426       -37.9987
  10   2.0000      -1.313156       -35.7328
  11   2.0000      -1.102343       -29.9963
  12   2.0000      -0.980719       -26.6867
  13   2.0000      -0.943123       -25.6637
  14   2.0000      -0.810714       -22.0606
  15   2.0000      -0.766933       -20.8693
  16   2.0000      -0.719399       -19.5758
  17   2.0000      -0.671699       -18.2778
  18   2.0000      -0.667546       -18.1649
  19   2.0000      -0.647906       -17.6304
  20   2.0000      -0.623923       -16.9778
  21   2.0000      -0.623158       -16.9570
  22   2.0000      -0.590033       -16.0556
  23   2.0000      -0.574369       -15.6294
  24   2.0000      -0.531817       -14.4715
  25   2.0000      -0.508725       -13.8431
  26   2.0000      -0.488202       -13.2847
  27   2.0000      -0.410652       -11.1744
  28   2.0000      -0.353171        -9.6103
  29   0.0000       0.041530         1.1301
  30   0.0000       0.122184         3.3248
  31   0.0000       0.152175         4.1409
  32   0.0000       0.155187         4.2229
  33   0.0000       0.180079         4.9002

MULLIKEN ATOMIC CHARGES
-----------------------
   0 C :   -0.335381
   1 N :   -0.064921
   2 C :   -0.034879
   3 C :   -0.231103
   4 C :    0.194417
   5 O :   -0.247606
   6 C :    0.198842
   7 O :   -0.281185
   8 H :    0.148563
   9 H :    0.148521
  10 H :    0.181995
  11 H :    0.162490
  12 H :    0.160245
Sum of atomic charges:   -0.0000000

LOEWDIN ATOMIC CHARGES
----------------------
   0 C :   -0.278591
   1 N :    0.188610
   2 C :   -0.129780
   3 C :   -0.163571
   4 C :   -0.294357
   5 O :    0.185883
   6 C :   -0.346105
   7 O :    0.158383
   8 H :    0.122387
   9 H :    0.122431
  10 H :    0.139472
  11 H :    0.146867
  12 H :    0.148370

  Mayer bond orders larger than 0.1
B(  0-C ,  1-N ) :   0.8527 B(  0-C ,  8-H ) :   0.9304 B(  0-C ,  9-H ) :   0.9303
B(  0-C , 10-H ) :   0.9232 B(  1-N ,  2-C ) :   1.0362 B(  1-N ,  6-C ) :   1.0223
B(  2-C ,  3-C ) :   1.5898 B(  2-C , 11-H ) :   0.9062 B(  3-C ,  4-C ) :   1.0371
B(  3-C , 12-H ) :   0.9136 B(  4-C ,  5-O ) :   1.9543 B(  4-C ,  6-C ) :   0.8352
B(  6-C ,  7-O ) :   1.9757

MP2 TOTAL ENERGY:     -397.983012649 Eh
FINAL SINGLE POINT ENERGY      -397.983012648951

DIPOLE MOMENT
-------------
                                X             Y             Z
Electronic contribution:     -0.02488      -5.40582       3.61611
Nuclear contribution   :      0.05885       6.69588      -5.50283
                        -----------------------------------------
Total Dipole Moment    :      0.03397       1.29006      -1.88672
                        -----------------------------------------
Magnitude (a.u.)       :      2.28585
Magnitude (Debye)      :      5.81018

                             ****ORCA TERMINATED NORMALLY****
TOTAL RUN TIME: 0 days 0 hours 9 minutes 50 seconds 411 msec
