                         Program Version 3.0.3 - RELEASE   -
|  1> ! RI-MP2 RIJK def2-TZVP def2-TZVP/C def2-TZVP/JK TIGHTSCF
|  2> % maxcore 2000
|  3> % mp2 density relaxed end
|  4> *xyz 0 1
|  5>  C       -0.4404609481     1.0430904030    -0.2067013089
|  6>  O        0.5199456388     0.0218815990     0.0492590321
|  7>  C        0.9780547520    -0.6009825725    -1.0911022314
|  8>  C        1.3521543472    -2.0431048165    -0.9310086654
|  9>  N        1.0347808029    -2.6714536290     0.3202856282
| 10>  C        0.0843533979    -1.6745292685    -1.7426305676
| 11>  O       -1.1132375457    -1.9791866289    -1.1242916725
| 12>  C        0.1042660072    -1.8081338913    -3.1736949893
| 13>  N        0.1650280845    -1.8849477619    -4.3271440374
| 14>  H       -0.0186797260     1.8260591719    -0.8515736205
| 15>  H       -1.3362379689     0.6241528383    -0.6761024660
| 16>  H       -0.6990398408     1.4778241448     0.7606628234
| 17>  H        1.5812407670     0.0116661817    -1.7631073937
| 18>  H        2.2154708309    -2.4061341552    -1.4789534618
| 19>  H        1.5580647689    -3.5247554591     0.4603612613
| 20>  H        1.1817897362    -2.0411970772     1.1004325651
| 21>  H       -0.8510118541    -2.5123100487    -0.3460174357
| 22> *
| 23>
| 24>                          ****END OF INPUT****

CARTESIAN COORDINATES (ANGSTROEM)
---------------------------------
  C     -0.440461    1.043090   -0.206701
  O      0.519946    0.021882    0.049259
  C      0.978055   -0.600983   -1.091102
  C      1.352154   -2.043105   -0.931009
  N      1.034781   -2.671454    0.320286
  C      0.084353   -1.674529   -1.742631
  O     -1.113238   -1.979187   -1.124292
  C      0.104266   -1.808134   -3.173695
  N      0.165028   -1.884948   -4.327144
  H     -0.018680    1.826059   -0.851574
  H     -1.336238    0.624153   -0.676102
  H     -0.699040    1.477824    0.760663
  H      1.581241    0.011666   -1.763107
  H      2.215471   -2.406134   -1.478953
  H      1.558065   -3.524755    0.460361
  H      1.181790   -2.041197    1.100433
  H     -0.851012   -2.512310   -0.346017

 Total Charge           Charge          ....    0
 Multiplicity           Mult            ....    1
 Number of Electrons    NEL             ....   68
 Basis Dimension        Dim             ....  327

ORBITAL ENERGIES
----------------

  NO   OCC          E(Eh)            E(eV)
   0   2.0000     -20.588310      -560.2364
   1   2.0000     -20.575840      -559.8971
   2   2.0000     -15.583605      -424.0515
   3   2.0000     -15.570821      -423.7036
   4   2.0000     -11.331699      -308.3512
   5   2.0000     -11.316617      -307.9408
   6   2.0000     -11.299654      -307.4792
   7   2.0000     -11.284992      -307.0803
   8   2.0000     -11.273247      -306.7606
   9   2.0000      -1.422383       -38.7050
  10   2.0000      -1.389259       -37.8037
  11   2.0000      -1.233070       -33.5536
  12   2.0000      -1.215254       -33.0687
  13   2.0000      -1.115490       -30.3540
  14   2.0000      -0.960262       -26.1301
  15   2.0000      -0.895517       -24.3682
  16   2.0000      -0.829231       -22.5645
  17   2.0000      -0.766859       -20.8673
  18   2.0000      -0.721313       -19.6279
  19   2.0000      -0.700681       -19.0665
  20   2.0000      -0.686394       -18.6777
  21   2.0000      -0.662791       -18.0355
  22   2.0000      -0.639426       -17.3997
  23   2.0000      -0.613922       -16.7057
  24   2.0000      -0.593204       -16.1419
  25   2.0000      -0.563062       -15.3217
  26   2.0000      -0.553458       -15.0604
  27   2.0000      -0.525924       -14.3111
  28   2.0000      -0.507723       -13.8158
  29   2.0000      -0.480110       -13.0645
  30   2.0000      -0.474462       -12.9108
  31   2.0000      -0.472034       -12.8447
  32   2.0000      -0.424886       -11.5617
  33   2.0000      -0.376139       -10.2353
  34   0.0000       0.114143         3.1060
  35   0.0000       0.142661         3.8820
  36   0.0000       0.148509         4.0411
  37   0.0000       0.173749         4.7279
  38   0.0000       0.180884         4.9221

MULLIKEN ATOMIC CHARGES
-----------------------
   0 C :   -0.222435
   1 O :   -0.318421
   2 C :   -0.000670
   3 C :   -0.032274
   4 N :   -0.605599
   5 C :    0.322046
   6 O :   -0.456635
   7 C :   -0.203906
   8 N :   -0.057796
   9 H :    0.119976
  10 H :    0.153265
  11 H :    0.141380
  12 H :    0.132603
  13 H :    0.154693
  14 H :    0.255035
  15 H :    0.270493
  16 H :    0.348246
Sum of atomic charges:    0.0000000

LOEWDIN ATOMIC CHARGES
----------------------
   0 C :   -0.324621
   1 O :    0.177612
   2 C :   -0.272436
   3 C :   -0.240656
   4 N :   -0.119943
   5 C :   -0.341970
   6 O :    0.053359
   7 C :   -0.152862
   8 N :    0.067721
   9 H :    0.106574
  10 H :    0.114179
  11 H :    0.114828
  12 H :    0.145333
  13 H :    0.147727
  14 H :    0.165503
  15 H :    0.171372
  16 H :    0.188280

  Mayer bond orders larger than 0.1
B(  0-C ,  1-O ) :   0.8738 B(  0-C ,  9-H ) :   0.9338 B(  0-C , 10-H ) :   0.9309
B(  0-C , 11-H ) :   0.9388 B(  1-O ,  2-C ) :   1.0067 B(  2-C ,  3-C ) :   0.9108
B(  2-C ,  5-C ) :   0.8098 B(  2-C , 12-H ) :   0.9314 B(  3-C ,  4-N ) :   1.0010
B(  3-C ,  5-C ) :   0.7655 B(  3-C , 13-H ) :   0.9185 B(  4-N , 14-H ) :   0.8816
B(  4-N , 15-H ) :   0.8627 B(  5-C ,  6-O ) :   1.1021 B(  5-C ,  7-C ) :   0.9439
B(  6-O , 16-H ) :   0.7796 B(  7-C ,  8-N ) :   2.8506

MP2 TOTAL ENERGY:     -454.382171737 Eh
FINAL SINGLE POINT ENERGY      -454.382171737098

DIPOLE MOMENT
-------------
                                X             Y             Z
Electronic contribution:     -0.35484      -3.20620      -5.12802
Nuclear contribution   :      1.28844       3.39325       6.87881
                        -----------------------------------------
Total Dipole Moment    :      0.93360       0.18705       1.75079
                        -----------------------------------------
Magnitude (a.u.)       :      1.99295
Magnitude (Debye)      :      5.06568

                             ****ORCA TERMINATED NORMALLY****
TOTAL RUN TIME: 0 days 0 hours 15 minutes 48 seconds 548 msec
