                         Program Version 3.0.3 - RELEASE   -
|  1> ! RI-MP2 RIJK def2-TZVP def2-TZVP/C def2-TZVP/JK TIGHTSCF
|  2> % maxcore 2000
|  3> % mp2 density relaxed end
|  4> *xyz 0 1
|  5>  C        0.0704586555     1.5322752953     0.0090676738
|  6>  C        0.0077821500     0.0081333063    -0.0047127748
|  7>  O       -1.3395194255    -0.4698374224     0.0494443395
|  8>  C        0.7078269124    -0.6264470990    -1.2269404408
|  9>  N        2.1372453362    -0.3092959306    -1.3801080421
| 10>  C        1.7357186958    -1.5953489471    -0.7691484041
| 11>  C        1.7289358308    -1.6046816354     0.7470476072
| 12>  N        2.1169864821    -0.3228126127     1.3735202255
| 13>  C        0.6921495848    -0.6459645271     1.2080416461
| 14>  H        1.1126865194     1.8559618445     0.0139281122
| 15>  H       -0.4166171251     1.9496880374    -0.8814017722
| 16>  H       -0.4360625472     1.9280167997     0.8947586158
| 17>  H       -1.8501632290     0.0237345543    -0.6006884176
| 18>  H        0.0974463391    -0.7924978171    -2.1110585844
| 19>  H        2.4115412211    -0.4744582026    -2.3461898276
| 20>  H        1.9379060251    -2.5208917950    -1.2970438995
| 21>  H        1.9308649282    -2.5347831698     1.2668306529
| 22>  H        2.3829524025    -0.4945135850     2.3405063258
| 23>  H        0.0660498639    -0.8176325239     2.0777826342
| 24> *
| 25>
| 26>                          ****END OF INPUT****

CARTESIAN COORDINATES (ANGSTROEM)
---------------------------------
  C      0.070459    1.532275    0.009068
  C      0.007782    0.008133   -0.004713
  O     -1.339519   -0.469837    0.049444
  C      0.707827   -0.626447   -1.226940
  N      2.137245   -0.309296   -1.380108
  C      1.735719   -1.595349   -0.769148
  C      1.728936   -1.604682    0.747048
  N      2.116986   -0.322813    1.373520
  C      0.692150   -0.645965    1.208042
  H      1.112687    1.855962    0.013928
  H     -0.416617    1.949688   -0.881402
  H     -0.436063    1.928017    0.894759
  H     -1.850163    0.023735   -0.600688
  H      0.097446   -0.792498   -2.111059
  H      2.411541   -0.474458   -2.346190
  H      1.937906   -2.520892   -1.297044
  H      1.930865   -2.534783    1.266831
  H      2.382952   -0.494514    2.340506
  H      0.066050   -0.817633    2.077783

 Total Charge           Charge          ....    0
 Multiplicity           Mult            ....    1
 Number of Electrons    NEL             ....   68
 Basis Dimension        Dim             ....  339

ORBITAL ENERGIES
----------------

  NO   OCC          E(Eh)            E(eV)
   0   2.0000     -20.555805      -559.3519
   1   2.0000     -15.555993      -423.3001
   2   2.0000     -15.554231      -423.2521
   3   2.0000     -11.287867      -307.1585
   4   2.0000     -11.258948      -306.3715
   5   2.0000     -11.257404      -306.3295
   6   2.0000     -11.253480      -306.2227
   7   2.0000     -11.250868      -306.1517
   8   2.0000     -11.208269      -304.9925
   9   2.0000      -1.365478       -37.1565
  10   2.0000      -1.286859       -35.0172
  11   2.0000      -1.234058       -33.5804
  12   2.0000      -1.025076       -27.8937
  13   2.0000      -0.954812       -25.9818
  14   2.0000      -0.895021       -24.3548
  15   2.0000      -0.864261       -23.5177
  16   2.0000      -0.776494       -21.1295
  17   2.0000      -0.751747       -20.4561
  18   2.0000      -0.737648       -20.0724
  19   2.0000      -0.673820       -18.3356
  20   2.0000      -0.652289       -17.7497
  21   2.0000      -0.618281       -16.8243
  22   2.0000      -0.597128       -16.2487
  23   2.0000      -0.564573       -15.3628
  24   2.0000      -0.554349       -15.0846
  25   2.0000      -0.533178       -14.5085
  26   2.0000      -0.503595       -13.7035
  27   2.0000      -0.492990       -13.4149
  28   2.0000      -0.487092       -13.2545
  29   2.0000      -0.465571       -12.6688
  30   2.0000      -0.448643       -12.2082
  31   2.0000      -0.428767       -11.6673
  32   2.0000      -0.385524       -10.4906
  33   2.0000      -0.360029        -9.7969
  34   0.0000       0.132295         3.5999
  35   0.0000       0.141067         3.8386
  36   0.0000       0.152490         4.1495
  37   0.0000       0.172528         4.6947
  38   0.0000       0.195918         5.3312

MULLIKEN ATOMIC CHARGES
-----------------------
   0 C :   -0.455782
   1 C :    0.314523
   2 O :   -0.472863
   3 C :   -0.084687
   4 N :   -0.365068
   5 C :   -0.089096
   6 C :   -0.130519
   7 N :   -0.362796
   8 C :   -0.027327
   9 H :    0.173910
  10 H :    0.114320
  11 H :    0.137171
  12 H :    0.313693
  13 H :    0.118655
  14 H :    0.215117
  15 H :    0.128983
  16 H :    0.128313
  17 H :    0.216384
  18 H :    0.127068
Sum of atomic charges:   -0.0000000

LOEWDIN ATOMIC CHARGES
----------------------
   0 C :   -0.275954
   1 C :   -0.353290
   2 O :    0.010203
   3 C :   -0.214220
   4 N :    0.019386
   5 C :   -0.226993
   6 C :   -0.226277
   7 N :    0.021909
   8 C :   -0.202824
   9 H :    0.142354
  10 H :    0.121532
  11 H :    0.127241
  12 H :    0.174149
  13 H :    0.133184
  14 H :    0.168180
  15 H :    0.136346
  16 H :    0.136500
  17 H :    0.169072
  18 H :    0.139501

  Mayer bond orders larger than 0.1
B(  0-C ,  1-C ) :   0.9072 B(  0-C ,  9-H ) :   0.9227 B(  0-C , 10-H ) :   0.9235
B(  0-C , 11-H ) :   0.9409 B(  1-C ,  2-O ) :   0.9652 B(  1-C ,  3-C ) :   0.9188
B(  1-C ,  8-C ) :   0.9012 B(  2-O , 12-H ) :   0.8422 B(  3-C ,  4-N ) :   0.9442
B(  3-C ,  5-C ) :   0.9225 B(  3-C , 13-H ) :   0.9097 B(  4-N ,  5-C ) :   0.9880
B(  4-N , 14-H ) :   0.8649 B(  5-C ,  6-C ) :   0.9429 B(  5-C , 15-H ) :   0.9195
B(  6-C ,  7-N ) :   1.0046 B(  6-C ,  8-C ) :   0.9265 B(  6-C , 16-H ) :   0.9224
B(  7-N ,  8-C ) :   0.9402 B(  7-N , 17-H ) :   0.8674 B(  8-C , 18-H ) :   0.9240

MP2 TOTAL ENERGY:     -418.457155822 Eh
FINAL SINGLE POINT ENERGY      -418.457155822156

DIPOLE MOMENT
-------------
                                X             Y             Z
Electronic contribution:      0.74472      -2.64326       0.22118
Nuclear contribution   :     -1.02361       2.21621      -0.57314
                        -----------------------------------------
Total Dipole Moment    :     -0.27890      -0.42705      -0.35197
                        -----------------------------------------
Magnitude (a.u.)       :      0.61971
Magnitude (Debye)      :      1.57517

                             ****ORCA TERMINATED NORMALLY****
TOTAL RUN TIME: 0 days 0 hours 21 minutes 0 seconds 385 msec
