                         Program Version 3.0.3 - RELEASE   -
|  1> ! RI-MP2 RIJK def2-TZVP def2-TZVP/C def2-TZVP/JK TIGHTSCF
|  2> % maxcore 2000
|  3> % mp2 density relaxed end
|  4> *xyz 0 1
|  5>  N        0.0711762115     1.4233987045    -0.1184782844
|  6>  C        0.0020839799     0.0181074585    -0.0320734926
|  7>  C       -1.0987703512    -0.8031987626     0.0243076199
|  8>  N       -0.6430016437    -2.1230185776    -0.0204282043
|  9>  C        0.7148062417    -2.1277266205    -0.0796710790
| 10>  O        1.3971265181    -3.2991085397    -0.0929635539
| 11>  C        1.1539548110    -0.8266232593    -0.1010428954
| 12>  O        2.4836032684    -0.4470703215    -0.1195900085
| 13>  H        0.8215234339     1.7847501608     0.4607723369
| 14>  H       -0.7940864692     1.8655349124     0.1662910292
| 15>  H       -2.1515431170    -0.5806405340     0.0555205990
| 16>  H       -1.2064334960    -2.9453751029     0.0955007087
| 17>  H        2.3336959835    -3.0677853411    -0.0997185898
| 18>  H        2.6540919492     0.0153834630    -0.9485752358
| 19> *
| 20>
| 21>                          ****END OF INPUT****

CARTESIAN COORDINATES (ANGSTROEM)
---------------------------------
  N      0.071176    1.423399   -0.118478
  C      0.002084    0.018107   -0.032073
  C     -1.098770   -0.803199    0.024308
  N     -0.643002   -2.123019   -0.020428
  C      0.714806   -2.127727   -0.079671
  O      1.397127   -3.299109   -0.092964
  C      1.153955   -0.826623   -0.101043
  O      2.483603   -0.447070   -0.119590
  H      0.821523    1.784750    0.460772
  H     -0.794086    1.865535    0.166291
  H     -2.151543   -0.580641    0.055521
  H     -1.206433   -2.945375    0.095501
  H      2.333696   -3.067785   -0.099719
  H      2.654092    0.015383   -0.948575

 Total Charge           Charge          ....    0
 Multiplicity           Mult            ....    1
 Number of Electrons    NEL             ....   60
 Basis Dimension        Dim             ....  284

ORBITAL ENERGIES
----------------

  NO   OCC          E(Eh)            E(eV)
   0   2.0000     -20.595660      -560.4364
   1   2.0000     -20.577263      -559.9358
   2   2.0000     -15.593132      -424.3107
   3   2.0000     -15.556239      -423.3068
   4   2.0000     -11.315141      -307.9006
   5   2.0000     -11.253204      -306.2152
   6   2.0000     -11.252162      -306.1869
   7   2.0000     -11.232967      -305.6646
   8   2.0000      -1.419554       -38.6280
   9   2.0000      -1.379254       -37.5314
  10   2.0000      -1.277095       -34.7515
  11   2.0000      -1.193518       -32.4773
  12   2.0000      -1.019504       -27.7421
  13   2.0000      -0.956431       -26.0258
  14   2.0000      -0.804715       -21.8974
  15   2.0000      -0.790647       -21.5146
  16   2.0000      -0.755534       -20.5591
  17   2.0000      -0.688772       -18.7424
  18   2.0000      -0.681041       -18.5321
  19   2.0000      -0.640846       -17.4383
  20   2.0000      -0.628894       -17.1131
  21   2.0000      -0.604864       -16.4592
  22   2.0000      -0.598038       -16.2734
  23   2.0000      -0.574830       -15.6419
  24   2.0000      -0.562940       -15.3184
  25   2.0000      -0.529103       -14.3976
  26   2.0000      -0.478029       -13.0078
  27   2.0000      -0.468682       -12.7535
  28   2.0000      -0.315412        -8.5828
  29   2.0000      -0.270580        -7.3628
  30   0.0000       0.127194         3.4611
  31   0.0000       0.146483         3.9860
  32   0.0000       0.150190         4.0869
  33   0.0000       0.178436         4.8555
  34   0.0000       0.194362         5.2889

MULLIKEN ATOMIC CHARGES
-----------------------
   0 N :   -0.542141
   1 C :    0.137796
   2 C :   -0.197748
   3 N :   -0.267878
   4 C :    0.218861
   5 O :   -0.441345
   6 C :    0.015279
   7 O :   -0.501017
   8 H :    0.253611
   9 H :    0.237278
  10 H :    0.140347
  11 H :    0.249455
  12 H :    0.349503
  13 H :    0.347998
Sum of atomic charges:   -0.0000000

LOEWDIN ATOMIC CHARGES
----------------------
   0 N :   -0.107106
   1 C :   -0.282479
   2 C :   -0.247238
   3 N :    0.181527
   4 C :   -0.363642
   5 O :    0.059337
   6 C :   -0.308985
   7 O :    0.015482
   8 H :    0.168269
   9 H :    0.165469
  10 H :    0.128931
  11 H :    0.192610
  12 H :    0.205136
  13 H :    0.192689

  Mayer bond orders larger than 0.1
B(  0-N ,  1-C ) :   0.9658 B(  0-N ,  8-H ) :   0.8735 B(  0-N ,  9-H ) :   0.8871
B(  1-C ,  2-C ) :   1.4848 B(  1-C ,  6-C ) :   1.1886 B(  2-C ,  3-N ) :   1.0605
B(  2-C , 10-H ) :   0.9126 B(  3-N ,  4-C ) :   1.1540 B(  3-N , 11-H ) :   0.8692
B(  4-C ,  5-O ) :   1.1193 B(  4-C ,  6-C ) :   1.4731 B(  5-O , 12-H ) :   0.8206
B(  6-C ,  7-O ) :   1.0571 B(  7-O , 13-H ) :   0.8293

MP2 TOTAL ENERGY:     -415.211839552 Eh
FINAL SINGLE POINT ENERGY      -415.211839551701

DIPOLE MOMENT
-------------
                                X             Y             Z
Electronic contribution:      1.37287      -2.90635      -0.10176
Nuclear contribution   :     -1.62181       3.03703       0.13426
                        -----------------------------------------
Total Dipole Moment    :     -0.24894       0.13069       0.03249
                        -----------------------------------------
Magnitude (a.u.)       :      0.28303
Magnitude (Debye)      :      0.71941

                             ****ORCA TERMINATED NORMALLY****
TOTAL RUN TIME: 0 days 0 hours 10 minutes 10 seconds 90 msec
