                         Program Version 3.0.3 - RELEASE   -
|  1> ! RI-MP2 RIJK def2-TZVP def2-TZVP/C def2-TZVP/JK TIGHTSCF
|  2> % maxcore 2000
|  3> % mp2 density relaxed end
|  4> *xyz 0 1
|  5>  C        0.0355513471    -1.1994492332    -0.0099615249
|  6>  C        0.0351933071     0.0018891891     0.0281009570
|  7>  C        0.0426271646     1.4333038874     0.0682747752
|  8>  C        0.5286872757     2.2284007486     1.2522080153
|  9>  O        1.5304433124     1.5533566430     1.9801806117
| 10>  C        2.4210514242     1.5693831580     0.8310444272
| 11>  C        1.3507388569     2.2470642909    -0.0321098461
| 12>  C        1.5618656129     3.2494512147    -1.0164288351
| 13>  N        1.7362449376     4.0650964155    -1.8194244576
| 14>  H        0.0262864551    -2.2612635101    -0.0378875800
| 15>  H       -0.7673356736     1.9287744508    -0.4620919650
| 16>  H       -0.0510002013     2.9984261549     1.7480575370
| 17>  H        3.2816049923     2.2149110239     1.0234722414
| 18>  H        2.7358988690     0.5668285866     0.5296782740
| 19> *
| 20>
| 21>                          ****END OF INPUT****

CARTESIAN COORDINATES (ANGSTROEM)
---------------------------------
  C      0.035551   -1.199449   -0.009962
  C      0.035193    0.001889    0.028101
  C      0.042627    1.433304    0.068275
  C      0.528687    2.228401    1.252208
  O      1.530443    1.553357    1.980181
  C      2.421051    1.569383    0.831044
  C      1.350739    2.247064   -0.032110
  C      1.561866    3.249451   -1.016429
  N      1.736245    4.065096   -1.819424
  H      0.026286   -2.261264   -0.037888
  H     -0.767336    1.928774   -0.462092
  H     -0.051000    2.998426    1.748058
  H      3.281605    2.214911    1.023472
  H      2.735899    0.566829    0.529678

 Total Charge           Charge          ....    0
 Multiplicity           Mult            ....    1
 Number of Electrons    NEL             ....   62
 Basis Dimension        Dim             ....  309

ORBITAL ENERGIES
----------------

  NO   OCC          E(Eh)            E(eV)
   0   2.0000     -20.593416      -560.3753
   1   2.0000     -15.584896      -424.0866
   2   2.0000     -11.343760      -308.6794
   3   2.0000     -11.323125      -308.1179
   4   2.0000     -11.310469      -307.7735
   5   2.0000     -11.304759      -307.6181
   6   2.0000     -11.289657      -307.2072
   7   2.0000     -11.255369      -306.2742
   8   2.0000     -11.245798      -306.0137
   9   2.0000      -1.438801       -39.1518
  10   2.0000      -1.233713       -33.5710
  11   2.0000      -1.176608       -32.0171
  12   2.0000      -1.052780       -28.6476
  13   2.0000      -1.000635       -27.2287
  14   2.0000      -0.909570       -24.7507
  15   2.0000      -0.861898       -23.4534
  16   2.0000      -0.774098       -21.0643
  17   2.0000      -0.752100       -20.4657
  18   2.0000      -0.701803       -19.0970
  19   2.0000      -0.690968       -18.8022
  20   2.0000      -0.613600       -16.6969
  21   2.0000      -0.605234       -16.4693
  22   2.0000      -0.594316       -16.1722
  23   2.0000      -0.568410       -15.4672
  24   2.0000      -0.546778       -14.8786
  25   2.0000      -0.523116       -14.2347
  26   2.0000      -0.477810       -13.0019
  27   2.0000      -0.463619       -12.6157
  28   2.0000      -0.430578       -11.7166
  29   2.0000      -0.400723       -10.9042
  30   2.0000      -0.386923       -10.5287
  31   0.0000       0.125307         3.4098
  32   0.0000       0.130044         3.5387
  33   0.0000       0.136805         3.7227
  34   0.0000       0.154613         4.2072
  35   0.0000       0.157352         4.2818

MULLIKEN ATOMIC CHARGES
-----------------------
   0 C :   -0.120051
   1 C :    0.025133
   2 C :   -0.315018
   3 C :    0.118078
   4 O :   -0.314270
   5 C :    0.007808
   6 C :    0.105069
   7 C :   -0.252844
   8 N :   -0.045103
   9 H :    0.198664
  10 H :    0.168098
  11 H :    0.155258
  12 H :    0.135719
  13 H :    0.133458
Sum of atomic charges:   -0.0000000

LOEWDIN ATOMIC CHARGES
----------------------
   0 C :   -0.069902
   1 C :   -0.084526
   2 C :   -0.139518
   3 C :   -0.176615
   4 O :    0.178955
   5 C :   -0.178933
   6 C :   -0.173352
   7 C :   -0.161762
   8 N :    0.077970
   9 H :    0.130597
  10 H :    0.183806
  11 H :    0.143661
  12 H :    0.136811
  13 H :    0.132808

  Mayer bond orders larger than 0.1
B(  0-C ,  1-C ) :   2.5724 B(  0-C ,  2-C ) :  -0.1235 B(  0-C ,  9-H ) :   0.8966
B(  1-C ,  2-C ) :   1.1505 B(  2-C ,  3-C ) :   0.8821 B(  2-C ,  6-C ) :   0.8081
B(  2-C , 10-H ) :   0.9177 B(  3-C ,  4-O ) :   1.0039 B(  3-C ,  6-C ) :   0.8583
B(  3-C , 11-H ) :   0.9098 B(  4-O ,  5-C ) :   0.9119 B(  5-C ,  6-C ) :   0.9668
B(  5-C , 12-H ) :   0.9094 B(  5-C , 13-H ) :   0.9061 B(  6-C ,  7-C ) :   0.8947
B(  7-C ,  8-N ) :   2.8560

MP2 TOTAL ENERGY:     -398.772393775 Eh
FINAL SINGLE POINT ENERGY      -398.772393774563

DIPOLE MOMENT
-------------
                                X             Y             Z
Electronic contribution:     -0.20839       2.07304      -1.17227
Nuclear contribution   :     -0.04250      -2.82268       1.75803
                        -----------------------------------------
Total Dipole Moment    :     -0.25089      -0.74965       0.58576
                        -----------------------------------------
Magnitude (a.u.)       :      0.98389
Magnitude (Debye)      :      2.50084

                             ****ORCA TERMINATED NORMALLY****
TOTAL RUN TIME: 0 days 0 hours 13 minutes 53 seconds 303 msec
