                         Program Version 3.0.3 - RELEASE   -
|  1> ! RI-MP2 RIJK def2-TZVP def2-TZVP/C def2-TZVP/JK TIGHTSCF
|  2> % maxcore 2000
|  3> % mp2 density relaxed end
|  4> *xyz 0 1
|  5>  C        0.0860249322     1.3650954762     0.3818793480
|  6>  C       -0.0316392040    -0.0202144497    -0.2032312805
|  7>  O        0.9176939598    -0.5660022838    -0.7506686755
|  8>  C       -1.3343752280    -0.7323371450    -0.0683918288
|  9>  C       -1.6467781119    -1.7718513357    -1.1747907143
| 10>  C       -1.1824734761    -2.3098617496     0.1154444091
| 11>  O        0.0484880181    -2.8767451384     0.2972841343
| 12>  C       -2.4339561781    -0.0893347293     0.5822409807
| 13>  C       -3.3732125707     0.4273484081     1.1305298004
| 14>  H        1.0938494661     1.7460288320     0.2162003191
| 15>  H       -0.6531730038     2.0337226684    -0.0711783029
| 16>  H       -0.1370936328     1.3400124160     1.4537729037
| 17>  H       -2.6930925051    -1.8622786844    -1.4418027843
| 18>  H       -0.9405383511    -1.7740223071    -1.9984286338
| 19>  H       -1.9168386997    -2.7236782452     0.7975561051
| 20>  H        0.6824572189    -2.3588551072    -0.2318830158
| 21>  H       -4.1977884537     0.8886184046     1.6150162354
| 22> *
| 23>
| 24>                          ****END OF INPUT****

CARTESIAN COORDINATES (ANGSTROEM)
---------------------------------
  C      0.086025    1.365095    0.381879
  C     -0.031639   -0.020214   -0.203231
  O      0.917694   -0.566002   -0.750669
  C     -1.334375   -0.732337   -0.068392
  C     -1.646778   -1.771851   -1.174791
  C     -1.182473   -2.309862    0.115444
  O      0.048488   -2.876745    0.297284
  C     -2.433956   -0.089335    0.582241
  C     -3.373213    0.427348    1.130530
  H      1.093849    1.746029    0.216200
  H     -0.653173    2.033723   -0.071178
  H     -0.137094    1.340012    1.453773
  H     -2.693093   -1.862279   -1.441803
  H     -0.940538   -1.774022   -1.998429
  H     -1.916839   -2.723678    0.797556
  H      0.682457   -2.358855   -0.231883
  H     -4.197788    0.888618    1.615016

 Total Charge           Charge          ....    0
 Multiplicity           Mult            ....    1
 Number of Electrons    NEL             ....   66
 Basis Dimension        Dim             ....  327

ORBITAL ENERGIES
----------------

  NO   OCC          E(Eh)            E(eV)
   0   2.0000     -20.566652      -559.6470
   1   2.0000     -20.555923      -559.3551
   2   2.0000     -11.353293      -308.9388
   3   2.0000     -11.321175      -308.0648
   4   2.0000     -11.277720      -306.8824
   5   2.0000     -11.258546      -306.3606
   6   2.0000     -11.250221      -306.1341
   7   2.0000     -11.240059      -305.8576
   8   2.0000     -11.236833      -305.7698
   9   2.0000      -1.409619       -38.3577
  10   2.0000      -1.381184       -37.5839
  11   2.0000      -1.167070       -31.7576
  12   2.0000      -1.044567       -28.4241
  13   2.0000      -1.020344       -27.7650
  14   2.0000      -0.912273       -24.8242
  15   2.0000      -0.851286       -23.1647
  16   2.0000      -0.794351       -21.6154
  17   2.0000      -0.742799       -20.2126
  18   2.0000      -0.706640       -19.2286
  19   2.0000      -0.691461       -18.8156
  20   2.0000      -0.641732       -17.4624
  21   2.0000      -0.632729       -17.2174
  22   2.0000      -0.615669       -16.7532
  23   2.0000      -0.591490       -16.0953
  24   2.0000      -0.579737       -15.7754
  25   2.0000      -0.571710       -15.5570
  26   2.0000      -0.553646       -15.0655
  27   2.0000      -0.515190       -14.0190
  28   2.0000      -0.478203       -13.0126
  29   2.0000      -0.449515       -12.2319
  30   2.0000      -0.444971       -12.1083
  31   2.0000      -0.390523       -10.6267
  32   2.0000      -0.358328        -9.7506
  33   0.0000       0.121742         3.3128
  34   0.0000       0.135676         3.6919
  35   0.0000       0.156463         4.2576
  36   0.0000       0.161323         4.3898
  37   0.0000       0.161894         4.4054

MULLIKEN ATOMIC CHARGES
-----------------------
   0 C :   -0.423706
   1 C :    0.287374
   2 O :   -0.383271
   3 C :   -0.260061
   4 C :   -0.233064
   5 C :    0.050601
   6 O :   -0.432621
   7 C :    0.054640
   8 C :   -0.125896
   9 H :    0.157019
  10 H :    0.157527
  11 H :    0.158912
  12 H :    0.149414
  13 H :    0.157112
  14 H :    0.143289
  15 H :    0.349052
  16 H :    0.193678
Sum of atomic charges:   -0.0000000

LOEWDIN ATOMIC CHARGES
----------------------
   0 C :   -0.260531
   1 C :   -0.300817
   2 O :    0.113503
   3 C :   -0.185025
   4 C :   -0.153742
   5 C :   -0.269966
   6 O :    0.037008
   7 C :   -0.081876
   8 C :   -0.088428
   9 H :    0.134975
  10 H :    0.144651
  11 H :    0.146181
  12 H :    0.146306
  13 H :    0.149886
  14 H :    0.152626
  15 H :    0.186798
  16 H :    0.128451

  Mayer bond orders larger than 0.1
B(  0-C ,  1-C ) :   0.9477 B(  0-C ,  9-H ) :   0.9390 B(  0-C , 10-H ) :   0.9125
B(  0-C , 11-H ) :   0.9118 B(  1-C ,  2-O ) :   1.7300 B(  1-C ,  3-C ) :   1.0094
B(  3-C ,  4-C ) :   0.7843 B(  3-C ,  5-C ) :   0.7427 B(  3-C ,  7-C ) :   1.0600
B(  3-C ,  8-C ) :  -0.1486 B(  4-C ,  5-C ) :   0.9490 B(  4-C , 12-H ) :   0.9138
B(  4-C , 13-H ) :   0.9045 B(  5-C ,  6-O ) :   1.0707 B(  5-C , 14-H ) :   0.9370
B(  6-O , 15-H ) :   0.7815 B(  7-C ,  8-C ) :   2.6022 B(  8-C , 16-H ) :   0.8844

MP2 TOTAL ENERGY:     -421.085061983 Eh
FINAL SINGLE POINT ENERGY      -421.085061983188

DIPOLE MOMENT
-------------
                                X             Y             Z
Electronic contribution:      0.57578      -2.53591      -0.18057
Nuclear contribution   :     -1.37888       3.19806       0.17435
                        -----------------------------------------
Total Dipole Moment    :     -0.80310       0.66216      -0.00623
                        -----------------------------------------
Magnitude (a.u.)       :      1.04090
Magnitude (Debye)      :      2.64575

                             ****ORCA TERMINATED NORMALLY****
TOTAL RUN TIME: 0 days 0 hours 17 minutes 53 seconds 324 msec
