                         Program Version 3.0.3 - RELEASE   -
|  1> ! RI-MP2 RIJK def2-TZVP def2-TZVP/C def2-TZVP/JK TIGHTSCF
|  2> % maxcore 2000
|  3> % mp2 density relaxed end
|  4> *xyz 0 1
|  5>  N        0.2309282190     0.8981207007     1.0717173807
|  6>  C        0.0405810957    -0.0404764674     0.2627272376
|  7>  C       -1.1813143441    -0.7086471148    -0.3307378701
|  8>  C       -0.1483841127    -1.5977237336    -1.0566963745
|  9>  C       -0.0604492942    -1.5167108972    -2.5689486297
| 10>  C        1.1868519882    -2.1762893842    -3.1176881510
| 11>  C        1.2066556570    -3.6599573667    -3.3961093621
| 12>  C        1.2275590758    -2.6735481712    -4.5386165440
| 13>  O        0.9401945399    -0.8464289982    -0.4039305703
| 14>  H        1.2284522916     1.0526703476     1.2289097823
| 15>  H       -1.8280151251    -1.2070091411     0.3928080656
| 16>  H       -1.7832993431    -0.0657616546    -0.9763627657
| 17>  H       -0.1179514921    -2.6361286869    -0.7128819681
| 18>  H       -0.9541323920    -1.9976859833    -2.9892948150
| 19>  H       -0.0971158516    -0.4608553370    -2.8680053418
| 20>  H        2.1088244809    -1.7525267063    -2.7307656504
| 21>  H        2.1112608528    -4.2158278046    -3.1766705354
| 22>  H        0.2922061224    -4.2215703733    -3.2315142772
| 23>  H        0.3274474364    -2.5734994216    -5.1368107044
| 24>  H        2.1471056151    -2.5545784364    -5.1006466866
| 25> *
| 26>
| 27>                          ****END OF INPUT****

CARTESIAN COORDINATES (ANGSTROEM)
---------------------------------
  N      0.230928    0.898121    1.071717
  C      0.040581   -0.040476    0.262727
  C     -1.181314   -0.708647   -0.330738
  C     -0.148384   -1.597724   -1.056696
  C     -0.060449   -1.516711   -2.568949
  C      1.186852   -2.176289   -3.117688
  C      1.206656   -3.659957   -3.396109
  C      1.227559   -2.673548   -4.538617
  O      0.940195   -0.846429   -0.403931
  H      1.228452    1.052670    1.228910
  H     -1.828015   -1.207009    0.392808
  H     -1.783299   -0.065762   -0.976363
  H     -0.117951   -2.636129   -0.712882
  H     -0.954132   -1.997686   -2.989295
  H     -0.097116   -0.460855   -2.868005
  H      2.108824   -1.752527   -2.730766
  H      2.111261   -4.215828   -3.176671
  H      0.292206   -4.221570   -3.231514
  H      0.327447   -2.573499   -5.136811
  H      2.147106   -2.554578   -5.100647

 Total Charge           Charge          ....    0
 Multiplicity           Mult            ....    1
 Number of Electrons    NEL             ....   68
 Basis Dimension        Dim             ....  345

ORBITAL ENERGIES
----------------

  NO   OCC          E(Eh)            E(eV)
   0   2.0000     -20.586481      -560.1866
   1   2.0000     -15.533014      -422.6748
   2   2.0000     -11.337611      -308.5121
   3   2.0000     -11.304226      -307.6036
   4   2.0000     -11.249906      -306.1255
   5   2.0000     -11.240057      -305.8575
   6   2.0000     -11.237251      -305.7811
   7   2.0000     -11.230375      -305.5940
   8   2.0000     -11.229704      -305.5758
   9   2.0000      -1.429210       -38.8908
  10   2.0000      -1.193594       -32.4793
  11   2.0000      -1.152160       -31.3519
  12   2.0000      -1.057509       -28.7763
  13   2.0000      -0.993717       -27.0404
  14   2.0000      -0.855533       -23.2802
  15   2.0000      -0.826617       -22.4934
  16   2.0000      -0.787123       -21.4187
  17   2.0000      -0.743987       -20.2449
  18   2.0000      -0.702763       -19.1232
  19   2.0000      -0.698072       -18.9955
  20   2.0000      -0.664587       -18.0843
  21   2.0000      -0.645881       -17.5753
  22   2.0000      -0.621438       -16.9102
  23   2.0000      -0.569941       -15.5089
  24   2.0000      -0.557650       -15.1744
  25   2.0000      -0.529564       -14.4102
  26   2.0000      -0.522182       -14.2093
  27   2.0000      -0.516907       -14.0658
  28   2.0000      -0.506368       -13.7790
  29   2.0000      -0.479959       -13.0604
  30   2.0000      -0.434884       -11.8338
  31   2.0000      -0.422325       -11.4920
  32   2.0000      -0.416217       -11.3258
  33   2.0000      -0.395975       -10.7750
  34   0.0000       0.133887         3.6433
  35   0.0000       0.150877         4.1056
  36   0.0000       0.156313         4.2535
  37   0.0000       0.161564         4.3964
  38   0.0000       0.173332         4.7166

MULLIKEN ATOMIC CHARGES
-----------------------
   0 N :   -0.368244
   1 C :    0.118154
   2 C :   -0.200921
   3 C :    0.094385
   4 C :   -0.258656
   5 C :   -0.087682
   6 C :   -0.282559
   7 C :   -0.254540
   8 O :   -0.280029
   9 H :    0.227363
  10 H :    0.141096
  11 H :    0.136957
  12 H :    0.110700
  13 H :    0.122410
  14 H :    0.129757
  15 H :    0.133737
  16 H :    0.133499
  17 H :    0.124700
  18 H :    0.126733
  19 H :    0.133139
Sum of atomic charges:    0.0000000

LOEWDIN ATOMIC CHARGES
----------------------
   0 N :   -0.061092
   1 C :   -0.404515
   2 C :   -0.182429
   3 C :   -0.237077
   4 C :   -0.235615
   5 C :   -0.229182
   6 C :   -0.231473
   7 C :   -0.228950
   8 O :    0.223868
   9 H :    0.172479
  10 H :    0.145416
  11 H :    0.147354
  12 H :    0.141454
  13 H :    0.151560
  14 H :    0.149276
  15 H :    0.152704
  16 H :    0.131463
  17 H :    0.131006
  18 H :    0.132030
  19 H :    0.131722

  Mayer bond orders larger than 0.1
B(  0-N ,  1-C ) :   2.0768 B(  0-N ,  9-H ) :   0.8462 B(  1-C ,  2-C ) :   0.9377
B(  1-C ,  8-O ) :   1.0666 B(  2-C ,  3-C ) :   0.9146 B(  2-C , 10-H ) :   0.9139
B(  2-C , 11-H ) :   0.9093 B(  3-C ,  4-C ) :   0.9396 B(  3-C ,  8-O ) :   0.8654
B(  3-C , 12-H ) :   0.9251 B(  4-C ,  5-C ) :   0.9142 B(  4-C , 13-H ) :   0.9202
B(  4-C , 14-H ) :   0.9161 B(  5-C ,  6-C ) :   0.8894 B(  5-C ,  7-C ) :   0.8760
B(  5-C , 15-H ) :   0.9298 B(  6-C ,  7-C ) :   0.9033 B(  6-C , 16-H ) :   0.9298
B(  6-C , 17-H ) :   0.9279 B(  7-C , 18-H ) :   0.9288 B(  7-C , 19-H ) :   0.9331

MP2 TOTAL ENERGY:     -402.440504937 Eh
FINAL SINGLE POINT ENERGY      -402.440504937352

DIPOLE MOMENT
-------------
                                X             Y             Z
Electronic contribution:      0.57043       4.49850       6.92302
Nuclear contribution   :     -0.81205      -5.29016      -7.70522
                        -----------------------------------------
Total Dipole Moment    :     -0.24162      -0.79166      -0.78220
                        -----------------------------------------
Magnitude (a.u.)       :      1.13884
Magnitude (Debye)      :      2.89469

                             ****ORCA TERMINATED NORMALLY****
TOTAL RUN TIME: 0 days 0 hours 16 minutes 32 seconds 555 msec
