                         Program Version 3.0.3 - RELEASE   -
|  1> ! RI-MP2 RIJK def2-TZVP def2-TZVP/C def2-TZVP/JK TIGHTSCF
|  2> % maxcore 2000
|  3> % mp2 density relaxed end
|  4> *xyz 0 1
|  5>  O       -0.9575012385     1.1113313342    -0.2168266882
|  6>  C        0.0877928076     0.9234540248     0.3565862747
|  7>  C        1.2983385434     1.8154764801     0.2655584249
|  8>  C        1.3503992321     3.0933455275    -0.6237753370
|  9>  C        0.3588671245     3.8023294005     0.3330110012
| 10>  C        1.4385428887     3.0750275608     1.1969751741
| 11>  N        2.4614209842     3.6742839634     0.2500273955
| 12>  C        1.5822947173     3.0873446820     2.6828940079
| 13>  O        1.2817870889     2.1521243688     3.3814661905
| 14>  H        0.2275691202     0.0410926560     1.0183780895
| 15>  H        2.2102247274     1.2060744369     0.2617304590
| 16>  H        1.3931894970     3.1458274846    -1.7108489729
| 17>  H        0.4332127547     4.8889173374     0.3477030457
| 18>  H       -0.6577001116     3.4217292741     0.3734943648
| 19>  H        3.2801593738     3.0569439887     0.2112472710
| 20>  H        1.9782916104     4.0377728102     3.1024288295
| 21> *
| 22>
| 23>                          ****END OF INPUT****

CARTESIAN COORDINATES (ANGSTROEM)
---------------------------------
  O     -0.957501    1.111331   -0.216827
  C      0.087793    0.923454    0.356586
  C      1.298339    1.815476    0.265558
  C      1.350399    3.093346   -0.623775
  C      0.358867    3.802329    0.333011
  C      1.438543    3.075028    1.196975
  N      2.461421    3.674284    0.250027
  C      1.582295    3.087345    2.682894
  O      1.281787    2.152124    3.381466
  H      0.227569    0.041093    1.018378
  H      2.210225    1.206074    0.261730
  H      1.393189    3.145827   -1.710849
  H      0.433213    4.888917    0.347703
  H     -0.657700    3.421729    0.373494
  H      3.280159    3.056944    0.211247
  H      1.978292    4.037773    3.102429

 Total Charge           Charge          ....    0
 Multiplicity           Mult            ....    1
 Number of Electrons    NEL             ....   66
 Basis Dimension        Dim             ....  321

ORBITAL ENERGIES
----------------

  NO   OCC          E(Eh)            E(eV)
   0   2.0000     -20.579767      -560.0039
   1   2.0000     -20.567288      -559.6644
   2   2.0000     -15.583423      -424.0465
   3   2.0000     -11.350673      -308.8675
   4   2.0000     -11.342611      -308.6481
   5   2.0000     -11.314373      -307.8797
   6   2.0000     -11.303557      -307.5854
   7   2.0000     -11.271285      -306.7072
   8   2.0000     -11.255910      -306.2889
   9   2.0000      -1.417047       -38.5598
  10   2.0000      -1.405756       -38.2526
  11   2.0000      -1.312795       -35.7230
  12   2.0000      -1.048896       -28.5419
  13   2.0000      -0.981185       -26.6994
  14   2.0000      -0.965241       -26.2655
  15   2.0000      -0.844121       -22.9697
  16   2.0000      -0.816880       -22.2284
  17   2.0000      -0.754917       -20.5423
  18   2.0000      -0.723208       -19.6795
  19   2.0000      -0.690728       -18.7957
  20   2.0000      -0.676288       -18.4027
  21   2.0000      -0.659406       -17.9434
  22   2.0000      -0.637913       -17.3585
  23   2.0000      -0.572575       -15.5805
  24   2.0000      -0.552767       -15.0416
  25   2.0000      -0.534274       -14.5383
  26   2.0000      -0.530465       -14.4347
  27   2.0000      -0.508811       -13.8455
  28   2.0000      -0.502072       -13.6621
  29   2.0000      -0.480893       -13.0858
  30   2.0000      -0.456168       -12.4130
  31   2.0000      -0.426336       -11.6012
  32   2.0000      -0.404175       -10.9982
  33   0.0000       0.096396         2.6231
  34   0.0000       0.113615         3.0916
  35   0.0000       0.139590         3.7984
  36   0.0000       0.162136         4.4120
  37   0.0000       0.168372         4.5816

MULLIKEN ATOMIC CHARGES
-----------------------
   0 O :   -0.274139
   1 C :    0.086049
   2 C :   -0.029495
   3 C :   -0.091506
   4 C :   -0.158830
   5 C :    0.003760
   6 N :   -0.295933
   7 C :    0.052059
   8 O :   -0.255323
   9 H :    0.097593
  10 H :    0.118983
  11 H :    0.154786
  12 H :    0.128154
  13 H :    0.156438
  14 H :    0.201978
  15 H :    0.105426
Sum of atomic charges:    0.0000000

LOEWDIN ATOMIC CHARGES
----------------------
   0 O :    0.136263
   1 C :   -0.274336
   2 C :   -0.173632
   3 C :   -0.181519
   4 C :   -0.152112
   5 C :   -0.245720
   6 N :    0.033550
   7 C :   -0.256125
   8 O :    0.150967
   9 H :    0.118664
  10 H :    0.154642
  11 H :    0.129178
  12 H :    0.137999
  13 H :    0.139790
  14 H :    0.159283
  15 H :    0.123109

  Mayer bond orders larger than 0.1
B(  0-O ,  1-C ) :   1.9620 B(  1-C ,  2-C ) :   0.8913 B(  1-C ,  9-H ) :   0.9347
B(  2-C ,  3-C ) :   0.9288 B(  2-C ,  5-C ) :   0.8564 B(  2-C , 10-H ) :   0.8921
B(  3-C ,  4-C ) :   0.9044 B(  3-C ,  6-N ) :   0.9354 B(  3-C , 11-H ) :   0.8872
B(  4-C ,  5-C ) :   0.8684 B(  4-C , 12-H ) :   0.9131 B(  4-C , 13-H ) :   0.9036
B(  5-C ,  6-N ) :   0.9267 B(  5-C ,  7-C ) :   0.7731 B(  6-N , 14-H ) :   0.8807
B(  7-C ,  8-O ) :   2.0061 B(  7-C , 15-H ) :   0.9659

MP2 TOTAL ENERGY:     -437.097051431 Eh
FINAL SINGLE POINT ENERGY      -437.097051431225

DIPOLE MOMENT
-------------
                                X             Y             Z
Electronic contribution:     -1.08265      -1.95604       1.95345
Nuclear contribution   :      1.89457       2.10779      -2.28746
                        -----------------------------------------
Total Dipole Moment    :      0.81192       0.15175      -0.33401
                        -----------------------------------------
Magnitude (a.u.)       :      0.89096
Magnitude (Debye)      :      2.26463

                             ****ORCA TERMINATED NORMALLY****
TOTAL RUN TIME: 0 days 0 hours 17 minutes 1 seconds 962 msec
