                         Program Version 3.0.3 - RELEASE   -
|  1> ! RI-MP2 RIJK def2-TZVP def2-TZVP/C def2-TZVP/JK TIGHTSCF
|  2> % maxcore 2000
|  3> % mp2 density relaxed end
|  4> *xyz 0 1
|  5>  C        0.2780793069     1.5119584053    -0.0833844178
|  6>  C       -0.0526719622     0.0201822866     0.0415045536
|  7>  O       -1.4570509169    -0.1698470912     0.1536586907
|  8>  C        0.4414623439    -0.8274456489    -1.1580820812
|  9>  C        1.7386517878    -1.5346356326    -0.6991904663
| 10>  C        1.6687771193    -1.4577507686     0.8013355359
| 11>  C        0.7085079191    -0.6223192435     1.2111077634
| 12>  C        0.3770171170    -0.2914926206     2.5513461914
| 13>  N        0.0489902486     0.0256336436     3.6169525389
| 14>  H        1.3462099375     1.6682419171    -0.2638961807
| 15>  H       -0.2868411121     1.9452894183    -0.9138754166
| 16>  H        0.0142898911     2.0492463134     0.8347792645
| 17>  H       -1.7864971710     0.4003666802     0.8581579069
| 18>  H       -0.3360439818    -1.5659294143    -1.3672137391
| 19>  H        0.5800318403    -0.2227815849    -2.0569079557
| 20>  H        1.8118186689    -2.5667334748    -1.0585604096
| 21>  H        2.6407910303    -1.0229517252    -1.0619329901
| 22>  H        2.3383894832    -2.0004354601     1.4587775619
| 23> *
| 24>
| 25>                          ****END OF INPUT****

CARTESIAN COORDINATES (ANGSTROEM)
---------------------------------
  C      0.278079    1.511958   -0.083384
  C     -0.052672    0.020182    0.041505
  O     -1.457051   -0.169847    0.153659
  C      0.441462   -0.827446   -1.158082
  C      1.738652   -1.534636   -0.699190
  C      1.668777   -1.457751    0.801336
  C      0.708508   -0.622319    1.211108
  C      0.377017   -0.291493    2.551346
  N      0.048990    0.025634    3.616953
  H      1.346210    1.668242   -0.263896
  H     -0.286841    1.945289   -0.913875
  H      0.014290    2.049246    0.834779
  H     -1.786497    0.400367    0.858158
  H     -0.336044   -1.565929   -1.367214
  H      0.580032   -0.222782   -2.056908
  H      1.811819   -2.566733   -1.058560
  H      2.640791   -1.022952   -1.061933
  H      2.338389   -2.000435    1.458778

 Total Charge           Charge          ....    0
 Multiplicity           Mult            ....    1
 Number of Electrons    NEL             ....   66
 Basis Dimension        Dim             ....  333

ORBITAL ENERGIES
----------------

  NO   OCC          E(Eh)            E(eV)
   0   2.0000     -20.567615      -559.6732
   1   2.0000     -15.575673      -423.8356
   2   2.0000     -11.314221      -307.8756
   3   2.0000     -11.278796      -306.9116
   4   2.0000     -11.275952      -306.8343
   5   2.0000     -11.272725      -306.7464
   6   2.0000     -11.253255      -306.2166
   7   2.0000     -11.239150      -305.8328
   8   2.0000     -11.232880      -305.6622
   9   2.0000      -1.379192       -37.5297
  10   2.0000      -1.223471       -33.2923
  11   2.0000      -1.162399       -31.6305
  12   2.0000      -1.024656       -27.8823
  13   2.0000      -1.018155       -27.7054
  14   2.0000      -0.924886       -25.1674
  15   2.0000      -0.830094       -22.5880
  16   2.0000      -0.800389       -21.7797
  17   2.0000      -0.737737       -20.0749
  18   2.0000      -0.676523       -18.4091
  19   2.0000      -0.649579       -17.6759
  20   2.0000      -0.620148       -16.8751
  21   2.0000      -0.600096       -16.3294
  22   2.0000      -0.584116       -15.8946
  23   2.0000      -0.568549       -15.4710
  24   2.0000      -0.557191       -15.1619
  25   2.0000      -0.531214       -14.4551
  26   2.0000      -0.523729       -14.2514
  27   2.0000      -0.520117       -14.1531
  28   2.0000      -0.504365       -13.7245
  29   2.0000      -0.485629       -13.2146
  30   2.0000      -0.473546       -12.8859
  31   2.0000      -0.444222       -12.0879
  32   2.0000      -0.373774       -10.1709
  33   0.0000       0.092585         2.5194
  34   0.0000       0.120523         3.2796
  35   0.0000       0.144597         3.9347
  36   0.0000       0.159560         4.3418
  37   0.0000       0.172654         4.6982

MULLIKEN ATOMIC CHARGES
-----------------------
   0 C :   -0.459050
   1 C :    0.304880
   2 O :   -0.461192
   3 C :   -0.269419
   4 C :   -0.188840
   5 C :   -0.189281
   6 C :    0.118366
   7 C :   -0.270718
   8 N :   -0.039672
   9 H :    0.136343
  10 H :    0.151935
  11 H :    0.143785
  12 H :    0.325896
  13 H :    0.138965
  14 H :    0.134796
  15 H :    0.137197
  16 H :    0.129854
  17 H :    0.156155
Sum of atomic charges:    0.0000000

LOEWDIN ATOMIC CHARGES
----------------------
   0 C :   -0.267963
   1 C :   -0.345912
   2 O :    0.019722
   3 C :   -0.185518
   4 C :   -0.231558
   5 C :   -0.072427
   6 C :   -0.135468
   7 C :   -0.159531
   8 N :    0.073951
   9 H :    0.132778
  10 H :    0.131447
  11 H :    0.130276
  12 H :    0.180834
  13 H :    0.151658
  14 H :    0.139789
  15 H :    0.143634
  16 H :    0.146727
  17 H :    0.147562

  Mayer bond orders larger than 0.1
B(  0-C ,  1-C ) :   0.9306 B(  0-C ,  9-H ) :   0.9278 B(  0-C , 10-H ) :   0.9358
B(  0-C , 11-H ) :   0.9197 B(  1-C ,  2-O ) :   0.9776 B(  1-C ,  3-C ) :   0.8590
B(  1-C ,  6-C ) :   0.8513 B(  2-O , 12-H ) :   0.8346 B(  3-C ,  4-C ) :   0.9619
B(  3-C , 13-H ) :   0.9288 B(  3-C , 14-H ) :   0.9356 B(  4-C ,  5-C ) :   0.9514
B(  4-C , 15-H ) :   0.9282 B(  4-C , 16-H ) :   0.9044 B(  5-C ,  6-C ) :   1.6625
B(  5-C , 17-H ) :   0.9164 B(  6-C ,  7-C ) :   0.9194 B(  7-C ,  8-N ) :   2.8476

MP2 TOTAL ENERGY:     -401.294232706 Eh
FINAL SINGLE POINT ENERGY      -401.294232706213

DIPOLE MOMENT
-------------
                                X             Y             Z
Electronic contribution:     -1.97421      -1.68787       7.63519
Nuclear contribution   :      2.76773       1.65922      -8.93069
                        -----------------------------------------
Total Dipole Moment    :      0.79352      -0.02864      -1.29551
                        -----------------------------------------
Magnitude (a.u.)       :      1.51949
Magnitude (Debye)      :      3.86223

                             ****ORCA TERMINATED NORMALLY****
TOTAL RUN TIME: 0 days 0 hours 20 minutes 2 seconds 85 msec
