                         Program Version 3.0.3 - RELEASE   -
|  1> ! RI-MP2 RIJK def2-TZVP def2-TZVP/C def2-TZVP/JK TIGHTSCF
|  2> % maxcore 2000
|  3> % mp2 density relaxed end
|  4> *xyz 0 1
|  5>  C        0.0467231510     1.5275370548     0.0020314693
|  6>  C       -0.0084357117     0.0290112740     0.0967998730
|  7>  C        1.1600318310    -0.8682033403    -0.2169612297
|  8>  C        0.5226419451    -0.9602675145     1.1516233391
|  9>  C        1.2988186149    -0.7307167129     2.4134526736
| 10>  O        2.0106907024    -1.8869722284     2.8401579411
| 11>  C       -0.7515338611    -1.8078948761     1.0273761171
| 12>  C       -1.3025529581    -0.8034660929    -0.0369349105
| 13>  O       -2.4920504073    -0.1365274499     0.3218391991
| 14>  H        0.9862263716     1.9201854144     0.4035230359
| 15>  H       -0.0314920527     1.8558473156    -1.0412044828
| 16>  H       -0.7786007042     1.9925525455     0.5506060926
| 17>  H        1.0589751281    -1.6865884771    -0.9280789340
| 18>  H        2.1229201203    -0.3648389928    -0.2569973067
| 19>  H        1.9761078662     0.1294547594     2.2808369052
| 20>  H        0.6254395487    -0.4868896063     3.2435861483
| 21>  H        2.5486228864    -2.1785399809     2.0961982611
| 22>  H       -0.6220498977    -2.8517355975     0.7238855198
| 23>  H       -1.3732750814    -1.7855516410     1.9282914263
| 24>  H       -1.4919628333    -1.2096254699    -1.0361536695
| 25>  H       -2.4026802782     0.1694312669     1.2313349316
| 26> *
| 27>
| 28>                          ****END OF INPUT****

CARTESIAN COORDINATES (ANGSTROEM)
---------------------------------
  C      0.046723    1.527537    0.002031
  C     -0.008436    0.029011    0.096800
  C      1.160032   -0.868203   -0.216961
  C      0.522642   -0.960268    1.151623
  C      1.298819   -0.730717    2.413453
  O      2.010691   -1.886972    2.840158
  C     -0.751534   -1.807895    1.027376
  C     -1.302553   -0.803466   -0.036935
  O     -2.492050   -0.136527    0.321839
  H      0.986226    1.920185    0.403523
  H     -0.031492    1.855847   -1.041204
  H     -0.778601    1.992553    0.550606
  H      1.058975   -1.686588   -0.928079
  H      2.122920   -0.364839   -0.256997
  H      1.976108    0.129455    2.280837
  H      0.625440   -0.486890    3.243586
  H      2.548623   -2.178540    2.096198
  H     -0.622050   -2.851736    0.723886
  H     -1.373275   -1.785552    1.928291
  H     -1.491963   -1.209625   -1.036154
  H     -2.402680    0.169431    1.231335

 Total Charge           Charge          ....    0
 Multiplicity           Mult            ....    1
 Number of Electrons    NEL             ....   70
 Basis Dimension        Dim             ....  351

ORBITAL ENERGIES
----------------

  NO   OCC          E(Eh)            E(eV)
   0   2.0000     -20.559911      -559.4636
   1   2.0000     -20.556023      -559.3578
   2   2.0000     -11.284953      -307.0792
   3   2.0000     -11.281105      -306.9745
   4   2.0000     -11.244574      -305.9804
   5   2.0000     -11.242563      -305.9257
   6   2.0000     -11.235108      -305.7228
   7   2.0000     -11.228272      -305.5368
   8   2.0000     -11.225628      -305.4649
   9   2.0000      -1.368496       -37.2387
  10   2.0000      -1.359564       -36.9956
  11   2.0000      -1.196787       -32.5662
  12   2.0000      -1.000128       -27.2149
  13   2.0000      -0.977832       -26.6082
  14   2.0000      -0.943828       -25.6829
  15   2.0000      -0.860604       -23.4182
  16   2.0000      -0.800193       -21.7744
  17   2.0000      -0.739683       -20.1278
  18   2.0000      -0.681281       -18.5386
  19   2.0000      -0.666855       -18.1461
  20   2.0000      -0.650523       -17.7016
  21   2.0000      -0.637537       -17.3483
  22   2.0000      -0.608882       -16.5685
  23   2.0000      -0.604126       -16.4391
  24   2.0000      -0.574438       -15.6313
  25   2.0000      -0.557914       -15.1816
  26   2.0000      -0.548318       -14.9205
  27   2.0000      -0.541609       -14.7379
  28   2.0000      -0.526346       -14.3226
  29   2.0000      -0.519566       -14.1381
  30   2.0000      -0.484102       -13.1731
  31   2.0000      -0.436193       -11.8694
  32   2.0000      -0.428474       -11.6594
  33   2.0000      -0.405896       -11.0450
  34   2.0000      -0.374403       -10.1880
  35   0.0000       0.125386         3.4119
  36   0.0000       0.138330         3.7642
  37   0.0000       0.157637         4.2895
  38   0.0000       0.166881         4.5411
  39   0.0000       0.179006         4.8710

MULLIKEN ATOMIC CHARGES
-----------------------
   0 C :   -0.380594
   1 C :    0.006944
   2 C :   -0.298265
   3 C :   -0.091324
   4 C :    0.014422
   5 O :   -0.465079
   6 C :   -0.202551
   7 C :    0.045845
   8 O :   -0.449186
   9 H :    0.131707
  10 H :    0.139689
  11 H :    0.119497
  12 H :    0.133283
  13 H :    0.132542
  14 H :    0.098169
  15 H :    0.102417
  16 H :    0.314592
  17 H :    0.116369
  18 H :    0.113949
  19 H :    0.106778
  20 H :    0.310796
Sum of atomic charges:    0.0000000

LOEWDIN ATOMIC CHARGES
----------------------
   0 C :   -0.273000
   1 C :   -0.199383
   2 C :   -0.170833
   3 C :   -0.209997
   4 C :   -0.312240
   5 O :   -0.048204
   6 C :   -0.177610
   7 C :   -0.275708
   8 O :   -0.007312
   9 H :    0.128811
  10 H :    0.132567
  11 H :    0.126272
  12 H :    0.134700
  13 H :    0.142377
  14 H :    0.122905
  15 H :    0.132654
  16 H :    0.174075
  17 H :    0.130263
  18 H :    0.138605
  19 H :    0.136168
  20 H :    0.174891

  Mayer bond orders larger than 0.1
B(  0-C ,  1-C ) :   0.9192 B(  0-C ,  9-H ) :   0.9383 B(  0-C , 10-H ) :   0.9360
B(  0-C , 11-H ) :   0.9272 B(  1-C ,  2-C ) :   0.8589 B(  1-C ,  3-C ) :   0.7536
B(  1-C ,  7-C ) :   0.9204 B(  2-C ,  3-C ) :   0.8629 B(  2-C , 12-H ) :   0.9090
B(  2-C , 13-H ) :   0.9293 B(  3-C ,  4-C ) :   0.9569 B(  3-C ,  6-C ) :   0.8829
B(  4-C ,  5-O ) :   0.9057 B(  4-C , 14-H ) :   0.9262 B(  4-C , 15-H ) :   0.9211
B(  5-O , 16-H ) :   0.8446 B(  6-C ,  7-C ) :   0.9694 B(  6-C , 17-H ) :   0.9053
B(  6-C , 18-H ) :   0.9192 B(  7-C ,  8-O ) :   0.9638 B(  7-C , 19-H ) :   0.9283
B(  8-O , 20-H ) :   0.8394

MP2 TOTAL ENERGY:     -423.496137716 Eh
FINAL SINGLE POINT ENERGY      -423.496137715982

DIPOLE MOMENT
-------------
                                X             Y             Z
Electronic contribution:     -1.39385      -2.51200       1.04180
Nuclear contribution   :      1.87356       2.82480      -1.29126
                        -----------------------------------------
Total Dipole Moment    :      0.47971       0.31280      -0.24946
                        -----------------------------------------
Magnitude (a.u.)       :      0.62466
Magnitude (Debye)      :      1.58775

                             ****ORCA TERMINATED NORMALLY****
TOTAL RUN TIME: 0 days 0 hours 17 minutes 58 seconds 677 msec
