                         Program Version 3.0.3 - RELEASE   -
|  1> ! RI-MP2 RIJK def2-TZVP def2-TZVP/C def2-TZVP/JK TIGHTSCF
|  2> % maxcore 2000
|  3> % mp2 density relaxed end
|  4> *xyz 0 1
|  5>  C       -0.3170108126     1.4524078328    -0.0012291000
|  6>  C        0.2001344434     0.0085213938    -0.0645924508
|  7>  C        0.8678192688    -0.4508048285     1.2017240519
|  8>  C        0.1086852256    -0.9496595441     2.4231147725
|  9>  C        1.0321950145    -1.9026281244     1.7319893767
| 10>  O        0.5463956635    -3.0772296544     1.1958545331
| 11>  C        2.4702574834    -1.6132192295     2.0704431573
| 12>  N        3.1347071174    -1.1834932200     0.8045218180
| 13>  C        2.3131416960    -0.2141964705     1.5790937371
| 14>  H        0.4984651765     2.1572310555     0.1940955813
| 15>  H       -0.7896235433     1.7442256867    -0.9445012597
| 16>  H       -1.0560491196     1.5713647002     0.7980112739
| 17>  H       -0.6321846833    -0.6703007359    -0.2903182536
| 18>  H        0.9144629392    -0.0937410715    -0.8908275626
| 19>  H        0.3261455821    -0.5755788686     3.4204533980
| 20>  H       -0.9430659208    -1.1521997343     2.2425694910
| 21>  H        1.1062744404    -3.2934128520     0.4399296195
| 22>  H        3.0552639348    -1.9783616346     2.9071456522
| 23>  H        4.1136518560    -0.9982394371     1.0315181806
| 24>  H        2.7627223779     0.6775401065     2.0012816537
| 25> *
| 26>
| 27>                          ****END OF INPUT****

CARTESIAN COORDINATES (ANGSTROEM)
---------------------------------
  C     -0.317011    1.452408   -0.001229
  C      0.200134    0.008521   -0.064592
  C      0.867819   -0.450805    1.201724
  C      0.108685   -0.949660    2.423115
  C      1.032195   -1.902628    1.731989
  O      0.546396   -3.077230    1.195855
  C      2.470257   -1.613219    2.070443
  N      3.134707   -1.183493    0.804522
  C      2.313142   -0.214196    1.579094
  H      0.498465    2.157231    0.194096
  H     -0.789624    1.744226   -0.944501
  H     -1.056049    1.571365    0.798011
  H     -0.632185   -0.670301   -0.290318
  H      0.914463   -0.093741   -0.890828
  H      0.326146   -0.575579    3.420453
  H     -0.943066   -1.152200    2.242569
  H      1.106274   -3.293413    0.439930
  H      3.055264   -1.978362    2.907146
  H      4.113652   -0.998239    1.031518
  H      2.762722    0.677540    2.001282

 Total Charge           Charge          ....    0
 Multiplicity           Mult            ....    1
 Number of Electrons    NEL             ....   68
 Basis Dimension        Dim             ....  345

ORBITAL ENERGIES
----------------

  NO   OCC          E(Eh)            E(eV)
   0   2.0000     -20.565707      -559.6213
   1   2.0000     -15.566931      -423.5977
   2   2.0000     -11.288909      -307.1868
   3   2.0000     -11.266394      -306.5742
   4   2.0000     -11.263996      -306.5089
   5   2.0000     -11.235709      -305.7392
   6   2.0000     -11.229906      -305.5813
   7   2.0000     -11.220917      -305.3367
   8   2.0000     -11.211983      -305.0936
   9   2.0000      -1.380142       -37.5556
  10   2.0000      -1.285102       -34.9694
  11   2.0000      -1.136657       -30.9300
  12   2.0000      -1.026833       -27.9416
  13   2.0000      -0.912826       -24.8393
  14   2.0000      -0.892486       -24.2858
  15   2.0000      -0.843918       -22.9642
  16   2.0000      -0.785373       -21.3711
  17   2.0000      -0.749947       -20.4071
  18   2.0000      -0.695194       -18.9172
  19   2.0000      -0.660009       -17.9598
  20   2.0000      -0.650244       -17.6940
  21   2.0000      -0.620661       -16.8890
  22   2.0000      -0.595892       -16.2151
  23   2.0000      -0.557675       -15.1751
  24   2.0000      -0.548385       -14.9223
  25   2.0000      -0.528880       -14.3916
  26   2.0000      -0.513458       -13.9719
  27   2.0000      -0.503307       -13.6957
  28   2.0000      -0.502156       -13.6644
  29   2.0000      -0.482618       -13.1327
  30   2.0000      -0.471719       -12.8361
  31   2.0000      -0.410757       -11.1773
  32   2.0000      -0.375649       -10.2219
  33   2.0000      -0.354038        -9.6339
  34   0.0000       0.135524         3.6878
  35   0.0000       0.149378         4.0648
  36   0.0000       0.155401         4.2287
  37   0.0000       0.169597         4.6150
  38   0.0000       0.190115         5.1733

MULLIKEN ATOMIC CHARGES
-----------------------
   0 C :   -0.398382
   1 C :   -0.263373
   2 C :    0.149349
   3 C :   -0.275216
   4 C :    0.159349
   5 O :   -0.460539
   6 C :   -0.119741
   7 N :   -0.380395
   8 C :   -0.128704
   9 H :    0.123801
  10 H :    0.133687
  11 H :    0.126161
  12 H :    0.122072
  13 H :    0.128336
  14 H :    0.138069
  15 H :    0.127921
  16 H :    0.335622
  17 H :    0.132642
  18 H :    0.210719
  19 H :    0.138623
Sum of atomic charges:    0.0000000

LOEWDIN ATOMIC CHARGES
----------------------
   0 C :   -0.312071
   1 C :   -0.253658
   2 C :   -0.174759
   3 C :   -0.152389
   4 C :   -0.307499
   5 O :    0.038364
   6 C :   -0.202819
   7 N :   -0.000932
   8 C :   -0.193953
   9 H :    0.120169
  10 H :    0.119925
  11 H :    0.120960
  12 H :    0.145154
  13 H :    0.146373
  14 H :    0.132848
  15 H :    0.148045
  16 H :    0.193431
  17 H :    0.131924
  18 H :    0.168104
  19 H :    0.132783

  Mayer bond orders larger than 0.1
B(  0-C ,  1-C ) :   0.9161 B(  0-C ,  9-H ) :   0.9393 B(  0-C , 10-H ) :   0.9432
B(  0-C , 11-H ) :   0.9394 B(  1-C ,  2-C ) :   0.8817 B(  1-C , 12-H ) :   0.9318
B(  1-C , 13-H ) :   0.9393 B(  2-C ,  3-C ) :   0.8789 B(  2-C ,  4-C ) :   0.7739
B(  2-C ,  8-C ) :   0.8961 B(  3-C ,  4-C ) :   0.9180 B(  3-C , 14-H ) :   0.9106
B(  3-C , 15-H ) :   0.9202 B(  4-C ,  5-O ) :   1.0896 B(  4-C ,  6-C ) :   0.9584
B(  5-O , 16-H ) :   0.8308 B(  6-C ,  7-N ) :   0.9223 B(  6-C ,  8-C ) :   0.8969
B(  6-C , 17-H ) :   0.9195 B(  7-N ,  8-C ) :   0.9789 B(  7-N , 18-H ) :   0.8708
B(  8-C , 19-H ) :   0.9043

MP2 TOTAL ENERGY:     -402.400934943 Eh
FINAL SINGLE POINT ENERGY      -402.400934943196

DIPOLE MOMENT
-------------
                                X             Y             Z
Electronic contribution:      3.46715      -6.33810       2.26860
Nuclear contribution   :     -2.94868       6.79289      -2.03377
                        -----------------------------------------
Total Dipole Moment    :      0.51846       0.45479       0.23483
                        -----------------------------------------
Magnitude (a.u.)       :      0.72855
Magnitude (Debye)      :      1.85182

                             ****ORCA TERMINATED NORMALLY****
TOTAL RUN TIME: 0 days 0 hours 18 minutes 48 seconds 152 msec
