                         Program Version 3.0.3 - RELEASE   -
|  1> ! RI-MP2 RIJK def2-TZVP def2-TZVP/C def2-TZVP/JK TIGHTSCF
|  2> % maxcore 2000
|  3> % mp2 density relaxed end
|  4> *xyz 0 1
|  5>  C        0.0296295054     1.5860103741    -0.0400404361
|  6>  C       -0.0260344360     0.0603122727     0.0745063350
|  7>  C       -1.4402608611    -0.5077363989    -0.0974017489
|  8>  C       -1.4973233613    -2.0280379495     0.0207499604
|  9>  C       -1.2648598546    -2.6990499905     1.4252234650
| 10>  C       -2.6214785799    -3.4003957201     1.2794972011
| 11>  O       -2.8492405534    -4.7262737615     1.6091679427
| 12>  C       -3.7297342326    -2.3996696127     1.1317897504
| 13>  C       -2.8601356734    -2.7354812395    -0.0657811162
| 14>  H        1.0508106189     1.9605089503     0.0830678389
| 15>  H       -0.3330132243     1.9232382013    -1.0176105001
| 16>  H       -0.5942015925     2.0634111317     0.7240290839
| 17>  H        0.6364652884    -0.3883958939    -0.6777684897
| 18>  H        0.3732808876    -0.2480792814     1.0496543610
| 19>  H       -2.1072757718    -0.0482988231     0.6442658779
| 20>  H       -1.8328749529    -0.2115562758    -1.0803849516
| 21>  H       -0.8066890029    -2.4683383650    -0.7068520821
| 22>  H       -0.4310772758    -3.4041523284     1.4188289278
| 23>  H       -1.1566818705    -2.0263851953     2.2840230099
| 24>  H       -3.1689351674    -4.7605676578     2.5174321106
| 25>  H       -4.7199015035    -2.8427488992     1.0875288757
| 26>  H       -3.6923818166    -1.4249792271     1.6130428140
| 27>  H       -3.2958786496    -3.1502354603    -0.9669691993
| 28> *
| 29>
| 30>                          ****END OF INPUT****

CARTESIAN COORDINATES (ANGSTROEM)
---------------------------------
  C      0.029630    1.586010   -0.040040
  C     -0.026034    0.060312    0.074506
  C     -1.440261   -0.507736   -0.097402
  C     -1.497323   -2.028038    0.020750
  C     -1.264860   -2.699050    1.425223
  C     -2.621479   -3.400396    1.279497
  O     -2.849241   -4.726274    1.609168
  C     -3.729734   -2.399670    1.131790
  C     -2.860136   -2.735481   -0.065781
  H      1.050811    1.960509    0.083068
  H     -0.333013    1.923238   -1.017611
  H     -0.594202    2.063411    0.724029
  H      0.636465   -0.388396   -0.677768
  H      0.373281   -0.248079    1.049654
  H     -2.107276   -0.048299    0.644266
  H     -1.832875   -0.211556   -1.080385
  H     -0.806689   -2.468338   -0.706852
  H     -0.431077   -3.404152    1.418829
  H     -1.156682   -2.026385    2.284023
  H     -3.168935   -4.760568    2.517432
  H     -4.719902   -2.842749    1.087529
  H     -3.692382   -1.424979    1.613043
  H     -3.295879   -3.150235   -0.966969

 Total Charge           Charge          ....    0
 Multiplicity           Mult            ....    1
 Number of Electrons    NEL             ....   70
 Basis Dimension        Dim             ....  363

ORBITAL ENERGIES
----------------

  NO   OCC          E(Eh)            E(eV)
   0   2.0000     -20.563243      -559.5543
   1   2.0000     -11.282935      -307.0243
   2   2.0000     -11.228836      -305.5522
   3   2.0000     -11.225168      -305.4524
   4   2.0000     -11.223719      -305.4129
   5   2.0000     -11.220398      -305.3225
   6   2.0000     -11.217134      -305.2337
   7   2.0000     -11.213883      -305.1453
   8   2.0000     -11.211093      -305.0694
   9   2.0000      -1.373952       -37.3871
  10   2.0000      -1.178463       -32.0676
  11   2.0000      -1.063111       -28.9287
  12   2.0000      -0.990263       -26.9464
  13   2.0000      -0.934260       -25.4225
  14   2.0000      -0.862503       -23.4699
  15   2.0000      -0.809839       -22.0368
  16   2.0000      -0.785833       -21.3836
  17   2.0000      -0.725440       -19.7402
  18   2.0000      -0.701798       -19.0969
  19   2.0000      -0.643120       -17.5002
  20   2.0000      -0.632850       -17.2207
  21   2.0000      -0.614022       -16.7084
  22   2.0000      -0.603619       -16.4253
  23   2.0000      -0.565056       -15.3760
  24   2.0000      -0.550487       -14.9795
  25   2.0000      -0.544173       -14.8077
  26   2.0000      -0.527482       -14.3535
  27   2.0000      -0.510084       -13.8801
  28   2.0000      -0.498900       -13.5758
  29   2.0000      -0.480515       -13.0755
  30   2.0000      -0.463975       -12.6254
  31   2.0000      -0.451535       -12.2869
  32   2.0000      -0.435270       -11.8443
  33   2.0000      -0.389087       -10.5876
  34   2.0000      -0.369906       -10.0657
  35   0.0000       0.135756         3.6941
  36   0.0000       0.145819         3.9679
  37   0.0000       0.156425         4.2565
  38   0.0000       0.172342         4.6897
  39   0.0000       0.173637         4.7249

MULLIKEN ATOMIC CHARGES
-----------------------
   0 C :   -0.383454
   1 C :   -0.188222
   2 C :   -0.275714
   3 C :   -0.037337
   4 C :   -0.258388
   5 C :    0.189533
   6 O :   -0.456899
   7 C :   -0.321312
   8 C :   -0.112601
   9 H :    0.132554
  10 H :    0.121675
  11 H :    0.120967
  12 H :    0.105833
  13 H :    0.109142
  14 H :    0.098877
  15 H :    0.113166
  16 H :    0.100112
  17 H :    0.116609
  18 H :    0.108973
  19 H :    0.325402
  20 H :    0.133579
  21 H :    0.124780
  22 H :    0.132725
Sum of atomic charges:    0.0000000

LOEWDIN ATOMIC CHARGES
----------------------
   0 C :   -0.322176
   1 C :   -0.293743
   2 C :   -0.253687
   3 C :   -0.205212
   4 C :   -0.179506
   5 C :   -0.338502
   6 O :    0.024083
   7 C :   -0.201766
   8 C :   -0.145342
   9 H :    0.119877
  10 H :    0.120060
  11 H :    0.119656
  12 H :    0.134428
  13 H :    0.134782
  14 H :    0.137152
  15 H :    0.140658
  16 H :    0.153241
  17 H :    0.137725
  18 H :    0.127592
  19 H :    0.184521
  20 H :    0.142196
  21 H :    0.126690
  22 H :    0.137271

  Mayer bond orders larger than 0.1
B(  0-C ,  1-C ) :   0.9207 B(  0-C ,  9-H ) :   0.9434 B(  0-C , 10-H ) :   0.9397
B(  0-C , 11-H ) :   0.9399 B(  1-C ,  2-C ) :   0.9279 B(  1-C , 12-H ) :   0.9326
B(  1-C , 13-H ) :   0.9348 B(  2-C ,  3-C ) :   0.9130 B(  2-C , 14-H ) :   0.9271
B(  2-C , 15-H ) :   0.9311 B(  3-C ,  4-C ) :   0.9633 B(  3-C ,  8-C ) :   0.9252
B(  3-C , 16-H ) :   0.9231 B(  4-C ,  5-C ) :   0.9663 B(  4-C , 17-H ) :   0.9126
B(  4-C , 18-H ) :   0.9055 B(  5-C ,  6-O ) :   1.0450 B(  5-C ,  7-C ) :   0.9157
B(  5-C ,  8-C ) :   0.8348 B(  6-O , 19-H ) :   0.8364 B(  7-C ,  8-C ) :   0.8639
B(  7-C , 20-H ) :   0.9291 B(  7-C , 21-H ) :   0.8991 B(  8-C , 22-H ) :   0.9065

MP2 TOTAL ENERGY:     -387.586299210 Eh
FINAL SINGLE POINT ENERGY      -387.586299209884

DIPOLE MOMENT
-------------
                                X             Y             Z
Electronic contribution:     -4.82289     -10.12723       1.85974
Nuclear contribution   :      4.76195      10.46251      -1.51596
                        -----------------------------------------
Total Dipole Moment    :     -0.06094       0.33527       0.34378
                        -----------------------------------------
Magnitude (a.u.)       :      0.48406
Magnitude (Debye)      :      1.23037

                             ****ORCA TERMINATED NORMALLY****
TOTAL RUN TIME: 0 days 0 hours 18 minutes 35 seconds 886 msec
