                         Program Version 3.0.3 - RELEASE   -
|  1> ! RI-MP2 RIJK def2-TZVP def2-TZVP/C def2-TZVP/JK TIGHTSCF
|  2> % maxcore 2000
|  3> % mp2 density relaxed end
|  4> *xyz 0 1
|  5>  O        0.1151947442     1.3239724394    -0.0655333887
|  6>  C        0.0961364533    -0.0447012021    -0.0110709324
|  7>  C        0.7077925794    -0.9692137084    -1.0867226562
|  8>  C        0.0786243900    -1.9233068314    -0.0258072478
|  9>  C        0.6982998521    -1.0085069988     1.0696382133
| 10>  C       -1.1706569591    -0.9753373876    -0.0166945746
| 11>  O       -1.9587308376    -0.8680518964     1.1429557198
| 12>  C       -2.0270423005    -0.9857811396    -1.2062519689
| 13>  N       -2.7476592775    -1.0194435928    -2.1100036256
| 14>  H       -0.3472481801     1.6694070796     0.7071013434
| 15>  H        0.2578953891    -0.9486117674    -2.0806683843
| 16>  H        1.7973609824    -0.9773928811    -1.1322104971
| 17>  H        0.0541671698    -3.0094303544    -0.0494763540
| 18>  H        1.7879337714    -1.0162626883     1.1279379303
| 19>  H        0.2258951935    -1.0197933271     2.0498462126
| 20>  H       -2.6454463702    -1.5434005737     1.1207199201
| 21> *
| 22>
| 23>                          ****END OF INPUT****

CARTESIAN COORDINATES (ANGSTROEM)
---------------------------------
  O      0.115195    1.323972   -0.065533
  C      0.096136   -0.044701   -0.011071
  C      0.707793   -0.969214   -1.086723
  C      0.078624   -1.923307   -0.025807
  C      0.698300   -1.008507    1.069638
  C     -1.170657   -0.975337   -0.016695
  O     -1.958731   -0.868052    1.142956
  C     -2.027042   -0.985781   -1.206252
  N     -2.747659   -1.019444   -2.110004
  H     -0.347248    1.669407    0.707101
  H      0.257895   -0.948612   -2.080668
  H      1.797361   -0.977393   -1.132210
  H      0.054167   -3.009430   -0.049476
  H      1.787934   -1.016263    1.127938
  H      0.225895   -1.019793    2.049846
  H     -2.645446   -1.543401    1.120720

 Total Charge           Charge          ....    0
 Multiplicity           Mult            ....    1
 Number of Electrons    NEL             ....   66
 Basis Dimension        Dim             ....  321

ORBITAL ENERGIES
----------------

  NO   OCC          E(Eh)            E(eV)
   0   2.0000     -20.597128      -560.4763
   1   2.0000     -20.586751      -560.1940
   2   2.0000     -15.580058      -423.9549
   3   2.0000     -11.348074      -308.7968
   4   2.0000     -11.330665      -308.3231
   5   2.0000     -11.278276      -306.8975
   6   2.0000     -11.276661      -306.8536
   7   2.0000     -11.251824      -306.1777
   8   2.0000     -11.250702      -306.1472
   9   2.0000      -1.418104       -38.5886
  10   2.0000      -1.397551       -38.0293
  11   2.0000      -1.235577       -33.6218
  12   2.0000      -1.217070       -33.1181
  13   2.0000      -0.971666       -26.4404
  14   2.0000      -0.933822       -25.4106
  15   2.0000      -0.878850       -23.9147
  16   2.0000      -0.802403       -21.8345
  17   2.0000      -0.766319       -20.8526
  18   2.0000      -0.739474       -20.1221
  19   2.0000      -0.676302       -18.4031
  20   2.0000      -0.653313       -17.7776
  21   2.0000      -0.636340       -17.3157
  22   2.0000      -0.594772       -16.1846
  23   2.0000      -0.575422       -15.6580
  24   2.0000      -0.559854       -15.2344
  25   2.0000      -0.554989       -15.1020
  26   2.0000      -0.511162       -13.9094
  27   2.0000      -0.499037       -13.5795
  28   2.0000      -0.491048       -13.3621
  29   2.0000      -0.480644       -13.0790
  30   2.0000      -0.468997       -12.7620
  31   2.0000      -0.454132       -12.3575
  32   2.0000      -0.418996       -11.4015
  33   0.0000       0.119128         3.2416
  34   0.0000       0.137160         3.7323
  35   0.0000       0.149928         4.0798
  36   0.0000       0.169439         4.6107
  37   0.0000       0.171527         4.6675

MULLIKEN ATOMIC CHARGES
-----------------------
   0 O :   -0.447757
   1 C :    0.129176
   2 C :   -0.235609
   3 C :   -0.153980
   4 C :   -0.226985
   5 C :    0.319251
   6 O :   -0.468905
   7 C :   -0.268797
   8 N :   -0.034689
   9 H :    0.337113
  10 H :    0.149171
  11 H :    0.130613
  12 H :    0.163174
  13 H :    0.129913
  14 H :    0.140691
  15 H :    0.337619
Sum of atomic charges:    0.0000000

LOEWDIN ATOMIC CHARGES
----------------------
   0 O :    0.050466
   1 C :   -0.310408
   2 C :   -0.156277
   3 C :   -0.134785
   4 C :   -0.172307
   5 C :   -0.305748
   6 O :    0.041877
   7 C :   -0.155852
   8 N :    0.075011
   9 H :    0.195224
  10 H :    0.141528
  11 H :    0.138417
  12 H :    0.134693
  13 H :    0.134736
  14 H :    0.133588
  15 H :    0.189836

  Mayer bond orders larger than 0.1
B(  0-O ,  1-C ) :   1.0023 B(  0-O ,  9-H ) :   0.8268 B(  1-C ,  2-C ) :   0.9154
B(  1-C ,  4-C ) :   0.9276 B(  1-C ,  5-C ) :   0.8183 B(  2-C ,  3-C ) :   0.9112
B(  2-C , 10-H ) :   0.9146 B(  2-C , 11-H ) :   0.9259 B(  3-C ,  4-C ) :   0.9299
B(  3-C ,  5-C ) :   0.8656 B(  3-C , 12-H ) :   0.8759 B(  4-C , 13-H ) :   0.9370
B(  4-C , 14-H ) :   0.9101 B(  5-C ,  6-O ) :   0.9775 B(  5-C ,  7-C ) :   0.9200
B(  6-O , 15-H ) :   0.8289 B(  7-C ,  8-N ) :   2.8717

MP2 TOTAL ENERGY:     -437.135586571 Eh
FINAL SINGLE POINT ENERGY      -437.135586570904

DIPOLE MOMENT
-------------
                                X             Y             Z
Electronic contribution:     -4.92219       1.36631      -1.78479
Nuclear contribution   :      5.56985      -1.94496       3.00624
                        -----------------------------------------
Total Dipole Moment    :      0.64766      -0.57865       1.22145
                        -----------------------------------------
Magnitude (a.u.)       :      1.49875
Magnitude (Debye)      :      3.80952

                             ****ORCA TERMINATED NORMALLY****
TOTAL RUN TIME: 0 days 0 hours 16 minutes 55 seconds 585 msec
