                         Program Version 3.0.3 - RELEASE   -
|  1> ! RI-MP2 RIJK def2-TZVP def2-TZVP/C def2-TZVP/JK TIGHTSCF
|  2> % maxcore 2000
|  3> % mp2 density relaxed end
|  4> *xyz 0 1
|  5>  O       -0.3330518400     0.4131504926    -0.8470102711
|  6>  C        0.2482462133     0.7914868383     0.1374477107
|  7>  C        1.3518243199     1.8060863132     0.1036577058
|  8>  C        1.7946808842     2.1998013497    -1.2097139265
|  9>  N        2.1802304107     2.5355950807    -2.2464495479
| 10>  C        1.4740046880     2.9637513004     1.1342713095
| 11>  C        1.0301933745     2.5222461862     2.5319085963
| 12>  N        1.9112251667     1.3089541966     2.4287380615
| 13>  C        2.4589213153     1.8382239179     1.1718187093
| 14>  H        0.0199322575     0.4018946093     1.1448817148
| 15>  H        1.5477259198     3.9759332074     0.7620397119
| 16>  H        1.3798063596     3.2354324477     3.2839976133
| 17>  H       -0.0272976071     2.3044386395     2.7059575486
| 18>  H        2.6089816113     1.2780266534     3.1627549388
| 19>  H        3.5005595762     1.7632419272     0.8858840149
| 20> *
| 21>
| 22>                          ****END OF INPUT****

CARTESIAN COORDINATES (ANGSTROEM)
---------------------------------
  O     -0.333052    0.413150   -0.847010
  C      0.248246    0.791487    0.137448
  C      1.351824    1.806086    0.103658
  C      1.794681    2.199801   -1.209714
  N      2.180230    2.535595   -2.246450
  C      1.474005    2.963751    1.134271
  C      1.030193    2.522246    2.531909
  N      1.911225    1.308954    2.428738
  C      2.458921    1.838224    1.171819
  H      0.019932    0.401895    1.144882
  H      1.547726    3.975933    0.762040
  H      1.379806    3.235432    3.283998
  H     -0.027298    2.304439    2.705958
  H      2.608982    1.278027    3.162755
  H      3.500560    1.763242    0.885884

 Total Charge           Charge          ....    0
 Multiplicity           Mult            ....    1
 Number of Electrons    NEL             ....   64
 Basis Dimension        Dim             ....  315

ORBITAL ENERGIES
----------------

  NO   OCC          E(Eh)            E(eV)
   0   2.0000     -20.568364      -559.6936
   1   2.0000     -15.591741      -424.2729
   2   2.0000     -15.574475      -423.8030
   3   2.0000     -11.348910      -308.8195
   4   2.0000     -11.322944      -308.1130
   5   2.0000     -11.309292      -307.7415
   6   2.0000     -11.302456      -307.5555
   7   2.0000     -11.293815      -307.3203
   8   2.0000     -11.279030      -306.9180
   9   2.0000      -1.409053       -38.3423
  10   2.0000      -1.314293       -35.7637
  11   2.0000      -1.222498       -33.2659
  12   2.0000      -1.130761       -30.7696
  13   2.0000      -0.987418       -26.8690
  14   2.0000      -0.941248       -25.6126
  15   2.0000      -0.854394       -23.2493
  16   2.0000      -0.799655       -21.7597
  17   2.0000      -0.758051       -20.6276
  18   2.0000      -0.707661       -19.2564
  19   2.0000      -0.678218       -18.4553
  20   2.0000      -0.652600       -17.7581
  21   2.0000      -0.641738       -17.4626
  22   2.0000      -0.584364       -15.9013
  23   2.0000      -0.579707       -15.7746
  24   2.0000      -0.561645       -15.2831
  25   2.0000      -0.553181       -15.0528
  26   2.0000      -0.513044       -13.9606
  27   2.0000      -0.490808       -13.3556
  28   2.0000      -0.473679       -12.8895
  29   2.0000      -0.459303       -12.4983
  30   2.0000      -0.422214       -11.4890
  31   2.0000      -0.390698       -10.6314
  32   0.0000       0.108699         2.9579
  33   0.0000       0.110859         3.0166
  34   0.0000       0.143411         3.9024
  35   0.0000       0.145949         3.9715
  36   0.0000       0.160998         4.3810

MULLIKEN ATOMIC CHARGES
-----------------------
   0 O :   -0.243998
   1 C :    0.037877
   2 C :    0.181679
   3 C :   -0.206649
   4 N :   -0.033572
   5 C :   -0.178218
   6 C :   -0.142543
   7 N :   -0.378871
   8 C :   -0.016229
   9 H :    0.133628
  10 H :    0.172093
  11 H :    0.144827
  12 H :    0.137348
  13 H :    0.224342
  14 H :    0.168286
Sum of atomic charges:   -0.0000000

LOEWDIN ATOMIC CHARGES
----------------------
   0 O :    0.157650
   1 C :   -0.244383
   2 C :   -0.188384
   3 C :   -0.144346
   4 N :    0.080690
   5 C :   -0.127908
   6 C :   -0.227802
   7 N :   -0.001817
   8 C :   -0.164873
   9 H :    0.131612
  10 H :    0.151646
  11 H :    0.135419
  12 H :    0.126440
  13 H :    0.169456
  14 H :    0.146600

  Mayer bond orders larger than 0.1
B(  0-O ,  1-C ) :   2.0145 B(  1-C ,  2-C ) :   0.8715 B(  1-C ,  9-H ) :   0.9460
B(  2-C ,  3-C ) :   0.9068 B(  2-C ,  5-C ) :   0.7770 B(  2-C ,  8-C ) :   0.8011
B(  3-C ,  4-N ) :   2.8632 B(  5-C ,  6-C ) :   0.9376 B(  5-C ,  8-C ) :   0.9041
B(  5-C , 10-H ) :   0.9110 B(  6-C ,  7-N ) :   0.9062 B(  6-C , 11-H ) :   0.9211
B(  6-C , 12-H ) :   0.9254 B(  7-N ,  8-C ) :   0.9838 B(  7-N , 13-H ) :   0.8779
B(  8-C , 14-H ) :   0.9028

MP2 TOTAL ENERGY:     -416.058268297 Eh
FINAL SINGLE POINT ENERGY      -416.058268297331

DIPOLE MOMENT
-------------
                                X             Y             Z
Electronic contribution:     -0.45807      -1.39759      -6.44635
Nuclear contribution   :      1.01255       2.03934       8.99523
                        -----------------------------------------
Total Dipole Moment    :      0.55449       0.64174       2.54888
                        -----------------------------------------
Magnitude (a.u.)       :      2.68627
Magnitude (Debye)      :      6.82796

                             ****ORCA TERMINATED NORMALLY****
TOTAL RUN TIME: 0 days 0 hours 15 minutes 32 seconds 771 msec
