                         Program Version 3.0.3 - RELEASE   -
|  1> ! RI-MP2 RIJK def2-TZVP def2-TZVP/C def2-TZVP/JK TIGHTSCF
|  2> % maxcore 2000
|  3> % mp2 density relaxed end
|  4> *xyz 0 1
|  5>  N        0.0428854226     1.3479786252     0.1406894455
|  6>  C       -0.0209355811    -0.0367169342     0.0326971114
|  7>  N       -1.1411259792    -0.7424423970     0.0404571954
|  8>  C       -0.6691483303    -2.0299049655     0.0246680598
|  9>  C        0.6980539481    -2.1164622683    -0.0099399809
| 10>  N        1.1331938864    -0.7951290621    -0.0168508300
| 11>  N        1.1648541887    -3.3918479715    -0.0680189392
| 12>  C        0.0472628127    -4.1054718547    -0.0582795428
| 13>  N       -1.1007563290    -3.3353063163    -0.0070533535
| 14>  H        0.6238283200     1.7865937187    -0.5643898342
| 15>  H       -0.8918000835     1.7354467482     0.1104741090
| 16>  H        2.0660850524    -0.4481662497     0.1233581207
| 17>  H        0.0006013845    -5.1829692536    -0.0815367822
| 18>  H       -2.0459589923    -3.6773367192     0.0022909611
| 19> *
| 20>
| 21>                          ****END OF INPUT****

CARTESIAN COORDINATES (ANGSTROEM)
---------------------------------
  N      0.042885    1.347979    0.140689
  C     -0.020936   -0.036717    0.032697
  N     -1.141126   -0.742442    0.040457
  C     -0.669148   -2.029905    0.024668
  C      0.698054   -2.116462   -0.009940
  N      1.133194   -0.795129   -0.016851
  N      1.164854   -3.391848   -0.068019
  C      0.047263   -4.105472   -0.058280
  N     -1.100756   -3.335306   -0.007053
  H      0.623828    1.786594   -0.564390
  H     -0.891800    1.735447    0.110474
  H      2.066085   -0.448166    0.123358
  H      0.000601   -5.182969   -0.081537
  H     -2.045959   -3.677337    0.002291

 Total Charge           Charge          ....    0
 Multiplicity           Mult            ....    1
 Number of Electrons    NEL             ....   64
 Basis Dimension        Dim             ....  309

ORBITAL ENERGIES
----------------

  NO   OCC          E(Eh)            E(eV)
   0   2.0000     -15.615461      -424.9183
   1   2.0000     -15.610559      -424.7849
   2   2.0000     -15.582674      -424.0261
   3   2.0000     -15.552348      -423.2009
   4   2.0000     -15.544887      -422.9979
   5   2.0000     -11.345461      -308.7257
   6   2.0000     -11.294320      -307.3341
   7   2.0000     -11.265138      -306.5400
   8   2.0000     -11.258536      -306.3604
   9   2.0000      -1.366226       -37.1769
  10   2.0000      -1.309712       -35.6391
  11   2.0000      -1.209261       -32.9057
  12   2.0000      -1.188354       -32.3367
  13   2.0000      -1.144906       -31.1545
  14   2.0000      -0.971676       -26.4407
  15   2.0000      -0.839556       -22.8455
  16   2.0000      -0.823828       -22.4175
  17   2.0000      -0.811305       -22.0767
  18   2.0000      -0.759325       -20.6623
  19   2.0000      -0.693448       -18.8697
  20   2.0000      -0.672031       -18.2869
  21   2.0000      -0.643287       -17.5047
  22   2.0000      -0.622237       -16.9319
  23   2.0000      -0.602728       -16.4011
  24   2.0000      -0.587254       -15.9800
  25   2.0000      -0.556896       -15.1539
  26   2.0000      -0.478888       -13.0312
  27   2.0000      -0.471529       -12.8310
  28   2.0000      -0.434362       -11.8196
  29   2.0000      -0.420754       -11.4493
  30   2.0000      -0.366361        -9.9692
  31   2.0000      -0.263457        -7.1690
  32   0.0000       0.122247         3.3265
  33   0.0000       0.138225         3.7613
  34   0.0000       0.154996         4.2177
  35   0.0000       0.164009         4.4629
  36   0.0000       0.190093         5.1727

MULLIKEN ATOMIC CHARGES
-----------------------
   0 N :   -0.521518
   1 C :    0.320708
   2 N :   -0.323891
   3 C :    0.116259
   4 C :    0.109870
   5 N :   -0.327489
   6 N :   -0.297417
   7 C :    0.035900
   8 N :   -0.291743
   9 H :    0.253938
  10 H :    0.267504
  11 H :    0.256423
  12 H :    0.147629
  13 H :    0.253827
Sum of atomic charges:   -0.0000000

LOEWDIN ATOMIC CHARGES
----------------------
   0 N :   -0.085430
   1 C :   -0.405777
   2 N :    0.090688
   3 C :   -0.314536
   4 C :   -0.314118
   5 N :    0.189502
   6 N :    0.091056
   7 C :   -0.304238
   8 N :    0.187548
   9 H :    0.169526
  10 H :    0.180227
  11 H :    0.193580
  12 H :    0.128114
  13 H :    0.193859

  Mayer bond orders larger than 0.1
B(  0-N ,  1-C ) :   1.0456 B(  0-N ,  9-H ) :   0.8705 B(  0-N , 10-H ) :   0.8725
B(  1-C ,  2-N ) :   1.5468 B(  1-C ,  5-N ) :   1.1567 B(  2-N ,  3-C ) :   1.2932
B(  3-C ,  4-C ) :   1.3464 B(  3-C ,  8-N ) :   1.1047 B(  4-C ,  5-N ) :   1.0646
B(  4-C ,  6-N ) :   1.3493 B(  5-N , 11-H ) :   0.8589 B(  6-N ,  7-C ) :   1.5058
B(  7-C ,  8-N ) :   1.1408 B(  7-C , 12-H ) :   0.9286 B(  8-N , 13-H ) :   0.8633

MP2 TOTAL ENERGY:     -428.378947781 Eh
FINAL SINGLE POINT ENERGY      -428.378947780977

DIPOLE MOMENT
-------------
                                X             Y             Z
Electronic contribution:      0.04317      -1.79283       0.07857
Nuclear contribution   :     -0.30046       2.28500      -0.41104
                        -----------------------------------------
Total Dipole Moment    :     -0.25729       0.49217      -0.33247
                        -----------------------------------------
Magnitude (a.u.)       :      0.64727
Magnitude (Debye)      :      1.64524

                             ****ORCA TERMINATED NORMALLY****
TOTAL RUN TIME: 0 days 0 hours 13 minutes 51 seconds 283 msec
