                         Program Version 3.0.3 - RELEASE   -
|  1> ! RI-MP2 RIJK def2-TZVP def2-TZVP/C def2-TZVP/JK TIGHTSCF
|  2> % maxcore 2000
|  3> % mp2 density relaxed end
|  4> *xyz 0 1
|  5>  C       -0.0888931966     1.4376780277     0.1518444471
|  6>  N       -0.0610146597     0.0123323232    -0.1352446114
|  7>  C       -1.1697952163    -0.7625201586    -0.0559724801
|  8>  N       -1.2312085982    -2.0596409369     0.0162661294
|  9>  C       -2.6033152147    -2.3165844083     0.0048164977
| 10>  C       -3.2936929112    -1.1511552317    -0.0649321515
| 11>  O       -2.3753107339    -0.1331049606    -0.1021623968
| 12>  C       -3.1443470231    -3.6277194159     0.0650432472
| 13>  N       -3.6040690685    -4.6886142823     0.1141195899
| 14>  H        0.8775787322     1.8639912455    -0.1222704195
| 15>  H       -0.8592274668     1.9206480750    -0.4527740920
| 16>  H       -0.2872562363     1.6604420789     1.2089074785
| 17>  H        0.7869584664    -0.4917292825     0.0713734923
| 18>  H       -4.3331765433    -0.8786611536    -0.0883827808
| 19> *
| 20>
| 21>                          ****END OF INPUT****

CARTESIAN COORDINATES (ANGSTROEM)
---------------------------------
  C     -0.088893    1.437678    0.151844
  N     -0.061015    0.012332   -0.135245
  C     -1.169795   -0.762520   -0.055972
  N     -1.231209   -2.059641    0.016266
  C     -2.603315   -2.316584    0.004816
  C     -3.293693   -1.151155   -0.064932
  O     -2.375311   -0.133105   -0.102162
  C     -3.144347   -3.627719    0.065043
  N     -3.604069   -4.688614    0.114120
  H      0.877579    1.863991   -0.122270
  H     -0.859227    1.920648   -0.452774
  H     -0.287256    1.660442    1.208907
  H      0.786958   -0.491729    0.071373
  H     -4.333177   -0.878661   -0.088383

 Total Charge           Charge          ....    0
 Multiplicity           Mult            ....    1
 Number of Electrons    NEL             ....   64
 Basis Dimension        Dim             ....  309

ORBITAL ENERGIES
----------------

  NO   OCC          E(Eh)            E(eV)
   0   2.0000     -20.662392      -562.2523
   1   2.0000     -15.609705      -424.7617
   2   2.0000     -15.577102      -423.8745
   3   2.0000     -15.569847      -423.6771
   4   2.0000     -11.396770      -310.1219
   5   2.0000     -11.324477      -308.1547
   6   2.0000     -11.312444      -307.8273
   7   2.0000     -11.287558      -307.1501
   8   2.0000     -11.280049      -306.9457
   9   2.0000      -1.516408       -41.2636
  10   2.0000      -1.287226       -35.0272
  11   2.0000      -1.250107       -34.0172
  12   2.0000      -1.215613       -33.0785
  13   2.0000      -1.062350       -28.9080
  14   2.0000      -0.965442       -26.2710
  15   2.0000      -0.913311       -24.8524
  16   2.0000      -0.836768       -22.7696
  17   2.0000      -0.785428       -21.3726
  18   2.0000      -0.719193       -19.5702
  19   2.0000      -0.702484       -19.1155
  20   2.0000      -0.671681       -18.2774
  21   2.0000      -0.647791       -17.6273
  22   2.0000      -0.626429       -17.0460
  23   2.0000      -0.612261       -16.6605
  24   2.0000      -0.574673       -15.6376
  25   2.0000      -0.561159       -15.2699
  26   2.0000      -0.526386       -14.3237
  27   2.0000      -0.497264       -13.5313
  28   2.0000      -0.485570       -13.2130
  29   2.0000      -0.468217       -12.7408
  30   2.0000      -0.433069       -11.7844
  31   2.0000      -0.331735        -9.0270
  32   0.0000       0.101500         2.7619
  33   0.0000       0.121241         3.2991
  34   0.0000       0.151590         4.1250
  35   0.0000       0.158267         4.3067
  36   0.0000       0.170793         4.6475

MULLIKEN ATOMIC CHARGES
-----------------------
   0 C :   -0.275703
   1 N :   -0.344700
   2 C :    0.363686
   3 N :   -0.310709
   4 C :    0.204576
   5 C :   -0.038414
   6 O :   -0.223762
   7 C :   -0.208290
   8 N :   -0.049030
   9 H :    0.149418
  10 H :    0.155022
  11 H :    0.140089
  12 H :    0.261236
  13 H :    0.176582
Sum of atomic charges:   -0.0000000

LOEWDIN ATOMIC CHARGES
----------------------
   0 C :   -0.311095
   1 N :    0.073887
   2 C :   -0.420743
   3 N :    0.127673
   4 C :   -0.264091
   5 C :   -0.189540
   6 O :    0.342182
   7 C :   -0.144806
   8 N :    0.081035
   9 H :    0.123619
  10 H :    0.125250
  11 H :    0.113793
  12 H :    0.199624
  13 H :    0.143213

  Mayer bond orders larger than 0.1
B(  0-C ,  1-N ) :   0.8757 B(  0-C ,  9-H ) :   0.9332 B(  0-C , 10-H ) :   0.9327
B(  0-C , 11-H ) :   0.9323 B(  1-N ,  2-C ) :   1.1672 B(  1-N , 12-H ) :   0.8644
B(  2-C ,  3-N ) :   1.6125 B(  2-C ,  6-O ) :   1.0602 B(  3-N ,  4-C ) :   1.1578
B(  4-C ,  5-C ) :   1.5554 B(  4-C ,  7-C ) :   0.8987 B(  5-C ,  6-O ) :   1.0085
B(  5-C , 13-H ) :   0.9118 B(  7-C ,  8-N ) :   2.8517

MP2 TOTAL ENERGY:     -432.179865014 Eh
FINAL SINGLE POINT ENERGY      -432.179865014389

DIPOLE MOMENT
-------------
                                X             Y             Z
Electronic contribution:     -4.55302      -7.87142      -0.45074
Nuclear contribution   :      5.33948      10.28453       0.57220
                        -----------------------------------------
Total Dipole Moment    :      0.78646       2.41311       0.12145
                        -----------------------------------------
Magnitude (a.u.)       :      2.54094
Magnitude (Debye)      :      6.45857

                             ****ORCA TERMINATED NORMALLY****
TOTAL RUN TIME: 0 days 0 hours 13 minutes 43 seconds 802 msec
