                         Program Version 3.0.3 - RELEASE   -
|  1> ! RI-MP2 RIJK def2-TZVP def2-TZVP/C def2-TZVP/JK TIGHTSCF
|  2> % maxcore 2000
|  3> % mp2 density relaxed end
|  4> *xyz 0 1
|  5>  C       -0.1905530955     1.2829157150    -0.0257662099
|  6>  C        1.3229997946     1.4696505558    -0.2947454947
|  7>  C        1.5219029946     0.2153084173     0.5901482849
|  8>  N        0.0865531257    -0.1135022000     0.3936978357
|  9>  C        2.4637134661    -0.8574476102     0.1502851315
| 10>  N        3.1948932947    -0.7722586802    -0.9286600252
| 11>  O        3.8953756995    -1.9867243716    -0.9492645050
| 12>  C        3.4953149422    -2.6583358658     0.1305791456
| 13>  N        2.6258460795    -2.0359852506     0.8576084063
| 14>  H       -0.5513943880     1.9348094503     0.7823211878
| 15>  H       -0.8731354419     1.3684222961    -0.8767855964
| 16>  H        1.5982106874     1.2851238607    -1.3331171315
| 17>  H        1.7883187307     2.3924712337     0.0504153306
| 18>  H        1.7713284420     0.4801186229     1.6282235430
| 19>  H       -0.3984112434    -0.4350261247     1.2242187649
| 20>  H        3.9293283518    -3.6345658188     0.2910422624
| 21> *
| 22>
| 23>                          ****END OF INPUT****

CARTESIAN COORDINATES (ANGSTROEM)
---------------------------------
  C     -0.190553    1.282916   -0.025766
  C      1.323000    1.469651   -0.294745
  C      1.521903    0.215308    0.590148
  N      0.086553   -0.113502    0.393698
  C      2.463713   -0.857448    0.150285
  N      3.194893   -0.772259   -0.928660
  O      3.895376   -1.986724   -0.949265
  C      3.495315   -2.658336    0.130579
  N      2.625846   -2.035985    0.857608
  H     -0.551394    1.934809    0.782321
  H     -0.873135    1.368422   -0.876786
  H      1.598211    1.285124   -1.333117
  H      1.788319    2.392471    0.050415
  H      1.771328    0.480119    1.628224
  H     -0.398411   -0.435026    1.224219
  H      3.929328   -3.634566    0.291042

 Total Charge           Charge          ....    0
 Multiplicity           Mult            ....    1
 Number of Electrons    NEL             ....   66
 Basis Dimension        Dim             ....  321

ORBITAL ENERGIES
----------------

  NO   OCC          E(Eh)            E(eV)
   0   2.0000     -20.660271      -562.1945
   1   2.0000     -15.626377      -425.2153
   2   2.0000     -15.578374      -423.9091
   3   2.0000     -15.552931      -423.2168
   4   2.0000     -11.361226      -309.1547
   5   2.0000     -11.313404      -307.8534
   6   2.0000     -11.280122      -306.9477
   7   2.0000     -11.258692      -306.3646
   8   2.0000     -11.232478      -305.6513
   9   2.0000      -1.522415       -41.4270
  10   2.0000      -1.265017       -34.4229
  11   2.0000      -1.237798       -33.6822
  12   2.0000      -1.162743       -31.6398
  13   2.0000      -0.985449       -26.8154
  14   2.0000      -0.957603       -26.0577
  15   2.0000      -0.870276       -23.6814
  16   2.0000      -0.832341       -22.6491
  17   2.0000      -0.775202       -21.0943
  18   2.0000      -0.731149       -19.8956
  19   2.0000      -0.707831       -19.2611
  20   2.0000      -0.679015       -18.4769
  21   2.0000      -0.645963       -17.5776
  22   2.0000      -0.616490       -16.7755
  23   2.0000      -0.576298       -15.6819
  24   2.0000      -0.543746       -14.7961
  25   2.0000      -0.533968       -14.5300
  26   2.0000      -0.522319       -14.2130
  27   2.0000      -0.486329       -13.2337
  28   2.0000      -0.478858       -13.0304
  29   2.0000      -0.469441       -12.7741
  30   2.0000      -0.458537       -12.4774
  31   2.0000      -0.406901       -11.0723
  32   2.0000      -0.388801       -10.5798
  33   0.0000       0.117171         3.1884
  34   0.0000       0.133002         3.6192
  35   0.0000       0.160839         4.3766
  36   0.0000       0.165883         4.5139
  37   0.0000       0.173909         4.7323

MULLIKEN ATOMIC CHARGES
-----------------------
   0 C :   -0.128695
   1 C :   -0.217448
   2 C :   -0.054420
   3 N :   -0.351601
   4 C :    0.186522
   5 N :   -0.122923
   6 O :   -0.096696
   7 C :    0.117213
   8 N :   -0.306025
   9 H :    0.105466
  10 H :    0.113318
  11 H :    0.138915
  12 H :    0.125681
  13 H :    0.109294
  14 H :    0.209637
  15 H :    0.171761
Sum of atomic charges:    0.0000000

LOEWDIN ATOMIC CHARGES
----------------------
   0 C :   -0.272328
   1 C :   -0.211854
   2 C :   -0.244512
   3 N :    0.002458
   4 C :   -0.332884
   5 N :    0.064394
   6 O :    0.273126
   7 C :   -0.343581
   8 N :    0.115238
   9 H :    0.117073
  10 H :    0.118434
  11 H :    0.142048
  12 H :    0.127845
  13 H :    0.149093
  14 H :    0.157014
  15 H :    0.138434

  Mayer bond orders larger than 0.1
B(  0-C ,  1-C ) :   0.9526 B(  0-C ,  3-N ) :   0.9619 B(  0-C ,  9-H ) :   0.9293
B(  0-C , 10-H ) :   0.9197 B(  1-C ,  2-C ) :   0.9312 B(  1-C , 11-H ) :   0.9170
B(  1-C , 12-H ) :   0.9292 B(  2-C ,  3-N ) :   1.0361 B(  2-C ,  4-C ) :   0.8773
B(  2-C , 13-H ) :   0.9258 B(  3-N , 14-H ) :   0.8812 B(  4-C ,  5-N ) :   1.6449
B(  4-C ,  8-N ) :   1.1968 B(  5-N ,  6-O ) :   0.8774 B(  6-O ,  7-C ) :   1.1524
B(  7-C ,  8-N ) :   1.6158 B(  7-C , 15-H ) :   0.9168

MP2 TOTAL ENERGY:     -433.313036219 Eh
FINAL SINGLE POINT ENERGY      -433.313036219091

DIPOLE MOMENT
-------------
                                X             Y             Z
Electronic contribution:      6.49944      -6.96602      -1.17627
Nuclear contribution   :     -6.58612       7.13723       1.76485
                        -----------------------------------------
Total Dipole Moment    :     -0.08668       0.17121       0.58858
                        -----------------------------------------
Magnitude (a.u.)       :      0.61908
Magnitude (Debye)      :      1.57357

                             ****ORCA TERMINATED NORMALLY****
TOTAL RUN TIME: 0 days 0 hours 15 minutes 39 seconds 986 msec
