                         Program Version 3.0.3 - RELEASE   -
|  1> ! RI-MP2 RIJK def2-TZVP def2-TZVP/C def2-TZVP/JK TIGHTSCF
|  2> % maxcore 2000
|  3> % mp2 density relaxed end
|  4> *xyz 0 1
|  5>  C       -0.0837343652     1.4030693169    -0.1432186292
|  6>  C        0.0007921560    -0.1196782198     0.0365490892
|  7>  C        0.8047004132    -0.4808579345     1.3161304421
|  8>  O        0.8253517648    -1.8793659214     1.5835232568
|  9>  C        2.1697770703     0.0563467647     1.2735287139
| 10>  C        3.3060221243     0.4443364509     1.2028148705
| 11>  C       -1.3835514088    -0.7399044881     0.0790643335
| 12>  C       -2.1566191632    -0.9613267897    -1.1993587108
| 13>  C       -1.6409501089    -2.1380097620    -0.4095798506
| 14>  H        0.9081339034     1.8572899520    -0.2072117923
| 15>  H       -0.6373486354     1.6473876327    -1.0539816807
| 16>  H       -0.6128303164     1.8645638639     0.6992478617
| 17>  H        0.5465518922    -0.5435851879    -0.8191059597
| 18>  H        0.2783194063    -0.0443007039     2.1754313323
| 19>  H        1.4257735781    -2.2864533405     0.9493855770
| 20>  H        4.3069012017     0.7975028039     1.1619320159
| 21>  H       -1.9755439244    -0.4227469856     0.9357737015
| 22>  H       -3.2225043471    -0.7617224386    -1.2012070575
| 23>  H       -1.6625222271    -0.7252116188    -2.1369083209
| 24>  H       -0.8034254130    -2.6930673774    -0.8179734978
| 25>  H       -2.3496562609    -2.7517811269     0.1348095251
| 26> *
| 27>
| 28>                          ****END OF INPUT****

CARTESIAN COORDINATES (ANGSTROEM)
---------------------------------
  C     -0.083734    1.403069   -0.143219
  C      0.000792   -0.119678    0.036549
  C      0.804700   -0.480858    1.316130
  O      0.825352   -1.879366    1.583523
  C      2.169777    0.056347    1.273529
  C      3.306022    0.444336    1.202815
  C     -1.383551   -0.739904    0.079064
  C     -2.156619   -0.961327   -1.199359
  C     -1.640950   -2.138010   -0.409580
  H      0.908134    1.857290   -0.207212
  H     -0.637349    1.647388   -1.053982
  H     -0.612830    1.864564    0.699248
  H      0.546552   -0.543585   -0.819106
  H      0.278319   -0.044301    2.175431
  H      1.425774   -2.286453    0.949386
  H      4.306901    0.797503    1.161932
  H     -1.975544   -0.422747    0.935774
  H     -3.222504   -0.761722   -1.201207
  H     -1.662522   -0.725212   -2.136908
  H     -0.803425   -2.693067   -0.817973
  H     -2.349656   -2.751781    0.134810

 Total Charge           Charge          ....    0
 Multiplicity           Mult            ....    1
 Number of Electrons    NEL             ....   68
 Basis Dimension        Dim             ....  351

ORBITAL ENERGIES
----------------

  NO   OCC          E(Eh)            E(eV)
   0   2.0000     -20.561864      -559.5168
   1   2.0000     -11.308433      -307.7181
   2   2.0000     -11.240362      -305.8658
   3   2.0000     -11.237569      -305.7898
   4   2.0000     -11.230935      -305.6093
   5   2.0000     -11.228768      -305.5503
   6   2.0000     -11.222416      -305.3775
   7   2.0000     -11.220736      -305.3318
   8   2.0000     -11.215724      -305.1954
   9   2.0000      -1.370018       -37.2801
  10   2.0000      -1.147769       -31.2324
  11   2.0000      -1.074402       -29.2360
  12   2.0000      -1.022586       -27.8260
  13   2.0000      -0.931334       -25.3429
  14   2.0000      -0.862603       -23.4726
  15   2.0000      -0.819441       -22.2981
  16   2.0000      -0.777295       -21.1513
  17   2.0000      -0.744459       -20.2578
  18   2.0000      -0.694207       -18.8903
  19   2.0000      -0.669030       -18.2052
  20   2.0000      -0.640084       -17.4176
  21   2.0000      -0.621463       -16.9109
  22   2.0000      -0.612234       -16.6597
  23   2.0000      -0.561097       -15.2682
  24   2.0000      -0.548900       -14.9363
  25   2.0000      -0.526113       -14.3163
  26   2.0000      -0.514381       -13.9970
  27   2.0000      -0.506496       -13.7825
  28   2.0000      -0.475647       -12.9430
  29   2.0000      -0.464603       -12.6425
  30   2.0000      -0.417223       -11.3532
  31   2.0000      -0.410247       -11.1634
  32   2.0000      -0.398643       -10.8476
  33   2.0000      -0.384968       -10.4755
  34   0.0000       0.132779         3.6131
  35   0.0000       0.143700         3.9103
  36   0.0000       0.151451         4.1212
  37   0.0000       0.161914         4.4059
  38   0.0000       0.168746         4.5918

MULLIKEN ATOMIC CHARGES
-----------------------
   0 C :   -0.415749
   1 C :   -0.088201
   2 C :   -0.033373
   3 O :   -0.446579
   4 C :   -0.044192
   5 C :   -0.139522
   6 C :   -0.053907
   7 C :   -0.272286
   8 C :   -0.236901
   9 H :    0.152619
  10 H :    0.137288
  11 H :    0.122643
  12 H :    0.091717
  13 H :    0.115556
  14 H :    0.315844
  15 H :    0.192633
  16 H :    0.112414
  17 H :    0.129106
  18 H :    0.125585
  19 H :    0.106240
  20 H :    0.129063
Sum of atomic charges:   -0.0000000

LOEWDIN ATOMIC CHARGES
----------------------
   0 C :   -0.278886
   1 C :   -0.245578
   2 C :   -0.312040
   3 O :    0.006582
   4 C :   -0.093857
   5 C :   -0.092145
   6 C :   -0.209234
   7 C :   -0.230372
   8 C :   -0.227842
   9 H :    0.128485
  10 H :    0.127099
  11 H :    0.126121
  12 H :    0.158000
  13 H :    0.164044
  14 H :    0.178273
  15 H :    0.127841
  16 H :    0.150805
  17 H :    0.130244
  18 H :    0.131949
  19 H :    0.128792
  20 H :    0.131720

  Mayer bond orders larger than 0.1
B(  0-C ,  1-C ) :   0.9170 B(  0-C ,  9-H ) :   0.9368 B(  0-C , 10-H ) :   0.9350
B(  0-C , 11-H ) :   0.9304 B(  1-C ,  2-C ) :   0.9358 B(  1-C ,  6-C ) :   0.9178
B(  1-C , 12-H ) :   0.9066 B(  2-C ,  3-O ) :   0.8979 B(  2-C ,  4-C ) :   1.1458
B(  2-C , 13-H ) :   0.9062 B(  3-O , 14-H ) :   0.8413 B(  4-C ,  5-C ) :   2.5794
B(  5-C , 15-H ) :   0.8936 B(  6-C ,  7-C ) :   0.8861 B(  6-C ,  8-C ) :   0.8916
B(  6-C , 16-H ) :   0.9103 B(  7-C ,  8-C ) :   0.9101 B(  7-C , 17-H ) :   0.9290
B(  7-C , 18-H ) :   0.9247 B(  8-C , 19-H ) :   0.9309 B(  8-C , 20-H ) :   0.9302

MP2 TOTAL ENERGY:     -386.357197923 Eh
FINAL SINGLE POINT ENERGY      -386.357197922506

DIPOLE MOMENT
-------------
                                X             Y             Z
Electronic contribution:      5.67657      -1.78817       4.30387
Nuclear contribution   :     -5.51051       2.02745      -4.77927
                        -----------------------------------------
Total Dipole Moment    :      0.16606       0.23929      -0.47541
                        -----------------------------------------
Magnitude (a.u.)       :      0.55753
Magnitude (Debye)      :      1.41714

                             ****ORCA TERMINATED NORMALLY****
TOTAL RUN TIME: 0 days 0 hours 22 minutes 3 seconds 653 msec
