                         Program Version 3.0.3 - RELEASE   -
|  1> ! RI-MP2 RIJK def2-TZVP def2-TZVP/C def2-TZVP/JK TIGHTSCF
|  2> % maxcore 2000
|  3> % mp2 density relaxed end
|  4> *xyz 0 1
|  5>  C        0.0179893604     1.4101910648     0.0089425091
|  6>  N        0.0267306575    -0.0449259349     0.0045188224
|  7>  C       -1.0893051128    -0.6381468771     0.0110230957
|  8>  C       -1.2742529585    -2.1444069357     0.0078434489
|  9>  O       -2.6949071723    -2.3474628221     0.0177643496
| 10>  C       -3.3413352192    -1.1462532308     0.0262855883
| 11>  N       -4.5863174222    -0.9460803451     0.0362528629
| 12>  N       -2.3817207901    -0.1447056170     0.0220959180
| 13>  H        1.0456364003     1.7799276582     0.0010195878
| 14>  H       -0.4918733467     1.8259045978    -0.8737517226
| 15>  H       -0.4761770779     1.8204103514     0.9030456041
| 16>  H       -0.8449386352    -2.6034500227    -0.8874132313
| 17>  H       -0.8317260519    -2.6088224170     0.8938510094
| 18>  H       -5.0903143326    -1.8301334646     0.0373792531
| 19>  H       -2.6473779390     0.8247100548     0.0273085946
| 20> *
| 21>
| 22>                          ****END OF INPUT****

CARTESIAN COORDINATES (ANGSTROEM)
---------------------------------
  C      0.017989    1.410191    0.008943
  N      0.026731   -0.044926    0.004519
  C     -1.089305   -0.638147    0.011023
  C     -1.274253   -2.144407    0.007843
  O     -2.694907   -2.347463    0.017764
  C     -3.341335   -1.146253    0.026286
  N     -4.586317   -0.946080    0.036253
  N     -2.381721   -0.144706    0.022096
  H      1.045636    1.779928    0.001020
  H     -0.491873    1.825905   -0.873752
  H     -0.476177    1.820410    0.903046
  H     -0.844939   -2.603450   -0.887413
  H     -0.831726   -2.608822    0.893851
  H     -5.090314   -1.830133    0.037379
  H     -2.647378    0.824710    0.027309

 Total Charge           Charge          ....    0
 Multiplicity           Mult            ....    1
 Number of Electrons    NEL             ....   60
 Basis Dimension        Dim             ....  290

ORBITAL ENERGIES
----------------

  NO   OCC          E(Eh)            E(eV)
   0   2.0000     -20.616613      -561.0066
   1   2.0000     -15.619317      -425.0232
   2   2.0000     -15.550345      -423.1464
   3   2.0000     -15.533373      -422.6846
   4   2.0000     -11.386641      -309.8462
   5   2.0000     -11.338229      -308.5289
   6   2.0000     -11.317081      -307.9534
   7   2.0000     -11.257317      -306.3272
   8   2.0000      -1.469570       -39.9890
   9   2.0000      -1.299230       -35.3538
  10   2.0000      -1.230565       -33.4854
  11   2.0000      -1.179479       -32.0953
  12   2.0000      -1.016248       -27.6535
  13   2.0000      -0.932541       -25.3757
  14   2.0000      -0.856995       -23.3200
  15   2.0000      -0.834496       -22.7078
  16   2.0000      -0.719428       -19.5766
  17   2.0000      -0.708711       -19.2850
  18   2.0000      -0.678512       -18.4632
  19   2.0000      -0.654500       -17.8099
  20   2.0000      -0.615721       -16.7546
  21   2.0000      -0.605449       -16.4751
  22   2.0000      -0.601331       -16.3630
  23   2.0000      -0.575143       -15.6504
  24   2.0000      -0.534637       -14.5482
  25   2.0000      -0.527161       -14.3448
  26   2.0000      -0.457148       -12.4396
  27   2.0000      -0.419790       -11.4231
  28   2.0000      -0.415952       -11.3186
  29   2.0000      -0.367653       -10.0044
  30   0.0000       0.122827         3.3423
  31   0.0000       0.144090         3.9209
  32   0.0000       0.150513         4.0957
  33   0.0000       0.172430         4.6921
  34   0.0000       0.189912         5.1678

MULLIKEN ATOMIC CHARGES
-----------------------
   0 C :   -0.334517
   1 N :   -0.243929
   2 C :    0.088934
   3 C :    0.023812
   4 O :   -0.266537
   5 C :    0.253846
   6 N :   -0.414365
   7 N :   -0.305417
   8 H :    0.153669
   9 H :    0.133485
  10 H :    0.133655
  11 H :    0.137045
  12 H :    0.137041
  13 H :    0.235159
  14 H :    0.268119
Sum of atomic charges:   -0.0000000

LOEWDIN ATOMIC CHARGES
----------------------
   0 C :   -0.340057
   1 N :    0.062463
   2 C :   -0.346259
   3 C :   -0.212617
   4 O :    0.234487
   5 C :   -0.482305
   6 N :   -0.087861
   7 N :    0.172383
   8 H :    0.118903
   9 H :    0.111824
  10 H :    0.111878
  11 H :    0.140940
  12 H :    0.140940
  13 H :    0.173879
  14 H :    0.201401

  Mayer bond orders larger than 0.1
B(  0-C ,  1-N ) :   0.8769 B(  0-C ,  8-H ) :   0.9482 B(  0-C ,  9-H ) :   0.9268
B(  0-C , 10-H ) :   0.9268 B(  1-N ,  2-C ) :   1.9625 B(  2-C ,  3-C ) :   0.9401
B(  2-C ,  7-N ) :   1.0487 B(  3-C ,  4-O ) :   0.8933 B(  3-C , 11-H ) :   0.9158
B(  3-C , 12-H ) :   0.9158 B(  4-O ,  5-C ) :   1.0835 B(  5-C ,  6-N ) :   1.9938
B(  5-C ,  7-N ) :   1.0411 B(  6-N , 13-H ) :   0.8518 B(  7-N , 14-H ) :   0.8603

MP2 TOTAL ENERGY:     -395.354301462 Eh
FINAL SINGLE POINT ENERGY      -395.354301461806

DIPOLE MOMENT
-------------
                                X             Y             Z
Electronic contribution:     -3.53349      -3.99274       0.01412
Nuclear contribution   :      3.88229       4.14639      -0.01603
                        -----------------------------------------
Total Dipole Moment    :      0.34880       0.15365      -0.00192
                        -----------------------------------------
Magnitude (a.u.)       :      0.38115
Magnitude (Debye)      :      0.96879

                             ****ORCA TERMINATED NORMALLY****
TOTAL RUN TIME: 0 days 0 hours 10 minutes 18 seconds 930 msec
