                         Program Version 3.0.3 - RELEASE   -
|  1> ! RI-MP2 RIJK def2-TZVP def2-TZVP/C def2-TZVP/JK TIGHTSCF
|  2> % maxcore 2000
|  3> % mp2 density relaxed end
|  4> *xyz 0 1
|  5>  C       -0.1104440402     1.3525306909    -0.0087296847
|  6>  O        0.0741978732    -0.0436439121    -0.0388312646
|  7>  C        0.6422100340    -0.5609458942     1.1542123158
|  8>  C        0.6286314202    -2.0793049104     1.0093878059
|  9>  O       -0.6834952819    -2.5196025447     0.7541028683
| 10>  C        1.7644442302    -2.6216613054     0.0831301656
| 11>  C        2.6151545496    -2.9034774378     1.3515399385
| 12>  C        1.3079060229    -2.8081198874     2.1873424967
| 13>  O        1.3055539713    -2.0973524473     3.4043510816
| 14>  H        0.8461115443     1.8847946912     0.1067841734
| 15>  H       -0.5640762199     1.6441249132    -0.9592134228
| 16>  H       -0.7746913077     1.6573621653     0.8144454778
| 17>  H        1.6619520955    -0.1756820882     1.3005505474
| 18>  H        0.0408502246    -0.2687258362     2.0268009784
| 19>  H       -1.0651636729    -1.8751253792     0.1438588401
| 20>  H        1.4373434893    -3.5383607958    -0.4119350968
| 21>  H        2.1676405493    -1.9327874457    -0.6608529227
| 22>  H        3.1726715925    -3.8414029964     1.3934387350
| 23>  H        3.2892413674    -2.0776763401     1.5944948090
| 24>  H        0.8377325029    -3.7950400363     2.2936859953
| 25>  H        1.6814306155    -2.6590624435     4.0885413128
| 26> *
| 27>
| 28>                          ****END OF INPUT****

CARTESIAN COORDINATES (ANGSTROEM)
---------------------------------
  C     -0.110444    1.352531   -0.008730
  O      0.074198   -0.043644   -0.038831
  C      0.642210   -0.560946    1.154212
  C      0.628631   -2.079305    1.009388
  O     -0.683495   -2.519603    0.754103
  C      1.764444   -2.621661    0.083130
  C      2.615155   -2.903477    1.351540
  C      1.307906   -2.808120    2.187342
  O      1.305554   -2.097352    3.404351
  H      0.846112    1.884795    0.106784
  H     -0.564076    1.644125   -0.959213
  H     -0.774691    1.657362    0.814445
  H      1.661952   -0.175682    1.300551
  H      0.040850   -0.268726    2.026801
  H     -1.065164   -1.875125    0.143859
  H      1.437343   -3.538361   -0.411935
  H      2.167641   -1.932787   -0.660853
  H      3.172672   -3.841403    1.393439
  H      3.289241   -2.077676    1.594495
  H      0.837733   -3.795040    2.293686
  H      1.681431   -2.659062    4.088541

 Total Charge           Charge          ....    0
 Multiplicity           Mult            ....    1
 Number of Electrons    NEL             ....   72
 Basis Dimension        Dim             ....  351

ORBITAL ENERGIES
----------------

  NO   OCC          E(Eh)            E(eV)
   0   2.0000     -20.563116      -559.5508
   1   2.0000     -20.559176      -559.4436
   2   2.0000     -20.543530      -559.0179
   3   2.0000     -11.278299      -306.8981
   4   2.0000     -11.277082      -306.8650
   5   2.0000     -11.275725      -306.8281
   6   2.0000     -11.272677      -306.7451
   7   2.0000     -11.221295      -305.3470
   8   2.0000     -11.216867      -305.2265
   9   2.0000      -1.389514       -37.8106
  10   2.0000      -1.367608       -37.2145
  11   2.0000      -1.348140       -36.6847
  12   2.0000      -1.117918       -30.4201
  13   2.0000      -0.988200       -26.8903
  14   2.0000      -0.906535       -24.6681
  15   2.0000      -0.885867       -24.1057
  16   2.0000      -0.848420       -23.0867
  17   2.0000      -0.740859       -20.1598
  18   2.0000      -0.716258       -19.4904
  19   2.0000      -0.684410       -18.6237
  20   2.0000      -0.679161       -18.4809
  21   2.0000      -0.661962       -18.0129
  22   2.0000      -0.638747       -17.3812
  23   2.0000      -0.604894       -16.4600
  24   2.0000      -0.587805       -15.9950
  25   2.0000      -0.582790       -15.8585
  26   2.0000      -0.566119       -15.4049
  27   2.0000      -0.535723       -14.5778
  28   2.0000      -0.517481       -14.0814
  29   2.0000      -0.501866       -13.6565
  30   2.0000      -0.498161       -13.5557
  31   2.0000      -0.481735       -13.1087
  32   2.0000      -0.435684       -11.8556
  33   2.0000      -0.433962       -11.8087
  34   2.0000      -0.425710       -11.5842
  35   2.0000      -0.408360       -11.1120
  36   0.0000       0.136052         3.7022
  37   0.0000       0.141373         3.8470
  38   0.0000       0.164149         4.4667
  39   0.0000       0.173816         4.7298
  40   0.0000       0.181113         4.9283

MULLIKEN ATOMIC CHARGES
-----------------------
   0 C :   -0.216513
   1 O :   -0.334514
   2 C :   -0.151850
   3 C :    0.350544
   4 O :   -0.480341
   5 C :   -0.284140
   6 C :   -0.245200
   7 C :   -0.005408
   8 O :   -0.459796
   9 H :    0.115127
  10 H :    0.139783
  11 H :    0.117816
  12 H :    0.104423
  13 H :    0.127001
  14 H :    0.325755
  15 H :    0.121376
  16 H :    0.124912
  17 H :    0.122858
  18 H :    0.114673
  19 H :    0.096418
  20 H :    0.317074
Sum of atomic charges:    0.0000000

LOEWDIN ATOMIC CHARGES
----------------------
   0 C :   -0.359171
   1 O :    0.125404
   2 C :   -0.283839
   3 C :   -0.357103
   4 O :    0.013154
   5 C :   -0.203633
   6 C :   -0.232611
   7 C :   -0.293421
   8 O :   -0.014652
   9 H :    0.103529
  10 H :    0.113538
  11 H :    0.103619
  12 H :    0.130085
  13 H :    0.131660
  14 H :    0.179916
  15 H :    0.138602
  16 H :    0.129496
  17 H :    0.122877
  18 H :    0.134582
  19 H :    0.141016
  20 H :    0.176952

  Mayer bond orders larger than 0.1
B(  0-C ,  1-O ) :   0.9124 B(  0-C ,  9-H ) :   0.9379 B(  0-C , 10-H ) :   0.9386
B(  0-C , 11-H ) :   0.9377 B(  1-O ,  2-C ) :   0.9064 B(  2-C ,  3-C ) :   0.9595
B(  2-C , 12-H ) :   0.9098 B(  2-C , 13-H ) :   0.9240 B(  3-C ,  4-O ) :   1.0076
B(  3-C ,  5-C ) :   0.8769 B(  3-C ,  7-C ) :   0.8598 B(  4-O , 14-H ) :   0.8200
B(  5-C ,  6-C ) :   0.9324 B(  5-C , 15-H ) :   0.9221 B(  5-C , 16-H ) :   0.9191
B(  6-C ,  7-C ) :   0.9096 B(  6-C , 17-H ) :   0.9283 B(  6-C , 18-H ) :   0.9124
B(  7-C ,  8-O ) :   1.0881 B(  7-C , 19-H ) :   0.9550 B(  8-O , 20-H ) :   0.8436

MP2 TOTAL ENERGY:     -460.610776913 Eh
FINAL SINGLE POINT ENERGY      -460.610776912995

DIPOLE MOMENT
-------------
                                X             Y             Z
Electronic contribution:     -2.31149      -3.09872       1.64273
Nuclear contribution   :      2.86992       3.43025      -1.51572
                        -----------------------------------------
Total Dipole Moment    :      0.55843       0.33153       0.12701
                        -----------------------------------------
Magnitude (a.u.)       :      0.66173
Magnitude (Debye)      :      1.68199

                             ****ORCA TERMINATED NORMALLY****
TOTAL RUN TIME: 0 days 0 hours 16 minutes 24 seconds 456 msec
