                         Program Version 3.0.3 - RELEASE   -
|  1> ! RI-MP2 RIJK def2-TZVP def2-TZVP/C def2-TZVP/JK TIGHTSCF
|  2> % maxcore 2000
|  3> % mp2 density relaxed end
|  4> *xyz 0 1
|  5>  N       -0.0440982225     1.4529336736     0.0601343798
|  6>  C       -0.0122218905    -0.0133004492     0.0084986403
|  7>  C        0.6612899646    -0.5925202227     1.2889277038
|  8>  C       -0.0127150864    -1.9565603521     1.5387866017
|  9>  C       -1.4136591655    -1.8090804832     0.9615346105
| 10>  C       -2.1838569248    -0.5588502601     1.3035375449
| 11>  C       -1.4129462121    -0.6325129588     0.0108942011
| 12>  C        0.7048989864    -0.5011496485    -1.1953558154
| 13>  N        1.2715320151    -0.8405045790    -2.1453169135
| 14>  H        0.9043860782     1.8193765096     0.0343609995
| 15>  H       -0.5103753240     1.8177870627    -0.7663298764
| 16>  H        1.7459928444    -0.6664322631     1.1854945398
| 17>  H        0.4550431732     0.1111535166     2.0991364109
| 18>  H        0.5181020519    -2.7496748696     1.0006608463
| 19>  H       -0.0063570286    -2.2242508055     2.6004805655
| 20>  H       -1.9709006368    -2.7077595996     0.7229051933
| 21>  H       -3.2639645487    -0.6052362545     1.2208458240
| 22>  H       -1.8309514911     0.0991243771     2.0896810328
| 23>  H       -1.9512752427    -0.6556879534    -0.9295890488
| 24> *
| 25>
| 26>                          ****END OF INPUT****

CARTESIAN COORDINATES (ANGSTROEM)
---------------------------------
  N     -0.044098    1.452934    0.060134
  C     -0.012222   -0.013300    0.008499
  C      0.661290   -0.592520    1.288928
  C     -0.012715   -1.956560    1.538787
  C     -1.413659   -1.809080    0.961535
  C     -2.183857   -0.558850    1.303538
  C     -1.412946   -0.632513    0.010894
  C      0.704899   -0.501150   -1.195356
  N      1.271532   -0.840505   -2.145317
  H      0.904386    1.819377    0.034361
  H     -0.510375    1.817787   -0.766330
  H      1.745993   -0.666432    1.185495
  H      0.455043    0.111154    2.099136
  H      0.518102   -2.749675    1.000661
  H     -0.006357   -2.224251    2.600481
  H     -1.970901   -2.707760    0.722905
  H     -3.263965   -0.605236    1.220846
  H     -1.830951    0.099124    2.089681
  H     -1.951275   -0.655688   -0.929589

 Total Charge           Charge          ....    0
 Multiplicity           Mult            ....    1
 Number of Electrons    NEL             ....   66
 Basis Dimension        Dim             ....  339

ORBITAL ENERGIES
----------------

  NO   OCC          E(Eh)            E(eV)
   0   2.0000     -15.567278      -423.6072
   1   2.0000     -15.566490      -423.5857
   2   2.0000     -11.316500      -307.9376
   3   2.0000     -11.266386      -306.5740
   4   2.0000     -11.247303      -306.0547
   5   2.0000     -11.243831      -305.9602
   6   2.0000     -11.243324      -305.9464
   7   2.0000     -11.237426      -305.7859
   8   2.0000     -11.236725      -305.7668
   9   2.0000      -1.244361       -33.8608
  10   2.0000      -1.202876       -32.7319
  11   2.0000      -1.166619       -31.7453
  12   2.0000      -1.042449       -28.3665
  13   2.0000      -0.974877       -26.5277
  14   2.0000      -0.878055       -23.8931
  15   2.0000      -0.800683       -21.7877
  16   2.0000      -0.781919       -21.2771
  17   2.0000      -0.728803       -19.8317
  18   2.0000      -0.682172       -18.5628
  19   2.0000      -0.665516       -18.1096
  20   2.0000      -0.629674       -17.1343
  21   2.0000      -0.619935       -16.8693
  22   2.0000      -0.569134       -15.4869
  23   2.0000      -0.560060       -15.2400
  24   2.0000      -0.537162       -14.6169
  25   2.0000      -0.520291       -14.1578
  26   2.0000      -0.512003       -13.9323
  27   2.0000      -0.490970       -13.3600
  28   2.0000      -0.474584       -12.9141
  29   2.0000      -0.450441       -12.2571
  30   2.0000      -0.425349       -11.5743
  31   2.0000      -0.424116       -11.5408
  32   2.0000      -0.415095       -11.2953
  33   0.0000       0.120533         3.2799
  34   0.0000       0.141769         3.8577
  35   0.0000       0.153428         4.1750
  36   0.0000       0.166136         4.5208
  37   0.0000       0.178065         4.8454

MULLIKEN ATOMIC CHARGES
-----------------------
   0 N :   -0.540313
   1 C :    0.392551
   2 C :   -0.309775
   3 C :   -0.232331
   4 C :   -0.115754
   5 C :   -0.257241
   6 C :   -0.139211
   7 C :   -0.316186
   8 N :   -0.050568
   9 H :    0.237107
  10 H :    0.236363
  11 H :    0.143509
  12 H :    0.146252
  13 H :    0.130655
  14 H :    0.125929
  15 H :    0.129421
  16 H :    0.138326
  17 H :    0.141523
  18 H :    0.139744
Sum of atomic charges:    0.0000000

LOEWDIN ATOMIC CHARGES
----------------------
   0 N :   -0.098485
   1 C :   -0.322555
   2 C :   -0.191187
   3 C :   -0.226864
   4 C :   -0.190344
   5 C :   -0.191051
   6 C :   -0.155089
   7 C :   -0.157860
   8 N :    0.057219
   9 H :    0.162700
  10 H :    0.162906
  11 H :    0.143758
  12 H :    0.146642
  13 H :    0.145676
  14 H :    0.139475
  15 H :    0.145494
  16 H :    0.138422
  17 H :    0.140036
  18 H :    0.151108

  Mayer bond orders larger than 0.1
B(  0-N ,  1-C ) :   0.9021 B(  0-N ,  9-H ) :   0.8912 B(  0-N , 10-H ) :   0.8922
B(  1-C ,  2-C ) :   0.8340 B(  1-C ,  6-C ) :   0.8975 B(  1-C ,  7-C ) :   0.9257
B(  2-C ,  3-C ) :   0.9525 B(  2-C , 11-H ) :   0.9161 B(  2-C , 12-H ) :   0.9420
B(  3-C ,  4-C ) :   0.9472 B(  3-C , 13-H ) :   0.9231 B(  3-C , 14-H ) :   0.9293
B(  4-C ,  5-C ) :   0.9014 B(  4-C ,  6-C ) :   0.8908 B(  4-C , 15-H ) :   0.9271
B(  5-C ,  6-C ) :   0.8758 B(  5-C , 16-H ) :   0.9343 B(  5-C , 17-H ) :   0.9142
B(  6-C , 18-H ) :   0.9139 B(  7-C ,  8-N ) :   2.8921

MP2 TOTAL ENERGY:     -381.413064705 Eh
FINAL SINGLE POINT ENERGY      -381.413064705221

DIPOLE MOMENT
-------------
                                X             Y             Z
Electronic contribution:      2.46289       0.26291      -5.66820
Nuclear contribution   :     -3.01366      -0.01537       6.58497
                        -----------------------------------------
Total Dipole Moment    :     -0.55077       0.24754       0.91677
                        -----------------------------------------
Magnitude (a.u.)       :      1.09776
Magnitude (Debye)      :      2.79029

                             ****ORCA TERMINATED NORMALLY****
TOTAL RUN TIME: 0 days 0 hours 20 minutes 28 seconds 356 msec
