                         Program Version 3.0.3 - RELEASE   -
|  1> ! RI-MP2 RIJK def2-TZVP def2-TZVP/C def2-TZVP/JK TIGHTSCF
|  2> % maxcore 2000
|  3> % mp2 density relaxed end
|  4> *xyz 0 1
|  5>  N       -0.0375827789     0.9979862784     0.1596054141
|  6>  H       -0.1418527990    -0.0077330225     0.1188160862
|  7>  H        0.6472093735     1.3148133233    -0.5151830934
|  8>  C       -1.2727818773     1.6148933043     0.0636076288
|  9>  N       -1.4015645008     2.9829015324     0.0221446715
| 10>  C       -2.7480798902     3.2702233218     0.0154233366
| 11>  C       -3.3442911910     2.0412511550     0.0585869524
| 12>  N       -2.4381669434     1.0157606550     0.0804339210
| 13>  N       -4.7676054578     1.8189402589     0.0685830306
| 14>  O       -5.4752830320     2.8259972627     0.0217390028
| 15>  O       -5.1730495830     0.6685039647     0.1224410126
| 16>  H       -0.6533215098     3.6550461788     0.0705391402
| 17>  H       -3.1459782705     4.2677498873    -0.0240600034
| 18> *
| 19>
| 20>                          ****END OF INPUT****

CARTESIAN COORDINATES (ANGSTROEM)
---------------------------------
  N     -0.037583    0.997986    0.159605
  H     -0.141853   -0.007733    0.118816
  H      0.647209    1.314813   -0.515183
  C     -1.272782    1.614893    0.063608
  N     -1.401565    2.982902    0.022145
  C     -2.748080    3.270223    0.015423
  C     -3.344291    2.041251    0.058587
  N     -2.438167    1.015761    0.080434
  N     -4.767605    1.818940    0.068583
  O     -5.475283    2.825997    0.021739
  O     -5.173050    0.668504    0.122441
  H     -0.653322    3.655046    0.070539
  H     -3.145978    4.267750   -0.024060

 Total Charge           Charge          ....    0
 Multiplicity           Mult            ....    1
 Number of Electrons    NEL             ....   66
 Basis Dimension        Dim             ....  303

ORBITAL ENERGIES
----------------

  NO   OCC          E(Eh)            E(eV)
   0   2.0000     -20.590421      -560.2938
   1   2.0000     -20.580848      -560.0334
   2   2.0000     -15.841475      -431.0685
   3   2.0000     -15.652971      -425.9390
   4   2.0000     -15.605022      -424.6342
   5   2.0000     -15.570656      -423.6991
   6   2.0000     -11.370653      -309.4112
   7   2.0000     -11.315984      -307.9236
   8   2.0000     -11.308040      -307.7074
   9   2.0000      -1.590810       -43.2881
  10   2.0000      -1.391089       -37.8535
  11   2.0000      -1.383656       -37.6512
  12   2.0000      -1.242047       -33.7978
  13   2.0000      -1.211226       -32.9591
  14   2.0000      -1.075718       -29.2718
  15   2.0000      -0.964955       -26.2577
  16   2.0000      -0.857424       -23.3317
  17   2.0000      -0.817957       -22.2577
  18   2.0000      -0.791054       -21.5257
  19   2.0000      -0.726275       -19.7629
  20   2.0000      -0.716779       -19.5046
  21   2.0000      -0.712995       -19.4016
  22   2.0000      -0.697905       -18.9910
  23   2.0000      -0.661591       -18.0028
  24   2.0000      -0.642186       -17.4748
  25   2.0000      -0.628912       -17.1136
  26   2.0000      -0.506468       -13.7817
  27   2.0000      -0.487625       -13.2690
  28   2.0000      -0.483473       -13.1560
  29   2.0000      -0.476624       -12.9696
  30   2.0000      -0.445065       -12.1108
  31   2.0000      -0.438217       -11.9245
  32   2.0000      -0.336096        -9.1456
  33   0.0000       0.067007         1.8234
  34   0.0000       0.096636         2.6296
  35   0.0000       0.130462         3.5500
  36   0.0000       0.166656         4.5349
  37   0.0000       0.173616         4.7243

MULLIKEN ATOMIC CHARGES
-----------------------
   0 N :   -0.516857
   1 H :    0.278222
   2 H :    0.257927
   3 C :    0.337331
   4 N :   -0.271487
   5 C :   -0.102390
   6 C :    0.041945
   7 N :   -0.276156
   8 N :    0.415697
   9 O :   -0.324946
  10 O :   -0.281896
  11 H :    0.259991
  12 H :    0.182619
Sum of atomic charges:    0.0000000

LOEWDIN ATOMIC CHARGES
----------------------
   0 N :   -0.072313
   1 H :    0.185591
   2 H :    0.172176
   3 C :   -0.408087
   4 N :    0.194331
   5 C :   -0.194874
   6 C :   -0.295808
   7 N :    0.133889
   8 N :   -0.053777
   9 O :   -0.021035
  10 O :    0.015164
  11 H :    0.198030
  12 H :    0.146713

  Mayer bond orders larger than 0.1
B(  0-N ,  1-H ) :   0.8673 B(  0-N ,  2-H ) :   0.8679 B(  0-N ,  3-C ) :   1.0654
B(  3-C ,  4-N ) :   1.1422 B(  3-C ,  7-N ) :   1.5263 B(  4-N ,  5-C ) :   1.1287
B(  4-N , 11-H ) :   0.8622 B(  5-C ,  6-C ) :   1.5235 B(  5-C , 12-H ) :   0.8804
B(  6-C ,  7-N ) :   1.3184 B(  6-C ,  8-N ) :   0.9228 B(  8-N ,  9-O ) :   1.4368
B(  8-N , 10-O ) :   1.4689 B(  9-O , 10-O ) :   0.1762

MP2 TOTAL ENERGY:     -485.259256782 Eh
FINAL SINGLE POINT ENERGY      -485.259256781927

DIPOLE MOMENT
-------------
                                X             Y             Z
Electronic contribution:     -5.34320      -0.41283       0.13573
Nuclear contribution   :      8.08672       1.50549      -0.56903
                        -----------------------------------------
Total Dipole Moment    :      2.74352       1.09266      -0.43330
                        -----------------------------------------
Magnitude (a.u.)       :      2.98472
Magnitude (Debye)      :      7.58655

                             ****ORCA TERMINATED NORMALLY****
TOTAL RUN TIME: 0 days 0 hours 13 minutes 58 seconds 898 msec
