                         Program Version 3.0.3 - RELEASE   -
|  1> ! RI-MP2 RIJK def2-TZVP def2-TZVP/C def2-TZVP/JK TIGHTSCF
|  2> % maxcore 2000
|  3> % mp2 density relaxed end
|  4> *xyz 0 1
|  5>  C       -0.4368867774     1.5826088541    -0.4986068833
|  6>  C       -0.2227752295     0.1553486832    -0.9937418123
|  7>  C        0.8292400940    -0.6033697455    -0.2205257759
|  8>  O        1.4789992978    -0.1190773542     0.6865173864
|  9>  C        1.0807578858    -2.0530751868    -0.6022167082
| 10>  O        0.7111817738    -2.4108024511    -1.9466512617
| 11>  C        2.0735077708    -2.7918825789    -2.2670350287
| 12>  C        2.5702063899    -2.4260295160    -0.8560065194
| 13>  O        3.4889594979    -1.3706040945    -0.8546421209
| 14>  H       -0.7550586139     1.5925654851     0.5472964649
| 15>  H        0.4885476777     2.1605898041    -0.5618600487
| 16>  H       -1.2007510160     2.0860439252    -1.0970585086
| 17>  H       -1.1500912140    -0.4339448110    -0.9630784778
| 18>  H        0.0770179869     0.1224541098    -2.0491681975
| 19>  H        0.5755853221    -2.6879855530     0.1407920342
| 20>  H        2.1408827632    -3.8492601564    -2.5433680094
| 21>  H        2.5049914093    -2.1663339244    -3.0551871772
| 22>  H        2.9214285774    -3.2762828219    -0.2579924982
| 23>  H        3.3323165542    -0.8599122379    -0.0474795580
| 24> *
| 25>
| 26>                          ****END OF INPUT****

CARTESIAN COORDINATES (ANGSTROEM)
---------------------------------
  C     -0.436887    1.582609   -0.498607
  C     -0.222775    0.155349   -0.993742
  C      0.829240   -0.603370   -0.220526
  O      1.478999   -0.119077    0.686517
  C      1.080758   -2.053075   -0.602217
  O      0.711182   -2.410802   -1.946651
  C      2.073508   -2.791883   -2.267035
  C      2.570206   -2.426030   -0.856007
  O      3.488959   -1.370604   -0.854642
  H     -0.755059    1.592565    0.547296
  H      0.488548    2.160590   -0.561860
  H     -1.200751    2.086044   -1.097059
  H     -1.150091   -0.433945   -0.963078
  H      0.077018    0.122454   -2.049168
  H      0.575585   -2.687986    0.140792
  H      2.140883   -3.849260   -2.543368
  H      2.504991   -2.166334   -3.055187
  H      2.921429   -3.276283   -0.257992
  H      3.332317   -0.859912   -0.047480

 Total Charge           Charge          ....    0
 Multiplicity           Mult            ....    1
 Number of Electrons    NEL             ....   70
 Basis Dimension        Dim             ....  339

ORBITAL ENERGIES
----------------

  NO   OCC          E(Eh)            E(eV)
   0   2.0000     -20.568898      -559.7082
   1   2.0000     -20.563567      -559.5631
   2   2.0000     -20.559366      -559.4488
   3   2.0000     -11.342859      -308.6549
   4   2.0000     -11.303943      -307.5959
   5   2.0000     -11.301134      -307.5195
   6   2.0000     -11.289399      -307.2002
   7   2.0000     -11.242400      -305.9213
   8   2.0000     -11.221110      -305.3419
   9   2.0000      -1.415994       -38.5312
  10   2.0000      -1.394442       -37.9447
  11   2.0000      -1.366283       -37.1784
  12   2.0000      -1.063691       -28.9445
  13   2.0000      -1.012442       -27.5500
  14   2.0000      -0.981708       -26.7136
  15   2.0000      -0.891161       -24.2497
  16   2.0000      -0.809112       -22.0171
  17   2.0000      -0.747174       -20.3316
  18   2.0000      -0.718713       -19.5572
  19   2.0000      -0.701575       -19.0908
  20   2.0000      -0.684474       -18.6255
  21   2.0000      -0.644153       -17.5283
  22   2.0000      -0.626893       -17.0586
  23   2.0000      -0.610485       -16.6121
  24   2.0000      -0.597758       -16.2658
  25   2.0000      -0.583840       -15.8871
  26   2.0000      -0.542364       -14.7585
  27   2.0000      -0.536942       -14.6109
  28   2.0000      -0.527151       -14.3445
  29   2.0000      -0.517328       -14.0772
  30   2.0000      -0.494017       -13.4429
  31   2.0000      -0.488146       -13.2831
  32   2.0000      -0.452083       -12.3018
  33   2.0000      -0.443657       -12.0725
  34   2.0000      -0.406829       -11.0704
  35   0.0000       0.122003         3.3199
  36   0.0000       0.134614         3.6630
  37   0.0000       0.156951         4.2709
  38   0.0000       0.163900         4.4599
  39   0.0000       0.169962         4.6249

MULLIKEN ATOMIC CHARGES
-----------------------
   0 C :   -0.362209
   1 C :   -0.229052
   2 C :    0.137617
   3 O :   -0.336434
   4 C :    0.109735
   5 O :   -0.338878
   6 C :   -0.018610
   7 C :    0.033454
   8 O :   -0.468617
   9 H :    0.130451
  10 H :    0.135553
  11 H :    0.136176
  12 H :    0.140476
  13 H :    0.148277
  14 H :    0.117552
  15 H :    0.105232
  16 H :    0.113635
  17 H :    0.103672
  18 H :    0.341968
Sum of atomic charges:   -0.0000000

LOEWDIN ATOMIC CHARGES
----------------------
   0 C :   -0.308657
   1 C :   -0.263509
   2 C :   -0.303909
   3 O :    0.138328
   4 C :   -0.246382
   5 O :    0.135432
   6 C :   -0.238864
   7 C :   -0.314411
   8 O :   -0.003844
   9 H :    0.126342
  10 H :    0.127639
  11 H :    0.123028
  12 H :    0.157568
  13 H :    0.160848
  14 H :    0.151585
  15 H :    0.119987
  16 H :    0.125778
  17 H :    0.128937
  18 H :    0.184105

  Mayer bond orders larger than 0.1
B(  0-C ,  1-C ) :   0.9264 B(  0-C ,  9-H ) :   0.9339 B(  0-C , 10-H ) :   0.9351
B(  0-C , 11-H ) :   0.9406 B(  1-C ,  2-C ) :   0.9357 B(  1-C , 12-H ) :   0.8999
B(  1-C , 13-H ) :   0.9050 B(  2-C ,  3-O ) :   1.8893 B(  2-C ,  4-C ) :   0.9047
B(  4-C ,  5-O ) :   0.9563 B(  4-C ,  7-C ) :   0.9462 B(  4-C , 14-H ) :   0.8863
B(  5-O ,  6-C ) :   0.9194 B(  6-C ,  7-C ) :   0.9271 B(  6-C , 15-H ) :   0.9163
B(  6-C , 16-H ) :   0.9124 B(  7-C ,  8-O ) :   1.0468 B(  7-C , 17-H ) :   0.9570
B(  8-O , 18-H ) :   0.8118

MP2 TOTAL ENERGY:     -459.420566980 Eh
FINAL SINGLE POINT ENERGY      -459.420566980476

DIPOLE MOMENT
-------------
                                X             Y             Z
Electronic contribution:      3.48131      -3.86351       1.34697
Nuclear contribution   :     -3.89429       3.47433      -1.40382
                        -----------------------------------------
Total Dipole Moment    :     -0.41298      -0.38918      -0.05685
                        -----------------------------------------
Magnitude (a.u.)       :      0.57031
Magnitude (Debye)      :      1.44960

                             ****ORCA TERMINATED NORMALLY****
TOTAL RUN TIME: 0 days 0 hours 16 minutes 22 seconds 32 msec
