                         Program Version 3.0.3 - RELEASE   -
|  1> ! RI-MP2 RIJK def2-TZVP def2-TZVP/C def2-TZVP/JK TIGHTSCF
|  2> % maxcore 2000
|  3> % mp2 density relaxed end
|  4> *xyz 0 1
|  5>  C        0.1678067805     1.4877425335     0.0071889492
|  6>  C        0.0202917387    -0.0359425182     0.0012767270
|  7>  C       -1.4425784222    -0.4908930323     0.0126195661
|  8>  C       -1.5850129094    -2.0125902911     0.0066650592
|  9>  C       -3.0197959142    -2.4774558105     0.0181304632
| 10>  O       -3.9977853876    -1.7817822214     0.0322470381
| 11>  O       -3.0616903811    -3.8547750050     0.0101475856
| 12>  C       -4.2909266320    -4.4643150693     0.0189824597
| 13>  N       -4.3250364843    -5.7217024842     0.0120444997
| 14>  H        1.2205258322     1.7861005659    -0.0010918942
| 15>  H       -0.3129379851     1.9347802896    -0.8698390795
| 16>  H       -0.2966524313     1.9263457409     0.8971552882
| 17>  H        0.5239858238    -0.4505293306    -0.8821608019
| 18>  H        0.5401717190    -0.4589052032     0.8712676117
| 19>  H       -1.9534770633    -0.0845158506     0.8932618534
| 20>  H       -1.9695952768    -0.0761304450    -0.8545249151
| 21>  H       -1.1006013427    -2.4595982529    -0.8709027187
| 22>  H       -1.0842235226    -2.4677797101     0.8707635249
| 23>  H       -5.1172495607    -3.7533549472     0.0318956769
| 24>  H       -5.2935600308    -6.0387324581     0.0203453664
| 25> *
| 26>
| 27>                          ****END OF INPUT****

CARTESIAN COORDINATES (ANGSTROEM)
---------------------------------
  C      0.167807    1.487743    0.007189
  C      0.020292   -0.035943    0.001277
  C     -1.442578   -0.490893    0.012620
  C     -1.585013   -2.012590    0.006665
  C     -3.019796   -2.477456    0.018130
  O     -3.997785   -1.781782    0.032247
  O     -3.061690   -3.854775    0.010148
  C     -4.290927   -4.464315    0.018982
  N     -4.325036   -5.721702    0.012044
  H      1.220526    1.786101   -0.001092
  H     -0.312938    1.934780   -0.869839
  H     -0.296652    1.926346    0.897155
  H      0.523986   -0.450529   -0.882161
  H      0.540172   -0.458905    0.871268
  H     -1.953477   -0.084516    0.893262
  H     -1.969595   -0.076130   -0.854525
  H     -1.100601   -2.459598   -0.870903
  H     -1.084224   -2.467780    0.870764
  H     -5.117250   -3.753355    0.031896
  H     -5.293560   -6.038732    0.020345

 Total Charge           Charge          ....    0
 Multiplicity           Mult            ....    1
 Number of Electrons    NEL             ....   70
 Basis Dimension        Dim             ....  345

ORBITAL ENERGIES
----------------

  NO   OCC          E(Eh)            E(eV)
   0   2.0000     -20.627472      -561.3021
   1   2.0000     -20.565744      -559.6223
   2   2.0000     -15.558091      -423.3572
   3   2.0000     -11.400879      -310.2337
   4   2.0000     -11.348343      -308.8041
   5   2.0000     -11.254182      -306.2419
   6   2.0000     -11.232436      -305.6501
   7   2.0000     -11.229941      -305.5822
   8   2.0000     -11.219132      -305.2881
   9   2.0000      -1.488634       -40.5078
  10   2.0000      -1.393241       -37.9120
  11   2.0000      -1.216587       -33.1050
  12   2.0000      -1.097292       -29.8588
  13   2.0000      -1.026572       -27.9344
  14   2.0000      -0.933419       -25.3996
  15   2.0000      -0.860566       -23.4172
  16   2.0000      -0.805260       -21.9122
  17   2.0000      -0.793106       -21.5815
  18   2.0000      -0.727280       -19.7903
  19   2.0000      -0.684071       -18.6145
  20   2.0000      -0.683644       -18.6029
  21   2.0000      -0.657310       -17.8863
  22   2.0000      -0.644514       -17.5381
  23   2.0000      -0.594149       -16.1676
  24   2.0000      -0.588565       -16.0157
  25   2.0000      -0.582692       -15.8558
  26   2.0000      -0.544740       -14.8231
  27   2.0000      -0.529816       -14.4170
  28   2.0000      -0.508879       -13.8473
  29   2.0000      -0.491744       -13.3810
  30   2.0000      -0.485658       -13.2154
  31   2.0000      -0.476914       -12.9775
  32   2.0000      -0.476461       -12.9652
  33   2.0000      -0.442657       -12.0453
  34   2.0000      -0.428595       -11.6627
  35   0.0000       0.125808         3.4234
  36   0.0000       0.133508         3.6329
  37   0.0000       0.147526         4.0144
  38   0.0000       0.153867         4.1869
  39   0.0000       0.171203         4.6587

MULLIKEN ATOMIC CHARGES
-----------------------
   0 C :   -0.384633
   1 C :   -0.182159
   2 C :   -0.226994
   3 C :   -0.256288
   4 C :    0.326518
   5 O :   -0.310831
   6 O :   -0.198648
   7 C :    0.036162
   8 N :   -0.313040
   9 H :    0.135627
  10 H :    0.124681
  11 H :    0.124685
  12 H :    0.106840
  13 H :    0.106841
  14 H :    0.119872
  15 H :    0.119809
  16 H :    0.150303
  17 H :    0.150259
  18 H :    0.137424
  19 H :    0.233572
Sum of atomic charges:    0.0000000

LOEWDIN ATOMIC CHARGES
----------------------
   0 C :   -0.319226
   1 C :   -0.296260
   2 C :   -0.261831
   3 C :   -0.234786
   4 C :   -0.437307
   5 O :    0.141997
   6 O :    0.286539
   7 C :   -0.355098
   8 N :   -0.057453
   9 H :    0.121252
  10 H :    0.121320
  11 H :    0.121321
  12 H :    0.134903
  13 H :    0.134903
  14 H :    0.143148
  15 H :    0.143135
  16 H :    0.159593
  17 H :    0.159623
  18 H :    0.121140
  19 H :    0.173088

  Mayer bond orders larger than 0.1
B(  0-C ,  1-C ) :   0.9279 B(  0-C ,  9-H ) :   0.9430 B(  0-C , 10-H ) :   0.9391
B(  0-C , 11-H ) :   0.9391 B(  1-C ,  2-C ) :   0.9275 B(  1-C , 12-H ) :   0.9309
B(  1-C , 13-H ) :   0.9310 B(  2-C ,  3-C ) :   0.9401 B(  2-C , 14-H ) :   0.9274
B(  2-C , 15-H ) :   0.9274 B(  3-C ,  4-C ) :   0.9670 B(  3-C , 16-H ) :   0.9033
B(  3-C , 17-H ) :   0.9032 B(  4-C ,  5-O ) :   1.9288 B(  4-C ,  6-O ) :   1.0316
B(  6-O ,  7-C ) :   0.9549 B(  7-C ,  8-N ) :   1.9812 B(  7-C , 18-H ) :   0.9279
B(  8-N , 19-H ) :   0.8510

MP2 TOTAL ENERGY:     -439.600456574 Eh
FINAL SINGLE POINT ENERGY      -439.600456574331

DIPOLE MOMENT
-------------
                                X             Y             Z
Electronic contribution:    -10.72783     -12.06147       0.04075
Nuclear contribution   :     10.83161      12.54209      -0.03865
                        -----------------------------------------
Total Dipole Moment    :      0.10378       0.48061       0.00210
                        -----------------------------------------
Magnitude (a.u.)       :      0.49170
Magnitude (Debye)      :      1.24979

                             ****ORCA TERMINATED NORMALLY****
TOTAL RUN TIME: 0 days 0 hours 13 minutes 38 seconds 272 msec
