                         Program Version 3.0.3 - RELEASE   -
|  1> ! RI-MP2 RIJK def2-TZVP def2-TZVP/C def2-TZVP/JK TIGHTSCF
|  2> % maxcore 2000
|  3> % mp2 density relaxed end
|  4> *xyz 0 1
|  5>  O        0.1536297426     1.3842602897     0.1778768039
|  6>  C        0.0665029777    -0.0231607190     0.0099517416
|  7>  C       -1.3802768113    -0.4436238264    -0.1837698533
|  8>  C       -1.7460749262    -0.3398053582    -1.6133436424
|  9>  C       -0.4240048145    -0.6679615609    -2.3325064144
| 10>  C        0.7455225955    -0.5485384618    -1.2596599953
| 11>  C        0.8111709972    -2.1003713696    -1.1835742920
| 12>  C       -0.5819575753    -2.1168969404    -1.8203886857
| 13>  N       -1.7398749400    -1.6887501202    -0.9262165696
| 14>  H       -0.3604559710     1.7910954207    -0.5293151484
| 15>  H        0.5263287413    -0.4464978034     0.9083921683
| 16>  H       -2.1008001083    -0.2084829455     0.5928711927
| 17>  H       -2.6509659057     0.0964657381    -2.0217349226
| 18>  H       -0.2390664864    -0.3944063216    -3.3681493193
| 19>  H        1.6507611216     0.0046624818    -1.5097234672
| 20>  H        1.5552439472    -2.5211089592    -1.8667035198
| 21>  H        0.9355849831    -2.5527516333    -0.1945050238
| 22>  H       -0.9080580275    -2.9525513707    -2.4402087027
| 23> *
| 24>
| 25>                          ****END OF INPUT****

CARTESIAN COORDINATES (ANGSTROEM)
---------------------------------
  O      0.153630    1.384260    0.177877
  C      0.066503   -0.023161    0.009952
  C     -1.380277   -0.443624   -0.183770
  C     -1.746075   -0.339805   -1.613344
  C     -0.424005   -0.667962   -2.332506
  C      0.745523   -0.548538   -1.259660
  C      0.811171   -2.100371   -1.183574
  C     -0.581958   -2.116897   -1.820389
  N     -1.739875   -1.688750   -0.926217
  H     -0.360456    1.791095   -0.529315
  H      0.526329   -0.446498    0.908392
  H     -2.100800   -0.208483    0.592871
  H     -2.650966    0.096466   -2.021735
  H     -0.239066   -0.394406   -3.368149
  H      1.650761    0.004662   -1.509723
  H      1.555244   -2.521109   -1.866704
  H      0.935585   -2.552752   -0.194505
  H     -0.908058   -2.952551   -2.440209

 Total Charge           Charge          ....    0
 Multiplicity           Mult            ....    1
 Number of Electrons    NEL             ....   66
 Basis Dimension        Dim             ....  333

ORBITAL ENERGIES
----------------

  NO   OCC          E(Eh)            E(eV)
   0   2.0000     -20.559920      -559.4639
   1   2.0000     -15.565673      -423.5635
   2   2.0000     -11.285737      -307.1005
   3   2.0000     -11.264881      -306.5330
   4   2.0000     -11.264133      -306.5126
   5   2.0000     -11.262638      -306.4720
   6   2.0000     -11.241404      -305.8942
   7   2.0000     -11.237934      -305.7997
   8   2.0000     -11.229210      -305.5623
   9   2.0000      -1.369191       -37.2576
  10   2.0000      -1.303430       -35.4681
  11   2.0000      -1.108398       -30.1610
  12   2.0000      -1.014650       -27.6100
  13   2.0000      -0.946043       -25.7431
  14   2.0000      -0.870053       -23.6753
  15   2.0000      -0.834326       -22.7032
  16   2.0000      -0.786825       -21.4106
  17   2.0000      -0.726814       -19.7776
  18   2.0000      -0.711846       -19.3703
  19   2.0000      -0.668107       -18.1801
  20   2.0000      -0.641713       -17.4619
  21   2.0000      -0.600618       -16.3436
  22   2.0000      -0.593923       -16.1615
  23   2.0000      -0.579650       -15.7731
  24   2.0000      -0.557604       -15.1732
  25   2.0000      -0.529862       -14.4183
  26   2.0000      -0.506370       -13.7790
  27   2.0000      -0.479617       -13.0510
  28   2.0000      -0.448992       -12.2177
  29   2.0000      -0.448484       -12.2039
  30   2.0000      -0.429028       -11.6745
  31   2.0000      -0.401302       -10.9200
  32   2.0000      -0.362532        -9.8650
  33   0.0000       0.135129         3.6770
  34   0.0000       0.145104         3.9485
  35   0.0000       0.168861         4.5949
  36   0.0000       0.174046         4.7360
  37   0.0000       0.185919         5.0591

MULLIKEN ATOMIC CHARGES
-----------------------
   0 O :   -0.456448
   1 C :    0.065372
   2 C :   -0.114913
   3 C :   -0.171287
   4 C :   -0.134132
   5 C :   -0.007803
   6 C :   -0.308655
   7 C :    0.040712
   8 N :   -0.238120
   9 H :    0.314821
  10 H :    0.112868
  11 H :    0.128895
  12 H :    0.136285
  13 H :    0.137235
  14 H :    0.129801
  15 H :    0.120648
  16 H :    0.120897
  17 H :    0.123824
Sum of atomic charges:   -0.0000000

LOEWDIN ATOMIC CHARGES
----------------------
   0 O :   -0.008820
   1 C :   -0.306964
   2 C :   -0.219895
   3 C :   -0.183354
   4 C :   -0.143302
   5 C :   -0.170192
   6 C :   -0.200608
   7 C :   -0.201070
   8 N :    0.142729
   9 H :    0.177058
  10 H :    0.148721
  11 H :    0.149213
  12 H :    0.131557
  13 H :    0.136169
  14 H :    0.142017
  15 H :    0.141480
  16 H :    0.131429
  17 H :    0.133832

  Mayer bond orders larger than 0.1
B(  0-O ,  1-C ) :   0.9435 B(  0-O ,  9-H ) :   0.8388 B(  1-C ,  2-C ) :   0.9367
B(  1-C ,  5-C ) :   0.8998 B(  1-C , 10-H ) :   0.9259 B(  2-C ,  3-C ) :   0.8939
B(  2-C ,  8-N ) :   0.9091 B(  2-C , 11-H ) :   0.9446 B(  3-C ,  4-C ) :   0.9009
B(  3-C ,  8-N ) :   0.8750 B(  3-C , 12-H ) :   0.9036 B(  4-C ,  5-C ) :   0.9052
B(  4-C ,  7-C ) :   0.9408 B(  4-C , 13-H ) :   0.9126 B(  5-C ,  6-C ) :   0.9112
B(  5-C , 14-H ) :   0.9186 B(  6-C ,  7-C ) :   0.9364 B(  6-C , 15-H ) :   0.9142
B(  6-C , 16-H ) :   0.9119 B(  7-C ,  8-N ) :   0.8964 B(  7-C , 17-H ) :   0.9197

MP2 TOTAL ENERGY:     -401.204057267 Eh
FINAL SINGLE POINT ENERGY      -401.204057267056

DIPOLE MOMENT
-------------
                                X             Y             Z
Electronic contribution:     -1.98118       1.05701       0.71310
Nuclear contribution   :      2.18702      -0.97586      -1.44819
                        -----------------------------------------
Total Dipole Moment    :      0.20585       0.08115      -0.73510
                        -----------------------------------------
Magnitude (a.u.)       :      0.76768
Magnitude (Debye)      :      1.95128

                             ****ORCA TERMINATED NORMALLY****
TOTAL RUN TIME: 0 days 0 hours 19 minutes 37 seconds 409 msec
