                         Program Version 3.0.3 - RELEASE   -
|  1> ! RI-MP2 RIJK def2-TZVP def2-TZVP/C def2-TZVP/JK TIGHTSCF
|  2> % maxcore 2000
|  3> % mp2 density relaxed end
|  4> *xyz 0 1
|  5>  C        0.2620115394     1.4880070804    -0.0712042962
|  6>  C       -0.0966951767     0.0179099123     0.0308355362
|  7>  C       -1.4382637438    -0.3814632012     0.6750886961
|  8>  O       -0.7891411292    -1.3966933200     1.4764376096
|  9>  C        0.5227201014    -0.8654721554     1.1496410149
| 10>  C        1.4838985591    -1.8515055738     0.4863010091
| 11>  C        1.1578953125    -1.7591994719    -1.0007935761
| 12>  C       -0.2356213614    -2.0506759447    -1.4079960698
| 13>  N        0.2050745598    -0.6512991866    -1.2560285280
| 14>  H        1.3071595556     1.6068150287    -0.3740430953
| 15>  H       -0.3568241940     1.9806519248    -0.8273271178
| 16>  H        0.1172964430     1.9988922846     0.8859009915
| 17>  H       -1.8785837737     0.4037756422     1.3030419975
| 18>  H       -2.2087034405    -0.7941480102     0.0154834162
| 19>  H        0.9560229652    -0.3521550687     2.0162730406
| 20>  H        2.5181524981    -1.5423729834     0.6715698177
| 21>  H        1.3608996186    -2.8600869849     0.8930930612
| 22>  H        1.9717393565    -1.8682434965    -1.7124433021
| 23>  H       -0.4596383311    -2.3309168629    -2.4337563839
| 24>  H       -0.8860962288    -2.4921945727    -0.6588041315
| 25> *
| 26>
| 27>                          ****END OF INPUT****

CARTESIAN COORDINATES (ANGSTROEM)
---------------------------------
  C      0.262012    1.488007   -0.071204
  C     -0.096695    0.017910    0.030836
  C     -1.438264   -0.381463    0.675089
  O     -0.789141   -1.396693    1.476438
  C      0.522720   -0.865472    1.149641
  C      1.483899   -1.851506    0.486301
  C      1.157895   -1.759199   -1.000794
  C     -0.235621   -2.050676   -1.407996
  N      0.205075   -0.651299   -1.256029
  H      1.307160    1.606815   -0.374043
  H     -0.356824    1.980652   -0.827327
  H      0.117296    1.998892    0.885901
  H     -1.878584    0.403776    1.303042
  H     -2.208703   -0.794148    0.015483
  H      0.956023   -0.352155    2.016273
  H      2.518152   -1.542373    0.671570
  H      1.360900   -2.860087    0.893093
  H      1.971739   -1.868243   -1.712443
  H     -0.459638   -2.330917   -2.433756
  H     -0.886096   -2.492195   -0.658804

 Total Charge           Charge          ....    0
 Multiplicity           Mult            ....    1
 Number of Electrons    NEL             ....   68
 Basis Dimension        Dim             ....  345

ORBITAL ENERGIES
----------------

  NO   OCC          E(Eh)            E(eV)
   0   2.0000     -20.550040      -559.1950
   1   2.0000     -15.556936      -423.3258
   2   2.0000     -11.281270      -306.9790
   3   2.0000     -11.276455      -306.8479
   4   2.0000     -11.265395      -306.5470
   5   2.0000     -11.258091      -306.3482
   6   2.0000     -11.249040      -306.1020
   7   2.0000     -11.230478      -305.5968
   8   2.0000     -11.217735      -305.2501
   9   2.0000      -1.383017       -37.6338
  10   2.0000      -1.270882       -34.5825
  11   2.0000      -1.056839       -28.7580
  12   2.0000      -1.030648       -28.0454
  13   2.0000      -0.918638       -24.9974
  14   2.0000      -0.906736       -24.6736
  15   2.0000      -0.855387       -23.2763
  16   2.0000      -0.793153       -21.5828
  17   2.0000      -0.742184       -20.1959
  18   2.0000      -0.686091       -18.6695
  19   2.0000      -0.651341       -17.7239
  20   2.0000      -0.633568       -17.2403
  21   2.0000      -0.627150       -17.0656
  22   2.0000      -0.584580       -15.9072
  23   2.0000      -0.580241       -15.7892
  24   2.0000      -0.567028       -15.4296
  25   2.0000      -0.552192       -15.0259
  26   2.0000      -0.528137       -14.3713
  27   2.0000      -0.506351       -13.7785
  28   2.0000      -0.482662       -13.1339
  29   2.0000      -0.467274       -12.7152
  30   2.0000      -0.441475       -12.0131
  31   2.0000      -0.425893       -11.5891
  32   2.0000      -0.419300       -11.4097
  33   2.0000      -0.369249       -10.0478
  34   0.0000       0.137023         3.7286
  35   0.0000       0.157643         4.2897
  36   0.0000       0.170078         4.6281
  37   0.0000       0.180130         4.9016
  38   0.0000       0.185731         5.0540

MULLIKEN ATOMIC CHARGES
-----------------------
   0 C :   -0.413914
   1 C :    0.090079
   2 C :   -0.049301
   3 O :   -0.338501
   4 C :    0.058097
   5 C :   -0.236102
   6 C :   -0.033489
   7 C :   -0.218239
   8 N :   -0.223083
   9 H :    0.132959
  10 H :    0.139465
  11 H :    0.125131
  12 H :    0.103774
  13 H :    0.116522
  14 H :    0.095233
  15 H :    0.124691
  16 H :    0.128540
  17 H :    0.123604
  18 H :    0.127264
  19 H :    0.147270
Sum of atomic charges:    0.0000000

LOEWDIN ATOMIC CHARGES
----------------------
   0 C :   -0.271850
   1 C :   -0.298858
   2 C :   -0.236929
   3 O :    0.127849
   4 C :   -0.228499
   5 C :   -0.224100
   6 C :   -0.236340
   7 C :   -0.240030
   8 N :    0.149803
   9 H :    0.130066
  10 H :    0.131034
  11 H :    0.125008
  12 H :    0.123084
  13 H :    0.121766
  14 H :    0.135434
  15 H :    0.145307
  16 H :    0.150387
  17 H :    0.137055
  18 H :    0.124991
  19 H :    0.134822

  Mayer bond orders larger than 0.1
B(  0-C ,  1-C ) :   0.9052 B(  0-C ,  9-H ) :   0.9335 B(  0-C , 10-H ) :   0.9376
B(  0-C , 11-H ) :   0.9390 B(  1-C ,  2-C ) :   0.9735 B(  1-C ,  4-C ) :   0.9436
B(  1-C ,  8-N ) :   0.9215 B(  2-C ,  3-O ) :   0.9076 B(  2-C , 12-H ) :   0.9093
B(  2-C , 13-H ) :   0.9132 B(  3-O ,  4-C ) :   0.9659 B(  4-C ,  5-C ) :   0.9220
B(  4-C , 14-H ) :   0.9204 B(  5-C ,  6-C ) :   0.9499 B(  5-C , 15-H ) :   0.9182
B(  5-C , 16-H ) :   0.9012 B(  6-C ,  7-C ) :   0.9276 B(  6-C ,  8-N ) :   0.8868
B(  6-C , 17-H ) :   0.9204 B(  7-C ,  8-N ) :   0.8898 B(  7-C , 18-H ) :   0.9242
B(  7-C , 19-H ) :   0.9066

MP2 TOTAL ENERGY:     -402.425452517 Eh
FINAL SINGLE POINT ENERGY      -402.425452516654

DIPOLE MOMENT
-------------
                                X             Y             Z
Electronic contribution:     -0.94216      -2.43368       0.57658
Nuclear contribution   :      1.23928       2.59252      -0.53497
                        -----------------------------------------
Total Dipole Moment    :      0.29712       0.15884       0.04161
                        -----------------------------------------
Magnitude (a.u.)       :      0.33947
Magnitude (Debye)      :      0.86286

                             ****ORCA TERMINATED NORMALLY****
TOTAL RUN TIME: 0 days 0 hours 19 minutes 58 seconds 365 msec
