                         Program Version 3.0.3 - RELEASE   -
|  1> ! RI-MP2 RIJK def2-TZVP def2-TZVP/C def2-TZVP/JK TIGHTSCF
|  2> % maxcore 2000
|  3> % mp2 density relaxed end
|  4> *xyz 0 1
|  5>  C       -0.0962257050     1.4422470389    -0.0954454526
|  6>  C       -0.0412803875    -0.0239319169     0.1647112934
|  7>  C       -1.0132371126    -0.8938473791     0.4937317820
|  8>  C       -2.3635313290    -1.2229051134    -0.1143462247
|  9>  N       -1.6734082163    -2.3918996287    -0.7698041863
| 10>  C       -0.5356286179    -2.2924780820     0.2073106539
| 11>  C        0.9336981580    -2.1111125067    -0.2307017600
| 12>  O        1.7747575601    -2.9267090578    -0.5168760099
| 13>  N        1.1490324559    -0.7385045056    -0.0754501574
| 14>  H        0.5411282261     1.9992315605     0.6026863519
| 15>  H        0.2496037604     1.6764593196    -1.1093945164
| 16>  H       -1.1178232324     1.8098419605     0.0220545427
| 17>  H       -3.1336721315    -1.5214370466     0.6099035055
| 18>  H       -2.7939339822    -0.5025214501    -0.8172892103
| 19>  H       -2.1843444165    -3.2657014462    -0.6751205269
| 20>  H       -0.5742553909    -3.0408098207     1.0084825091
| 21>  H        2.0529099513    -0.3234778756    -0.2390338537
| 22> *
| 23>
| 24>                          ****END OF INPUT****

CARTESIAN COORDINATES (ANGSTROEM)
---------------------------------
  C     -0.096226    1.442247   -0.095445
  C     -0.041280   -0.023932    0.164711
  C     -1.013237   -0.893847    0.493732
  C     -2.363531   -1.222905   -0.114346
  N     -1.673408   -2.391900   -0.769804
  C     -0.535629   -2.292478    0.207311
  C      0.933698   -2.111113   -0.230702
  O      1.774758   -2.926709   -0.516876
  N      1.149032   -0.738505   -0.075450
  H      0.541128    1.999232    0.602686
  H      0.249604    1.676459   -1.109395
  H     -1.117823    1.809842    0.022055
  H     -3.133672   -1.521437    0.609904
  H     -2.793934   -0.502521   -0.817289
  H     -2.184344   -3.265701   -0.675121
  H     -0.574255   -3.040810    1.008483
  H      2.052910   -0.323478   -0.239034

 Total Charge           Charge          ....    0
 Multiplicity           Mult            ....    1
 Number of Electrons    NEL             ....   66
 Basis Dimension        Dim             ....  327

ORBITAL ENERGIES
----------------

  NO   OCC          E(Eh)            E(eV)
   0   2.0000     -20.530262      -558.6568
   1   2.0000     -15.598391      -424.4538
   2   2.0000     -15.564928      -423.5432
   3   2.0000     -11.354064      -308.9598
   4   2.0000     -11.298127      -307.4377
   5   2.0000     -11.274423      -306.7927
   6   2.0000     -11.271623      -306.7165
   7   2.0000     -11.249868      -306.1245
   8   2.0000     -11.224006      -305.4207
   9   2.0000      -1.391791       -37.8726
  10   2.0000      -1.283544       -34.9270
  11   2.0000      -1.228561       -33.4308
  12   2.0000      -1.051495       -28.6126
  13   2.0000      -1.000418       -27.2228
  14   2.0000      -0.947252       -25.7760
  15   2.0000      -0.875417       -23.8213
  16   2.0000      -0.797735       -21.7075
  17   2.0000      -0.755079       -20.5467
  18   2.0000      -0.701466       -19.0879
  19   2.0000      -0.676013       -18.3952
  20   2.0000      -0.637446       -17.3458
  21   2.0000      -0.618025       -16.8173
  22   2.0000      -0.602718       -16.4008
  23   2.0000      -0.586050       -15.9472
  24   2.0000      -0.571489       -15.5510
  25   2.0000      -0.565838       -15.3972
  26   2.0000      -0.530836       -14.4448
  27   2.0000      -0.527867       -14.3640
  28   2.0000      -0.486695       -13.2436
  29   2.0000      -0.461461       -12.5570
  30   2.0000      -0.430063       -11.7026
  31   2.0000      -0.395739       -10.7686
  32   2.0000      -0.315821        -8.5939
  33   0.0000       0.116557         3.1717
  34   0.0000       0.121611         3.3092
  35   0.0000       0.143063         3.8929
  36   0.0000       0.164847         4.4857
  37   0.0000       0.177996         4.8435

MULLIKEN ATOMIC CHARGES
-----------------------
   0 C :   -0.427910
   1 C :    0.042071
   2 C :    0.019230
   3 C :   -0.134415
   4 N :   -0.334404
   5 C :   -0.015559
   6 C :    0.187764
   7 O :   -0.308029
   8 N :   -0.289104
   9 H :    0.154756
  10 H :    0.149912
  11 H :    0.147061
  12 H :    0.118798
  13 H :    0.113099
  14 H :    0.208008
  15 H :    0.127481
  16 H :    0.241240
Sum of atomic charges:   -0.0000000

LOEWDIN ATOMIC CHARGES
----------------------
   0 C :   -0.268501
   1 C :   -0.215764
   2 C :   -0.158029
   3 C :   -0.230155
   4 N :    0.005204
   5 C :   -0.187425
   6 C :   -0.383584
   7 O :    0.109646
   8 N :    0.173292
   9 H :    0.136908
  10 H :    0.134581
  11 H :    0.139145
  12 H :    0.123253
  13 H :    0.123836
  14 H :    0.158568
  15 H :    0.150986
  16 H :    0.188039

  Mayer bond orders larger than 0.1
B(  0-C ,  1-C ) :   0.8746 B(  0-C ,  9-H ) :   0.9265 B(  0-C , 10-H ) :   0.9298
B(  0-C , 11-H ) :   0.9417 B(  1-C ,  2-C ) :   1.7144 B(  1-C ,  8-N ) :   1.0132
B(  2-C ,  3-C ) :   0.9180 B(  2-C ,  5-C ) :   0.9492 B(  3-C ,  4-N ) :   0.9567
B(  3-C , 12-H ) :   0.9151 B(  3-C , 13-H ) :   0.9126 B(  4-N ,  5-C ) :   0.9845
B(  4-N , 14-H ) :   0.8744 B(  5-C ,  6-C ) :   0.8635 B(  5-C , 15-H ) :   0.9072
B(  6-C ,  7-O ) :   2.0293 B(  6-C ,  8-N ) :   1.1026 B(  8-N , 16-H ) :   0.8663

MP2 TOTAL ENERGY:     -417.287988224 Eh
FINAL SINGLE POINT ENERGY      -417.287988224484

DIPOLE MOMENT
-------------
                                X             Y             Z
Electronic contribution:      4.36028      -5.21495       0.05682
Nuclear contribution   :     -5.08741       6.37899       0.37355
                        -----------------------------------------
Total Dipole Moment    :     -0.72714       1.16404       0.43036
                        -----------------------------------------
Magnitude (a.u.)       :      1.43838
Magnitude (Debye)      :      3.65607

                             ****ORCA TERMINATED NORMALLY****
TOTAL RUN TIME: 0 days 0 hours 16 minutes 52 seconds 682 msec
