                         Program Version 3.0.3 - RELEASE   -
|  1> ! RI-MP2 RIJK def2-TZVP def2-TZVP/C def2-TZVP/JK TIGHTSCF
|  2> % maxcore 2000
|  3> % mp2 density relaxed end
|  4> *xyz 0 1
|  5>  O       -0.2264554777     1.5491033794     0.2212175054
|  6>  C       -0.0034937902     0.1594339964     0.0336565668
|  7>  C       -1.3523294482    -0.5328790270     0.1556222037
|  8>  C       -1.2723922963    -2.0392533596    -0.0147958382
|  9>  O       -0.2251389121    -2.6383634294    -0.0825506062
| 10>  C       -2.6159030231    -2.7536852154    -0.1444606431
| 11>  C       -3.0762444744    -2.9451348964    -1.6189000260
| 12>  C       -2.8871545916    -4.4451318284    -1.3114519683
| 13>  O       -2.5354989303    -4.1667150271     0.0601333457
| 14>  H        0.6237438459     1.9958952102     0.1755705453
| 15>  H        0.4327558028    -0.0531054445    -0.9535692974
| 16>  H        0.6863122142    -0.2505891768     0.7837324662
| 17>  H       -1.7921390050    -0.3181832371     1.1393691263
| 18>  H       -2.0607745919    -0.1167821335    -0.5735885874
| 19>  H       -3.3575320546    -2.2832602644     0.5152527336
| 20>  H       -4.1011514486    -2.6327695337    -1.8203567985
| 21>  H       -2.4116256304    -2.5286193825    -2.3774679612
| 22>  H       -3.7878365963    -5.0652931241    -1.3834502000
| 23>  H       -2.0669008523    -4.9344544061    -1.8484212868
| 24> *
| 25>
| 26>                          ****END OF INPUT****

CARTESIAN COORDINATES (ANGSTROEM)
---------------------------------
  O     -0.226455    1.549103    0.221218
  C     -0.003494    0.159434    0.033657
  C     -1.352329   -0.532879    0.155622
  C     -1.272392   -2.039253   -0.014796
  O     -0.225139   -2.638363   -0.082551
  C     -2.615903   -2.753685   -0.144461
  C     -3.076244   -2.945135   -1.618900
  C     -2.887155   -4.445132   -1.311452
  O     -2.535499   -4.166715    0.060133
  H      0.623744    1.995895    0.175571
  H      0.432756   -0.053105   -0.953569
  H      0.686312   -0.250589    0.783732
  H     -1.792139   -0.318183    1.139369
  H     -2.060775   -0.116782   -0.573589
  H     -3.357532   -2.283260    0.515253
  H     -4.101151   -2.632770   -1.820357
  H     -2.411626   -2.528619   -2.377468
  H     -3.787837   -5.065293   -1.383450
  H     -2.066901   -4.934454   -1.848421

 Total Charge           Charge          ....    0
 Multiplicity           Mult            ....    1
 Number of Electrons    NEL             ....   70
 Basis Dimension        Dim             ....  339

ORBITAL ENERGIES
----------------

  NO   OCC          E(Eh)            E(eV)
   0   2.0000     -20.562224      -559.5266
   1   2.0000     -20.556101      -559.3599
   2   2.0000     -20.549756      -559.1873
   3   2.0000     -11.332233      -308.3657
   4   2.0000     -11.300120      -307.4919
   5   2.0000     -11.286848      -307.1308
   6   2.0000     -11.282652      -307.0166
   7   2.0000     -11.248697      -306.0926
   8   2.0000     -11.243095      -305.9402
   9   2.0000      -1.404793       -38.2264
  10   2.0000      -1.379074       -37.5265
  11   2.0000      -1.366247       -37.1775
  12   2.0000      -1.063269       -28.9330
  13   2.0000      -1.023942       -27.8629
  14   2.0000      -0.970334       -26.4041
  15   2.0000      -0.876024       -23.8378
  16   2.0000      -0.801832       -21.8190
  17   2.0000      -0.741644       -20.1812
  18   2.0000      -0.720250       -19.5990
  19   2.0000      -0.688228       -18.7276
  20   2.0000      -0.676028       -18.3957
  21   2.0000      -0.663655       -18.0590
  22   2.0000      -0.626737       -17.0544
  23   2.0000      -0.616825       -16.7847
  24   2.0000      -0.583430       -15.8759
  25   2.0000      -0.579464       -15.7680
  26   2.0000      -0.567789       -15.4503
  27   2.0000      -0.550072       -14.9682
  28   2.0000      -0.510432       -13.8896
  29   2.0000      -0.499711       -13.5978
  30   2.0000      -0.483687       -13.1618
  31   2.0000      -0.470994       -12.8164
  32   2.0000      -0.451061       -12.2740
  33   2.0000      -0.443542       -12.0694
  34   2.0000      -0.400538       -10.8992
  35   0.0000       0.123700         3.3661
  36   0.0000       0.134090         3.6488
  37   0.0000       0.141565         3.8522
  38   0.0000       0.155903         4.2423
  39   0.0000       0.164530         4.4771

MULLIKEN ATOMIC CHARGES
-----------------------
   0 O :   -0.467567
   1 C :   -0.060537
   2 C :   -0.235526
   3 C :    0.106579
   4 O :   -0.278395
   5 C :    0.169164
   6 C :   -0.313067
   7 C :   -0.006247
   8 O :   -0.320848
   9 H :    0.319122
  10 H :    0.101402
  11 H :    0.113625
  12 H :    0.144703
  13 H :    0.142066
  14 H :    0.113437
  15 H :    0.133329
  16 H :    0.134799
  17 H :    0.100575
  18 H :    0.103389
Sum of atomic charges:    0.0000000

LOEWDIN ATOMIC CHARGES
----------------------
   0 O :   -0.052951
   1 C :   -0.342798
   2 C :   -0.242676
   3 C :   -0.314369
   4 O :    0.167787
   5 C :   -0.265762
   6 C :   -0.216700
   7 C :   -0.263842
   8 O :    0.154930
   9 H :    0.173728
  10 H :    0.119555
  11 H :    0.122283
  12 H :    0.158581
  13 H :    0.155541
  14 H :    0.142587
  15 H :    0.132269
  16 H :    0.134841
  17 H :    0.116509
  18 H :    0.120486

  Mayer bond orders larger than 0.1
B(  0-O ,  1-C ) :   1.0160 B(  0-O ,  9-H ) :   0.8484 B(  1-C ,  2-C ) :   0.9418
B(  1-C , 10-H ) :   0.9345 B(  1-C , 11-H ) :   0.9316 B(  2-C ,  3-C ) :   0.9024
B(  2-C , 12-H ) :   0.8952 B(  2-C , 13-H ) :   0.9070 B(  3-C ,  4-O ) :   2.0048
B(  3-C ,  5-C ) :   0.8827 B(  5-C ,  6-C ) :   0.9000 B(  5-C ,  8-O ) :   0.9623
B(  5-C , 14-H ) :   0.9013 B(  6-C ,  7-C ) :   0.9863 B(  6-C , 15-H ) :   0.9267
B(  6-C , 16-H ) :   0.9191 B(  7-C ,  8-O ) :   0.9413 B(  7-C , 17-H ) :   0.9167
B(  7-C , 18-H ) :   0.9133

MP2 TOTAL ENERGY:     -459.409232166 Eh
FINAL SINGLE POINT ENERGY      -459.409232165808

DIPOLE MOMENT
-------------
                                X             Y             Z
Electronic contribution:      1.82147      -2.30263       2.50973
Nuclear contribution   :     -2.26323       2.93183      -3.19200
                        -----------------------------------------
Total Dipole Moment    :     -0.44176       0.62921      -0.68227
                        -----------------------------------------
Magnitude (a.u.)       :      1.02788
Magnitude (Debye)      :      2.61267

                             ****ORCA TERMINATED NORMALLY****
TOTAL RUN TIME: 0 days 0 hours 14 minutes 54 seconds 800 msec
