                         Program Version 3.0.3 - RELEASE   -
|  1> ! RI-MP2 RIJK def2-TZVP def2-TZVP/C def2-TZVP/JK TIGHTSCF
|  2> % maxcore 2000
|  3> % mp2 density relaxed end
|  4> *xyz 0 1
|  5>  C       -0.0600666043     1.4393457986    -0.0422914056
|  6>  N       -0.0918288343    -0.0086178406     0.0036753896
|  7>  C        0.5289492153    -0.6294428214    -0.9089616275
|  8>  N        0.5478841033    -2.0244022041    -0.9384965266
|  9>  C       -0.1693400059    -2.7369263334     0.1138606431
| 10>  C        1.2464075797    -2.6483117926    -1.9630075887
| 11>  O        1.8403595402    -2.0390331456    -2.8326435001
| 12>  C        1.2387590965    -4.1024899518    -1.9538596887
| 13>  C        1.3030603235    -5.2997881953    -2.0492236694
| 14>  H        0.5173012351     1.8463499591    -0.8868075783
| 15>  H       -1.0841624122     1.8253931811    -0.1028832420
| 16>  H        0.3681733044     1.8250770862     0.8900368669
| 17>  H        1.0883538299    -0.1773615991    -1.7301829424
| 18>  H       -1.2260698926    -2.4591412339     0.0966838911
| 19>  H       -0.0635346480    -3.8084499930    -0.0418613356
| 20>  H        0.2331202292    -2.4594756690     1.0912227697
| 21>  H        1.3586034302    -6.3581051253    -2.1322928655
| 22> *
| 23>
| 24>                          ****END OF INPUT****

CARTESIAN COORDINATES (ANGSTROEM)
---------------------------------
  C     -0.060067    1.439346   -0.042291
  N     -0.091829   -0.008618    0.003675
  C      0.528949   -0.629443   -0.908962
  N      0.547884   -2.024402   -0.938497
  C     -0.169340   -2.736926    0.113861
  C      1.246408   -2.648312   -1.963008
  O      1.840360   -2.039033   -2.832644
  C      1.238759   -4.102490   -1.953860
  C      1.303060   -5.299788   -2.049224
  H      0.517301    1.846350   -0.886808
  H     -1.084162    1.825393   -0.102883
  H      0.368173    1.825077    0.890037
  H      1.088354   -0.177362   -1.730183
  H     -1.226070   -2.459141    0.096684
  H     -0.063535   -3.808450   -0.041861
  H      0.233120   -2.459476    1.091223
  H      1.358603   -6.358105   -2.132293

 Total Charge           Charge          ....    0
 Multiplicity           Mult            ....    1
 Number of Electrons    NEL             ....   66
 Basis Dimension        Dim             ....  327

ORBITAL ENERGIES
----------------

  NO   OCC          E(Eh)            E(eV)
   0   2.0000     -20.546596      -559.1013
   1   2.0000     -15.617933      -424.9856
   2   2.0000     -15.552470      -423.2042
   3   2.0000     -11.396611      -310.1176
   4   2.0000     -11.313834      -307.8651
   5   2.0000     -11.270940      -306.6979
   6   2.0000     -11.268559      -306.6331
   7   2.0000     -11.263733      -306.5018
   8   2.0000     -11.249004      -306.1010
   9   2.0000      -1.414285       -38.4846
  10   2.0000      -1.297578       -35.3089
  11   2.0000      -1.207050       -32.8455
  12   2.0000      -1.070805       -29.1381
  13   2.0000      -0.978664       -26.6308
  14   2.0000      -0.965156       -26.2632
  15   2.0000      -0.895045       -24.3554
  16   2.0000      -0.781801       -21.2739
  17   2.0000      -0.753898       -20.5146
  18   2.0000      -0.727339       -19.7919
  19   2.0000      -0.683796       -18.6070
  20   2.0000      -0.656004       -17.8508
  21   2.0000      -0.638054       -17.3623
  22   2.0000      -0.610781       -16.6202
  23   2.0000      -0.587294       -15.9811
  24   2.0000      -0.576823       -15.6962
  25   2.0000      -0.567967       -15.4552
  26   2.0000      -0.544557       -14.8181
  27   2.0000      -0.477384       -12.9903
  28   2.0000      -0.473021       -12.8715
  29   2.0000      -0.428449       -11.6587
  30   2.0000      -0.426075       -11.5941
  31   2.0000      -0.416294       -11.3279
  32   2.0000      -0.366154        -9.9636
  33   0.0000       0.080884         2.2010
  34   0.0000       0.145755         3.9662
  35   0.0000       0.148202         4.0328
  36   0.0000       0.154839         4.2134
  37   0.0000       0.163559         4.4507

MULLIKEN ATOMIC CHARGES
-----------------------
   0 C :   -0.263234
   1 N :   -0.242090
   2 C :    0.005276
   3 N :   -0.075940
   4 C :   -0.305679
   5 C :    0.176184
   6 O :   -0.331078
   7 C :   -0.049160
   8 C :   -0.101839
   9 H :    0.100973
  10 H :    0.139037
  11 H :    0.139054
  12 H :    0.142359
  13 H :    0.148563
  14 H :    0.165866
  15 H :    0.148619
  16 H :    0.203089
Sum of atomic charges:    0.0000000

LOEWDIN ATOMIC CHARGES
----------------------
   0 C :   -0.334148
   1 N :    0.062861
   2 C :   -0.267786
   3 N :    0.201417
   4 C :   -0.269129
   5 C :   -0.408722
   6 O :    0.126790
   7 C :   -0.063354
   8 C :   -0.045920
   9 H :    0.105670
  10 H :    0.118625
  11 H :    0.118609
  12 H :    0.138677
  13 H :    0.125575
  14 H :    0.132457
  15 H :    0.125588
  16 H :    0.132790

  Mayer bond orders larger than 0.1
B(  0-C ,  1-N ) :   0.8925 B(  0-C ,  9-H ) :   0.9284 B(  0-C , 10-H ) :   0.9320
B(  0-C , 11-H ) :   0.9320 B(  1-N ,  2-C ) :   1.8122 B(  2-C ,  3-N ) :   0.9991
B(  2-C , 12-H ) :   0.9094 B(  3-N ,  4-C ) :   0.8780 B(  3-N ,  5-C ) :   1.1650
B(  4-C , 13-H ) :   0.9304 B(  4-C , 14-H ) :   0.9132 B(  4-C , 15-H ) :   0.9303
B(  5-C ,  6-O ) :   1.8754 B(  5-C ,  7-C ) :   1.0736 B(  7-C ,  8-C ) :   2.6203
B(  8-C , 16-H ) :   0.8884

MP2 TOTAL ENERGY:     -417.273089540 Eh
FINAL SINGLE POINT ENERGY      -417.273089540498

DIPOLE MOMENT
-------------
                                X             Y             Z
Electronic contribution:      3.65365      -5.75828      -5.36473
Nuclear contribution   :     -4.07738       5.28534       5.98427
                        -----------------------------------------
Total Dipole Moment    :     -0.42373      -0.47295       0.61953
                        -----------------------------------------
Magnitude (a.u.)       :      0.88716
Magnitude (Debye)      :      2.25497

                             ****ORCA TERMINATED NORMALLY****
TOTAL RUN TIME: 0 days 0 hours 14 minutes 56 seconds 364 msec
