                         Program Version 3.0.3 - RELEASE   -
|  1> ! RI-MP2 RIJK def2-TZVP def2-TZVP/C def2-TZVP/JK TIGHTSCF
|  2> % maxcore 2000
|  3> % mp2 density relaxed end
|  4> *xyz 0 1
|  5>  C        0.4926653262     1.4860863233    -0.1550186018
|  6>  N        0.2190687139     0.0639652172    -0.1914256753
|  7>  C       -0.6346030291    -0.5460614413     0.6853442324
|  8>  O       -1.2363653830     0.0778701695     1.5504989891
|  9>  C       -0.7489389860    -2.0275731575     0.4622922583
| 10>  C       -0.9406080217    -2.9892063265     1.6133922425
| 11>  C       -1.0134262030    -2.5599365182     3.0626768327
| 12>  N       -1.9990385392    -2.7749905046     0.6457993159
| 13>  C       -3.2415270409    -2.1016002710     1.0188060056
| 14>  H        1.5577990933     1.6836927576     0.0103455446
| 15>  H        0.1868058002     1.9760037071    -1.0864407668
| 16>  H       -0.0811843730     1.9055254479     0.6719500423
| 17>  H        0.6687182746    -0.4964068809    -0.8954337305
| 18>  H       -0.1690349748    -2.3851306918    -0.3893709435
| 19>  H       -0.4503741668    -3.9546214352     1.4764095892
| 20>  H       -1.3395621029    -1.5267737336     3.1715367513
| 21>  H       -1.6963969717    -3.2162556921     3.6137896874
| 22>  H       -0.0242677834    -2.6583678332     3.5223871302
| 23>  H       -3.1202340452    -1.2336342509     1.6717582424
| 24>  H       -3.7400033848    -1.7747780956     0.1005998330
| 25>  H       -3.8877915327    -2.8400276402     1.5038472011
| 26> *
| 27>
| 28>                          ****END OF INPUT****

CARTESIAN COORDINATES (ANGSTROEM)
---------------------------------
  C      0.492665    1.486086   -0.155019
  N      0.219069    0.063965   -0.191426
  C     -0.634603   -0.546061    0.685344
  O     -1.236365    0.077870    1.550499
  C     -0.748939   -2.027573    0.462292
  C     -0.940608   -2.989206    1.613392
  C     -1.013426   -2.559937    3.062677
  N     -1.999039   -2.774991    0.645799
  C     -3.241527   -2.101600    1.018806
  H      1.557799    1.683693    0.010346
  H      0.186806    1.976004   -1.086441
  H     -0.081184    1.905525    0.671950
  H      0.668718   -0.496407   -0.895434
  H     -0.169035   -2.385131   -0.389371
  H     -0.450374   -3.954621    1.476410
  H     -1.339562   -1.526774    3.171537
  H     -1.696397   -3.216256    3.613790
  H     -0.024268   -2.658368    3.522387
  H     -3.120234   -1.233634    1.671758
  H     -3.740003   -1.774778    0.100600
  H     -3.887792   -2.840028    1.503847

 Total Charge           Charge          ....    0
 Multiplicity           Mult            ....    1
 Number of Electrons    NEL             ....   70
 Basis Dimension        Dim             ....  351

ORBITAL ENERGIES
----------------

  NO   OCC          E(Eh)            E(eV)
   0   2.0000     -20.513792      -558.2087
   1   2.0000     -15.586544      -424.1314
   2   2.0000     -15.561998      -423.4635
   3   2.0000     -11.352363      -308.9135
   4   2.0000     -11.267873      -306.6144
   5   2.0000     -11.266839      -306.5863
   6   2.0000     -11.259469      -306.3857
   7   2.0000     -11.234135      -305.6964
   8   2.0000     -11.212390      -305.1046
   9   2.0000      -1.381482       -37.5920
  10   2.0000      -1.272093       -34.6154
  11   2.0000      -1.230320       -33.4787
  12   2.0000      -1.011475       -27.5236
  13   2.0000      -0.987299       -26.8658
  14   2.0000      -0.949947       -25.8494
  15   2.0000      -0.864175       -23.5154
  16   2.0000      -0.784929       -21.3590
  17   2.0000      -0.774172       -21.0663
  18   2.0000      -0.701795       -19.0968
  19   2.0000      -0.671442       -18.2709
  20   2.0000      -0.639718       -17.4076
  21   2.0000      -0.626461       -17.0469
  22   2.0000      -0.606300       -16.4983
  23   2.0000      -0.590920       -16.0798
  24   2.0000      -0.578158       -15.7325
  25   2.0000      -0.549182       -14.9440
  26   2.0000      -0.544500       -14.8166
  27   2.0000      -0.541693       -14.7402
  28   2.0000      -0.533146       -14.5077
  29   2.0000      -0.524942       -14.2844
  30   2.0000      -0.459573       -12.5056
  31   2.0000      -0.447101       -12.1662
  32   2.0000      -0.418423       -11.3859
  33   2.0000      -0.394657       -10.7392
  34   2.0000      -0.360594        -9.8122
  35   0.0000       0.127232         3.4622
  36   0.0000       0.152925         4.1613
  37   0.0000       0.161809         4.4031
  38   0.0000       0.165852         4.5131
  39   0.0000       0.184179         5.0118

MULLIKEN ATOMIC CHARGES
-----------------------
   0 C :   -0.285844
   1 N :   -0.312625
   2 C :    0.323012
   3 O :   -0.424068
   4 C :   -0.106138
   5 C :   -0.011467
   6 C :   -0.417378
   7 N :   -0.219473
   8 C :   -0.314098
   9 H :    0.134129
  10 H :    0.134942
  11 H :    0.178381
  12 H :    0.236872
  13 H :    0.104042
  14 H :    0.115910
  15 H :    0.177401
  16 H :    0.131485
  17 H :    0.130529
  18 H :    0.159522
  19 H :    0.132507
  20 H :    0.132360
Sum of atomic charges:   -0.0000000

LOEWDIN ATOMIC CHARGES
----------------------
   0 C :   -0.314315
   1 N :    0.085628
   2 C :   -0.442486
   3 O :    0.065428
   4 C :   -0.216189
   5 C :   -0.251401
   6 C :   -0.297544
   7 N :    0.115978
   8 C :   -0.323273
   9 H :    0.115210
  10 H :    0.115489
  11 H :    0.134767
  12 H :    0.182815
  13 H :    0.141747
  14 H :    0.142638
  15 H :    0.134858
  16 H :    0.127721
  17 H :    0.129859
  18 H :    0.115785
  19 H :    0.118810
  20 H :    0.118475

  Mayer bond orders larger than 0.1
B(  0-C ,  1-N ) :   0.8461 B(  0-C ,  9-H ) :   0.9347 B(  0-C , 10-H ) :   0.9353
B(  0-C , 11-H ) :   0.9265 B(  1-N ,  2-C ) :   1.1795 B(  1-N , 12-H ) :   0.8767
B(  2-C ,  3-O ) :   1.7985 B(  2-C ,  4-C ) :   0.9385 B(  4-C ,  5-C ) :   0.9197
B(  4-C ,  7-N ) :   0.9297 B(  4-C , 13-H ) :   0.8941 B(  5-C ,  6-C ) :   0.9012
B(  5-C ,  7-N ) :   0.9066 B(  5-C , 14-H ) :   0.9179 B(  6-C , 15-H ) :   0.9285
B(  6-C , 16-H ) :   0.9305 B(  6-C , 17-H ) :   0.9303 B(  7-N ,  8-C ) :   0.8767
B(  8-C , 18-H ) :   0.9234 B(  8-C , 19-H ) :   0.9382 B(  8-C , 20-H ) :   0.9334

MP2 TOTAL ENERGY:     -419.696836761 Eh
FINAL SINGLE POINT ENERGY      -419.696836760786

DIPOLE MOMENT
-------------
                                X             Y             Z
Electronic contribution:      0.78718      -0.07288      -2.17959
Nuclear contribution   :      0.06956       0.12485       1.56814
                        -----------------------------------------
Total Dipole Moment    :      0.85674       0.05198      -0.61144
                        -----------------------------------------
Magnitude (a.u.)       :      1.05384
Magnitude (Debye)      :      2.67864

                             ****ORCA TERMINATED NORMALLY****
TOTAL RUN TIME: 0 days 0 hours 17 minutes 54 seconds 977 msec
