                         Program Version 3.0.3 - RELEASE   -
|  1> ! RI-MP2 RIJK def2-TZVP def2-TZVP/C def2-TZVP/JK TIGHTSCF
|  2> % maxcore 2000
|  3> % mp2 density relaxed end
|  4> *xyz 0 1
|  5>  C       -0.0218273667     1.4319551727     0.0279003405
|  6>  N       -0.0173307594    -0.0196015067     0.0224685241
|  7>  C       -0.0466880161    -0.7842278867    -1.1097357655
|  8>  C       -0.0282781986    -2.1300277787    -0.7507448949
|  9>  N       -0.1217722203    -3.2240362512    -1.6252425686
| 10>  C        0.0130602146    -2.1698519366     0.6542265905
| 11>  C        0.0196328754    -0.8559069319     1.1216794230
| 12>  C        0.0625821571    -0.3844445639     2.4877449384
| 13>  O        0.0999073023    -1.1074182830     3.4654396676
| 14>  H        0.8789954313     1.8314283002     0.5032691861
| 15>  H       -0.0508620682     1.7820484463    -1.0051321201
| 16>  H       -0.8988859151     1.8250100028     0.5506347145
| 17>  H       -0.0838804247    -0.3242383843    -2.0852644193
| 18>  H        0.2956242964    -3.0486272770    -2.5297671600
| 19>  H        0.2779767748    -4.0662225552    -1.2331723672
| 20>  H        0.0337528801    -3.0415189620     1.2900564827
| 21>  H        0.0593430171     0.7230113754     2.6059809581
| 22> *
| 23>
| 24>                          ****END OF INPUT****

CARTESIAN COORDINATES (ANGSTROEM)
---------------------------------
  C     -0.021827    1.431955    0.027900
  N     -0.017331   -0.019602    0.022469
  C     -0.046688   -0.784228   -1.109736
  C     -0.028278   -2.130028   -0.750745
  N     -0.121772   -3.224036   -1.625243
  C      0.013060   -2.169852    0.654227
  C      0.019633   -0.855907    1.121679
  C      0.062582   -0.384445    2.487745
  O      0.099907   -1.107418    3.465440
  H      0.878995    1.831428    0.503269
  H     -0.050862    1.782048   -1.005132
  H     -0.898886    1.825010    0.550635
  H     -0.083880   -0.324238   -2.085264
  H      0.295624   -3.048627   -2.529767
  H      0.277977   -4.066223   -1.233172
  H      0.033753   -3.041519    1.290056
  H      0.059343    0.723011    2.605981

 Total Charge           Charge          ....    0
 Multiplicity           Mult            ....    1
 Number of Electrons    NEL             ....   66
 Basis Dimension        Dim             ....  327

ORBITAL ENERGIES
----------------

  NO   OCC          E(Eh)            E(eV)
   0   2.0000     -20.537454      -558.8525
   1   2.0000     -15.625559      -425.1931
   2   2.0000     -15.560953      -423.4350
   3   2.0000     -11.327005      -308.2235
   4   2.0000     -11.287747      -307.1552
   5   2.0000     -11.263772      -306.5028
   6   2.0000     -11.262504      -306.4683
   7   2.0000     -11.258324      -306.3546
   8   2.0000     -11.226303      -305.4832
   9   2.0000      -1.374603       -37.4049
  10   2.0000      -1.317844       -35.8604
  11   2.0000      -1.206663       -32.8350
  12   2.0000      -1.076125       -29.2828
  13   2.0000      -1.012090       -27.5404
  14   2.0000      -0.945295       -25.7228
  15   2.0000      -0.866485       -23.5783
  16   2.0000      -0.786654       -21.4059
  17   2.0000      -0.754734       -20.5374
  18   2.0000      -0.713904       -19.4263
  19   2.0000      -0.667868       -18.1736
  20   2.0000      -0.652691       -17.7606
  21   2.0000      -0.651656       -17.7324
  22   2.0000      -0.617259       -16.7965
  23   2.0000      -0.609334       -16.5808
  24   2.0000      -0.589946       -16.0532
  25   2.0000      -0.560912       -15.2632
  26   2.0000      -0.553432       -15.0597
  27   2.0000      -0.536625       -14.6023
  28   2.0000      -0.518994       -14.1226
  29   2.0000      -0.471701       -12.8356
  30   2.0000      -0.421596       -11.4722
  31   2.0000      -0.332174        -9.0389
  32   2.0000      -0.289705        -7.8833
  33   0.0000       0.079829         2.1723
  34   0.0000       0.125460         3.4139
  35   0.0000       0.135103         3.6763
  36   0.0000       0.161095         4.3836
  37   0.0000       0.182492         4.9659

MULLIKEN ATOMIC CHARGES
-----------------------
   0 C :   -0.347273
   1 N :    0.005257
   2 C :   -0.210090
   3 C :    0.227723
   4 N :   -0.521170
   5 C :   -0.326170
   6 C :    0.102668
   7 C :    0.046497
   8 O :   -0.301961
   9 H :    0.161825
  10 H :    0.152711
  11 H :    0.163168
  12 H :    0.145333
  13 H :    0.242769
  14 H :    0.249496
  15 H :    0.140142
  16 H :    0.069077
Sum of atomic charges:    0.0000000

LOEWDIN ATOMIC CHARGES
----------------------
   0 C :   -0.268251
   1 N :    0.258403
   2 C :   -0.194638
   3 C :   -0.270069
   4 N :   -0.093016
   5 C :   -0.119537
   6 C :   -0.229371
   7 C :   -0.302190
   8 O :    0.104872
   9 H :    0.125632
  10 H :    0.129745
  11 H :    0.126074
  12 H :    0.135200
  13 H :    0.165687
  14 H :    0.168963
  15 H :    0.148810
  16 H :    0.113688

  Mayer bond orders larger than 0.1
B(  0-C ,  1-N ) :   0.8493 B(  0-C ,  9-H ) :   0.9284 B(  0-C , 10-H ) :   0.9301
B(  0-C , 11-H ) :   0.9281 B(  1-N ,  2-C ) :   1.1702 B(  1-N ,  6-C ) :   1.1350
B(  2-C ,  3-C ) :   1.3609 B(  2-C , 12-H ) :   0.9021 B(  3-C ,  4-N ) :   0.9983
B(  3-C ,  5-C ) :   1.3294 B(  4-N , 13-H ) :   0.8791 B(  4-N , 14-H ) :   0.8804
B(  5-C ,  6-C ) :   1.3263 B(  5-C , 15-H ) :   0.9360 B(  6-C ,  7-C ) :   0.8753
B(  6-C ,  8-O ) :  -0.1458 B(  6-C , 16-H ) :  -0.1213 B(  7-C ,  8-O ) :   1.9909
B(  7-C , 16-H ) :   0.9947

MP2 TOTAL ENERGY:     -417.336244169 Eh
FINAL SINGLE POINT ENERGY      -417.336244168817

DIPOLE MOMENT
-------------
                                X             Y             Z
Electronic contribution:     -0.06775      -2.66996       3.72916
Nuclear contribution   :      0.47214       3.57385      -5.39988
                        -----------------------------------------
Total Dipole Moment    :      0.40439       0.90389      -1.67072
                        -----------------------------------------
Magnitude (a.u.)       :      1.94213
Magnitude (Debye)      :      4.93650

                             ****ORCA TERMINATED NORMALLY****
TOTAL RUN TIME: 0 days 0 hours 16 minutes 15 seconds 422 msec
