                         Program Version 3.0.3 - RELEASE   -
|  1> ! RI-MP2 RIJK def2-TZVP def2-TZVP/C def2-TZVP/JK TIGHTSCF
|  2> % maxcore 2000
|  3> % mp2 density relaxed end
|  4> *xyz 0 1
|  5>  C       -0.3774443750     1.4194906683    -0.1005093390
|  6>  N        0.0286593405     0.0247955284    -0.0242098122
|  7>  C        1.4206725325    -0.2972065748    -0.3040747236
|  8>  C        0.8729806115    -0.4454913319     1.0759158320
|  9>  C        1.3620027858     0.4429199980     2.1922591447
| 10>  C        0.6135373736     0.4133476597     3.5418856369
| 11>  O        1.8102703739    -0.1019716493     4.2094310607
| 12>  C        2.5198046003    -0.1243786599     3.0350070769
| 13>  O        3.6360503245    -0.4902600396     2.8633107329
| 14>  H        0.4114177783     2.1468062389     0.1500516081
| 15>  H       -0.7022240897     1.6280308917    -1.1244783248
| 16>  H       -1.2300385576     1.5895791425     0.5651487715
| 17>  H        1.6021652144    -1.1709515991    -0.9235913095
| 18>  H        2.1123050117     0.5287471440    -0.4703713896
| 19>  H        0.6058288211    -1.4475793574     1.4107686425
| 20>  H        1.5919544339     1.4511162866     1.8425449985
| 21>  H        0.3195519381     1.3766434526     3.9626299667
| 22>  H       -0.2061778979    -0.3052215086     3.6124677172
| 23> *
| 24>
| 25>                          ****END OF INPUT****

CARTESIAN COORDINATES (ANGSTROEM)
---------------------------------
  C     -0.377444    1.419491   -0.100509
  N      0.028659    0.024796   -0.024210
  C      1.420673   -0.297207   -0.304075
  C      0.872981   -0.445491    1.075916
  C      1.362003    0.442920    2.192259
  C      0.613537    0.413348    3.541886
  O      1.810270   -0.101972    4.209431
  C      2.519805   -0.124379    3.035007
  O      3.636050   -0.490260    2.863311
  H      0.411418    2.146806    0.150052
  H     -0.702224    1.628031   -1.124478
  H     -1.230039    1.589579    0.565149
  H      1.602165   -1.170952   -0.923591
  H      2.112305    0.528747   -0.470371
  H      0.605829   -1.447579    1.410769
  H      1.591954    1.451116    1.842545
  H      0.319552    1.376643    3.962630
  H     -0.206178   -0.305222    3.612468

 Total Charge           Charge          ....    0
 Multiplicity           Mult            ....    1
 Number of Electrons    NEL             ....   68
 Basis Dimension        Dim             ....  333

ORBITAL ENERGIES
----------------

  NO   OCC          E(Eh)            E(eV)
   0   2.0000     -20.606847      -560.7408
   1   2.0000     -20.557655      -559.4022
   2   2.0000     -15.575961      -423.8434
   3   2.0000     -11.388315      -309.8918
   4   2.0000     -11.314224      -307.8757
   5   2.0000     -11.283420      -307.0375
   6   2.0000     -11.276475      -306.8485
   7   2.0000     -11.267715      -306.6101
   8   2.0000     -11.263251      -306.4886
   9   2.0000      -1.468852       -39.9695
  10   2.0000      -1.384962       -37.6867
  11   2.0000      -1.290766       -35.1235
  12   2.0000      -1.076024       -29.2801
  13   2.0000      -1.005857       -27.3708
  14   2.0000      -0.926963       -25.2239
  15   2.0000      -0.854768       -23.2594
  16   2.0000      -0.832326       -22.6487
  17   2.0000      -0.760779       -20.7019
  18   2.0000      -0.709012       -19.2932
  19   2.0000      -0.701454       -19.0875
  20   2.0000      -0.684766       -18.6334
  21   2.0000      -0.666133       -18.1264
  22   2.0000      -0.631513       -17.1843
  23   2.0000      -0.609305       -16.5800
  24   2.0000      -0.581161       -15.8142
  25   2.0000      -0.573848       -15.6152
  26   2.0000      -0.565799       -15.3962
  27   2.0000      -0.539159       -14.6713
  28   2.0000      -0.529722       -14.4145
  29   2.0000      -0.479516       -13.0483
  30   2.0000      -0.472061       -12.8454
  31   2.0000      -0.463893       -12.6232
  32   2.0000      -0.439996       -11.9729
  33   2.0000      -0.383866       -10.4455
  34   0.0000       0.124222         3.3803
  35   0.0000       0.144781         3.9397
  36   0.0000       0.154677         4.2090
  37   0.0000       0.160842         4.3767
  38   0.0000       0.172438         4.6923

MULLIKEN ATOMIC CHARGES
-----------------------
   0 C :   -0.290171
   1 N :   -0.210429
   2 C :   -0.184241
   3 C :   -0.089261
   4 C :   -0.130668
   5 C :   -0.029303
   6 O :   -0.233197
   7 C :    0.254565
   8 O :   -0.257336
   9 H :    0.104098
  10 H :    0.150745
  11 H :    0.135052
  12 H :    0.135762
  13 H :    0.124574
  14 H :    0.135751
  15 H :    0.134704
  16 H :    0.122461
  17 H :    0.126895
Sum of atomic charges:   -0.0000000

LOEWDIN ATOMIC CHARGES
----------------------
   0 C :   -0.331276
   1 N :    0.092515
   2 C :   -0.233015
   3 C :   -0.239128
   4 C :   -0.199408
   5 C :   -0.211979
   6 O :    0.232599
   7 C :   -0.439228
   8 O :    0.161776
   9 H :    0.102824
  10 H :    0.122846
  11 H :    0.118747
  12 H :    0.127844
  13 H :    0.127811
  14 H :    0.151134
  15 H :    0.164284
  16 H :    0.124047
  17 H :    0.127608

  Mayer bond orders larger than 0.1
B(  0-C ,  1-N ) :   0.8821 B(  0-C ,  9-H ) :   0.9263 B(  0-C , 10-H ) :   0.9359
B(  0-C , 11-H ) :   0.9374 B(  1-N ,  2-C ) :   0.8951 B(  1-N ,  3-C ) :   0.9437
B(  2-C ,  3-C ) :   0.9389 B(  2-C , 12-H ) :   0.9202 B(  2-C , 13-H ) :   0.9186
B(  3-C ,  4-C ) :   0.9232 B(  3-C , 14-H ) :   0.9034 B(  4-C ,  5-C ) :   0.9438
B(  4-C ,  7-C ) :   0.8965 B(  4-C , 15-H ) :   0.8923 B(  5-C ,  6-O ) :   0.8907
B(  5-C , 16-H ) :   0.9169 B(  5-C , 17-H ) :   0.9157 B(  6-O ,  7-C ) :   1.1005
B(  7-C ,  8-O ) :   2.0570

MP2 TOTAL ENERGY:     -438.344692651 Eh
FINAL SINGLE POINT ENERGY      -438.344692650574

DIPOLE MOMENT
-------------
                                X             Y             Z
Electronic contribution:      5.90141      -3.64356       6.65249
Nuclear contribution   :     -6.96878       4.52085      -7.11989
                        -----------------------------------------
Total Dipole Moment    :     -1.06737       0.87730      -0.46740
                        -----------------------------------------
Magnitude (a.u.)       :      1.45856
Magnitude (Debye)      :      3.70736

                             ****ORCA TERMINATED NORMALLY****
TOTAL RUN TIME: 0 days 0 hours 16 minutes 48 seconds 27 msec
