                         Program Version 3.0.3 - RELEASE   -
|  1> ! RI-MP2 RIJK def2-TZVP def2-TZVP/C def2-TZVP/JK TIGHTSCF
|  2> % maxcore 2000
|  3> % mp2 density relaxed end
|  4> *xyz 0 1
|  5>  C       -0.0215780976     1.5294068976     0.0587748846
|  6>  C       -0.0085927608     0.0028438524     0.0021788961
|  7>  C       -1.3804442187    -0.5976057549     0.3041906777
|  8>  C        0.7041929795    -0.5968881138    -1.2502374114
|  9>  C        1.7590117710    -1.1585195885    -0.2804238504
| 10>  O        2.7578069344    -1.8069536258    -0.3763880265
| 11>  N        1.0852919095    -0.6018961916     0.8179027964
| 12>  C        1.2897280397    -0.5722465965     2.1841812921
| 13>  N        2.2770545789    -1.1349367520     2.7509687422
| 14>  H        0.9707229396     1.9379153275    -0.1522969077
| 15>  H       -0.7248276545     1.9296919022    -0.6783318966
| 16>  H       -0.3359948237     1.8873251370     1.0450375307
| 17>  H       -2.1161204558    -0.2480591760    -0.4270533601
| 18>  H       -1.3470441861    -1.6900964183     0.2663254767
| 19>  H       -1.7337168006    -0.3005380811     1.2974828345
| 20>  H        0.1420025477    -1.3630532168    -1.7878972270
| 21>  H        1.0974731596     0.1331379235    -1.9605464410
| 22>  H        0.4968407726    -0.0076486777     2.6931792980
| 23>  H        2.2295520055    -0.9869840573     3.7579270717
| 24> *
| 25>
| 26>                          ****END OF INPUT****

CARTESIAN COORDINATES (ANGSTROEM)
---------------------------------
  C     -0.021578    1.529407    0.058775
  C     -0.008593    0.002844    0.002179
  C     -1.380444   -0.597606    0.304191
  C      0.704193   -0.596888   -1.250237
  C      1.759012   -1.158520   -0.280424
  O      2.757807   -1.806954   -0.376388
  N      1.085292   -0.601896    0.817903
  C      1.289728   -0.572247    2.184181
  N      2.277055   -1.134937    2.750969
  H      0.970723    1.937915   -0.152297
  H     -0.724828    1.929692   -0.678332
  H     -0.335995    1.887325    1.045038
  H     -2.116120   -0.248059   -0.427053
  H     -1.347044   -1.690096    0.266325
  H     -1.733717   -0.300538    1.297483
  H      0.142003   -1.363053   -1.787897
  H      1.097473    0.133138   -1.960546
  H      0.496841   -0.007649    2.693179
  H      2.229552   -0.986984    3.757927

 Total Charge           Charge          ....    0
 Multiplicity           Mult            ....    1
 Number of Electrons    NEL             ....   68
 Basis Dimension        Dim             ....  339

ORBITAL ENERGIES
----------------

  NO   OCC          E(Eh)            E(eV)
   0   2.0000     -20.535680      -558.8043
   1   2.0000     -15.598413      -424.4544
   2   2.0000     -15.541661      -422.9101
   3   2.0000     -11.359183      -309.0991
   4   2.0000     -11.324455      -308.1541
   5   2.0000     -11.304559      -307.6127
   6   2.0000     -11.253128      -306.2132
   7   2.0000     -11.241007      -305.8834
   8   2.0000     -11.240985      -305.8827
   9   2.0000      -1.398216       -38.0474
  10   2.0000      -1.302440       -35.4412
  11   2.0000      -1.201843       -32.7038
  12   2.0000      -1.070058       -29.1177
  13   2.0000      -1.013793       -27.5867
  14   2.0000      -0.964805       -26.2537
  15   2.0000      -0.870839       -23.6967
  16   2.0000      -0.811796       -22.0901
  17   2.0000      -0.722042       -19.6478
  18   2.0000      -0.690395       -18.7866
  19   2.0000      -0.668878       -18.2011
  20   2.0000      -0.664381       -18.0787
  21   2.0000      -0.645057       -17.5529
  22   2.0000      -0.614595       -16.7240
  23   2.0000      -0.601822       -16.3764
  24   2.0000      -0.580567       -15.7980
  25   2.0000      -0.563875       -15.3438
  26   2.0000      -0.541981       -14.7481
  27   2.0000      -0.525753       -14.3065
  28   2.0000      -0.518342       -14.1048
  29   2.0000      -0.497953       -13.5500
  30   2.0000      -0.481448       -13.1009
  31   2.0000      -0.446455       -12.1487
  32   2.0000      -0.409124       -11.1328
  33   2.0000      -0.369583       -10.0569
  34   0.0000       0.112445         3.0598
  35   0.0000       0.124305         3.3825
  36   0.0000       0.146927         3.9981
  37   0.0000       0.164302         4.4709
  38   0.0000       0.168030         4.5723

MULLIKEN ATOMIC CHARGES
-----------------------
   0 C :   -0.405099
   1 C :    0.084926
   2 C :   -0.404968
   3 C :   -0.219421
   4 C :    0.161103
   5 O :   -0.258654
   6 N :   -0.029148
   7 C :   -0.029591
   8 N :   -0.337710
   9 H :    0.147069
  10 H :    0.140770
  11 H :    0.131547
  12 H :    0.140741
  13 H :    0.147028
  14 H :    0.131537
  15 H :    0.138119
  16 H :    0.138126
  17 H :    0.103184
  18 H :    0.220441
Sum of atomic charges:    0.0000000

LOEWDIN ATOMIC CHARGES
----------------------
   0 C :   -0.267547
   1 C :   -0.296988
   2 C :   -0.267544
   3 C :   -0.160913
   4 C :   -0.381265
   5 O :    0.151865
   6 N :    0.252938
   7 C :   -0.326982
   8 N :   -0.063761
   9 H :    0.132475
  10 H :    0.132233
  11 H :    0.126713
  12 H :    0.132224
  13 H :    0.132464
  14 H :    0.126717
  15 H :    0.145525
  16 H :    0.145538
  17 H :    0.120734
  18 H :    0.165574

  Mayer bond orders larger than 0.1
B(  0-C ,  1-C ) :   0.9272 B(  0-C ,  9-H ) :   0.9313 B(  0-C , 10-H ) :   0.9310
B(  0-C , 11-H ) :   0.9289 B(  1-C ,  2-C ) :   0.9272 B(  1-C ,  3-C ) :   0.8746
B(  1-C ,  6-N ) :   0.8912 B(  2-C , 12-H ) :   0.9310 B(  2-C , 13-H ) :   0.9313
B(  2-C , 14-H ) :   0.9288 B(  3-C ,  4-C ) :   0.9322 B(  3-C ,  6-N ) :  -0.1019
B(  3-C , 15-H ) :   0.9010 B(  3-C , 16-H ) :   0.9010 B(  4-C ,  5-O ) :   2.0543
B(  4-C ,  6-N ) :   1.0148 B(  6-N ,  7-C ) :   0.9802 B(  7-C ,  8-N ) :   1.9569
B(  7-C , 17-H ) :   0.9277 B(  8-N , 18-H ) :   0.8536

MP2 TOTAL ENERGY:     -418.527276124 Eh
FINAL SINGLE POINT ENERGY      -418.527276124185

DIPOLE MOMENT
-------------
                                X             Y             Z
Electronic contribution:      8.08087      -5.07198       0.77313
Nuclear contribution   :     -9.98082       6.29596      -0.67839
                        -----------------------------------------
Total Dipole Moment    :     -1.89994       1.22398       0.09473
                        -----------------------------------------
Magnitude (a.u.)       :      2.26205
Magnitude (Debye)      :      5.74968

                             ****ORCA TERMINATED NORMALLY****
TOTAL RUN TIME: 0 days 0 hours 20 minutes 56 seconds 93 msec
