                         Program Version 3.0.3 - RELEASE   -
|  1> ! RI-MP2 RIJK def2-TZVP def2-TZVP/C def2-TZVP/JK TIGHTSCF
|  2> % maxcore 2000
|  3> % mp2 density relaxed end
|  4> *xyz 0 1
|  5>  C       -0.0328723169     1.4929676706    -0.0066428966
|  6>  N       -0.0083870509     0.0357282907     0.0210085518
|  7>  C       -0.0316285776    -0.6889934068    -1.1501005795
|  8>  N       -0.0129911121    -1.9626870196    -1.2325697519
|  9>  C        0.0358179014    -2.7045658700    -0.0209931024
| 10>  O        0.0549448368    -3.9090055309    -0.0342792160
| 11>  N        0.0610257393    -1.9890775718     1.2010354201
| 12>  C        0.0395668737    -0.7042578727     1.1958460488
| 13>  C        0.0664755341     0.0498607851     2.4946372160
| 14>  H        0.8653227007     1.9151184599     0.4525858146
| 15>  H       -0.0720330721     1.8181068988    -1.0478211307
| 16>  H       -0.9125772638     1.8861935569     0.5103365902
| 17>  H       -0.0690161889    -0.0821871206    -2.0556345010
| 18>  H        0.1040189187    -0.6769996644     3.3042868992
| 19>  H        0.9406466475     0.7068391302     2.5594795180
| 20>  H       -0.8244444399     0.6760227147     2.6138210094
| 21> *
| 22>
| 23>                          ****END OF INPUT****

CARTESIAN COORDINATES (ANGSTROEM)
---------------------------------
  C     -0.032872    1.492968   -0.006643
  N     -0.008387    0.035728    0.021009
  C     -0.031629   -0.688993   -1.150101
  N     -0.012991   -1.962687   -1.232570
  C      0.035818   -2.704566   -0.020993
  O      0.054945   -3.909006   -0.034279
  N      0.061026   -1.989078    1.201035
  C      0.039567   -0.704258    1.195846
  C      0.066476    0.049861    2.494637
  H      0.865323    1.915118    0.452586
  H     -0.072033    1.818107   -1.047821
  H     -0.912577    1.886194    0.510337
  H     -0.069016   -0.082187   -2.055635
  H      0.104019   -0.677000    3.304287
  H      0.940647    0.706839    2.559480
  H     -0.824444    0.676023    2.613821

 Total Charge           Charge          ....    0
 Multiplicity           Mult            ....    1
 Number of Electrons    NEL             ....   66
 Basis Dimension        Dim             ....  321

ORBITAL ENERGIES
----------------

  NO   OCC          E(Eh)            E(eV)
   0   2.0000     -20.507942      -558.0495
   1   2.0000     -15.651213      -425.8911
   2   2.0000     -15.566873      -423.5962
   3   2.0000     -15.562093      -423.4661
   4   2.0000     -11.363079      -309.2051
   5   2.0000     -11.360396      -309.1321
   6   2.0000     -11.355641      -309.0027
   7   2.0000     -11.314556      -307.8847
   8   2.0000     -11.262855      -306.4779
   9   2.0000      -1.394368       -37.9427
  10   2.0000      -1.352535       -36.8044
  11   2.0000      -1.223847       -33.3026
  12   2.0000      -1.222126       -33.2557
  13   2.0000      -1.036170       -28.1956
  14   2.0000      -1.003711       -27.3124
  15   2.0000      -0.921654       -25.0795
  16   2.0000      -0.854552       -23.2535
  17   2.0000      -0.768365       -20.9083
  18   2.0000      -0.726585       -19.7714
  19   2.0000      -0.693341       -18.8668
  20   2.0000      -0.679225       -18.4827
  21   2.0000      -0.628347       -17.0982
  22   2.0000      -0.614014       -16.7082
  23   2.0000      -0.612092       -16.6559
  24   2.0000      -0.594847       -16.1866
  25   2.0000      -0.590386       -16.0652
  26   2.0000      -0.578710       -15.7475
  27   2.0000      -0.515561       -14.0291
  28   2.0000      -0.502448       -13.6723
  29   2.0000      -0.455832       -12.4038
  30   2.0000      -0.445026       -12.1098
  31   2.0000      -0.400194       -10.8898
  32   2.0000      -0.372899       -10.1471
  33   0.0000       0.101182         2.7533
  34   0.0000       0.105350         2.8667
  35   0.0000       0.121058         3.2942
  36   0.0000       0.138350         3.7647
  37   0.0000       0.158900         4.3239

MULLIKEN ATOMIC CHARGES
-----------------------
   0 C :   -0.323222
   1 N :   -0.068782
   2 C :    0.036078
   3 N :   -0.223663
   4 C :    0.231392
   5 O :   -0.277027
   6 N :   -0.228953
   7 C :    0.162614
   8 C :   -0.403286
   9 H :    0.159962
  10 H :    0.154700
  11 H :    0.159842
  12 H :    0.145339
  13 H :    0.182037
  14 H :    0.146411
  15 H :    0.146558
Sum of atomic charges:   -0.0000000

LOEWDIN ATOMIC CHARGES
----------------------
   0 C :   -0.262825
   1 N :    0.209175
   2 C :   -0.256108
   3 N :    0.126972
   4 C :   -0.496219
   5 O :    0.128164
   6 N :    0.152191
   7 C :   -0.291103
   8 C :   -0.255604
   9 H :    0.126166
  10 H :    0.131461
  11 H :    0.126191
  12 H :    0.142034
  13 H :    0.147203
  14 H :    0.136139
  15 H :    0.136162

  Mayer bond orders larger than 0.1
B(  0-C ,  1-N ) :   0.8704 B(  0-C ,  9-H ) :   0.9291 B(  0-C , 10-H ) :   0.9253
B(  0-C , 11-H ) :   0.9291 B(  1-N ,  2-C ) :   1.0846 B(  1-N ,  7-C ) :   1.0678
B(  2-C ,  3-N ) :   1.7367 B(  2-C , 12-H ) :   0.9201 B(  3-N ,  4-C ) :   1.0431
B(  4-C ,  5-O ) :   2.0410 B(  4-C ,  6-N ) :   1.0544 B(  6-N ,  7-C ) :   1.7310
B(  7-C ,  8-C ) :   0.8957 B(  8-C , 13-H ) :   0.9352 B(  8-C , 14-H ) :   0.9240
B(  8-C , 15-H ) :   0.9242

MP2 TOTAL ENERGY:     -433.393681471 Eh
FINAL SINGLE POINT ENERGY      -433.393681471473

DIPOLE MOMENT
-------------
                                X             Y             Z
Electronic contribution:      0.04705      -9.70483      -3.71857
Nuclear contribution   :     -0.09536      13.25462       4.05304
                        -----------------------------------------
Total Dipole Moment    :     -0.04831       3.54979       0.33447
                        -----------------------------------------
Magnitude (a.u.)       :      3.56584
Magnitude (Debye)      :      9.06364

                             ****ORCA TERMINATED NORMALLY****
TOTAL RUN TIME: 0 days 0 hours 15 minutes 50 seconds 448 msec
