                         Program Version 3.0.3 - RELEASE   -
|  1> ! RI-MP2 RIJK def2-TZVP def2-TZVP/C def2-TZVP/JK TIGHTSCF
|  2> % maxcore 2000
|  3> % mp2 density relaxed end
|  4> *xyz 0 1
|  5>  C       -0.0714936402     1.5586558698     0.0272225187
|  6>  C        1.4744162904     1.4749778559     0.0287532313
|  7>  C        1.9819711265     1.3249155112     1.4627155085
|  8>  N        0.9460712000     1.4057088466     2.5344885204
|  9>  C        1.4639127637     0.0995346680     2.1181763261
| 10>  C        0.7044609759    -0.7718113442     1.1332418460
| 11>  C        1.7866659158    -1.0744067641     0.0540105326
| 12>  N        1.3454242094     0.1244590067    -0.7242631540
| 13>  C       -0.0015669036     0.0310312228    -0.0253990499
| 14>  H       -0.5569160977     2.0599139637     0.8590494969
| 15>  H       -0.4419633282     1.9278241511    -0.9320878758
| 16>  H        2.0434758852     2.2101379621    -0.5425039854
| 17>  H        2.9775514300     1.6888229046     1.6946296488
| 18>  H        1.3932143574     1.6732216037     3.4079831681
| 19>  H        2.1020241803    -0.4460232191     2.8111084996
| 20>  H        0.1525920185    -1.5917621350     1.5991153963
| 21>  H        2.8328435293    -1.1011759999     0.3762515975
| 22>  H        1.5737132632    -1.9605793193    -0.5519592479
| 23>  H       -0.7873664058    -0.5399526747    -0.5297398278
| 24> *
| 25>
| 26>                          ****END OF INPUT****

CARTESIAN COORDINATES (ANGSTROEM)
---------------------------------
  C     -0.071494    1.558656    0.027223
  C      1.474416    1.474978    0.028753
  C      1.981971    1.324916    1.462716
  N      0.946071    1.405709    2.534489
  C      1.463913    0.099535    2.118176
  C      0.704461   -0.771811    1.133242
  C      1.786666   -1.074407    0.054011
  N      1.345424    0.124459   -0.724263
  C     -0.001567    0.031031   -0.025399
  H     -0.556916    2.059914    0.859049
  H     -0.441963    1.927824   -0.932088
  H      2.043476    2.210138   -0.542504
  H      2.977551    1.688823    1.694630
  H      1.393214    1.673222    3.407983
  H      2.102024   -0.446023    2.811108
  H      0.152592   -1.591762    1.599115
  H      2.832844   -1.101176    0.376252
  H      1.573713   -1.960579   -0.551959
  H     -0.787366   -0.539953   -0.529740

 Total Charge           Charge          ....    0
 Multiplicity           Mult            ....    1
 Number of Electrons    NEL             ....   66
 Basis Dimension        Dim             ....  339

ORBITAL ENERGIES
----------------

  NO   OCC          E(Eh)            E(eV)
   0   2.0000     -15.560765      -423.4299
   1   2.0000     -15.540618      -422.8817
   2   2.0000     -11.262952      -306.4805
   3   2.0000     -11.258108      -306.3487
   4   2.0000     -11.257351      -306.3281
   5   2.0000     -11.255430      -306.2758
   6   2.0000     -11.247687      -306.0651
   7   2.0000     -11.235444      -305.7320
   8   2.0000     -11.212290      -305.1019
   9   2.0000      -1.290290       -35.1106
  10   2.0000      -1.235240       -33.6126
  11   2.0000      -1.044096       -28.4113
  12   2.0000      -0.970813       -26.4172
  13   2.0000      -0.943894       -25.6847
  14   2.0000      -0.848232       -23.0816
  15   2.0000      -0.821700       -22.3596
  16   2.0000      -0.797119       -21.6907
  17   2.0000      -0.727088       -19.7851
  18   2.0000      -0.678162       -18.4537
  19   2.0000      -0.657305       -17.8862
  20   2.0000      -0.620821       -16.8934
  21   2.0000      -0.606204       -16.4956
  22   2.0000      -0.588516       -16.0143
  23   2.0000      -0.543842       -14.7987
  24   2.0000      -0.533788       -14.5251
  25   2.0000      -0.512394       -13.9429
  26   2.0000      -0.486629       -13.2419
  27   2.0000      -0.470090       -12.7918
  28   2.0000      -0.448687       -12.2094
  29   2.0000      -0.431382       -11.7385
  30   2.0000      -0.415371       -11.3028
  31   2.0000      -0.374927       -10.2023
  32   2.0000      -0.353338        -9.6148
  33   0.0000       0.129101         3.5130
  34   0.0000       0.156030         4.2458
  35   0.0000       0.160445         4.3659
  36   0.0000       0.171621         4.6700
  37   0.0000       0.191425         5.2089

MULLIKEN ATOMIC CHARGES
-----------------------
   0 C :   -0.225871
   1 C :    0.105217
   2 C :   -0.215743
   3 N :   -0.375626
   4 C :   -0.103365
   5 C :    0.067601
   6 C :   -0.212175
   7 N :   -0.206352
   8 C :   -0.142786
   9 H :    0.145928
  10 H :    0.115945
  11 H :    0.118682
  12 H :    0.125079
  13 H :    0.216350
  14 H :    0.119666
  15 H :    0.119902
  16 H :    0.114687
  17 H :    0.122846
  18 H :    0.110013
Sum of atomic charges:    0.0000000

LOEWDIN ATOMIC CHARGES
----------------------
   0 C :   -0.209843
   1 C :   -0.202469
   2 C :   -0.224061
   3 N :    0.008630
   4 C :   -0.248771
   5 C :   -0.185833
   6 C :   -0.236925
   7 N :    0.112212
   8 C :   -0.190705
   9 H :    0.134226
  10 H :    0.141400
  11 H :    0.135287
  12 H :    0.135460
  13 H :    0.168132
  14 H :    0.139647
  15 H :    0.136638
  16 H :    0.123065
  17 H :    0.131886
  18 H :    0.132023

  Mayer bond orders larger than 0.1
B(  0-C ,  1-C ) :   0.9540 B(  0-C ,  8-C ) :   0.9900 B(  0-C ,  9-H ) :   0.9020
B(  0-C , 10-H ) :   0.9155 B(  1-C ,  2-C ) :   0.8706 B(  1-C ,  7-N ) :   0.9554
B(  1-C , 11-H ) :   0.9191 B(  2-C ,  3-N ) :   0.9888 B(  2-C ,  4-C ) :   0.9773
B(  2-C , 12-H ) :   0.9324 B(  3-N ,  4-C ) :   0.9757 B(  3-N , 13-H ) :   0.8718
B(  4-C ,  5-C ) :   0.8753 B(  4-C , 14-H ) :   0.9331 B(  5-C ,  6-C ) :   0.8866
B(  5-C ,  8-C ) :   0.9102 B(  5-C , 15-H ) :   0.9051 B(  6-C ,  7-N ) :   0.9294
B(  6-C , 16-H ) :   0.9214 B(  6-C , 17-H ) :   0.9230 B(  7-N ,  8-C ) :   0.9458
B(  8-C , 18-H ) :   0.9005

MP2 TOTAL ENERGY:     -381.318965626 Eh
FINAL SINGLE POINT ENERGY      -381.318965626114

DIPOLE MOMENT
-------------
                                X             Y             Z
Electronic contribution:     -0.05196       0.51927       0.07145
Nuclear contribution   :      0.48480      -0.70570       0.67981
                        -----------------------------------------
Total Dipole Moment    :      0.43284      -0.18644       0.75126
                        -----------------------------------------
Magnitude (a.u.)       :      0.88685
Magnitude (Debye)      :      2.25419

                             ****ORCA TERMINATED NORMALLY****
TOTAL RUN TIME: 0 days 0 hours 21 minutes 26 seconds 153 msec
