                         Program Version 3.0.3 - RELEASE   -
|  1> ! RI-MP2 RIJK def2-TZVP def2-TZVP/C def2-TZVP/JK TIGHTSCF
|  2> % maxcore 2000
|  3> % mp2 density relaxed end
|  4> *xyz 0 1
|  5>  C       -0.0055870683     1.4211027263    -0.0757327341
|  6>  N        0.1076970742    -0.0187375391     0.0257967407
|  7>  C        0.5688301877    -0.6393789347     1.1434011399
|  8>  O        0.9304740290    -0.0665666850     2.1591961770
|  9>  C        0.6088955483    -2.1228850465     1.0517211754
| 10>  N        0.2291371729    -2.8177476975    -0.0266232563
| 11>  N        0.4326196920    -4.0723018420     0.3366615242
| 12>  N        0.9134583812    -4.2687805221     1.5601056749
| 13>  C        1.0342297705    -3.0316570522     2.0370574437
| 14>  H        0.6150231586     1.8129363410    -0.8893269928
| 15>  H       -1.0431939053     1.7280091068    -0.2488443248
| 16>  H        0.3374918781     1.8440049234     0.8692079515
| 17>  H       -0.1628318032    -0.6013003625    -0.7510360582
| 18>  H        0.2335554287    -4.8426286716    -0.2821680929
| 19>  H        1.4057260657    -2.8346379143     3.0283145919
| 20> *
| 21>
| 22>                          ****END OF INPUT****

CARTESIAN COORDINATES (ANGSTROEM)
---------------------------------
  C     -0.005587    1.421103   -0.075733
  N      0.107697   -0.018738    0.025797
  C      0.568830   -0.639379    1.143401
  O      0.930474   -0.066567    2.159196
  C      0.608896   -2.122885    1.051721
  N      0.229137   -2.817748   -0.026623
  N      0.432620   -4.072302    0.336662
  N      0.913458   -4.268781    1.560106
  C      1.034230   -3.031657    2.037057
  H      0.615023    1.812936   -0.889327
  H     -1.043194    1.728009   -0.248844
  H      0.337492    1.844005    0.869208
  H     -0.162832   -0.601300   -0.751036
  H      0.233555   -4.842629   -0.282168
  H      1.405726   -2.834638    3.028315

 Total Charge           Charge          ....    0
 Multiplicity           Mult            ....    1
 Number of Electrons    NEL             ....   66
 Basis Dimension        Dim             ....  315

ORBITAL ENERGIES
----------------

  NO   OCC          E(Eh)            E(eV)
   0   2.0000     -20.521535      -558.4193
   1   2.0000     -15.699611      -427.2081
   2   2.0000     -15.641367      -425.6232
   3   2.0000     -15.630805      -425.3358
   4   2.0000     -15.587238      -424.1503
   5   2.0000     -11.361837      -309.1713
   6   2.0000     -11.283493      -307.0395
   7   2.0000     -11.278336      -306.8991
   8   2.0000     -11.261285      -306.4351
   9   2.0000      -1.467474       -39.9320
  10   2.0000      -1.386472       -37.7278
  11   2.0000      -1.239461       -33.7275
  12   2.0000      -1.209798       -32.9203
  13   2.0000      -1.126823       -30.6624
  14   2.0000      -0.973972       -26.5031
  15   2.0000      -0.892711       -24.2919
  16   2.0000      -0.860205       -23.4074
  17   2.0000      -0.790014       -21.4974
  18   2.0000      -0.768602       -20.9147
  19   2.0000      -0.711778       -19.3685
  20   2.0000      -0.671655       -18.2767
  21   2.0000      -0.643878       -17.5208
  22   2.0000      -0.633966       -17.2511
  23   2.0000      -0.624975       -17.0064
  24   2.0000      -0.599257       -16.3066
  25   2.0000      -0.551310       -15.0019
  26   2.0000      -0.547727       -14.9044
  27   2.0000      -0.521754       -14.1977
  28   2.0000      -0.494208       -13.4481
  29   2.0000      -0.440995       -12.0001
  30   2.0000      -0.419320       -11.4103
  31   2.0000      -0.395363       -10.7584
  32   2.0000      -0.388373       -10.5682
  33   0.0000       0.102142         2.7794
  34   0.0000       0.126757         3.4492
  35   0.0000       0.143553         3.9063
  36   0.0000       0.147344         4.0094
  37   0.0000       0.178483         4.8568

MULLIKEN ATOMIC CHARGES
-----------------------
   0 C :   -0.291615
   1 N :   -0.305168
   2 C :    0.184735
   3 O :   -0.375574
   4 C :    0.156369
   5 N :   -0.232644
   6 N :   -0.006446
   7 N :   -0.162093
   8 C :   -0.108919
   9 H :    0.136557
  10 H :    0.136526
  11 H :    0.176780
  12 H :    0.254742
  13 H :    0.273445
  14 H :    0.163303
Sum of atomic charges:    0.0000000

LOEWDIN ATOMIC CHARGES
----------------------
   0 C :   -0.310167
   1 N :    0.097963
   2 C :   -0.440734
   3 O :    0.082549
   4 C :   -0.253912
   5 N :    0.038871
   6 N :    0.072903
   7 N :    0.035303
   8 C :   -0.218964
   9 H :    0.116302
  10 H :    0.116299
  11 H :    0.135065
  12 H :    0.189337
  13 H :    0.191153
  14 H :    0.148031

  Mayer bond orders larger than 0.1
B(  0-C ,  1-N ) :   0.8522 B(  0-C ,  9-H ) :   0.9352 B(  0-C , 10-H ) :   0.9352
B(  0-C , 11-H ) :   0.9289 B(  1-N ,  2-C ) :   1.2329 B(  1-N , 12-H ) :   0.8629
B(  2-C ,  3-O ) :   1.9567 B(  2-C ,  4-C ) :   0.8883 B(  4-C ,  5-N ) :   1.3859
B(  4-C ,  8-C ) :   1.3356 B(  5-N ,  6-N ) :   1.1569 B(  6-N ,  7-N ) :   1.1462
B(  6-N , 13-H ) :   0.8732 B(  7-N ,  8-C ) :   1.4835 B(  8-C , 14-H ) :   0.9208

MP2 TOTAL ENERGY:     -449.430130252 Eh
FINAL SINGLE POINT ENERGY      -449.430130252371

DIPOLE MOMENT
-------------
                                X             Y             Z
Electronic contribution:      1.16189      -7.15462       2.06989
Nuclear contribution   :     -1.65794       6.79478      -3.40412
                        -----------------------------------------
Total Dipole Moment    :     -0.49605      -0.35984      -1.33423
                        -----------------------------------------
Magnitude (a.u.)       :      1.46824
Magnitude (Debye)      :      3.73197

                             ****ORCA TERMINATED NORMALLY****
TOTAL RUN TIME: 0 days 0 hours 14 minutes 36 seconds 974 msec
