                         Program Version 3.0.3 - RELEASE   -
|  1> ! RI-MP2 RIJK def2-TZVP def2-TZVP/C def2-TZVP/JK TIGHTSCF
|  2> % maxcore 2000
|  3> % mp2 density relaxed end
|  4> *xyz 0 1
|  5>  C        0.0020296066     1.5443494142    -0.2293389808
|  6>  C       -0.0105621229     0.0366842439    -0.0551065385
|  7>  C       -1.2511571588    -0.6274874228    -0.6249583317
|  8>  C        1.2959440410    -0.7161796853    -0.1652566646
|  9>  C        0.6036577809    -0.6016610905     1.1784587114
| 10>  C        1.2138418923     0.1689997851     2.3167686360
| 11>  C        0.3179590034     0.5868851333     3.5215809120
| 12>  C        1.5038615976     0.2635173983     4.4687522624
| 13>  C        2.1272126147    -0.5868550890     3.3295580654
| 14>  H        0.9193099923     2.0000848182     0.1512085840
| 15>  H       -0.0778719409     1.8073398089    -1.2909514847
| 16>  H       -0.8441536297     2.0116492074     0.2887511253
| 17>  H       -1.3462194121    -0.4303610848    -1.6998476346
| 18>  H       -1.2241095460    -1.7131031597    -0.4875206733
| 19>  H       -2.1600157830    -0.2521437639    -0.1390695166
| 20>  H        1.3046191738    -1.6781832767    -0.6678297440
| 21>  H        2.2026439963    -0.1355086551    -0.3086599937
| 22>  H        0.0938536417    -1.5058195865     1.5098694987
| 23>  H        1.7502490103     1.0467048880     1.9419027718
| 24>  H       -0.0894756828     1.6012454471     3.5285262209
| 25>  H       -0.5083868434    -0.1189704092     3.6576173103
| 26>  H        2.1037891471     1.1527817329     4.6840254006
| 27>  H        1.2793149023    -0.2374663239     5.4133305752
| 28>  H        1.8360096955    -1.6396472305     3.4093132168
| 29>  H        3.2086104536    -0.5379376395     3.1785330617
| 30> *
| 31>
| 32>                          ****END OF INPUT****

CARTESIAN COORDINATES (ANGSTROEM)
---------------------------------
  C      0.002030    1.544349   -0.229339
  C     -0.010562    0.036684   -0.055107
  C     -1.251157   -0.627487   -0.624958
  C      1.295944   -0.716180   -0.165257
  C      0.603658   -0.601661    1.178459
  C      1.213842    0.169000    2.316769
  C      0.317959    0.586885    3.521581
  C      1.503862    0.263517    4.468752
  C      2.127213   -0.586855    3.329558
  H      0.919310    2.000085    0.151209
  H     -0.077872    1.807340   -1.290951
  H     -0.844154    2.011649    0.288751
  H     -1.346219   -0.430361   -1.699848
  H     -1.224110   -1.713103   -0.487521
  H     -2.160016   -0.252144   -0.139070
  H      1.304619   -1.678183   -0.667830
  H      2.202644   -0.135509   -0.308660
  H      0.093854   -1.505820    1.509869
  H      1.750249    1.046705    1.941903
  H     -0.089476    1.601245    3.528526
  H     -0.508387   -0.118970    3.657617
  H      2.103789    1.152782    4.684025
  H      1.279315   -0.237466    5.413331
  H      1.836010   -1.639647    3.409313
  H      3.208610   -0.537938    3.178533

 Total Charge           Charge          ....    0
 Multiplicity           Mult            ....    1
 Number of Electrons    NEL             ....   70
 Basis Dimension        Dim             ....  375

ORBITAL ENERGIES
----------------

  NO   OCC          E(Eh)            E(eV)
   0   2.0000     -11.231510      -305.6249
   1   2.0000     -11.221860      -305.3623
   2   2.0000     -11.219060      -305.2861
   3   2.0000     -11.214875      -305.1723
   4   2.0000     -11.213449      -305.1335
   5   2.0000     -11.213426      -305.1328
   6   2.0000     -11.213286      -305.1290
   7   2.0000     -11.212162      -305.0984
   8   2.0000     -11.211805      -305.0887
   9   2.0000      -1.157318       -31.4922
  10   2.0000      -1.112395       -30.2698
  11   2.0000      -0.979690       -26.6587
  12   2.0000      -0.933041       -25.3893
  13   2.0000      -0.902851       -24.5678
  14   2.0000      -0.889489       -24.2042
  15   2.0000      -0.796354       -21.6699
  16   2.0000      -0.750258       -20.4155
  17   2.0000      -0.726803       -19.7773
  18   2.0000      -0.651941       -17.7402
  19   2.0000      -0.641083       -17.4448
  20   2.0000      -0.615978       -16.7616
  21   2.0000      -0.586165       -15.9504
  22   2.0000      -0.576678       -15.6922
  23   2.0000      -0.550872       -14.9900
  24   2.0000      -0.534004       -14.5310
  25   2.0000      -0.531119       -14.4525
  26   2.0000      -0.522710       -14.2237
  27   2.0000      -0.501022       -13.6335
  28   2.0000      -0.494233       -13.4488
  29   2.0000      -0.476229       -12.9588
  30   2.0000      -0.447172       -12.1682
  31   2.0000      -0.444391       -12.0925
  32   2.0000      -0.440135       -11.9767
  33   2.0000      -0.383596       -10.4382
  34   2.0000      -0.371882       -10.1194
  35   0.0000       0.135340         3.6828
  36   0.0000       0.151336         4.1181
  37   0.0000       0.155782         4.2390
  38   0.0000       0.166568         4.5325
  39   0.0000       0.181723         4.9449

MULLIKEN ATOMIC CHARGES
-----------------------
   0 C :   -0.394500
   1 C :    0.127260
   2 C :   -0.399694
   3 C :   -0.308317
   4 C :   -0.149352
   5 C :   -0.065278
   6 C :   -0.241013
   7 C :   -0.196890
   8 C :   -0.227888
   9 H :    0.124610
  10 H :    0.131990
  11 H :    0.126260
  12 H :    0.126030
  13 H :    0.125748
  14 H :    0.127298
  15 H :    0.127922
  16 H :    0.120353
  17 H :    0.103449
  18 H :    0.086460
  19 H :    0.112094
  20 H :    0.106310
  21 H :    0.106906
  22 H :    0.112966
  23 H :    0.105289
  24 H :    0.111987
Sum of atomic charges:   -0.0000000

LOEWDIN ATOMIC CHARGES
----------------------
   0 C :   -0.267218
   1 C :   -0.277656
   2 C :   -0.268416
   3 C :   -0.190056
   4 C :   -0.180916
   5 C :   -0.220082
   6 C :   -0.219791
   7 C :   -0.247411
   8 C :   -0.217576
   9 H :    0.124500
  10 H :    0.127275
  11 H :    0.126451
  12 H :    0.124971
  13 H :    0.126495
  14 H :    0.125635
  15 H :    0.131484
  16 H :    0.135124
  17 H :    0.151384
  18 H :    0.151956
  19 H :    0.121307
  20 H :    0.134437
  21 H :    0.131800
  22 H :    0.120424
  23 H :    0.134473
  24 H :    0.121406

  Mayer bond orders larger than 0.1
B(  0-C ,  1-C ) :   0.9259 B(  0-C ,  9-H ) :   0.9324 B(  0-C , 10-H ) :   0.9375
B(  0-C , 11-H ) :   0.9378 B(  1-C ,  2-C ) :   0.9022 B(  1-C ,  3-C ) :   0.8917
B(  1-C ,  4-C ) :   0.8577 B(  2-C , 12-H ) :   0.9382 B(  2-C , 13-H ) :   0.9317
B(  2-C , 14-H ) :   0.9399 B(  3-C ,  4-C ) :   0.8772 B(  3-C , 15-H ) :   0.9260
B(  3-C , 16-H ) :   0.9231 B(  4-C ,  5-C ) :   0.9027 B(  4-C , 17-H ) :   0.9163
B(  5-C ,  6-C ) :   0.9284 B(  5-C ,  8-C ) :   0.9332 B(  5-C , 18-H ) :   0.9084
B(  6-C ,  7-C ) :   0.9421 B(  6-C , 19-H ) :   0.9291 B(  6-C , 20-H ) :   0.9241
B(  7-C ,  8-C ) :   0.9398 B(  7-C , 21-H ) :   0.9262 B(  7-C , 22-H ) :   0.9277
B(  8-C , 23-H ) :   0.9241 B(  8-C , 24-H ) :   0.9296

MP2 TOTAL ENERGY:     -351.689871222 Eh
FINAL SINGLE POINT ENERGY      -351.689871222444

DIPOLE MOMENT
-------------
                                X             Y             Z
Electronic contribution:      1.49725      -0.98151       0.99939
Nuclear contribution   :     -1.52491       1.01992      -1.02723
                        -----------------------------------------
Total Dipole Moment    :     -0.02766       0.03841      -0.02784
                        -----------------------------------------
Magnitude (a.u.)       :      0.05492
Magnitude (Debye)      :      0.13958

                             ****ORCA TERMINATED NORMALLY****
TOTAL RUN TIME: 0 days 0 hours 22 minutes 46 seconds 171 msec
