                         Program Version 3.0.3 - RELEASE   -
|  1> ! RI-MP2 RIJK def2-TZVP def2-TZVP/C def2-TZVP/JK TIGHTSCF
|  2> % maxcore 2000
|  3> % mp2 density relaxed end
|  4> *xyz 0 1
|  5>  O       -0.0359810655     1.3462041870     0.0096444815
|  6>  C        0.0253357169     0.0040021462     0.0022034894
|  7>  C        1.2492361457    -0.6242462077    -0.0081848222
|  8>  N        1.6297005900    -1.9218629613    -0.0168634165
|  9>  C        0.8480255775    -2.9595654270    -0.0184841933
| 10>  C       -0.5791240358    -3.0384390255    -0.0120730189
| 11>  C       -1.4979855679    -2.0392866580    -0.0014489287
| 12>  C       -1.3388404535    -0.5875563782     0.0072002148
| 13>  O       -2.3162923211     0.1459500721     0.0181547574
| 14>  H        0.8584703301     1.7105886529     0.0061027563
| 15>  H        2.1052748953     0.0574585286    -0.0095373349
| 16>  H        1.3663351189    -3.9190761927    -0.0260696233
| 17>  H       -0.9701604232    -4.0536433964    -0.0163428784
| 18>  H       -2.5491155774    -2.3162359601     0.0020434066
| 19> *
| 20>
| 21>                          ****END OF INPUT****

CARTESIAN COORDINATES (ANGSTROEM)
---------------------------------
  O     -0.035981    1.346204    0.009644
  C      0.025336    0.004002    0.002203
  C      1.249236   -0.624246   -0.008185
  N      1.629701   -1.921863   -0.016863
  C      0.848026   -2.959565   -0.018484
  C     -0.579124   -3.038439   -0.012073
  C     -1.497986   -2.039287   -0.001449
  C     -1.338840   -0.587556    0.007200
  O     -2.316292    0.145950    0.018155
  H      0.858470    1.710589    0.006103
  H      2.105275    0.057459   -0.009537
  H      1.366335   -3.919076   -0.026070
  H     -0.970160   -4.053643   -0.016343
  H     -2.549116   -2.316236    0.002043

 Total Charge           Charge          ....    0
 Multiplicity           Mult            ....    1
 Number of Electrons    NEL             ....   64
 Basis Dimension        Dim             ....  309

ORBITAL ENERGIES
----------------

  NO   OCC          E(Eh)            E(eV)
   0   2.0000     -20.607566      -560.7604
   1   2.0000     -20.541279      -558.9566
   2   2.0000     -15.596086      -424.3911
   3   2.0000     -11.345589      -308.7292
   4   2.0000     -11.336040      -308.4693
   5   2.0000     -11.307040      -307.6802
   6   2.0000     -11.293105      -307.3010
   7   2.0000     -11.282799      -307.0206
   8   2.0000     -11.278674      -306.9083
   9   2.0000      -1.438647       -39.1476
  10   2.0000      -1.379452       -37.5368
  11   2.0000      -1.272157       -34.6171
  12   2.0000      -1.107728       -30.1428
  13   2.0000      -1.060809       -28.8661
  14   2.0000      -0.938416       -25.5356
  15   2.0000      -0.923659       -25.1340
  16   2.0000      -0.815362       -22.1871
  17   2.0000      -0.772749       -21.0276
  18   2.0000      -0.734628       -19.9902
  19   2.0000      -0.683049       -18.5867
  20   2.0000      -0.649099       -17.6629
  21   2.0000      -0.644728       -17.5439
  22   2.0000      -0.623731       -16.9726
  23   2.0000      -0.604247       -16.4424
  24   2.0000      -0.576586       -15.6897
  25   2.0000      -0.559586       -15.2271
  26   2.0000      -0.546544       -14.8722
  27   2.0000      -0.524528       -14.2731
  28   2.0000      -0.444421       -12.0933
  29   2.0000      -0.434983       -11.8365
  30   2.0000      -0.411358       -11.1936
  31   2.0000      -0.327049        -8.8995
  32   0.0000       0.033105         0.9008
  33   0.0000       0.065076         1.7708
  34   0.0000       0.130271         3.5449
  35   0.0000       0.141940         3.8624
  36   0.0000       0.180998         4.9252

MULLIKEN ATOMIC CHARGES
-----------------------
   0 O :   -0.350686
   1 C :    0.179403
   2 C :   -0.068083
   3 N :   -0.242477
   4 C :   -0.008457
   5 C :   -0.070734
   6 C :   -0.183711
   7 C :    0.190180
   8 O :   -0.303588
   9 H :    0.330174
  10 H :    0.105175
  11 H :    0.133907
  12 H :    0.143335
  13 H :    0.145562
Sum of atomic charges:   -0.0000000

LOEWDIN ATOMIC CHARGES
----------------------
   0 O :    0.134687
   1 C :   -0.229894
   2 C :   -0.226141
   3 N :    0.145922
   4 C :   -0.215032
   5 C :   -0.139305
   6 C :   -0.082292
   7 C :   -0.338199
   8 O :    0.137427
   9 H :    0.197896
  10 H :    0.144660
  11 H :    0.144977
  12 H :    0.160746
  13 H :    0.164548

  Mayer bond orders larger than 0.1
B(  0-O ,  1-C ) :   1.2036 B(  0-O ,  9-H ) :   0.8223 B(  1-C ,  2-C ) :   1.3227
B(  1-C ,  7-C ) :   0.9268 B(  2-C ,  3-N ) :   1.2651 B(  2-C , 10-H ) :   0.9757
B(  3-N ,  4-C ) :   1.5612 B(  4-C ,  5-C ) :   1.0827 B(  4-C , 11-H ) :   0.9479
B(  5-C ,  6-C ) :   1.5265 B(  5-C , 12-H ) :   0.9076 B(  6-C ,  7-C ) :   1.1223
B(  6-C , 13-H ) :   0.9160 B(  7-C ,  8-O ) :   1.9239

MP2 TOTAL ENERGY:     -435.972246159 Eh
FINAL SINGLE POINT ENERGY      -435.972246159048

DIPOLE MOMENT
-------------
                                X             Y             Z
Electronic contribution:     -0.98137       2.60211       0.02220
Nuclear contribution   :      1.86823      -3.27327      -0.03289
                        -----------------------------------------
Total Dipole Moment    :      0.88685      -0.67116      -0.01069
                        -----------------------------------------
Magnitude (a.u.)       :      1.11224
Magnitude (Debye)      :      2.82709

                             ****ORCA TERMINATED NORMALLY****
TOTAL RUN TIME: 0 days 0 hours 15 minutes 8 seconds 892 msec
