                         Program Version 3.0.3 - RELEASE   -
|  1> ! RI-MP2 RIJK def2-TZVP def2-TZVP/C def2-TZVP/JK TIGHTSCF
|  2> % maxcore 2000
|  3> % mp2 density relaxed end
|  4> *xyz 0 1
|  5>  C       -0.0145048930     1.4714207817    -0.0142463156
|  6>  C       -0.0253366849    -0.0190921168     0.0255351343
|  7>  O        0.8296555820    -0.7369315523    -0.8735580870
|  8>  C       -0.0848570573    -1.8858635419    -0.8037909928
|  9>  C        0.5147290109    -2.8994798221     0.1681547736
| 10>  C        0.6075375713    -2.0922987646     1.4932275417
| 11>  C       -0.3030757478    -0.8832543098     1.2559757698
| 12>  O       -0.9575555492    -0.2852777031     2.3328935492
| 13>  C       -1.1135655344    -1.0585326716    -0.0121806176
| 14>  H        0.9907167398     1.8541475363     0.1981678368
| 15>  H       -0.3155279076     1.8423032148    -0.9988365449
| 16>  H       -0.7035201761     1.8677457294     0.7361290778
| 17>  H       -0.3404705474    -2.2511786107    -1.7999928512
| 18>  H       -0.1561764955    -3.7600550724     0.2713617853
| 19>  H        1.4847514586    -3.2640582380    -0.1803113812
| 20>  H        0.2383443334    -2.6595896492     2.3522322151
| 21>  H        1.6380544949    -1.7915969931     1.7079996434
| 22>  H       -0.3085062898     0.2217973693     2.8332176403
| 23>  H       -2.1892328879    -0.9992037559    -0.1051562171
| 24> *
| 25>
| 26>                          ****END OF INPUT****

CARTESIAN COORDINATES (ANGSTROEM)
---------------------------------
  C     -0.014505    1.471421   -0.014246
  C     -0.025337   -0.019092    0.025535
  O      0.829656   -0.736932   -0.873558
  C     -0.084857   -1.885864   -0.803791
  C      0.514729   -2.899480    0.168155
  C      0.607538   -2.092299    1.493228
  C     -0.303076   -0.883254    1.255976
  O     -0.957556   -0.285278    2.332894
  C     -1.113566   -1.058533   -0.012181
  H      0.990717    1.854148    0.198168
  H     -0.315528    1.842303   -0.998837
  H     -0.703520    1.867746    0.736129
  H     -0.340471   -2.251179   -1.799993
  H     -0.156176   -3.760055    0.271362
  H      1.484751   -3.264058   -0.180311
  H      0.238344   -2.659590    2.352232
  H      1.638054   -1.791597    1.708000
  H     -0.308506    0.221797    2.833218
  H     -2.189233   -0.999204   -0.105156

 Total Charge           Charge          ....    0
 Multiplicity           Mult            ....    1
 Number of Electrons    NEL             ....   68
 Basis Dimension        Dim             ....  339

ORBITAL ENERGIES
----------------

  NO   OCC          E(Eh)            E(eV)
   0   2.0000     -20.571481      -559.7785
   1   2.0000     -20.547294      -559.1203
   2   2.0000     -11.288798      -307.1838
   3   2.0000     -11.287439      -307.1468
   4   2.0000     -11.286932      -307.1330
   5   2.0000     -11.226327      -305.4839
   6   2.0000     -11.225220      -305.4538
   7   2.0000     -11.224607      -305.4371
   8   2.0000     -11.223135      -305.3970
   9   2.0000      -1.398493       -38.0549
  10   2.0000      -1.371981       -37.3335
  11   2.0000      -1.125630       -30.6300
  12   2.0000      -1.050495       -28.5854
  13   2.0000      -0.977582       -26.6014
  14   2.0000      -0.939882       -25.5755
  15   2.0000      -0.810274       -22.0487
  16   2.0000      -0.777894       -21.1676
  17   2.0000      -0.747137       -20.3306
  18   2.0000      -0.693545       -18.8723
  19   2.0000      -0.668150       -18.1813
  20   2.0000      -0.647927       -17.6310
  21   2.0000      -0.612986       -16.6802
  22   2.0000      -0.599405       -16.3106
  23   2.0000      -0.576839       -15.6966
  24   2.0000      -0.565991       -15.4014
  25   2.0000      -0.547564       -14.9000
  26   2.0000      -0.539230       -14.6732
  27   2.0000      -0.525850       -14.3091
  28   2.0000      -0.494887       -13.4666
  29   2.0000      -0.489797       -13.3280
  30   2.0000      -0.464435       -12.6379
  31   2.0000      -0.446690       -12.1551
  32   2.0000      -0.390751       -10.6329
  33   2.0000      -0.354875        -9.6566
  34   0.0000       0.127363         3.4657
  35   0.0000       0.149506         4.0683
  36   0.0000       0.172391         4.6910
  37   0.0000       0.184223         5.0130
  38   0.0000       0.193813         5.2739

MULLIKEN ATOMIC CHARGES
-----------------------
   0 C :   -0.471193
   1 C :    0.151714
   2 O :   -0.330684
   3 C :    0.083996
   4 C :   -0.229991
   5 C :   -0.212498
   6 C :    0.164144
   7 O :   -0.469760
   8 C :   -0.188037
   9 H :    0.142405
  10 H :    0.143356
  11 H :    0.149225
  12 H :    0.121305
  13 H :    0.111587
  14 H :    0.117057
  15 H :    0.124041
  16 H :    0.111000
  17 H :    0.328113
  18 H :    0.154220
Sum of atomic charges:    0.0000000

LOEWDIN ATOMIC CHARGES
----------------------
   0 C :   -0.271762
   1 C :   -0.281536
   2 O :    0.180063
   3 C :   -0.218015
   4 C :   -0.227817
   5 C :   -0.211068
   6 C :   -0.307888
   7 O :    0.032247
   8 C :   -0.115410
   9 H :    0.133624
  10 H :    0.132997
  11 H :    0.136994
  12 H :    0.135626
  13 H :    0.139867
  14 H :    0.137813
  15 H :    0.139778
  16 H :    0.138260
  17 H :    0.185457
  18 H :    0.140769

  Mayer bond orders larger than 0.1
B(  0-C ,  1-C ) :   0.8470 B(  0-C ,  9-H ) :   0.9365 B(  0-C , 10-H ) :   0.9413
B(  0-C , 11-H ) :   0.9399 B(  1-C ,  2-O ) :   0.9640 B(  1-C ,  6-C ) :   0.8815
B(  1-C ,  8-C ) :   0.8887 B(  2-O ,  3-C ) :   0.9221 B(  3-C ,  4-C ) :   0.9470
B(  3-C ,  8-C ) :   0.9264 B(  3-C , 12-H ) :   0.9088 B(  4-C ,  5-C ) :   0.9734
B(  4-C , 13-H ) :   0.9089 B(  4-C , 14-H ) :   0.9121 B(  5-C ,  6-C ) :   0.9233
B(  5-C , 15-H ) :   0.9235 B(  5-C , 16-H ) :   0.9064 B(  6-C ,  7-O ) :   0.9718
B(  6-C ,  8-C ) :   0.8530 B(  7-O , 17-H ) :   0.8390 B(  8-C , 18-H ) :   0.8860

MP2 TOTAL ENERGY:     -422.294516955 Eh
FINAL SINGLE POINT ENERGY      -422.294516954810

DIPOLE MOMENT
-------------
                                X             Y             Z
Electronic contribution:     -0.82510      -0.10426      -0.44534
Nuclear contribution   :      0.81833       0.09138       0.71443
                        -----------------------------------------
Total Dipole Moment    :     -0.00677      -0.01288       0.26909
                        -----------------------------------------
Magnitude (a.u.)       :      0.26949
Magnitude (Debye)      :      0.68498

                             ****ORCA TERMINATED NORMALLY****
TOTAL RUN TIME: 0 days 0 hours 18 minutes 42 seconds 756 msec
