                         Program Version 3.0.3 - RELEASE   -
|  1> ! RI-MP2 RIJK def2-TZVP def2-TZVP/C def2-TZVP/JK TIGHTSCF
|  2> % maxcore 2000
|  3> % mp2 density relaxed end
|  4> *xyz 0 1
|  5>  C       -0.1708396890     1.4533586493    -0.2000392028
|  6>  C        0.0578650343    -0.0346263131    -0.0998131254
|  7>  C        0.8863050887    -0.7851719427    -1.1102315759
|  8>  N        1.5769951309    -0.0980615225    -2.1549995388
|  9>  C        1.1272236168    -0.0965338555    -3.4387287825
| 10>  O        0.0945359058    -0.6107584591    -3.8111016678
| 11>  C        1.4166896207    -0.6156873465     0.3080880660
| 12>  C        2.5491130361     0.2334439497     0.5275014715
| 13>  C        3.5157934165     0.9371008581     0.6728579490
| 14>  H        0.7075945608     1.9706482941    -0.5909952621
| 15>  H       -1.0117150480     1.6622184999    -0.8689558082
| 16>  H       -0.4013562044     1.8787891169     0.7816785352
| 17>  H       -0.7846139627    -0.5986374431     0.2908839843
| 18>  H        0.5480182615    -1.7744654647    -1.3993745778
| 19>  H        2.4763533664     0.3100991076    -1.9430594972
| 20>  H        1.8257125346     0.4323645432    -4.1175523248
| 21>  H        1.3946876984    -1.5068269186     0.9277573780
| 22>  H        4.3602394627     1.5596070069     0.8382670092
| 23> *
| 24>
| 25>                          ****END OF INPUT****

CARTESIAN COORDINATES (ANGSTROEM)
---------------------------------
  C     -0.170840    1.453359   -0.200039
  C      0.057865   -0.034626   -0.099813
  C      0.886305   -0.785172   -1.110232
  N      1.576995   -0.098062   -2.155000
  C      1.127224   -0.096534   -3.438729
  O      0.094536   -0.610758   -3.811102
  C      1.416690   -0.615687    0.308088
  C      2.549113    0.233444    0.527501
  C      3.515793    0.937101    0.672858
  H      0.707595    1.970648   -0.590995
  H     -1.011715    1.662218   -0.868956
  H     -0.401356    1.878789    0.781679
  H     -0.784614   -0.598637    0.290884
  H      0.548018   -1.774465   -1.399375
  H      2.476353    0.310099   -1.943059
  H      1.825713    0.432365   -4.117552
  H      1.394688   -1.506827    0.927757
  H      4.360239    1.559607    0.838267

 Total Charge           Charge          ....    0
 Multiplicity           Mult            ....    1
 Number of Electrons    NEL             ....   66
 Basis Dimension        Dim             ....  333

ORBITAL ENERGIES
----------------

  NO   OCC          E(Eh)            E(eV)
   0   2.0000     -20.524345      -558.4958
   1   2.0000     -15.593027      -424.3078
   2   2.0000     -11.350039      -308.8503
   3   2.0000     -11.286724      -307.1274
   4   2.0000     -11.269395      -306.6558
   5   2.0000     -11.253140      -306.2135
   6   2.0000     -11.251294      -306.1633
   7   2.0000     -11.236953      -305.7730
   8   2.0000     -11.224407      -305.4316
   9   2.0000      -1.385215       -37.6936
  10   2.0000      -1.256027       -34.1782
  11   2.0000      -1.154085       -31.4042
  12   2.0000      -1.042120       -28.3575
  13   2.0000      -0.978782       -26.6340
  14   2.0000      -0.894284       -24.3347
  15   2.0000      -0.851969       -23.1833
  16   2.0000      -0.782265       -21.2865
  17   2.0000      -0.735946       -20.0261
  18   2.0000      -0.723995       -19.7009
  19   2.0000      -0.698976       -19.0201
  20   2.0000      -0.660370       -17.9696
  21   2.0000      -0.623979       -16.9793
  22   2.0000      -0.599343       -16.3090
  23   2.0000      -0.585664       -15.9367
  24   2.0000      -0.559871       -15.2349
  25   2.0000      -0.558139       -15.1877
  26   2.0000      -0.519820       -14.1450
  27   2.0000      -0.483241       -13.1496
  28   2.0000      -0.470220       -12.7953
  29   2.0000      -0.433572       -11.7981
  30   2.0000      -0.415231       -11.2990
  31   2.0000      -0.375218       -10.2102
  32   2.0000      -0.371315       -10.1040
  33   0.0000       0.131594         3.5809
  34   0.0000       0.138272         3.7626
  35   0.0000       0.157715         4.2916
  36   0.0000       0.163401         4.4464
  37   0.0000       0.166923         4.5422

MULLIKEN ATOMIC CHARGES
-----------------------
   0 C :   -0.392333
   1 C :   -0.065576
   2 C :    0.041300
   3 N :   -0.339530
   4 C :    0.179979
   5 O :   -0.359580
   6 C :   -0.253694
   7 C :   -0.048472
   8 C :   -0.140851
   9 H :    0.127419
  10 H :    0.149336
  11 H :    0.140486
  12 H :    0.130727
  13 H :    0.148739
  14 H :    0.255605
  15 H :    0.082092
  16 H :    0.150810
  17 H :    0.193540
Sum of atomic charges:   -0.0000000

LOEWDIN ATOMIC CHARGES
----------------------
   0 C :   -0.282974
   1 C :   -0.190068
   2 C :   -0.199955
   3 N :    0.115614
   4 C :   -0.430223
   5 O :    0.062146
   6 C :   -0.175141
   7 C :   -0.102038
   8 C :   -0.099300
   9 H :    0.129342
  10 H :    0.133187
  11 H :    0.130213
  12 H :    0.154182
  13 H :    0.153881
  14 H :    0.194716
  15 H :    0.110223
  16 H :    0.167405
  17 H :    0.128790

  Mayer bond orders larger than 0.1
B(  0-C ,  1-C ) :   0.9371 B(  0-C ,  9-H ) :   0.9256 B(  0-C , 10-H ) :   0.9369
B(  0-C , 11-H ) :   0.9369 B(  1-C ,  2-C ) :   0.8818 B(  1-C ,  6-C ) :   0.8367
B(  1-C , 12-H ) :   0.9234 B(  2-C ,  3-N ) :   0.8449 B(  2-C ,  6-C ) :   0.8247
B(  2-C , 13-H ) :   0.9334 B(  3-N ,  4-C ) :   1.1425 B(  3-N , 14-H ) :   0.8523
B(  4-C ,  5-O ) :   1.8975 B(  4-C , 15-H ) :   0.9301 B(  6-C ,  7-C ) :   1.1708
B(  6-C ,  8-C ) :  -0.1225 B(  6-C , 16-H ) :   0.9352 B(  7-C ,  8-C ) :   2.5404
B(  8-C , 17-H ) :   0.9049

MP2 TOTAL ENERGY:     -401.227101506 Eh
FINAL SINGLE POINT ENERGY      -401.227101506256

DIPOLE MOMENT
-------------
                                X             Y             Z
Electronic contribution:      2.24334      -2.88741      -2.75758
Nuclear contribution   :     -1.43658       3.27315       3.66996
                        -----------------------------------------
Total Dipole Moment    :      0.80676       0.38574       0.91237
                        -----------------------------------------
Magnitude (a.u.)       :      1.27753
Magnitude (Debye)      :      3.24722

                             ****ORCA TERMINATED NORMALLY****
TOTAL RUN TIME: 0 days 0 hours 16 minutes 50 seconds 767 msec
