                         Program Version 3.0.3 - RELEASE   -
|  1> ! RI-MP2 RIJK def2-TZVP def2-TZVP/C def2-TZVP/JK TIGHTSCF
|  2> % maxcore 2000
|  3> % mp2 density relaxed end
|  4> *xyz 0 1
|  5>  C       -0.6787505860     1.2199758997    -0.0362952857
|  6>  C        0.1279020371    -0.0679757482    -0.1867974292
|  7>  O        1.1898230595     0.0609211422    -1.1358040636
|  8>  C        0.6767853649    -0.5634685192     1.1224430089
|  9>  C        0.2752197823    -0.5395779408     2.4429117504
| 10>  O       -0.8351395311     0.0265255499     2.9613172605
| 11>  N        1.1745340141    -1.1973677021     3.2101362315
| 12>  N        2.1387157390    -1.6452527707     2.4406490473
| 13>  N        1.8362347699    -1.2738766052     1.1961216132
| 14>  H       -0.0474227584     2.0259911354     0.3553112002
| 15>  H       -1.0754413756     1.5222969169    -1.0086331939
| 16>  H       -1.5064445992     1.0804658026     0.6633943730
| 17>  H       -0.5185911343    -0.8412555234    -0.6219452034
| 18>  H        1.6847706841     0.8570963992    -0.9082714531
| 19>  H       -0.8107921627    -0.1406837344     3.9122010294
| 20>  H        2.4490774762    -1.4928552119     0.4257324143
| 21> *
| 22>
| 23>                          ****END OF INPUT****

CARTESIAN COORDINATES (ANGSTROEM)
---------------------------------
  C     -0.678751    1.219976   -0.036295
  C      0.127902   -0.067976   -0.186797
  O      1.189823    0.060921   -1.135804
  C      0.676785   -0.563469    1.122443
  C      0.275220   -0.539578    2.442912
  O     -0.835140    0.026526    2.961317
  N      1.174534   -1.197368    3.210136
  N      2.138716   -1.645253    2.440649
  N      1.836235   -1.273877    1.196122
  H     -0.047423    2.025991    0.355311
  H     -1.075441    1.522297   -1.008633
  H     -1.506445    1.080466    0.663394
  H     -0.518591   -0.841256   -0.621945
  H      1.684771    0.857096   -0.908271
  H     -0.810792   -0.140684    3.912201
  H      2.449077   -1.492855    0.425732

 Total Charge           Charge          ....    0
 Multiplicity           Mult            ....    1
 Number of Electrons    NEL             ....   68
 Basis Dimension        Dim             ....  321

ORBITAL ENERGIES
----------------

  NO   OCC          E(Eh)            E(eV)
   0   2.0000     -20.599650      -560.5450
   1   2.0000     -20.582196      -560.0700
   2   2.0000     -15.659807      -426.1250
   3   2.0000     -15.644732      -425.7148
   4   2.0000     -15.594997      -424.3615
   5   2.0000     -11.319548      -308.0205
   6   2.0000     -11.316646      -307.9416
   7   2.0000     -11.279522      -306.9314
   8   2.0000     -11.234417      -305.7040
   9   2.0000      -1.452338       -39.5201
  10   2.0000      -1.410485       -38.3813
  11   2.0000      -1.387364       -37.7521
  12   2.0000      -1.201091       -32.6833
  13   2.0000      -1.095305       -29.8048
  14   2.0000      -1.024802       -27.8863
  15   2.0000      -0.895890       -24.3784
  16   2.0000      -0.878462       -23.9042
  17   2.0000      -0.822506       -22.3815
  18   2.0000      -0.775418       -21.1002
  19   2.0000      -0.714058       -19.4305
  20   2.0000      -0.673656       -18.3311
  21   2.0000      -0.657513       -17.8918
  22   2.0000      -0.642777       -17.4909
  23   2.0000      -0.634292       -17.2600
  24   2.0000      -0.612898       -16.6778
  25   2.0000      -0.578304       -15.7364
  26   2.0000      -0.561429       -15.2773
  27   2.0000      -0.543357       -14.7855
  28   2.0000      -0.529637       -14.4122
  29   2.0000      -0.511556       -13.9201
  30   2.0000      -0.478849       -13.0302
  31   2.0000      -0.447643       -12.1810
  32   2.0000      -0.414063       -11.2672
  33   2.0000      -0.333195        -9.0667
  34   0.0000       0.117233         3.1901
  35   0.0000       0.136901         3.7253
  36   0.0000       0.144242         3.9250
  37   0.0000       0.159997         4.3537
  38   0.0000       0.165935         4.5153

MULLIKEN ATOMIC CHARGES
-----------------------
   0 C :   -0.398945
   1 C :    0.166716
   2 O :   -0.480926
   3 C :   -0.114733
   4 C :    0.161878
   5 O :   -0.442529
   6 N :   -0.169623
   7 N :   -0.160362
   8 N :   -0.050120
   9 H :    0.123959
  10 H :    0.150698
  11 H :    0.155816
  12 H :    0.117716
  13 H :    0.319851
  14 H :    0.346940
  15 H :    0.273664
Sum of atomic charges:    0.0000000

LOEWDIN ATOMIC CHARGES
----------------------
   0 C :   -0.287649
   1 C :   -0.337846
   2 O :   -0.022554
   3 C :   -0.227902
   4 C :   -0.405834
   5 O :    0.068978
   6 N :   -0.002767
   7 N :   -0.058304
   8 N :    0.147462
   9 H :    0.126685
  10 H :    0.128444
  11 H :    0.136901
  12 H :    0.156148
  13 H :    0.177976
  14 H :    0.203716
  15 H :    0.196547

  Mayer bond orders larger than 0.1
B(  0-C ,  1-C ) :   0.9778 B(  0-C ,  9-H ) :   0.9185 B(  0-C , 10-H ) :   0.9355
B(  0-C , 11-H ) :   0.9236 B(  1-C ,  2-O ) :   0.8538 B(  1-C ,  3-C ) :   0.9260
B(  1-C , 12-H ) :   0.8956 B(  2-O , 13-H ) :   0.8389 B(  3-C ,  4-C ) :   1.3993
B(  3-C ,  7-N ) :   0.1411 B(  3-C ,  8-N ) :   1.1632 B(  4-C ,  5-O ) :   1.1221
B(  4-C ,  6-N ) :   1.4136 B(  5-O , 14-H ) :   0.8137 B(  6-N ,  7-N ) :   1.2524
B(  7-N ,  8-N ) :   1.0801 B(  8-N , 15-H ) :   0.8493

MP2 TOTAL ENERGY:     -470.464166730 Eh
FINAL SINGLE POINT ENERGY      -470.464166730262

DIPOLE MOMENT
-------------
                                X             Y             Z
Electronic contribution:      3.66117      -4.71765       5.07822
Nuclear contribution   :     -4.04291       5.49957      -5.90137
                        -----------------------------------------
Total Dipole Moment    :     -0.38174       0.78192      -0.82315
                        -----------------------------------------
Magnitude (a.u.)       :      1.19779
Magnitude (Debye)      :      3.04453

                             ****ORCA TERMINATED NORMALLY****
TOTAL RUN TIME: 0 days 0 hours 14 minutes 46 seconds 480 msec
