                         Program Version 3.0.3 - RELEASE   -
|  1> ! RI-MP2 RIJK def2-TZVP def2-TZVP/C def2-TZVP/JK TIGHTSCF
|  2> % maxcore 2000
|  3> % mp2 density relaxed end
|  4> *xyz 0 1
|  5>  O        0.0058736739     1.4385991526     0.1640622701
|  6>  C       -0.0074035055     0.0684439659    -0.0400230890
|  7>  C        0.8267504585    -0.5318916648    -1.1655474512
|  8>  C        0.0244213648    -1.7821288636    -1.5934368115
|  9>  O       -1.3077730011    -1.6375788355    -1.0560867493
| 10>  C       -1.2909170014    -0.6757833394    -0.0639191881
| 11>  C       -0.3503341770    -0.8414040409     1.1564242437
| 12>  C        0.3644710644    -2.0461304781     1.4415228854
| 13>  N        0.9591190816    -3.0152987504     1.6617606644
| 14>  H        0.8476652457     1.6807670676     0.5672158627
| 15>  H        0.8732835284     0.2162919480    -1.9619219810
| 16>  H        1.8475137964    -0.7899062576    -0.8699834477
| 17>  H       -0.0677187639    -1.8787785223    -2.6779801483
| 18>  H        0.4710706102    -2.6972145311    -1.1956769036
| 19>  H       -2.2542491005    -0.2146038425     0.1177378849
| 20>  H       -0.6859293746    -0.2910556280     2.0299880084
| 21> *
| 22>
| 23>                          ****END OF INPUT****

CARTESIAN COORDINATES (ANGSTROEM)
---------------------------------
  O      0.005874    1.438599    0.164062
  C     -0.007404    0.068444   -0.040023
  C      0.826750   -0.531892   -1.165547
  C      0.024421   -1.782129   -1.593437
  O     -1.307773   -1.637579   -1.056087
  C     -1.290917   -0.675783   -0.063919
  C     -0.350334   -0.841404    1.156424
  C      0.364471   -2.046130    1.441523
  N      0.959119   -3.015299    1.661761
  H      0.847665    1.680767    0.567216
  H      0.873284    0.216292   -1.961922
  H      1.847514   -0.789906   -0.869983
  H     -0.067719   -1.878779   -2.677980
  H      0.471071   -2.697215   -1.195677
  H     -2.254249   -0.214604    0.117738
  H     -0.685929   -0.291056    2.029988

 Total Charge           Charge          ....    0
 Multiplicity           Mult            ....    1
 Number of Electrons    NEL             ....   66
 Basis Dimension        Dim             ....  321

ORBITAL ENERGIES
----------------

  NO   OCC          E(Eh)            E(eV)
   0   2.0000     -20.597589      -560.4889
   1   2.0000     -20.582306      -560.0730
   2   2.0000     -15.571425      -423.7200
   3   2.0000     -11.327320      -308.2320
   4   2.0000     -11.318398      -307.9893
   5   2.0000     -11.294855      -307.3486
   6   2.0000     -11.285198      -307.0859
   7   2.0000     -11.278994      -306.9170
   8   2.0000     -11.254563      -306.2522
   9   2.0000      -1.423497       -38.7353
  10   2.0000      -1.401203       -38.1287
  11   2.0000      -1.222312       -33.2608
  12   2.0000      -1.156105       -31.4592
  13   2.0000      -1.051621       -28.6161
  14   2.0000      -0.942553       -25.6482
  15   2.0000      -0.861271       -23.4364
  16   2.0000      -0.814229       -22.1563
  17   2.0000      -0.757508       -20.6128
  18   2.0000      -0.718088       -19.5402
  19   2.0000      -0.686226       -18.6732
  20   2.0000      -0.655486       -17.8367
  21   2.0000      -0.631494       -17.1838
  22   2.0000      -0.620958       -16.8971
  23   2.0000      -0.602161       -16.3856
  24   2.0000      -0.575274       -15.6540
  25   2.0000      -0.556696       -15.1485
  26   2.0000      -0.534743       -14.5511
  27   2.0000      -0.516590       -14.0571
  28   2.0000      -0.498764       -13.5721
  29   2.0000      -0.491423       -13.3723
  30   2.0000      -0.476069       -12.9545
  31   2.0000      -0.414700       -11.2845
  32   2.0000      -0.393679       -10.7125
  33   0.0000       0.119040         3.2392
  34   0.0000       0.140842         3.8325
  35   0.0000       0.155535         4.2323
  36   0.0000       0.163176         4.4403
  37   0.0000       0.171545         4.6680

MULLIKEN ATOMIC CHARGES
-----------------------
   0 O :   -0.440922
   1 C :    0.167891
   2 C :   -0.262114
   3 C :   -0.060198
   4 O :   -0.304668
   5 C :    0.068974
   6 C :   -0.125525
   7 C :   -0.170478
   8 N :   -0.065400
   9 H :    0.333134
  10 H :    0.137594
  11 H :    0.141233
  12 H :    0.126945
  13 H :    0.139277
  14 H :    0.152220
  15 H :    0.162038
Sum of atomic charges:    0.0000000

LOEWDIN ATOMIC CHARGES
----------------------
   0 O :    0.045247
   1 C :   -0.329446
   2 C :   -0.212038
   3 C :   -0.258606
   4 O :    0.197732
   5 C :   -0.229895
   6 C :   -0.164971
   7 C :   -0.183028
   8 N :    0.060660
   9 H :    0.189960
  10 H :    0.149736
  11 H :    0.146699
  12 H :    0.128266
  13 H :    0.130180
  14 H :    0.151652
  15 H :    0.177852

  Mayer bond orders larger than 0.1
B(  0-O ,  1-C ) :   1.0361 B(  0-O ,  9-H ) :   0.8323 B(  1-C ,  2-C ) :   0.9644
B(  1-C ,  5-C ) :   0.8906 B(  1-C ,  6-C ) :   0.8134 B(  2-C ,  3-C ) :   0.9440
B(  2-C , 10-H ) :   0.9195 B(  2-C , 11-H ) :   0.9098 B(  3-C ,  4-O ) :   0.8836
B(  3-C , 12-H ) :   0.9214 B(  3-C , 13-H ) :   0.9305 B(  4-O ,  5-C ) :   1.0447
B(  5-C ,  6-C ) :   0.7871 B(  5-C , 14-H ) :   0.9248 B(  6-C ,  7-C ) :   0.9608
B(  6-C , 15-H ) :   0.9016 B(  7-C ,  8-N ) :   2.8199

MP2 TOTAL ENERGY:     -437.160596071 Eh
FINAL SINGLE POINT ENERGY      -437.160596071272

DIPOLE MOMENT
-------------
                                X             Y             Z
Electronic contribution:     -1.31342      -1.22952       3.44480
Nuclear contribution   :      1.56362       2.54103      -3.84290
                        -----------------------------------------
Total Dipole Moment    :      0.25020       1.31151      -0.39811
                        -----------------------------------------
Magnitude (a.u.)       :      1.39325
Magnitude (Debye)      :      3.54135

                             ****ORCA TERMINATED NORMALLY****
TOTAL RUN TIME: 0 days 0 hours 18 minutes 14 seconds 76 msec
