                         Program Version 3.0.3 - RELEASE   -
|  1> ! RI-MP2 RIJK def2-TZVP def2-TZVP/C def2-TZVP/JK TIGHTSCF
|  2> % maxcore 2000
|  3> % mp2 density relaxed end
|  4> *xyz 0 1
|  5>  C       -0.3702578425     1.4703831781    -0.5798351700
|  6>  C       -0.0298042623     0.1962836450     0.2043349087
|  7>  C       -1.2612815114    -0.6352582319     0.4752922484
|  8>  O       -1.8332653471    -1.3493372494    -0.6310652312
|  9>  C       -1.3424180283    -2.1103607959     0.4922977472
| 10>  C       -0.1334832367    -2.9801398598     0.2132513645
| 11>  C       -2.4437959790    -2.7562310511     1.3192586425
| 12>  C       -3.1934252022    -3.8597365763     0.5763569872
| 13>  O       -4.2339459873    -4.3107051014     1.4324591761
| 14>  H        0.5260399718     2.0685037136    -0.7684761025
| 15>  H       -0.8221581705     1.2170980295    -1.5434006737
| 16>  H       -1.0816024181     2.0965277947    -0.0303208494
| 17>  H        0.7088608785    -0.3883345325    -0.3503666768
| 18>  H        0.4279558901     0.4602498190     1.1668532231
| 19>  H       -2.0098602320    -0.1124374529     1.0780894758
| 20>  H        0.5893329938    -2.4739013667    -0.4271866030
| 21>  H        0.3626948848    -3.2582477518     1.1494565990
| 22>  H       -0.4304540266    -3.9047569312    -0.2917144674
| 23>  H       -2.0226655323    -3.1688051950     2.2440543392
| 24>  H       -3.1769802680    -1.9972442687     1.6092447600
| 25>  H       -3.5911163370    -3.4500555061    -0.3636973263
| 26>  H       -2.5136442930    -4.6866333770     0.3180581266
| 27>  H       -4.7455622947    -4.9722649123     0.9580782820
| 28> *
| 29>
| 30>                          ****END OF INPUT****

CARTESIAN COORDINATES (ANGSTROEM)
---------------------------------
  C     -0.370258    1.470383   -0.579835
  C     -0.029804    0.196284    0.204335
  C     -1.261282   -0.635258    0.475292
  O     -1.833265   -1.349337   -0.631065
  C     -1.342418   -2.110361    0.492298
  C     -0.133483   -2.980140    0.213251
  C     -2.443796   -2.756231    1.319259
  C     -3.193425   -3.859737    0.576357
  O     -4.233946   -4.310705    1.432459
  H      0.526040    2.068504   -0.768476
  H     -0.822158    1.217098   -1.543401
  H     -1.081602    2.096528   -0.030321
  H      0.708861   -0.388335   -0.350367
  H      0.427956    0.460250    1.166853
  H     -2.009860   -0.112437    1.078089
  H      0.589333   -2.473901   -0.427187
  H      0.362695   -3.258248    1.149457
  H     -0.430454   -3.904757   -0.291714
  H     -2.022666   -3.168805    2.244054
  H     -3.176980   -1.997244    1.609245
  H     -3.591116   -3.450056   -0.363697
  H     -2.513644   -4.686633    0.318058
  H     -4.745562   -4.972265    0.958078

 Total Charge           Charge          ....    0
 Multiplicity           Mult            ....    1
 Number of Electrons    NEL             ....   72
 Basis Dimension        Dim             ....  363

ORBITAL ENERGIES
----------------

  NO   OCC          E(Eh)            E(eV)
   0   2.0000     -20.555360      -559.3398
   1   2.0000     -20.553635      -559.2928
   2   2.0000     -11.288542      -307.1768
   3   2.0000     -11.278724      -306.9097
   4   2.0000     -11.273025      -306.7546
   5   2.0000     -11.227815      -305.5244
   6   2.0000     -11.223437      -305.4053
   7   2.0000     -11.222404      -305.3771
   8   2.0000     -11.215344      -305.1850
   9   2.0000      -1.400456       -38.1084
  10   2.0000      -1.357308       -36.9342
  11   2.0000      -1.055463       -28.7206
  12   2.0000      -1.049608       -28.5613
  13   2.0000      -0.978649       -26.6304
  14   2.0000      -0.912529       -24.8312
  15   2.0000      -0.866608       -23.5816
  16   2.0000      -0.801602       -21.8127
  17   2.0000      -0.759635       -20.6707
  18   2.0000      -0.704962       -19.1830
  19   2.0000      -0.663084       -18.0434
  20   2.0000      -0.650567       -17.7028
  21   2.0000      -0.628635       -17.1060
  22   2.0000      -0.599085       -16.3019
  23   2.0000      -0.594406       -16.1746
  24   2.0000      -0.568144       -15.4600
  25   2.0000      -0.559812       -15.2332
  26   2.0000      -0.551144       -14.9974
  27   2.0000      -0.526684       -14.3318
  28   2.0000      -0.514400       -13.9975
  29   2.0000      -0.506625       -13.7860
  30   2.0000      -0.496411       -13.5080
  31   2.0000      -0.483719       -13.1627
  32   2.0000      -0.476687       -12.9713
  33   2.0000      -0.442880       -12.0514
  34   2.0000      -0.431486       -11.7413
  35   2.0000      -0.406584       -11.0637
  36   0.0000       0.136086         3.7031
  37   0.0000       0.144205         3.9240
  38   0.0000       0.155203         4.2233
  39   0.0000       0.169564         4.6141
  40   0.0000       0.183028         4.9804

MULLIKEN ATOMIC CHARGES
-----------------------
   0 C :   -0.399088
   1 C :   -0.181421
   2 C :    0.021378
   3 O :   -0.363096
   4 C :    0.182046
   5 C :   -0.424927
   6 C :   -0.141744
   7 C :   -0.110455
   8 O :   -0.466198
   9 H :    0.133532
  10 H :    0.142724
  11 H :    0.122860
  12 H :    0.107264
  13 H :    0.108028
  14 H :    0.106259
  15 H :    0.134720
  16 H :    0.135785
  17 H :    0.139111
  18 H :    0.111234
  19 H :    0.116398
  20 H :    0.120098
  21 H :    0.089620
  22 H :    0.315869
Sum of atomic charges:   -0.0000000

LOEWDIN ATOMIC CHARGES
----------------------
   0 C :   -0.312442
   1 C :   -0.276166
   2 C :   -0.252109
   3 O :    0.170269
   4 C :   -0.320612
   5 C :   -0.265025
   6 C :   -0.226680
   7 C :   -0.343827
   8 O :   -0.052773
   9 H :    0.120725
  10 H :    0.126780
  11 H :    0.121120
  12 H :    0.138776
  13 H :    0.142450
  14 H :    0.139963
  15 H :    0.127496
  16 H :    0.132566
  17 H :    0.128686
  18 H :    0.146478
  19 H :    0.149211
  20 H :    0.121114
  21 H :    0.112043
  22 H :    0.171956

  Mayer bond orders larger than 0.1
B(  0-C ,  1-C ) :   0.9229 B(  0-C ,  9-H ) :   0.9403 B(  0-C , 10-H ) :   0.9369
B(  0-C , 11-H ) :   0.9379 B(  1-C ,  2-C ) :   0.9156 B(  1-C , 12-H ) :   0.9365
B(  1-C , 13-H ) :   0.9244 B(  2-C ,  3-O ) :   0.8648 B(  2-C ,  4-C ) :   0.9781
B(  2-C , 14-H ) :   0.8894 B(  3-O ,  4-C ) :   0.8466 B(  4-C ,  5-C ) :   0.8810
B(  4-C ,  6-C ) :   0.8852 B(  5-C , 15-H ) :   0.9428 B(  5-C , 16-H ) :   0.9342
B(  5-C , 17-H ) :   0.9365 B(  6-C ,  7-C ) :   0.9256 B(  6-C , 18-H ) :   0.9224
B(  6-C , 19-H ) :   0.9213 B(  7-C ,  8-O ) :   1.0149 B(  7-C , 20-H ) :   0.9313
B(  7-C , 21-H ) :   0.9317 B(  8-O , 22-H ) :   0.8494

MP2 TOTAL ENERGY:     -424.710815570 Eh
FINAL SINGLE POINT ENERGY      -424.710815569948

DIPOLE MOMENT
-------------
                                X             Y             Z
Electronic contribution:     -5.04804      -3.38188       0.61992
Nuclear contribution   :      5.51441       3.16342      -0.59387
                        -----------------------------------------
Total Dipole Moment    :      0.46637      -0.21846       0.02605
                        -----------------------------------------
Magnitude (a.u.)       :      0.51566
Magnitude (Debye)      :      1.31069

                             ****ORCA TERMINATED NORMALLY****
TOTAL RUN TIME: 0 days 0 hours 17 minutes 9 seconds 452 msec
