                         Program Version 3.0.3 - RELEASE   -
|  1> ! RI-MP2 RIJK def2-TZVP def2-TZVP/C def2-TZVP/JK TIGHTSCF
|  2> % maxcore 2000
|  3> % mp2 density relaxed end
|  4> *xyz 0 1
|  5>  C       -0.1943927034     1.4976508324    -0.0689449691
|  6>  C        0.0502322121     0.0051835982     0.0366772789
|  7>  C       -1.1577192028    -0.8548692699    -0.2771371663
|  8>  C        1.4177011286    -0.5265779164    -0.2484860004
|  9>  N        0.8984105293    -0.5232958109     1.1187173896
| 10>  C        1.5130178019     0.3409926272     2.0904653607
| 11>  C        0.7446966662     0.5849837908     3.3767547478
| 12>  C        1.9085497043    -0.3771022892     3.3608591669
| 13>  O        1.6793890277    -1.7459811975     3.4325557426
| 14>  H        0.7064786366     2.0815731241     0.1308750281
| 15>  H       -0.5413043552     1.7509964756    -1.0763966890
| 16>  H       -0.9689146829     1.8160274411     0.6374862197
| 17>  H       -1.4872394855    -0.7018426721    -1.3109572511
| 18>  H       -0.9251471457    -1.9135887345    -0.1395347570
| 19>  H       -1.9961933934    -0.6033017773     0.3821927996
| 20>  H        1.5511860248    -1.5032947751    -0.7071611552
| 21>  H        2.1983047932     0.1942815058    -0.4874805381
| 22>  H        2.1557170987     1.1399233625     1.7222339686
| 23>  H        0.8548713517     1.5496300597     3.8606536098
| 24>  H       -0.2430132846     0.1424327846     3.4477391743
| 25>  H        2.8286911673    -0.0865949348     3.8587361714
| 26>  H        1.2228109509    -1.9629662943     2.6031015282
| 27> *
| 28>
| 29>                          ****END OF INPUT****

CARTESIAN COORDINATES (ANGSTROEM)
---------------------------------
  C     -0.194393    1.497651   -0.068945
  C      0.050232    0.005184    0.036677
  C     -1.157719   -0.854869   -0.277137
  C      1.417701   -0.526578   -0.248486
  N      0.898411   -0.523296    1.118717
  C      1.513018    0.340993    2.090465
  C      0.744697    0.584984    3.376755
  C      1.908550   -0.377102    3.360859
  O      1.679389   -1.745981    3.432556
  H      0.706479    2.081573    0.130875
  H     -0.541304    1.750996   -1.076397
  H     -0.968915    1.816027    0.637486
  H     -1.487239   -0.701843   -1.310957
  H     -0.925147   -1.913589   -0.139535
  H     -1.996193   -0.603302    0.382193
  H      1.551186   -1.503295   -0.707161
  H      2.198305    0.194282   -0.487481
  H      2.155717    1.139923    1.722234
  H      0.854871    1.549630    3.860654
  H     -0.243013    0.142433    3.447739
  H      2.828691   -0.086595    3.858736
  H      1.222811   -1.962966    2.603102

 Total Charge           Charge          ....    0
 Multiplicity           Mult            ....    1
 Number of Electrons    NEL             ....   70
 Basis Dimension        Dim             ....  357

ORBITAL ENERGIES
----------------

  NO   OCC          E(Eh)            E(eV)
   0   2.0000     -20.540198      -558.9272
   1   2.0000     -15.566621      -423.5893
   2   2.0000     -11.274268      -306.7884
   3   2.0000     -11.273877      -306.7778
   4   2.0000     -11.258688      -306.3645
   5   2.0000     -11.257588      -306.3345
   6   2.0000     -11.227279      -305.5098
   7   2.0000     -11.220986      -305.3386
   8   2.0000     -11.219389      -305.2951
   9   2.0000      -1.358273       -36.9605
  10   2.0000      -1.282246       -34.8917
  11   2.0000      -1.121890       -30.5282
  12   2.0000      -1.022455       -27.8224
  13   2.0000      -0.949474       -25.8365
  14   2.0000      -0.909741       -24.7553
  15   2.0000      -0.821966       -22.3668
  16   2.0000      -0.804199       -21.8834
  17   2.0000      -0.738971       -20.1084
  18   2.0000      -0.704557       -19.1720
  19   2.0000      -0.674998       -18.3676
  20   2.0000      -0.632095       -17.2002
  21   2.0000      -0.618881       -16.8406
  22   2.0000      -0.604366       -16.4456
  23   2.0000      -0.576802       -15.6956
  24   2.0000      -0.568552       -15.4711
  25   2.0000      -0.548303       -14.9201
  26   2.0000      -0.539066       -14.6687
  27   2.0000      -0.535376       -14.5683
  28   2.0000      -0.530928       -14.4473
  29   2.0000      -0.500661       -13.6237
  30   2.0000      -0.493215       -13.4211
  31   2.0000      -0.451952       -12.2982
  32   2.0000      -0.403924       -10.9913
  33   2.0000      -0.390415       -10.6237
  34   2.0000      -0.359010        -9.7692
  35   0.0000       0.130390         3.5481
  36   0.0000       0.149860         4.0779
  37   0.0000       0.166502         4.5307
  38   0.0000       0.173811         4.7296
  39   0.0000       0.186132         5.0649

MULLIKEN ATOMIC CHARGES
-----------------------
   0 C :   -0.366446
   1 C :    0.097728
   2 C :   -0.403117
   3 C :   -0.190560
   4 N :   -0.272228
   5 C :   -0.077161
   6 C :   -0.255917
   7 C :    0.079789
   8 O :   -0.475996
   9 H :    0.126895
  10 H :    0.141583
  11 H :    0.136344
  12 H :    0.126875
  13 H :    0.136464
  14 H :    0.127939
  15 H :    0.133405
  16 H :    0.120085
  17 H :    0.109778
  18 H :    0.126257
  19 H :    0.133384
  20 H :    0.115201
  21 H :    0.329697
Sum of atomic charges:    0.0000000

LOEWDIN ATOMIC CHARGES
----------------------
   0 C :   -0.266898
   1 C :   -0.325032
   2 C :   -0.267204
   3 C :   -0.216957
   4 N :    0.142929
   5 C :   -0.270856
   6 C :   -0.217677
   7 C :   -0.317981
   8 O :   -0.006704
   9 H :    0.127800
  10 H :    0.132041
  11 H :    0.130678
  12 H :    0.127207
  13 H :    0.130171
  14 H :    0.127854
  15 H :    0.126433
  16 H :    0.127066
  17 H :    0.134018
  18 H :    0.131724
  19 H :    0.139499
  20 H :    0.134860
  21 H :    0.177030

  Mayer bond orders larger than 0.1
B(  0-C ,  1-C ) :   0.9270 B(  0-C ,  9-H ) :   0.9280 B(  0-C , 10-H ) :   0.9327
B(  0-C , 11-H ) :   0.9367 B(  1-C ,  2-C ) :   0.9093 B(  1-C ,  3-C ) :   0.9427
B(  1-C ,  4-N ) :   0.8247 B(  2-C , 12-H ) :   0.9360 B(  2-C , 13-H ) :   0.9370
B(  2-C , 14-H ) :   0.9370 B(  3-C ,  4-N ) :   0.8595 B(  3-C , 15-H ) :   0.9117
B(  3-C , 16-H ) :   0.9201 B(  4-N ,  5-C ) :   0.8870 B(  5-C ,  6-C ) :   0.8772
B(  5-C ,  7-C ) :   0.9038 B(  5-C , 17-H ) :   0.9121 B(  6-C ,  7-C ) :   0.8730
B(  6-C , 18-H ) :   0.9167 B(  6-C , 19-H ) :   0.9195 B(  7-C ,  8-O ) :   1.0100
B(  7-C , 20-H ) :   0.9464 B(  8-O , 21-H ) :   0.8022

MP2 TOTAL ENERGY:     -403.612765534 Eh
FINAL SINGLE POINT ENERGY      -403.612765533863

DIPOLE MOMENT
-------------
                                X             Y             Z
Electronic contribution:      3.98302      -3.34277       4.43889
Nuclear contribution   :     -4.19338       4.18652      -5.39275
                        -----------------------------------------
Total Dipole Moment    :     -0.21036       0.84375      -0.95386
                        -----------------------------------------
Magnitude (a.u.)       :      1.29074
Magnitude (Debye)      :      3.28080

                             ****ORCA TERMINATED NORMALLY****
TOTAL RUN TIME: 0 days 0 hours 18 minutes 26 seconds 973 msec
