                         Program Version 3.0.3 - RELEASE   -
|  1> ! RI-MP2 RIJK def2-TZVP def2-TZVP/C def2-TZVP/JK TIGHTSCF
|  2> % maxcore 2000
|  3> % mp2 density relaxed end
|  4> *xyz 0 1
|  5>  C        0.5350599930     1.0386730290     1.2342920211
|  6>  C        0.0756930618    -0.0339163814     0.2418679609
|  7>  O       -0.0811273601    -1.2386694992     0.9635805200
|  8>  C       -1.2807724530     0.3947147699    -0.3279003188
|  9>  O       -1.4086824121     1.1078263359    -1.2902181748
| 10>  C        1.0926818196    -0.2614368090    -0.9076612569
| 11>  O        0.8123435918    -1.4970270213    -1.5166039598
| 12>  C        1.1371517158     0.8249846903    -1.9740554781
| 13>  O        1.0793792647     0.5286988271    -3.1437917641
| 14>  H        1.4866834470     0.7371446567     1.6803768870
| 15>  H        0.6509171334     2.0111994216     0.7486479125
| 16>  H       -0.1978302431     1.1386725121     2.0398532586
| 17>  H       -0.0753290477    -1.9472063330     0.3040926748
| 18>  H       -2.1491871663     0.0041538358     0.2446298019
| 19>  H        2.0946282220    -0.2847036353    -0.4435163441
| 20>  H        0.7510996771    -1.3040347903    -2.4689357260
| 21>  H        1.3055041661     1.8628868613    -1.6374009743
| 22> *
| 23>
| 24>                          ****END OF INPUT****

CARTESIAN COORDINATES (ANGSTROEM)
---------------------------------
  C      0.535060    1.038673    1.234292
  C      0.075693   -0.033916    0.241868
  O     -0.081127   -1.238669    0.963581
  C     -1.280772    0.394715   -0.327900
  O     -1.408682    1.107826   -1.290218
  C      1.092682   -0.261437   -0.907661
  O      0.812344   -1.497027   -1.516604
  C      1.137152    0.824985   -1.974055
  O      1.079379    0.528699   -3.143792
  H      1.486683    0.737145    1.680377
  H      0.650917    2.011199    0.748648
  H     -0.197830    1.138673    2.039853
  H     -0.075329   -1.947206    0.304093
  H     -2.149187    0.004154    0.244630
  H      2.094628   -0.284704   -0.443516
  H      0.751100   -1.304035   -2.468936
  H      1.305504    1.862887   -1.637401

 Total Charge           Charge          ....    0
 Multiplicity           Mult            ....    1
 Number of Electrons    NEL             ....   70
 Basis Dimension        Dim             ....  327

ORBITAL ENERGIES
----------------

  NO   OCC          E(Eh)            E(eV)
   0   2.0000     -20.582158      -560.0690
   1   2.0000     -20.581365      -560.0474
   2   2.0000     -20.579812      -560.0052
   3   2.0000     -20.576343      -559.9108
   4   2.0000     -11.354892      -308.9823
   5   2.0000     -11.348430      -308.8065
   6   2.0000     -11.325219      -308.1749
   7   2.0000     -11.318890      -308.0027
   8   2.0000     -11.250496      -306.1416
   9   2.0000      -1.435547       -39.0632
  10   2.0000      -1.419949       -38.6388
  11   2.0000      -1.400271       -38.1033
  12   2.0000      -1.372793       -37.3556
  13   2.0000      -1.087627       -29.5958
  14   2.0000      -0.988042       -26.8860
  15   2.0000      -0.917120       -24.9561
  16   2.0000      -0.838925       -22.8283
  17   2.0000      -0.784432       -21.3455
  18   2.0000      -0.754826       -20.5399
  19   2.0000      -0.740269       -20.1437
  20   2.0000      -0.697123       -18.9697
  21   2.0000      -0.670526       -18.2459
  22   2.0000      -0.663079       -18.0433
  23   2.0000      -0.641811       -17.4646
  24   2.0000      -0.603158       -16.4128
  25   2.0000      -0.581827       -15.8323
  26   2.0000      -0.577624       -15.7179
  27   2.0000      -0.564571       -15.3628
  28   2.0000      -0.554189       -15.0803
  29   2.0000      -0.540619       -14.7110
  30   2.0000      -0.527552       -14.3554
  31   2.0000      -0.519089       -14.1251
  32   2.0000      -0.475736       -12.9454
  33   2.0000      -0.446525       -12.1506
  34   2.0000      -0.421900       -11.4805
  35   0.0000       0.105433         2.8690
  36   0.0000       0.126570         3.4442
  37   0.0000       0.131920         3.5897
  38   0.0000       0.161489         4.3944
  39   0.0000       0.170866         4.6495

MULLIKEN ATOMIC CHARGES
-----------------------
   0 C :   -0.411558
   1 C :    0.268299
   2 O :   -0.472201
   3 C :    0.038677
   4 O :   -0.256302
   5 C :    0.066114
   6 O :   -0.513971
   7 C :    0.104739
   8 O :   -0.297032
   9 H :    0.146701
  10 H :    0.140839
  11 H :    0.152767
  12 H :    0.343877
  13 H :    0.113523
  14 H :    0.122058
  15 H :    0.344213
  16 H :    0.109259
Sum of atomic charges:   -0.0000000

LOEWDIN ATOMIC CHARGES
----------------------
   0 C :   -0.254436
   1 C :   -0.401761
   2 O :    0.028158
   3 C :   -0.245936
   4 O :    0.163875
   5 C :   -0.324350
   6 O :   -0.008325
   7 C :   -0.272862
   8 O :    0.129226
   9 H :    0.135238
  10 H :    0.131559
  11 H :    0.137582
  12 H :    0.188300
  13 H :    0.123224
  14 H :    0.159695
  15 H :    0.189180
  16 H :    0.121632

  Mayer bond orders larger than 0.1
B(  0-C ,  1-C ) :   0.8788 B(  0-C ,  9-H ) :   0.9312 B(  0-C , 10-H ) :   0.9287
B(  0-C , 11-H ) :   0.9281 B(  1-C ,  2-O ) :   0.9775 B(  1-C ,  3-C ) :   0.8223
B(  1-C ,  5-C ) :   0.8673 B(  2-O , 12-H ) :   0.8121 B(  3-C ,  4-O ) :   1.9474
B(  3-C , 13-H ) :   0.9213 B(  5-C ,  6-O ) :   1.0106 B(  5-C ,  7-C ) :   0.8834
B(  5-C , 14-H ) :   0.9381 B(  6-O , 15-H ) :   0.7908 B(  7-C ,  8-O ) :   1.8854
B(  7-C , 16-H ) :   0.9330

MP2 TOTAL ENERGY:     -495.354855231 Eh
FINAL SINGLE POINT ENERGY      -495.354855230935

DIPOLE MOMENT
-------------
                                X             Y             Z
Electronic contribution:     -1.60630      -1.33195      -5.32481
Nuclear contribution   :      1.96934       1.59361       6.09864
                        -----------------------------------------
Total Dipole Moment    :      0.36304       0.26166       0.77383
                        -----------------------------------------
Magnitude (a.u.)       :      0.89391
Magnitude (Debye)      :      2.27215

                             ****ORCA TERMINATED NORMALLY****
TOTAL RUN TIME: 0 days 0 hours 16 minutes 33 seconds 458 msec
