                         Program Version 3.0.3 - RELEASE   -
|  1> ! RI-MP2 RIJK def2-TZVP def2-TZVP/C def2-TZVP/JK TIGHTSCF
|  2> % maxcore 2000
|  3> % mp2 density relaxed end
|  4> *xyz 0 1
|  5>  C       -0.4356303740     1.5277949239     0.3726602687
|  6>  C       -0.1065006201     0.0487914263     0.1958515863
|  7>  C        0.3235602658    -0.4511640782    -1.1886980387
|  8>  C        1.6639305323     0.1172217464    -1.5687174731
|  9>  C        1.6125142259    -1.0491123349    -0.6177523166
| 10>  C        2.2964466845    -2.3514649962    -0.9354979893
| 11>  C        1.2230172419    -0.5673736369     0.8076446209
| 12>  C        2.2032642007     0.3808535696     1.5010238906
| 13>  C        0.8919408802    -1.7350803578     1.7415641814
| 14>  H        0.3567607409     2.1806499787    -0.0050583306
| 15>  H       -1.3543189728     1.7812600171    -0.1683067319
| 16>  H       -0.5955498658     1.7764870370     1.4277677731
| 17>  H       -0.9560831473    -0.5392296788     0.5590280925
| 18>  H       -0.3445210341    -0.8685611140    -1.9346461009
| 19>  H        2.0017774901    -0.1313017955    -2.5706501864
| 20>  H        1.9649872812     1.1107181808    -1.2484806449
| 21>  H        2.2639519510    -2.5527909022    -2.0115284324
| 22>  H        3.3532240117    -2.3322846993    -0.6405721365
| 23>  H        1.8276739676    -3.2000493511    -0.4262876992
| 24>  H        2.4791266042     1.2347368384     0.8773309862
| 25>  H        1.7782673877     0.7750557980     2.4314353382
| 26>  H        3.1274250378    -0.1477988449     1.7623600361
| 27>  H        1.7943949802    -2.2827723077     2.0367107476
| 28>  H        0.4123788169    -1.3688309513     2.6565291433
| 29>  H        0.2074700135    -2.4474034377     1.2690351656
| 30> *
| 31>
| 32>                          ****END OF INPUT****

CARTESIAN COORDINATES (ANGSTROEM)
---------------------------------
  C     -0.435630    1.527795    0.372660
  C     -0.106501    0.048791    0.195852
  C      0.323560   -0.451164   -1.188698
  C      1.663931    0.117222   -1.568717
  C      1.612514   -1.049112   -0.617752
  C      2.296447   -2.351465   -0.935498
  C      1.223017   -0.567374    0.807645
  C      2.203264    0.380854    1.501024
  C      0.891941   -1.735080    1.741564
  H      0.356761    2.180650   -0.005058
  H     -1.354319    1.781260   -0.168307
  H     -0.595550    1.776487    1.427768
  H     -0.956083   -0.539230    0.559028
  H     -0.344521   -0.868561   -1.934646
  H      2.001777   -0.131302   -2.570650
  H      1.964987    1.110718   -1.248481
  H      2.263952   -2.552791   -2.011528
  H      3.353224   -2.332285   -0.640572
  H      1.827674   -3.200049   -0.426288
  H      2.479127    1.234737    0.877331
  H      1.778267    0.775056    2.431435
  H      3.127425   -0.147799    1.762360
  H      1.794395   -2.282772    2.036711
  H      0.412379   -1.368831    2.656529
  H      0.207470   -2.447403    1.269035

 Total Charge           Charge          ....    0
 Multiplicity           Mult            ....    1
 Number of Electrons    NEL             ....   70
 Basis Dimension        Dim             ....  375

ORBITAL ENERGIES
----------------

  NO   OCC          E(Eh)            E(eV)
   0   2.0000     -11.231557      -305.6262
   1   2.0000     -11.227878      -305.5261
   2   2.0000     -11.222182      -305.3711
   3   2.0000     -11.219522      -305.2987
   4   2.0000     -11.216186      -305.2079
   5   2.0000     -11.213559      -305.1365
   6   2.0000     -11.209080      -305.0146
   7   2.0000     -11.206834      -304.9535
   8   2.0000     -11.206178      -304.9356
   9   2.0000      -1.188834       -32.3498
  10   2.0000      -1.043631       -28.3987
  11   2.0000      -1.004057       -27.3218
  12   2.0000      -0.954173       -25.9644
  13   2.0000      -0.928513       -25.2661
  14   2.0000      -0.877528       -23.8788
  15   2.0000      -0.801895       -21.8207
  16   2.0000      -0.761388       -20.7184
  17   2.0000      -0.672856       -18.3094
  18   2.0000      -0.659091       -17.9348
  19   2.0000      -0.631103       -17.1732
  20   2.0000      -0.599640       -16.3170
  21   2.0000      -0.575236       -15.6530
  22   2.0000      -0.559300       -15.2193
  23   2.0000      -0.557177       -15.1616
  24   2.0000      -0.550197       -14.9716
  25   2.0000      -0.540694       -14.7130
  26   2.0000      -0.531602       -14.4656
  27   2.0000      -0.521244       -14.1838
  28   2.0000      -0.513264       -13.9666
  29   2.0000      -0.491036       -13.3618
  30   2.0000      -0.471002       -12.8166
  31   2.0000      -0.432290       -11.7632
  32   2.0000      -0.413877       -11.2622
  33   2.0000      -0.389628       -10.6023
  34   2.0000      -0.359068        -9.7707
  35   0.0000       0.130934         3.5629
  36   0.0000       0.156571         4.2605
  37   0.0000       0.165411         4.5011
  38   0.0000       0.168282         4.5792
  39   0.0000       0.191450         5.2096

MULLIKEN ATOMIC CHARGES
-----------------------
   0 C :   -0.400890
   1 C :   -0.118609
   2 C :   -0.114247
   3 C :   -0.315679
   4 C :    0.037334
   5 C :   -0.422077
   6 C :    0.169593
   7 C :   -0.394673
   8 C :   -0.468839
   9 H :    0.115662
  10 H :    0.132829
  11 H :    0.127075
  12 H :    0.097769
  13 H :    0.120781
  14 H :    0.125744
  15 H :    0.123035
  16 H :    0.129597
  17 H :    0.135068
  18 H :    0.134079
  19 H :    0.121406
  20 H :    0.128354
  21 H :    0.130737
  22 H :    0.132825
  23 H :    0.134836
  24 H :    0.138290
Sum of atomic charges:    0.0000000

LOEWDIN ATOMIC CHARGES
----------------------
   0 C :   -0.294505
   1 C :   -0.192673
   2 C :   -0.146409
   3 C :   -0.189077
   4 C :   -0.188934
   5 C :   -0.274342
   6 C :   -0.233706
   7 C :   -0.269259
   8 C :   -0.270884
   9 H :    0.120682
  10 H :    0.125519
  11 H :    0.123125
  12 H :    0.153004
  13 H :    0.133275
  14 H :    0.139415
  15 H :    0.126454
  16 H :    0.129937
  17 H :    0.128180
  18 H :    0.125951
  19 H :    0.122341
  20 H :    0.125801
  21 H :    0.127610
  22 H :    0.124846
  23 H :    0.126527
  24 H :    0.127122

  Mayer bond orders larger than 0.1
B(  0-C ,  1-C ) :   0.8963 B(  0-C ,  9-H ) :   0.9342 B(  0-C , 10-H ) :   0.9376
B(  0-C , 11-H ) :   0.9413 B(  1-C ,  2-C ) :   0.9427 B(  1-C ,  6-C ) :   0.9504
B(  1-C , 12-H ) :   0.9259 B(  2-C ,  3-C ) :   0.8600 B(  2-C ,  4-C ) :   0.8167
B(  2-C , 13-H ) :   0.9192 B(  3-C ,  4-C ) :   0.8815 B(  3-C , 14-H ) :   0.9325
B(  3-C , 15-H ) :   0.9174 B(  4-C ,  5-C ) :   0.8813 B(  4-C ,  6-C ) :   0.9459
B(  5-C , 16-H ) :   0.9363 B(  5-C , 17-H ) :   0.9426 B(  5-C , 18-H ) :   0.9406
B(  6-C ,  7-C ) :   0.9118 B(  6-C ,  8-C ) :   0.8510 B(  7-C , 19-H ) :   0.9342
B(  7-C , 20-H ) :   0.9365 B(  7-C , 21-H ) :   0.9346 B(  8-C , 22-H ) :   0.9384
B(  8-C , 23-H ) :   0.9370 B(  8-C , 24-H ) :   0.9400

MP2 TOTAL ENERGY:     -351.696944577 Eh
FINAL SINGLE POINT ENERGY      -351.696944577032

DIPOLE MOMENT
-------------
                                X             Y             Z
Electronic contribution:     -0.92547      -0.30996      -2.81499
Nuclear contribution   :      0.91543       0.19625       2.83035
                        -----------------------------------------
Total Dipole Moment    :     -0.01004      -0.11371       0.01536
                        -----------------------------------------
Magnitude (a.u.)       :      0.11518
Magnitude (Debye)      :      0.29277

                             ****ORCA TERMINATED NORMALLY****
TOTAL RUN TIME: 0 days 0 hours 24 minutes 11 seconds 129 msec
