                         Program Version 3.0.3 - RELEASE   -
|  1> ! RI-MP2 RIJK def2-TZVP def2-TZVP/C def2-TZVP/JK TIGHTSCF
|  2> % maxcore 2000
|  3> % mp2 density relaxed end
|  4> *xyz 0 1
|  5>  C       -0.3766610951     1.3909764016    -0.0545336926
|  6>  N       -0.0730165582    -0.0354673762     0.0309266729
|  7>  C        0.3844679207    -0.6265847658    -1.1654923316
|  8>  C        0.2807667358    -1.9103803889    -1.5317344066
|  9>  C       -0.2487291755    -2.9708686275    -0.6984781994
| 10>  C       -0.2029355025    -2.9471961101     0.6392298022
| 11>  N        0.3663595946    -1.9239308037     1.4158345804
| 12>  C        0.1285728675    -0.5479912197     1.3046802690
| 13>  O        0.1116421802     0.1440994107     2.3020268908
| 14>  H        0.5190459540     1.9772259460    -0.2992915793
| 15>  H       -1.1281553903     1.5572104518    -0.8313133153
| 16>  H       -0.7562319756     1.7258315372     0.9081352985
| 17>  H        0.8292867326     0.0956273607    -1.8454780686
| 18>  H        0.6515316695    -2.1725381113    -2.5178858140
| 19>  H       -0.6785292052    -3.8437374492    -1.1774213824
| 20>  H       -0.5913035870    -3.7758192501     1.2236263246
| 21>  H        0.4717377145    -2.1429950757     2.3955085315
| 22> *
| 23>
| 24>                          ****END OF INPUT****

CARTESIAN COORDINATES (ANGSTROEM)
---------------------------------
  C     -0.376661    1.390976   -0.054534
  N     -0.073017   -0.035467    0.030927
  C      0.384468   -0.626585   -1.165492
  C      0.280767   -1.910380   -1.531734
  C     -0.248729   -2.970869   -0.698478
  C     -0.202936   -2.947196    0.639230
  N      0.366360   -1.923931    1.415835
  C      0.128573   -0.547991    1.304680
  O      0.111642    0.144099    2.302027
  H      0.519046    1.977226   -0.299292
  H     -1.128155    1.557210   -0.831313
  H     -0.756232    1.725832    0.908135
  H      0.829287    0.095627   -1.845478
  H      0.651532   -2.172538   -2.517886
  H     -0.678529   -3.843737   -1.177421
  H     -0.591304   -3.775819    1.223626
  H      0.471738   -2.142995    2.395509

 Total Charge           Charge          ....    0
 Multiplicity           Mult            ....    1
 Number of Electrons    NEL             ....   66
 Basis Dimension        Dim             ....  327

ORBITAL ENERGIES
----------------

  NO   OCC          E(Eh)            E(eV)
   0   2.0000     -20.522574      -558.4476
   1   2.0000     -15.598182      -424.4481
   2   2.0000     -15.593926      -424.3323
   3   2.0000     -11.387791      -309.8775
   4   2.0000     -11.284978      -307.0799
   5   2.0000     -11.280037      -306.9454
   6   2.0000     -11.259181      -306.3779
   7   2.0000     -11.236421      -305.7586
   8   2.0000     -11.233267      -305.6727
   9   2.0000      -1.408122       -38.3170
  10   2.0000      -1.270219       -34.5644
  11   2.0000      -1.235040       -33.6071
  12   2.0000      -1.088584       -29.6219
  13   2.0000      -1.003474       -27.3059
  14   2.0000      -0.945473       -25.7276
  15   2.0000      -0.888605       -24.1802
  16   2.0000      -0.797610       -21.7041
  17   2.0000      -0.758003       -20.6263
  18   2.0000      -0.720760       -19.6129
  19   2.0000      -0.666574       -18.1384
  20   2.0000      -0.652969       -17.7682
  21   2.0000      -0.641807       -17.4645
  22   2.0000      -0.627875       -17.0853
  23   2.0000      -0.610536       -16.6135
  24   2.0000      -0.577125       -15.7044
  25   2.0000      -0.554840       -15.0980
  26   2.0000      -0.546162       -14.8618
  27   2.0000      -0.529035       -14.3958
  28   2.0000      -0.480149       -13.0655
  29   2.0000      -0.459647       -12.5076
  30   2.0000      -0.447049       -12.1648
  31   2.0000      -0.380658       -10.3582
  32   2.0000      -0.301313        -8.1991
  33   0.0000       0.103301         2.8110
  34   0.0000       0.140854         3.8328
  35   0.0000       0.147074         4.0021
  36   0.0000       0.167277         4.5518
  37   0.0000       0.185786         5.0555

MULLIKEN ATOMIC CHARGES
-----------------------
   0 C :   -0.336830
   1 N :   -0.103455
   2 C :   -0.084108
   3 C :   -0.149946
   4 C :   -0.149966
   5 C :   -0.051723
   6 N :   -0.308844
   7 C :    0.320686
   8 O :   -0.370211
   9 H :    0.136387
  10 H :    0.146118
  11 H :    0.179578
  12 H :    0.126408
  13 H :    0.131598
  14 H :    0.133064
  15 H :    0.132635
  16 H :    0.248611
Sum of atomic charges:    0.0000000

LOEWDIN ATOMIC CHARGES
----------------------
   0 C :   -0.278827
   1 N :    0.179817
   2 C :   -0.189926
   3 C :   -0.181939
   4 C :   -0.194012
   5 C :   -0.210573
   6 N :    0.119564
   7 C :   -0.491998
   8 O :    0.081585
   9 H :    0.117301
  10 H :    0.120367
  11 H :    0.134896
  12 H :    0.146205
  13 H :    0.153219
  14 H :    0.151539
  15 H :    0.141609
  16 H :    0.201173

  Mayer bond orders larger than 0.1
B(  0-C ,  1-N ) :   0.8711 B(  0-C ,  9-H ) :   0.9335 B(  0-C , 10-H ) :   0.9322
B(  0-C , 11-H ) :   0.9218 B(  1-N ,  2-C ) :   0.9644 B(  1-N ,  7-C ) :   1.1035
B(  2-C ,  3-C ) :   1.7195 B(  2-C , 12-H ) :   0.9186 B(  3-C ,  4-C ) :   1.0071
B(  3-C , 13-H ) :   0.9172 B(  4-C ,  5-C ) :   1.7216 B(  4-C , 14-H ) :   0.9200
B(  5-C ,  6-N ) :   0.9998 B(  5-C , 15-H ) :   0.9180 B(  6-N ,  7-C ) :   1.0653
B(  6-N , 16-H ) :   0.8647 B(  7-C ,  8-O ) :   1.9160

MP2 TOTAL ENERGY:     -417.335879473 Eh
FINAL SINGLE POINT ENERGY      -417.335879473426

DIPOLE MOMENT
-------------
                                X             Y             Z
Electronic contribution:      0.80197      -1.70644       3.50605
Nuclear contribution   :     -0.92788       1.29290      -4.20454
                        -----------------------------------------
Total Dipole Moment    :     -0.12591      -0.41354      -0.69849
                        -----------------------------------------
Magnitude (a.u.)       :      0.82144
Magnitude (Debye)      :      2.08793

                             ****ORCA TERMINATED NORMALLY****
TOTAL RUN TIME: 0 days 0 hours 22 minutes 45 seconds 17 msec
