                         Program Version 3.0.3 - RELEASE   -
|  1> ! RI-MP2 RIJK def2-TZVP def2-TZVP/C def2-TZVP/JK TIGHTSCF
|  2> % maxcore 2000
|  3> % mp2 density relaxed end
|  4> *xyz 0 1
|  5>  C        0.0629283167     1.5492258640     0.0109163891
|  6>  C        0.0143181500     0.0445648333    -0.0422836666
|  7>  C        0.4136598897    -0.8268887303    -1.2302308577
|  8>  N       -0.3218373567    -1.9660897238    -0.5511329728
|  9>  C        0.5918567487    -2.1652494555     0.6160087507
| 10>  C        0.3842745800    -0.7855324853     1.2741202996
| 11>  O        1.3297116173    -0.2498002487     2.1441716988
| 12>  C       -1.1353176387    -0.8812290356     1.5964074688
| 13>  C       -1.2466439551    -0.8660461834     0.0724513069
| 14>  H        1.0995470888     1.8986926383     0.0680915320
| 15>  H       -0.3950219038     1.9916070207    -0.8803952890
| 16>  H       -0.4584396582     1.9422634276     0.8897914072
| 17>  H       -0.1090810966    -0.5381379341    -2.1478693707
| 18>  H        1.4663965140    -1.0276536685    -1.4570807695
| 19>  H        0.2614871539    -2.9995251503     1.2430492497
| 20>  H        1.6144073934    -2.3557059552     0.2810316088
| 21>  H        1.4160785154    -0.8341878433     2.9051921970
| 22>  H       -1.5006262206    -1.7403037916     2.1675387802
| 23>  H       -1.5331093815     0.0483472028     2.0116412268
| 24>  H       -2.1725871068    -0.7293063911    -0.4824051996
| 25> *
| 26>
| 27>                          ****END OF INPUT****

CARTESIAN COORDINATES (ANGSTROEM)
---------------------------------
  C      0.062928    1.549226    0.010916
  C      0.014318    0.044565   -0.042284
  C      0.413660   -0.826889   -1.230231
  N     -0.321837   -1.966090   -0.551133
  C      0.591857   -2.165249    0.616009
  C      0.384275   -0.785532    1.274120
  O      1.329712   -0.249800    2.144172
  C     -1.135318   -0.881229    1.596407
  C     -1.246644   -0.866046    0.072451
  H      1.099547    1.898693    0.068092
  H     -0.395022    1.991607   -0.880395
  H     -0.458440    1.942263    0.889791
  H     -0.109081   -0.538138   -2.147869
  H      1.466397   -1.027654   -1.457081
  H      0.261487   -2.999525    1.243049
  H      1.614407   -2.355706    0.281032
  H      1.416079   -0.834188    2.905192
  H     -1.500626   -1.740304    2.167539
  H     -1.533109    0.048347    2.011641
  H     -2.172587   -0.729306   -0.482405

 Total Charge           Charge          ....    0
 Multiplicity           Mult            ....    1
 Number of Electrons    NEL             ....   68
 Basis Dimension        Dim             ....  345

ORBITAL ENERGIES
----------------

  NO   OCC          E(Eh)            E(eV)
   0   2.0000     -20.567417      -559.6679
   1   2.0000     -15.554257      -423.2528
   2   2.0000     -11.291330      -307.2527
   3   2.0000     -11.258908      -306.3705
   4   2.0000     -11.246549      -306.0342
   5   2.0000     -11.244767      -305.9857
   6   2.0000     -11.238000      -305.8015
   7   2.0000     -11.226315      -305.4836
   8   2.0000     -11.216856      -305.2262
   9   2.0000      -1.378701       -37.5164
  10   2.0000      -1.278635       -34.7934
  11   2.0000      -1.065253       -28.9870
  12   2.0000      -1.017335       -27.6831
  13   2.0000      -0.955214       -25.9927
  14   2.0000      -0.896662       -24.3994
  15   2.0000      -0.836765       -22.7695
  16   2.0000      -0.782943       -21.3050
  17   2.0000      -0.730386       -19.8748
  18   2.0000      -0.691324       -18.8119
  19   2.0000      -0.650053       -17.6888
  20   2.0000      -0.632660       -17.2156
  21   2.0000      -0.622361       -16.9353
  22   2.0000      -0.592964       -16.1354
  23   2.0000      -0.563198       -15.3254
  24   2.0000      -0.558736       -15.2040
  25   2.0000      -0.544389       -14.8136
  26   2.0000      -0.526121       -14.3165
  27   2.0000      -0.511165       -13.9095
  28   2.0000      -0.492898       -13.4124
  29   2.0000      -0.467921       -12.7328
  30   2.0000      -0.435271       -11.8443
  31   2.0000      -0.422504       -11.4969
  32   2.0000      -0.408708       -11.1215
  33   2.0000      -0.355745        -9.6803
  34   0.0000       0.130287         3.5453
  35   0.0000       0.147662         4.0181
  36   0.0000       0.167481         4.5574
  37   0.0000       0.172508         4.6942
  38   0.0000       0.185056         5.0356

MULLIKEN ATOMIC CHARGES
-----------------------
   0 C :   -0.403438
   1 C :    0.047411
   2 C :   -0.179871
   3 N :   -0.190138
   4 C :   -0.153496
   5 C :    0.131267
   6 O :   -0.456270
   7 C :   -0.267415
   8 C :   -0.089405
   9 H :    0.142713
  10 H :    0.133294
  11 H :    0.131353
  12 H :    0.112997
  13 H :    0.114423
  14 H :    0.114092
  15 H :    0.117223
  16 H :    0.323307
  17 H :    0.119954
  18 H :    0.124296
  19 H :    0.127704
Sum of atomic charges:    0.0000000

LOEWDIN ATOMIC CHARGES
----------------------
   0 C :   -0.273022
   1 C :   -0.206990
   2 C :   -0.217626
   3 N :    0.097659
   4 C :   -0.240736
   5 C :   -0.324723
   6 O :    0.022111
   7 C :   -0.199064
   8 C :   -0.155811
   9 H :    0.134210
  10 H :    0.127986
  11 H :    0.130911
  12 H :    0.134976
  13 H :    0.122172
  14 H :    0.128903
  15 H :    0.131756
  16 H :    0.183261
  17 H :    0.126268
  18 H :    0.145438
  19 H :    0.132321

  Mayer bond orders larger than 0.1
B(  0-C ,  1-C ) :   0.8916 B(  0-C ,  9-H ) :   0.9366 B(  0-C , 10-H ) :   0.9399
B(  0-C , 11-H ) :   0.9299 B(  1-C ,  2-C ) :   0.9561 B(  1-C ,  5-C ) :   0.8429
B(  1-C ,  8-C ) :   0.8950 B(  2-C ,  3-N ) :   0.9306 B(  2-C , 12-H ) :   0.9138
B(  2-C , 13-H ) :   0.9204 B(  3-N ,  4-C ) :   0.9362 B(  3-N ,  8-C ) :   0.9087
B(  4-C ,  5-C ) :   0.9523 B(  4-C , 14-H ) :   0.9149 B(  4-C , 15-H ) :   0.9290
B(  5-C ,  6-O ) :   1.0225 B(  5-C ,  7-C ) :   0.9407 B(  6-O , 16-H ) :   0.8352
B(  7-C ,  8-C ) :   0.9292 B(  7-C , 17-H ) :   0.9084 B(  7-C , 18-H ) :   0.9094
B(  8-C , 19-H ) :   0.9148

MP2 TOTAL ENERGY:     -402.412922691 Eh
FINAL SINGLE POINT ENERGY      -402.412922690631

DIPOLE MOMENT
-------------
                                X             Y             Z
Electronic contribution:      0.70344      -2.60079       1.01415
Nuclear contribution   :     -0.72516       2.77751      -0.51562
                        -----------------------------------------
Total Dipole Moment    :     -0.02173       0.17673       0.49853
                        -----------------------------------------
Magnitude (a.u.)       :      0.52938
Magnitude (Debye)      :      1.34557

                             ****ORCA TERMINATED NORMALLY****
TOTAL RUN TIME: 0 days 0 hours 19 minutes 18 seconds 571 msec
