                         Program Version 3.0.3 - RELEASE   -
|  1> ! RI-MP2 RIJK def2-TZVP def2-TZVP/C def2-TZVP/JK TIGHTSCF
|  2> % maxcore 2000
|  3> % mp2 density relaxed end
|  4> *xyz 0 1
|  5>  C       -0.0617059485     1.4598709078     0.0144095161
|  6>  O        1.2855359676     1.9296506411     0.1638389590
|  7>  C        2.1535423881     0.8620785520    -0.1672428921
|  8>  C        3.3712652032     0.5851904967     0.7479982056
|  9>  C        3.4991671040    -0.9477300255     0.6865985399
| 10>  N        2.5952150891    -1.6476867851     1.6196918651
| 11>  C        2.2173980828    -1.5420235872     0.1830315503
| 12>  C        1.3140907185    -0.3876872557    -0.0559479368
| 13>  C        0.0348298172    -0.0526652958     0.0370291282
| 14>  H       -0.6659870379     1.8536081643     0.8420800085
| 15>  H       -0.5006050644     1.8429565471    -0.9232422347
| 16>  H        2.5231790372     0.9858915704    -1.2030647399
| 17>  H        4.2790230873     1.0865441384     0.4037185759
| 18>  H        3.1549415848     0.9075059854     1.7700179642
| 19>  H        4.4588504932    -1.4002168613     0.4595935864
| 20>  H        2.9535357131    -2.5871582408     1.7857794207
| 21>  H        2.1852038807    -2.4431221098    -0.4194613302
| 22>  H       -0.8228294762    -0.6984023121     0.1745816537
| 23> *
| 24>
| 25>                          ****END OF INPUT****

CARTESIAN COORDINATES (ANGSTROEM)
---------------------------------
  C     -0.061706    1.459871    0.014410
  O      1.285536    1.929651    0.163839
  C      2.153542    0.862079   -0.167243
  C      3.371265    0.585190    0.747998
  C      3.499167   -0.947730    0.686599
  N      2.595215   -1.647687    1.619692
  C      2.217398   -1.542024    0.183032
  C      1.314091   -0.387687   -0.055948
  C      0.034830   -0.052665    0.037029
  H     -0.665987    1.853608    0.842080
  H     -0.500605    1.842957   -0.923242
  H      2.523179    0.985892   -1.203065
  H      4.279023    1.086544    0.403719
  H      3.154942    0.907506    1.770018
  H      4.458850   -1.400217    0.459594
  H      2.953536   -2.587158    1.785779
  H      2.185204   -2.443122   -0.419461
  H     -0.822829   -0.698402    0.174582

 Total Charge           Charge          ....    0
 Multiplicity           Mult            ....    1
 Number of Electrons    NEL             ....   66
 Basis Dimension        Dim             ....  333

ORBITAL ENERGIES
----------------

  NO   OCC          E(Eh)            E(eV)
   0   2.0000     -20.548227      -559.1457
   1   2.0000     -15.565913      -423.5700
   2   2.0000     -11.277472      -306.8756
   3   2.0000     -11.275789      -306.8298
   4   2.0000     -11.270775      -306.6934
   5   2.0000     -11.267018      -306.5912
   6   2.0000     -11.230389      -305.5944
   7   2.0000     -11.228082      -305.5316
   8   2.0000     -11.223981      -305.4201
   9   2.0000      -1.374554       -37.4035
  10   2.0000      -1.273315       -34.6487
  11   2.0000      -1.082911       -29.4675
  12   2.0000      -1.037821       -28.2405
  13   2.0000      -0.941632       -25.6231
  14   2.0000      -0.895158       -24.3585
  15   2.0000      -0.814516       -22.1641
  16   2.0000      -0.786388       -21.3987
  17   2.0000      -0.744788       -20.2667
  18   2.0000      -0.710043       -19.3213
  19   2.0000      -0.668119       -18.1804
  20   2.0000      -0.646356       -17.5882
  21   2.0000      -0.604194       -16.4409
  22   2.0000      -0.587022       -15.9737
  23   2.0000      -0.561649       -15.2832
  24   2.0000      -0.549646       -14.9566
  25   2.0000      -0.527534       -14.3549
  26   2.0000      -0.503867       -13.7109
  27   2.0000      -0.484739       -13.1904
  28   2.0000      -0.473213       -12.8768
  29   2.0000      -0.454581       -12.3698
  30   2.0000      -0.420753       -11.4493
  31   2.0000      -0.387410       -10.5420
  32   2.0000      -0.341063        -9.2808
  33   0.0000       0.124281         3.3819
  34   0.0000       0.157760         4.2929
  35   0.0000       0.161928         4.4063
  36   0.0000       0.167772         4.5653
  37   0.0000       0.180832         4.9207

MULLIKEN ATOMIC CHARGES
-----------------------
   0 C :    0.013307
   1 O :   -0.334526
   2 C :    0.128305
   3 C :   -0.177148
   4 C :   -0.053313
   5 N :   -0.372185
   6 C :   -0.135634
   7 C :   -0.012096
   8 C :   -0.217123
   9 H :    0.117483
  10 H :    0.099383
  11 H :    0.079410
  12 H :    0.120500
  13 H :    0.112881
  14 H :    0.134289
  15 H :    0.214743
  16 H :    0.143506
  17 H :    0.138218
Sum of atomic charges:    0.0000000

LOEWDIN ATOMIC CHARGES
----------------------
   0 C :   -0.271895
   1 O :    0.168559
   2 C :   -0.257672
   3 C :   -0.202746
   4 C :   -0.232615
   5 N :    0.009212
   6 C :   -0.206464
   7 C :   -0.137880
   8 C :   -0.125130
   9 H :    0.127918
  10 H :    0.122761
  11 H :    0.143266
  12 H :    0.135227
  13 H :    0.148190
  14 H :    0.131737
  15 H :    0.168431
  16 H :    0.138450
  17 H :    0.140651

  Mayer bond orders larger than 0.1
B(  0-C ,  1-O ) :   0.9250 B(  0-C ,  8-C ) :   0.9771 B(  0-C ,  9-H ) :   0.9197
B(  0-C , 10-H ) :   0.9121 B(  1-O ,  2-C ) :   0.9725 B(  2-C ,  3-C ) :   0.9410
B(  2-C ,  7-C ) :   0.9572 B(  2-C , 11-H ) :   0.9146 B(  3-C ,  4-C ) :   0.9400
B(  3-C , 12-H ) :   0.9284 B(  3-C , 13-H ) :   0.8965 B(  4-C ,  5-N ) :   0.9128
B(  4-C ,  6-C ) :   0.9257 B(  4-C , 14-H ) :   0.9195 B(  5-N ,  6-C ) :   0.9867
B(  5-N , 15-H ) :   0.8650 B(  6-C ,  7-C ) :   0.9236 B(  6-C , 16-H ) :   0.9142
B(  7-C ,  8-C ) :   1.7429 B(  8-C , 17-H ) :   0.9105

MP2 TOTAL ENERGY:     -401.224619744 Eh
FINAL SINGLE POINT ENERGY      -401.224619744027

DIPOLE MOMENT
-------------
                                X             Y             Z
Electronic contribution:     -0.84701       0.01769      -0.05910
Nuclear contribution   :      1.04221      -0.89026      -0.41037
                        -----------------------------------------
Total Dipole Moment    :      0.19520      -0.87257      -0.46947
                        -----------------------------------------
Magnitude (a.u.)       :      1.00990
Magnitude (Debye)      :      2.56696

                             ****ORCA TERMINATED NORMALLY****
TOTAL RUN TIME: 0 days 0 hours 17 minutes 54 seconds 821 msec
