                         Program Version 3.0.3 - RELEASE   -
|  1> ! RI-MP2 RIJK def2-TZVP def2-TZVP/C def2-TZVP/JK TIGHTSCF
|  2> % maxcore 2000
|  3> % mp2 density relaxed end
|  4> *xyz 0 1
|  5>  C        0.0780051231     1.3741769290    -0.4868878961
|  6>  C        0.0016138761     0.0271302676     0.1948842458
|  7>  O        0.9197180593    -0.4415962154     0.8356320096
|  8>  C       -1.2720923409    -0.7307367078     0.0306877358
|  9>  C       -1.6957875925    -1.7325231676     1.1195670656
| 10>  C       -1.4392012017    -2.2825276798    -0.2173029387
| 11>  C       -2.6426739897    -2.0324597542    -1.1372887781
| 12>  C       -2.4094281159    -0.5129172332    -0.9231673902
| 13>  O       -2.8387782725     0.4610426670    -1.4766919175
| 14>  H        1.0466077007     1.8325087398    -0.2853133079
| 15>  H       -0.0712592411     1.2610340911    -1.5662078447
| 16>  H       -0.7336912611     2.0215295013    -0.1393426048
| 17>  H       -0.9121223651    -1.8606604582     1.8585811010
| 18>  H       -2.7083964433    -1.6786070570     1.5092222606
| 19>  H       -0.6036837037    -2.9340757788    -0.4340473389
| 20>  H       -2.4768413608    -2.2922936781    -2.1862418817
| 21>  H       -3.5992605810    -2.4494082956    -0.8095900600
| 22> *
| 23>
| 24>                          ****END OF INPUT****

CARTESIAN COORDINATES (ANGSTROEM)
---------------------------------
  C      0.078005    1.374177   -0.486888
  C      0.001614    0.027130    0.194884
  O      0.919718   -0.441596    0.835632
  C     -1.272092   -0.730737    0.030688
  C     -1.695788   -1.732523    1.119567
  C     -1.439201   -2.282528   -0.217303
  C     -2.642674   -2.032460   -1.137289
  C     -2.409428   -0.512917   -0.923167
  O     -2.838778    0.461043   -1.476692
  H      1.046608    1.832509   -0.285313
  H     -0.071259    1.261034   -1.566208
  H     -0.733691    2.021530   -0.139343
  H     -0.912122   -1.860660    1.858581
  H     -2.708396   -1.678607    1.509222
  H     -0.603684   -2.934076   -0.434047
  H     -2.476841   -2.292294   -2.186242
  H     -3.599261   -2.449408   -0.809590

 Total Charge           Charge          ....    0
 Multiplicity           Mult            ....    1
 Number of Electrons    NEL             ....   66
 Basis Dimension        Dim             ....  327

ORBITAL ENERGIES
----------------

  NO   OCC          E(Eh)            E(eV)
   0   2.0000     -20.559222      -559.4449
   1   2.0000     -20.546877      -559.1089
   2   2.0000     -11.350125      -308.8526
   3   2.0000     -11.343226      -308.6649
   4   2.0000     -11.280695      -306.9633
   5   2.0000     -11.270186      -306.6773
   6   2.0000     -11.267404      -306.6017
   7   2.0000     -11.261294      -306.4354
   8   2.0000     -11.232867      -305.6618
   9   2.0000      -1.405119       -38.2352
  10   2.0000      -1.392144       -37.8822
  11   2.0000      -1.223404       -33.2905
  12   2.0000      -1.026376       -27.9291
  13   2.0000      -1.003105       -27.2959
  14   2.0000      -0.916391       -24.9363
  15   2.0000      -0.829301       -22.5664
  16   2.0000      -0.810364       -22.0511
  17   2.0000      -0.702869       -19.1260
  18   2.0000      -0.697288       -18.9742
  19   2.0000      -0.670513       -18.2456
  20   2.0000      -0.644761       -17.5448
  21   2.0000      -0.615552       -16.7500
  22   2.0000      -0.612818       -16.6756
  23   2.0000      -0.602780       -16.4025
  24   2.0000      -0.583934       -15.8897
  25   2.0000      -0.567546       -15.4437
  26   2.0000      -0.544166       -14.8075
  27   2.0000      -0.528632       -14.3848
  28   2.0000      -0.510795       -13.8994
  29   2.0000      -0.476183       -12.9576
  30   2.0000      -0.428988       -11.6734
  31   2.0000      -0.412027       -11.2118
  32   2.0000      -0.401254       -10.9187
  33   0.0000       0.122089         3.3222
  34   0.0000       0.128353         3.4927
  35   0.0000       0.140142         3.8135
  36   0.0000       0.151777         4.1301
  37   0.0000       0.162825         4.4307

MULLIKEN ATOMIC CHARGES
-----------------------
   0 C :   -0.364874
   1 C :    0.152106
   2 O :   -0.305991
   3 C :    0.028148
   4 C :   -0.240551
   5 C :   -0.123751
   6 C :   -0.219962
   7 C :    0.119092
   8 O :   -0.263963
   9 H :    0.150630
  10 H :    0.147342
  11 H :    0.153826
  12 H :    0.168649
  13 H :    0.151530
  14 H :    0.164255
  15 H :    0.142914
  16 H :    0.140602
Sum of atomic charges:   -0.0000000

LOEWDIN ATOMIC CHARGES
----------------------
   0 C :   -0.264106
   1 C :   -0.325895
   2 O :    0.143428
   3 C :   -0.126942
   4 C :   -0.147127
   5 C :   -0.126271
   6 C :   -0.179539
   7 C :   -0.289987
   8 O :    0.157911
   9 H :    0.132964
  10 H :    0.142997
  11 H :    0.143485
  12 H :    0.157205
  13 H :    0.141581
  14 H :    0.149256
  15 H :    0.150509
  16 H :    0.140530

  Mayer bond orders larger than 0.1
B(  0-C ,  1-C ) :   0.9396 B(  0-C ,  9-H ) :   0.9306 B(  0-C , 10-H ) :   0.9058
B(  0-C , 11-H ) :   0.9106 B(  1-C ,  2-O ) :   1.9638 B(  1-C ,  3-C ) :   0.9300
B(  3-C ,  4-C ) :   0.7969 B(  3-C ,  5-C ) :   0.7631 B(  3-C ,  6-C ) :  -0.1273
B(  3-C ,  7-C ) :   0.8251 B(  4-C ,  5-C ) :   0.9567 B(  4-C , 12-H ) :   0.9185
B(  4-C , 13-H ) :   0.9172 B(  5-C ,  6-C ) :   0.9228 B(  5-C , 14-H ) :   0.9057
B(  6-C ,  7-C ) :   0.9637 B(  6-C , 15-H ) :   0.9089 B(  6-C , 16-H ) :   0.8989
B(  7-C ,  8-O ) :   2.0219

MP2 TOTAL ENERGY:     -421.125899615 Eh
FINAL SINGLE POINT ENERGY      -421.125899615049

DIPOLE MOMENT
-------------
                                X             Y             Z
Electronic contribution:     -0.20750       0.38437       0.13569
Nuclear contribution   :     -0.14802      -1.07427      -0.15247
                        -----------------------------------------
Total Dipole Moment    :     -0.35552      -0.68990      -0.01678
                        -----------------------------------------
Magnitude (a.u.)       :      0.77630
Magnitude (Debye)      :      1.97319

                             ****ORCA TERMINATED NORMALLY****
TOTAL RUN TIME: 0 days 0 hours 18 minutes 11 seconds 351 msec
