                         Program Version 3.0.3 - RELEASE   -
|  1> ! RI-MP2 RIJK def2-TZVP def2-TZVP/C def2-TZVP/JK TIGHTSCF
|  2> % maxcore 2000
|  3> % mp2 density relaxed end
|  4> *xyz 0 1
|  5>  C        0.9579218560    -0.5320790934    -1.0241177781
|  6>  N        0.0666688525     0.0482246213    -0.0256010572
|  7>  C        0.1003775723     1.5082491885    -0.1071614191
|  8>  C       -1.2805149818    -0.4843301457    -0.1247675241
|  9>  C       -1.3773133507    -2.0210599326    -0.1101446436
| 10>  O       -2.7080398503    -2.3088842255     0.3086418598
| 11>  C       -3.0332553687    -1.3958244082     1.3362138688
| 12>  C       -2.1982896390    -0.1427975123     1.0696917042
| 13>  O       -2.2585212887     0.8804107194     1.6982889510
| 14>  H        1.9602620045    -0.1148690443    -0.8904988532
| 15>  H        1.0319971624    -1.6156625846    -0.9009463672
| 16>  H        0.6403725769    -0.3219038202    -2.0637684500
| 17>  H       -0.2254151306     1.8808432879    -1.0977061210
| 18>  H       -0.5437478876     1.9403564873     0.6566978342
| 19>  H        1.1262821728     1.8499259260     0.0595634937
| 20>  H       -1.8152451418    -0.1231845268    -1.0316663550
| 21>  H       -1.2370206611    -2.4885473138    -1.0855376865
| 22>  H       -0.6378104978    -2.4309287212     0.5967301710
| 23>  H       -4.1063372211    -1.1844064111     1.3196445616
| 24>  H       -2.7736500882    -1.7817143206     2.3364775207
| 25> *
| 26>
| 27>                          ****END OF INPUT****

CARTESIAN COORDINATES (ANGSTROEM)
---------------------------------
  C      0.957922   -0.532079   -1.024118
  N      0.066669    0.048225   -0.025601
  C      0.100378    1.508249   -0.107161
  C     -1.280515   -0.484330   -0.124768
  C     -1.377313   -2.021060   -0.110145
  O     -2.708040   -2.308884    0.308642
  C     -3.033255   -1.395824    1.336214
  C     -2.198290   -0.142798    1.069692
  O     -2.258521    0.880411    1.698289
  H      1.960262   -0.114869   -0.890499
  H      1.031997   -1.615663   -0.900946
  H      0.640373   -0.321904   -2.063768
  H     -0.225415    1.880843   -1.097706
  H     -0.543748    1.940356    0.656698
  H      1.126282    1.849926    0.059563
  H     -1.815245   -0.123185   -1.031666
  H     -1.237021   -2.488547   -1.085538
  H     -0.637810   -2.430929    0.596730
  H     -4.106337   -1.184406    1.319645
  H     -2.773650   -1.781714    2.336478

 Total Charge           Charge          ....    0
 Multiplicity           Mult            ....    1
 Number of Electrons    NEL             ....   70
 Basis Dimension        Dim             ....  345

ORBITAL ENERGIES
----------------

  NO   OCC          E(Eh)            E(eV)
   0   2.0000     -20.575647      -559.8918
   1   2.0000     -20.559020      -559.4394
   2   2.0000     -15.564185      -423.5230
   3   2.0000     -11.340488      -308.5904
   4   2.0000     -11.294079      -307.3275
   5   2.0000     -11.293795      -307.3198
   6   2.0000     -11.279291      -306.9251
   7   2.0000     -11.254709      -306.2562
   8   2.0000     -11.240364      -305.8658
   9   2.0000      -1.413794       -38.4713
  10   2.0000      -1.393500       -37.9191
  11   2.0000      -1.241219       -33.7753
  12   2.0000      -1.039469       -28.2854
  13   2.0000      -1.002008       -27.2660
  14   2.0000      -0.957321       -26.0500
  15   2.0000      -0.879543       -23.9336
  16   2.0000      -0.825257       -22.4564
  17   2.0000      -0.755968       -20.5709
  18   2.0000      -0.708922       -19.2907
  19   2.0000      -0.689886       -18.7727
  20   2.0000      -0.658179       -17.9100
  21   2.0000      -0.639342       -17.3974
  22   2.0000      -0.630144       -17.1471
  23   2.0000      -0.610231       -16.6052
  24   2.0000      -0.578964       -15.7544
  25   2.0000      -0.573487       -15.6054
  26   2.0000      -0.568108       -15.4590
  27   2.0000      -0.563465       -15.3327
  28   2.0000      -0.543850       -14.7989
  29   2.0000      -0.515691       -14.0327
  30   2.0000      -0.506810       -13.7910
  31   2.0000      -0.491872       -13.3845
  32   2.0000      -0.447799       -12.1852
  33   2.0000      -0.406280       -11.0554
  34   2.0000      -0.366969        -9.9857
  35   0.0000       0.119267         3.2454
  36   0.0000       0.140691         3.8284
  37   0.0000       0.153088         4.1657
  38   0.0000       0.160181         4.3587
  39   0.0000       0.182227         4.9587

MULLIKEN ATOMIC CHARGES
-----------------------
   0 C :   -0.323865
   1 N :   -0.169317
   2 C :   -0.340949
   3 C :    0.019061
   4 C :   -0.077658
   5 O :   -0.312711
   6 C :   -0.023639
   7 C :    0.116727
   8 O :   -0.278461
   9 H :    0.140239
  10 H :    0.137618
  11 H :    0.112448
  12 H :    0.102559
  13 H :    0.173943
  14 H :    0.130712
  15 H :    0.087120
  16 H :    0.135243
  17 H :    0.111898
  18 H :    0.143256
  19 H :    0.115776
Sum of atomic charges:    0.0000000

LOEWDIN ATOMIC CHARGES
----------------------
   0 C :   -0.321934
   1 N :    0.058658
   2 C :   -0.319538
   3 C :   -0.266608
   4 C :   -0.281881
   5 O :    0.156378
   6 C :   -0.279387
   7 C :   -0.289361
   8 O :    0.165142
   9 H :    0.121277
  10 H :    0.118401
  11 H :    0.104191
  12 H :    0.102393
  13 H :    0.125246
  14 H :    0.117835
  15 H :    0.152057
  16 H :    0.130277
  17 H :    0.128152
  18 H :    0.140705
  19 H :    0.137998

  Mayer bond orders larger than 0.1
B(  0-C ,  1-N ) :   0.9042 B(  0-C ,  9-H ) :   0.9378 B(  0-C , 10-H ) :   0.9364
B(  0-C , 11-H ) :   0.9254 B(  1-N ,  2-C ) :   0.9075 B(  1-N ,  3-C ) :   0.9494
B(  2-C , 12-H ) :   0.9307 B(  2-C , 13-H ) :   0.9275 B(  2-C , 14-H ) :   0.9360
B(  3-C ,  4-C ) :   0.9139 B(  3-C ,  7-C ) :   0.8377 B(  3-C , 15-H ) :   0.8687
B(  4-C ,  5-O ) :   0.9193 B(  4-C , 16-H ) :   0.9184 B(  4-C , 17-H ) :   0.9390
B(  5-O ,  6-C ) :   0.9509 B(  6-C ,  7-C ) :   0.9459 B(  6-C , 18-H ) :   0.9082
B(  6-C , 19-H ) :   0.9083 B(  7-C ,  8-O ) :   1.9822

MP2 TOTAL ENERGY:     -439.556173374 Eh
FINAL SINGLE POINT ENERGY      -439.556173373652

DIPOLE MOMENT
-------------
                                X             Y             Z
Electronic contribution:     -6.76962      -1.24252       4.75506
Nuclear contribution   :      7.15887       0.94756      -5.31849
                        -----------------------------------------
Total Dipole Moment    :      0.38925      -0.29497      -0.56343
                        -----------------------------------------
Magnitude (a.u.)       :      0.74564
Magnitude (Debye)      :      1.89527

                             ****ORCA TERMINATED NORMALLY****
TOTAL RUN TIME: 0 days 0 hours 21 minutes 11 seconds 707 msec
