                         Program Version 3.0.3 - RELEASE   -
|  1> ! RI-MP2 RIJK def2-TZVP def2-TZVP/C def2-TZVP/JK TIGHTSCF
|  2> % maxcore 2000
|  3> % mp2 density relaxed end
|  4> *xyz 0 1
|  5>  O        0.0105852278     1.4395456848     0.0066246339
|  6>  C       -0.0004467871     0.0262276665     0.0019025681
|  7>  C       -1.4158844704    -0.4609346414     0.0124809500
|  8>  C       -2.5079802482     0.3463504031     0.0239399111
|  9>  C       -3.8133031222    -0.2278594340     0.0333308882
| 10>  N       -4.0309930406    -1.5132413126     0.0316691829
| 11>  N       -2.9376678939    -2.2884227740     0.0203040497
| 12>  C       -1.5960028690    -1.9077425103     0.0098448739
| 13>  O       -0.7017093694    -2.7409475964     0.0002390122
| 14>  H        0.9259339112     1.7316507972     0.0003587695
| 15>  H        0.5052117078    -0.3931013206    -0.8828200668
| 16>  H        0.5204693344    -0.3991921198     0.8747597408
| 17>  H       -2.3855472659     1.4231125079     0.0259697815
| 18>  H       -4.7002946187     0.3953361378     0.0425273476
| 19>  H       -3.1162110858    -3.2845006884     0.0191613872
| 20> *
| 21>
| 22>                          ****END OF INPUT****

CARTESIAN COORDINATES (ANGSTROEM)
---------------------------------
  O      0.010585    1.439546    0.006625
  C     -0.000447    0.026228    0.001903
  C     -1.415884   -0.460935    0.012481
  C     -2.507980    0.346350    0.023940
  C     -3.813303   -0.227859    0.033331
  N     -4.030993   -1.513241    0.031669
  N     -2.937668   -2.288423    0.020304
  C     -1.596003   -1.907743    0.009845
  O     -0.701709   -2.740948    0.000239
  H      0.925934    1.731651    0.000359
  H      0.505212   -0.393101   -0.882820
  H      0.520469   -0.399192    0.874760
  H     -2.385547    1.423113    0.025970
  H     -4.700295    0.395336    0.042527
  H     -3.116211   -3.284501    0.019161

 Total Charge           Charge          ....    0
 Multiplicity           Mult            ....    1
 Number of Electrons    NEL             ....   66
 Basis Dimension        Dim             ....  315

ORBITAL ENERGIES
----------------

  NO   OCC          E(Eh)            E(eV)
   0   2.0000     -20.576429      -559.9131
   1   2.0000     -20.521960      -558.4309
   2   2.0000     -15.644903      -425.7195
   3   2.0000     -15.636074      -425.4792
   4   2.0000     -11.363019      -309.2035
   5   2.0000     -11.298623      -307.4512
   6   2.0000     -11.287093      -307.1374
   7   2.0000     -11.271205      -306.7051
   8   2.0000     -11.269660      -306.6630
   9   2.0000      -1.404817       -38.2270
  10   2.0000      -1.383338       -37.6425
  11   2.0000      -1.348337       -36.6901
  12   2.0000      -1.140158       -31.0253
  13   2.0000      -1.113869       -30.3099
  14   2.0000      -0.977293       -26.5935
  15   2.0000      -0.895782       -24.3755
  16   2.0000      -0.865445       -23.5500
  17   2.0000      -0.750389       -20.4191
  18   2.0000      -0.745611       -20.2891
  19   2.0000      -0.694228       -18.8909
  20   2.0000      -0.664967       -18.0947
  21   2.0000      -0.658276       -17.9126
  22   2.0000      -0.636302       -17.3147
  23   2.0000      -0.624056       -16.9814
  24   2.0000      -0.604098       -16.4384
  25   2.0000      -0.576724       -15.6935
  26   2.0000      -0.529525       -14.4091
  27   2.0000      -0.520355       -14.1596
  28   2.0000      -0.496966       -13.5231
  29   2.0000      -0.475876       -12.9493
  30   2.0000      -0.425222       -11.5709
  31   2.0000      -0.422601       -11.4996
  32   2.0000      -0.341043        -9.2802
  33   0.0000       0.068710         1.8697
  34   0.0000       0.126933         3.4540
  35   0.0000       0.144508         3.9323
  36   0.0000       0.153519         4.1775
  37   0.0000       0.165712         4.5092

MULLIKEN ATOMIC CHARGES
-----------------------
   0 O :   -0.470916
   1 C :   -0.049343
   2 C :   -0.003126
   3 C :   -0.119890
   4 C :   -0.064663
   5 N :   -0.160475
   6 N :   -0.097118
   7 C :    0.173068
   8 O :   -0.368092
   9 H :    0.324937
  10 H :    0.128982
  11 H :    0.129052
  12 H :    0.169075
  13 H :    0.146263
  14 H :    0.262246
Sum of atomic charges:   -0.0000000

LOEWDIN ATOMIC CHARGES
----------------------
   0 O :   -0.034764
   1 C :   -0.297445
   2 C :   -0.115119
   3 C :   -0.108069
   4 C :   -0.243720
   5 N :    0.062730
   6 N :    0.137263
   7 C :   -0.426080
   8 O :    0.064944
   9 H :    0.178840
  10 H :    0.138220
  11 H :    0.138222
  12 H :    0.161546
  13 H :    0.144997
  14 H :    0.198433

  Mayer bond orders larger than 0.1
B(  0-O ,  1-C ) :   1.0198 B(  0-O ,  2-C ) :  -0.1061 B(  0-O ,  9-H ) :   0.8444
B(  1-C ,  2-C ) :   0.9471 B(  1-C , 10-H ) :   0.9185 B(  1-C , 11-H ) :   0.9184
B(  2-C ,  3-C ) :   1.5241 B(  2-C ,  7-C ) :   1.0003 B(  3-C ,  4-C ) :   1.1191
B(  3-C , 12-H ) :   0.9057 B(  4-C ,  5-N ) :   1.6174 B(  4-C , 13-H ) :   0.9380
B(  5-N ,  6-N ) :   1.0013 B(  6-N ,  7-C ) :   1.1285 B(  6-N , 14-H ) :   0.8567
B(  7-C ,  8-O ) :   1.9750

MP2 TOTAL ENERGY:     -453.239950520 Eh
FINAL SINGLE POINT ENERGY      -453.239950519716

DIPOLE MOMENT
-------------
                                X             Y             Z
Electronic contribution:     -2.41179      -3.15905       0.01150
Nuclear contribution   :      2.51005       4.02037      -0.00989
                        -----------------------------------------
Total Dipole Moment    :      0.09826       0.86132       0.00161
                        -----------------------------------------
Magnitude (a.u.)       :      0.86691
Magnitude (Debye)      :      2.20351

                             ****ORCA TERMINATED NORMALLY****
TOTAL RUN TIME: 0 days 0 hours 15 minutes 20 seconds 738 msec
