                         Program Version 3.0.3 - RELEASE   -
|  1> ! RI-MP2 RIJK def2-TZVP def2-TZVP/C def2-TZVP/JK TIGHTSCF
|  2> % maxcore 2000
|  3> % mp2 density relaxed end
|  4> *xyz 0 1
|  5>  C       -0.0780280214     1.5519381073     0.0298757964
|  6>  C        0.1258981750     0.0650416853     0.0040752303
|  7>  O       -0.7227686630    -0.7362698135     0.8559998319
|  8>  C        0.6961686866    -0.7864377998     1.0606586933
|  9>  C        1.3575469688    -1.9640929910     0.3608230626
| 10>  N        1.0713876405    -1.8168448851    -1.0732562118
| 11>  C        0.4513623264    -0.7105056768    -1.2540373012
| 12>  N        0.1465225555    -0.1963898882    -2.4923172980
| 13>  H        0.7729184601     2.0698475706    -0.4227986228
| 14>  H       -0.9793901034     1.8372126598    -0.5252079351
| 15>  H       -0.2002417933     1.8992023341     1.0583936349
| 16>  H        1.0474508599    -0.3973634331     2.0129898794
| 17>  H        2.4420346355    -1.9628195556     0.5328797990
| 18>  H        0.9725342885    -2.9237230635     0.7253866226
| 19>  H        0.2665777631    -0.8553568202    -3.2494090290
| 20>  H       -0.7021779589     0.3452497696    -2.5576184626
| 21> *
| 22>
| 23>                          ****END OF INPUT****

CARTESIAN COORDINATES (ANGSTROEM)
---------------------------------
  C     -0.078028    1.551938    0.029876
  C      0.125898    0.065042    0.004075
  O     -0.722769   -0.736270    0.856000
  C      0.696169   -0.786438    1.060659
  C      1.357547   -1.964093    0.360823
  N      1.071388   -1.816845   -1.073256
  C      0.451362   -0.710506   -1.254037
  N      0.146523   -0.196390   -2.492317
  H      0.772918    2.069848   -0.422799
  H     -0.979390    1.837213   -0.525208
  H     -0.200242    1.899202    1.058394
  H      1.047451   -0.397363    2.012990
  H      2.442035   -1.962820    0.532880
  H      0.972534   -2.923723    0.725387
  H      0.266578   -0.855357   -3.249409
  H     -0.702178    0.345250   -2.557618

 Total Charge           Charge          ....    0
 Multiplicity           Mult            ....    1
 Number of Electrons    NEL             ....   60
 Basis Dimension        Dim             ....  296

ORBITAL ENERGIES
----------------

  NO   OCC          E(Eh)            E(eV)
   0   2.0000     -20.572552      -559.8076
   1   2.0000     -15.577511      -423.8856
   2   2.0000     -15.530738      -422.6129
   3   2.0000     -11.310676      -307.7791
   4   2.0000     -11.302118      -307.5463
   5   2.0000     -11.289010      -307.1896
   6   2.0000     -11.251778      -306.1764
   7   2.0000     -11.240013      -305.8563
   8   2.0000      -1.421416       -38.6787
   9   2.0000      -1.267282       -34.4845
  10   2.0000      -1.175261       -31.9805
  11   2.0000      -1.028795       -27.9949
  12   2.0000      -0.974315       -26.5125
  13   2.0000      -0.902365       -24.5546
  14   2.0000      -0.817917       -22.2567
  15   2.0000      -0.764154       -20.7937
  16   2.0000      -0.704828       -19.1794
  17   2.0000      -0.689255       -18.7556
  18   2.0000      -0.639513       -17.4020
  19   2.0000      -0.611843       -16.6491
  20   2.0000      -0.601679       -16.3725
  21   2.0000      -0.578804       -15.7501
  22   2.0000      -0.561805       -15.2875
  23   2.0000      -0.542723       -14.7682
  24   2.0000      -0.529614       -14.4115
  25   2.0000      -0.499452       -13.5908
  26   2.0000      -0.485598       -13.2138
  27   2.0000      -0.427567       -11.6347
  28   2.0000      -0.395534       -10.7630
  29   2.0000      -0.357371        -9.7246
  30   0.0000       0.123674         3.3653
  31   0.0000       0.154186         4.1956
  32   0.0000       0.164624         4.4797
  33   0.0000       0.172429         4.6920
  34   0.0000       0.187333         5.0976

MULLIKEN ATOMIC CHARGES
-----------------------
   0 C :   -0.397538
   1 C :    0.162807
   2 O :   -0.330719
   3 C :   -0.044928
   4 C :   -0.064739
   5 N :   -0.257460
   6 C :    0.138953
   7 N :   -0.509540
   8 H :    0.150610
   9 H :    0.128032
  10 H :    0.149067
  11 H :    0.129006
  12 H :    0.111273
  13 H :    0.122128
  14 H :    0.258351
  15 H :    0.254698
Sum of atomic charges:    0.0000000

LOEWDIN ATOMIC CHARGES
----------------------
   0 C :   -0.265685
   1 C :   -0.286631
   2 O :    0.184225
   3 C :   -0.235121
   4 C :   -0.262934
   5 N :    0.085764
   6 C :   -0.338551
   7 N :   -0.042410
   8 H :    0.137328
   9 H :    0.129511
  10 H :    0.136808
  11 H :    0.136013
  12 H :    0.135412
  13 H :    0.139105
  14 H :    0.175682
  15 H :    0.171482

  Mayer bond orders larger than 0.1
B(  0-C ,  1-C ) :   0.8800 B(  0-C ,  8-H ) :   0.9299 B(  0-C ,  9-H ) :   0.9289
B(  0-C , 10-H ) :   0.9393 B(  1-C ,  2-O ) :   0.8537 B(  1-C ,  3-C ) :   0.9390
B(  1-C ,  6-C ) :   0.9609 B(  2-O ,  3-C ) :   0.8946 B(  3-C ,  4-C ) :   0.9468
B(  3-C , 11-H ) :   0.9219 B(  4-C ,  5-N ) :   0.9631 B(  4-C , 12-H ) :   0.9156
B(  4-C , 13-H ) :   0.9020 B(  5-N ,  6-C ) :   1.8284 B(  6-C ,  7-N ) :   1.0950
B(  7-N , 14-H ) :   0.8651 B(  7-N , 15-H ) :   0.8711

MP2 TOTAL ENERGY:     -379.289004798 Eh
FINAL SINGLE POINT ENERGY      -379.289004798184

DIPOLE MOMENT
-------------
                                X             Y             Z
Electronic contribution:     -0.71949      -3.28553      -0.22198
Nuclear contribution   :      0.71830       4.16144       0.15387
                        -----------------------------------------
Total Dipole Moment    :     -0.00120       0.87591      -0.06812
                        -----------------------------------------
Magnitude (a.u.)       :      0.87856
Magnitude (Debye)      :      2.23311

                             ****ORCA TERMINATED NORMALLY****
TOTAL RUN TIME: 0 days 0 hours 12 minutes 40 seconds 758 msec
