                         Program Version 3.0.3 - RELEASE   -
|  1> ! RI-MP2 RIJK def2-TZVP def2-TZVP/C def2-TZVP/JK TIGHTSCF
|  2> % maxcore 2000
|  3> % mp2 density relaxed end
|  4> *xyz 0 1
|  5>  C       -0.0084468118     1.4856574987     0.0104361568
|  6>  C       -0.0432404016    -0.0197229108     0.0166385370
|  7>  N        0.4661955603    -0.7686089456    -1.1944199923
|  8>  C       -0.2958372241    -1.9231811473    -0.6038180029
|  9>  C        0.4859767615    -2.1803386268     0.6979103383
| 10>  N        1.8446108874    -1.5848756230     0.7266930951
| 11>  C        0.6692398482    -0.7898137174     1.1566689415
| 12>  C       -1.3517979582    -0.8685600823    -0.1054898580
| 13>  O       -2.1103099591    -1.0566543963     1.0630282565
| 14>  H        1.0228569680     1.8422552341    -0.0740015310
| 15>  H       -0.5827554911     1.8977858220    -0.8265400057
| 16>  H       -0.4341071484     1.8838403780     0.9374364919
| 17>  H       -0.0728380117    -0.4326499916    -1.9943663712
| 18>  H       -0.5382328363    -2.7615334359    -1.2571025405
| 19>  H        0.2207423006    -2.9998449714     1.3532387589
| 20>  H        2.2995245636    -1.9242405005     1.5741703028
| 21>  H        0.5538794348    -0.4699818557     2.1846590362
| 22>  H       -1.9738343601    -0.5102660339    -0.9386373483
| 23>  H       -2.9299463622    -1.5032245344     0.8302508950
| 24> *
| 25>
| 26>                          ****END OF INPUT****

CARTESIAN COORDINATES (ANGSTROEM)
---------------------------------
  C     -0.008447    1.485657    0.010436
  C     -0.043240   -0.019723    0.016639
  N      0.466196   -0.768609   -1.194420
  C     -0.295837   -1.923181   -0.603818
  C      0.485977   -2.180339    0.697910
  N      1.844611   -1.584876    0.726693
  C      0.669240   -0.789814    1.156669
  C     -1.351798   -0.868560   -0.105490
  O     -2.110310   -1.056654    1.063028
  H      1.022857    1.842255   -0.074002
  H     -0.582755    1.897786   -0.826540
  H     -0.434107    1.883840    0.937436
  H     -0.072838   -0.432650   -1.994366
  H     -0.538233   -2.761533   -1.257103
  H      0.220742   -2.999845    1.353239
  H      2.299525   -1.924241    1.574170
  H      0.553879   -0.469982    2.184659
  H     -1.973834   -0.510266   -0.938637
  H     -2.929946   -1.503225    0.830251

 Total Charge           Charge          ....    0
 Multiplicity           Mult            ....    1
 Number of Electrons    NEL             ....   68
 Basis Dimension        Dim             ....  339

ORBITAL ENERGIES
----------------

  NO   OCC          E(Eh)            E(eV)
   0   2.0000     -20.566324      -559.6381
   1   2.0000     -15.551265      -423.1714
   2   2.0000     -15.542764      -422.9401
   3   2.0000     -11.289073      -307.1913
   4   2.0000     -11.268054      -306.6193
   5   2.0000     -11.262606      -306.4711
   6   2.0000     -11.249355      -306.1105
   7   2.0000     -11.247443      -306.0585
   8   2.0000     -11.217954      -305.2560
   9   2.0000      -1.376782       -37.4641
  10   2.0000      -1.293147       -35.1883
  11   2.0000      -1.203455       -32.7477
  12   2.0000      -1.010948       -27.5093
  13   2.0000      -0.973188       -26.4818
  14   2.0000      -0.887262       -24.1436
  15   2.0000      -0.886100       -24.1120
  16   2.0000      -0.763961       -20.7884
  17   2.0000      -0.749740       -20.4015
  18   2.0000      -0.706352       -19.2208
  19   2.0000      -0.699123       -19.0241
  20   2.0000      -0.652828       -17.7644
  21   2.0000      -0.614856       -16.7311
  22   2.0000      -0.594161       -16.1679
  23   2.0000      -0.573716       -15.6116
  24   2.0000      -0.556085       -15.1318
  25   2.0000      -0.525667       -14.3041
  26   2.0000      -0.511418       -13.9164
  27   2.0000      -0.502827       -13.6826
  28   2.0000      -0.485545       -13.2123
  29   2.0000      -0.461675       -12.5628
  30   2.0000      -0.456873       -12.4322
  31   2.0000      -0.415022       -11.2933
  32   2.0000      -0.383925       -10.4471
  33   2.0000      -0.351558        -9.5664
  34   0.0000       0.126294         3.4366
  35   0.0000       0.143188         3.8963
  36   0.0000       0.152205         4.1417
  37   0.0000       0.164317         4.4713
  38   0.0000       0.194352         5.2886

MULLIKEN ATOMIC CHARGES
-----------------------
   0 C :   -0.407330
   1 C :    0.188284
   2 N :   -0.318662
   3 C :    0.053316
   4 C :   -0.136580
   5 N :   -0.357531
   6 C :   -0.109129
   7 C :   -0.111374
   8 O :   -0.447894
   9 H :    0.156587
  10 H :    0.122958
  11 H :    0.138502
  12 H :    0.197878
  13 H :    0.143238
  14 H :    0.125076
  15 H :    0.214728
  16 H :    0.131630
  17 H :    0.096891
  18 H :    0.319413
Sum of atomic charges:    0.0000000

LOEWDIN ATOMIC CHARGES
----------------------
   0 C :   -0.272796
   1 C :   -0.276291
   2 N :    0.050598
   3 C :   -0.219521
   4 C :   -0.228406
   5 N :    0.012588
   6 C :   -0.205271
   7 C :   -0.290934
   8 O :   -0.007653
   9 H :    0.136931
  10 H :    0.125636
  11 H :    0.134156
  12 H :    0.166826
  13 H :    0.127499
  14 H :    0.133978
  15 H :    0.169221
  16 H :    0.137914
  17 H :    0.129345
  18 H :    0.176181

  Mayer bond orders larger than 0.1
B(  0-C ,  1-C ) :   0.8458 B(  0-C ,  9-H ) :   0.9476 B(  0-C , 10-H ) :   0.9363
B(  0-C , 11-H ) :   0.9334 B(  1-C ,  2-N ) :   1.0137 B(  1-C ,  6-C ) :   0.8656
B(  1-C ,  7-C ) :   0.9113 B(  1-C ,  8-O ) :  -0.1228 B(  2-N ,  3-C ) :   0.9806
B(  2-N , 12-H ) :   0.8653 B(  3-C ,  4-C ) :   0.8637 B(  3-C ,  7-C ) :   0.8951
B(  3-C ,  8-O ) :  -0.1326 B(  3-C , 13-H ) :   0.9015 B(  4-C ,  5-N ) :   1.0145
B(  4-C ,  6-C ) :   0.9821 B(  4-C , 14-H ) :   0.9082 B(  5-N ,  6-C ) :   1.0252
B(  5-N , 15-H ) :   0.8673 B(  6-C , 16-H ) :   0.9103 B(  7-C ,  8-O ) :   1.1935
B(  7-C , 17-H ) :   0.9773 B(  8-O , 18-H ) :   0.8407

MP2 TOTAL ENERGY:     -418.437973700 Eh
FINAL SINGLE POINT ENERGY      -418.437973700314

DIPOLE MOMENT
-------------
                                X             Y             Z
Electronic contribution:      0.34014      -3.42032       0.43534
Nuclear contribution   :     -1.52829       3.24195      -0.27254
                        -----------------------------------------
Total Dipole Moment    :     -1.18815      -0.17836       0.16280
                        -----------------------------------------
Magnitude (a.u.)       :      1.21244
Magnitude (Debye)      :      3.08178

                             ****ORCA TERMINATED NORMALLY****
TOTAL RUN TIME: 0 days 0 hours 19 minutes 20 seconds 779 msec
