                         Program Version 3.0.3 - RELEASE   -
|  1> ! RI-MP2 RIJK def2-TZVP def2-TZVP/C def2-TZVP/JK TIGHTSCF
|  2> % maxcore 2000
|  3> % mp2 density relaxed end
|  4> *xyz 0 1
|  5>  C        0.2336992185     1.5022871093     0.2742020144
|  6>  C       -0.1687541904     0.0792730686    -0.1395048482
|  7>  C        0.6106408065    -0.4557827569    -1.3364419761
|  8>  C        0.3909886681     0.3313433166    -2.6169957795
|  9>  C        1.9796903713    -1.0400084852    -1.1041152561
| 10>  C        0.8297895136    -1.9785305302    -1.4637734420
| 11>  C        0.3154252679    -2.9548499678    -0.4093563485
| 12>  C        0.8284515170    -2.5537158348    -2.7853250235
| 13>  C        0.8075287356    -3.0827691789    -3.8665842793
| 14>  H        1.3054750815     1.5596578019     0.4927406200
| 15>  H        0.0132064544     2.2350741495    -0.5072019867
| 16>  H       -0.3088447652     1.8083777751     1.1740317430
| 17>  H       -0.0343354812    -0.5785290479     0.7230544986
| 18>  H       -1.2413348361     0.0591507806    -0.3750858850
| 19>  H        0.7551039519     1.3583193986    -2.5114874072
| 20>  H        0.9094799805    -0.1241556428    -3.4622744280
| 21>  H       -0.6751112392     0.3780723713    -2.8682184388
| 22>  H        2.7489686508    -0.8745414213    -1.8504114066
| 23>  H        2.3502295269    -1.1022041569    -0.0851020571
| 24>  H        0.4445972795    -2.5716735597     0.6044901135
| 25>  H       -0.7457531340    -3.1770878961    -0.5608940696
| 26>  H        0.8664353426    -3.8975857858    -0.4798186807
| 27>  H        0.7953752296    -3.5391274472    -4.8249572567
| 28> *
| 29>
| 30>                          ****END OF INPUT****

CARTESIAN COORDINATES (ANGSTROEM)
---------------------------------
  C      0.233699    1.502287    0.274202
  C     -0.168754    0.079273   -0.139505
  C      0.610641   -0.455783   -1.336442
  C      0.390989    0.331343   -2.616996
  C      1.979690   -1.040008   -1.104115
  C      0.829790   -1.978531   -1.463773
  C      0.315425   -2.954850   -0.409356
  C      0.828452   -2.553716   -2.785325
  C      0.807529   -3.082769   -3.866584
  H      1.305475    1.559658    0.492741
  H      0.013206    2.235074   -0.507202
  H     -0.308845    1.808378    1.174032
  H     -0.034335   -0.578529    0.723054
  H     -1.241335    0.059151   -0.375086
  H      0.755104    1.358319   -2.511487
  H      0.909480   -0.124156   -3.462274
  H     -0.675111    0.378072   -2.868218
  H      2.748969   -0.874541   -1.850411
  H      2.350230   -1.102204   -0.085102
  H      0.444597   -2.571674    0.604490
  H     -0.745753   -3.177088   -0.560894
  H      0.866435   -3.897586   -0.479819
  H      0.795375   -3.539127   -4.824957

 Total Charge           Charge          ....    0
 Multiplicity           Mult            ....    1
 Number of Electrons    NEL             ....   68
 Basis Dimension        Dim             ....  363

ORBITAL ENERGIES
----------------

  NO   OCC          E(Eh)            E(eV)
   0   2.0000     -11.257572      -306.3341
   1   2.0000     -11.245213      -305.9978
   2   2.0000     -11.227699      -305.5212
   3   2.0000     -11.227574      -305.5178
   4   2.0000     -11.224893      -305.4449
   5   2.0000     -11.221820      -305.3612
   6   2.0000     -11.214951      -305.1743
   7   2.0000     -11.213038      -305.1223
   8   2.0000     -11.211755      -305.0874
   9   2.0000      -1.174380       -31.9565
  10   2.0000      -1.047054       -28.4918
  11   2.0000      -1.006566       -27.3900
  12   2.0000      -0.980349       -26.6766
  13   2.0000      -0.938434       -25.5361
  14   2.0000      -0.866358       -23.5748
  15   2.0000      -0.828446       -22.5432
  16   2.0000      -0.748227       -20.3603
  17   2.0000      -0.696699       -18.9581
  18   2.0000      -0.658268       -17.9124
  19   2.0000      -0.640186       -17.4203
  20   2.0000      -0.610825       -16.6214
  21   2.0000      -0.585277       -15.9262
  22   2.0000      -0.563814       -15.3422
  23   2.0000      -0.552998       -15.0478
  24   2.0000      -0.539560       -14.6822
  25   2.0000      -0.534656       -14.5487
  26   2.0000      -0.527341       -14.3497
  27   2.0000      -0.512978       -13.9589
  28   2.0000      -0.491862       -13.3842
  29   2.0000      -0.465355       -12.6629
  30   2.0000      -0.441691       -12.0190
  31   2.0000      -0.418179       -11.3792
  32   2.0000      -0.371674       -10.1138
  33   2.0000      -0.347711        -9.4617
  34   0.0000       0.132760         3.6126
  35   0.0000       0.153428         4.1750
  36   0.0000       0.162979         4.4349
  37   0.0000       0.171954         4.6791
  38   0.0000       0.177413         4.8277

MULLIKEN ATOMIC CHARGES
-----------------------
   0 C :   -0.418596
   1 C :   -0.176960
   2 C :    0.099770
   3 C :   -0.438990
   4 C :   -0.310823
   5 C :   -0.118224
   6 C :   -0.397654
   7 C :    0.007659
   8 C :   -0.135708
   9 H :    0.130087
  10 H :    0.131759
  11 H :    0.135836
  12 H :    0.099339
  13 H :    0.115016
  14 H :    0.137478
  15 H :    0.149706
  16 H :    0.130923
  17 H :    0.136873
  18 H :    0.129632
  19 H :    0.124153
  20 H :    0.138192
  21 H :    0.144254
  22 H :    0.186279
Sum of atomic charges:    0.0000000

LOEWDIN ATOMIC CHARGES
----------------------
   0 C :   -0.311114
   1 C :   -0.245097
   2 C :   -0.223292
   3 C :   -0.256832
   4 C :   -0.150325
   5 C :   -0.216720
   6 C :   -0.248619
   7 C :   -0.071967
   8 C :   -0.105069
   9 H :    0.122727
  10 H :    0.120138
  11 H :    0.121361
  12 H :    0.139680
  13 H :    0.142149
  14 H :    0.126264
  15 H :    0.135837
  16 H :    0.129756
  17 H :    0.140445
  18 H :    0.138255
  19 H :    0.123041
  20 H :    0.130712
  21 H :    0.133332
  22 H :    0.125339

  Mayer bond orders larger than 0.1
B(  0-C ,  1-C ) :   0.9120 B(  0-C ,  9-H ) :   0.9385 B(  0-C , 10-H ) :   0.9404
B(  0-C , 11-H ) :   0.9406 B(  1-C ,  2-C ) :   0.9001 B(  1-C , 12-H ) :   0.9320
B(  1-C , 13-H ) :   0.9315 B(  2-C ,  3-C ) :   0.9143 B(  2-C ,  4-C ) :   0.8982
B(  2-C ,  5-C ) :   0.8084 B(  3-C , 14-H ) :   0.9406 B(  3-C , 15-H ) :   0.9264
B(  3-C , 16-H ) :   0.9367 B(  4-C ,  5-C ) :   0.8502 B(  4-C , 17-H ) :   0.9248
B(  4-C , 18-H ) :   0.9162 B(  5-C ,  6-C ) :   0.9537 B(  5-C ,  7-C ) :   1.2126
B(  5-C ,  8-C ) :  -0.1478 B(  6-C , 19-H ) :   0.9293 B(  6-C , 20-H ) :   0.9372
B(  6-C , 21-H ) :   0.9344 B(  7-C ,  8-C ) :   2.5469 B(  8-C , 22-H ) :   0.8915

MP2 TOTAL ENERGY:     -350.465884759 Eh
FINAL SINGLE POINT ENERGY      -350.465884758625

DIPOLE MOMENT
-------------
                                X             Y             Z
Electronic contribution:      1.52809      -5.88357      -5.03569
Nuclear contribution   :     -1.56130       6.08019       5.30088
                        -----------------------------------------
Total Dipole Moment    :     -0.03321       0.19663       0.26519
                        -----------------------------------------
Magnitude (a.u.)       :      0.33180
Magnitude (Debye)      :      0.84336

                             ****ORCA TERMINATED NORMALLY****
TOTAL RUN TIME: 0 days 0 hours 24 minutes 29 seconds 407 msec
