                         Program Version 3.0.3 - RELEASE   -
|  1> ! RI-MP2 RIJK def2-TZVP def2-TZVP/C def2-TZVP/JK TIGHTSCF
|  2> % maxcore 2000
|  3> % mp2 density relaxed end
|  4> *xyz 0 1
|  5>  C       -0.0279705623     1.4994023709    -0.1537744854
|  6>  C        1.3447472825     0.8523063892    -0.0153292262
|  7>  O        2.0789317070     0.3086969084    -1.0924513040
|  8>  C        1.4512871075    -0.9669030489    -1.2813615964
|  9>  C        1.8195352383    -2.0506100717    -0.2459251571
| 10>  C        1.3028891429    -1.7707899994     1.1981852371
| 11>  C       -0.0183856754    -0.9437966155     1.2625292358
| 12>  C        0.1038594222     0.0244277292     0.1178129388
| 13>  O        0.0730782024    -0.6980299913    -1.1169094343
| 14>  H       -0.3030874436     2.1755550407     0.6505424356
| 15>  H       -0.4099991598     1.7555529887    -1.1350472168
| 16>  H        1.9452288042     1.1190711937     0.8479698299
| 17>  H        1.6517181780    -1.2868581700    -2.3070732118
| 18>  H        1.3649717925    -2.9729363884    -0.6262933344
| 19>  H        2.9024704238    -2.2119462072    -0.2312841731
| 20>  H        1.1929771441    -2.7205035269     1.7316886483
| 21>  H        2.0702625940    -1.2054206634     1.7371128221
| 22>  H       -0.9051509544    -1.5727396161     1.1325862344
| 23>  H       -0.1028321940    -0.4437907821     2.2326741977
| 24> *
| 25>
| 26>                          ****END OF INPUT****

CARTESIAN COORDINATES (ANGSTROEM)
---------------------------------
  C     -0.027971    1.499402   -0.153774
  C      1.344747    0.852306   -0.015329
  O      2.078932    0.308697   -1.092451
  C      1.451287   -0.966903   -1.281362
  C      1.819535   -2.050610   -0.245925
  C      1.302889   -1.770790    1.198185
  C     -0.018386   -0.943797    1.262529
  C      0.103859    0.024428    0.117813
  O      0.073078   -0.698030   -1.116909
  H     -0.303087    2.175555    0.650542
  H     -0.409999    1.755553   -1.135047
  H      1.945229    1.119071    0.847970
  H      1.651718   -1.286858   -2.307073
  H      1.364972   -2.972936   -0.626293
  H      2.902470   -2.211946   -0.231284
  H      1.192977   -2.720504    1.731689
  H      2.070263   -1.205421    1.737113
  H     -0.905151   -1.572740    1.132586
  H     -0.102832   -0.443791    2.232674

 Total Charge           Charge          ....    0
 Multiplicity           Mult            ....    1
 Number of Electrons    NEL             ....   68
 Basis Dimension        Dim             ....  339

ORBITAL ENERGIES
----------------

  NO   OCC          E(Eh)            E(eV)
   0   2.0000     -20.563354      -559.5573
   1   2.0000     -20.560313      -559.4746
   2   2.0000     -11.332517      -308.3735
   3   2.0000     -11.284388      -307.0638
   4   2.0000     -11.278720      -306.9096
   5   2.0000     -11.242185      -305.9154
   6   2.0000     -11.234846      -305.7157
   7   2.0000     -11.232959      -305.6644
   8   2.0000     -11.228997      -305.5565
   9   2.0000      -1.446286       -39.3555
  10   2.0000      -1.329156       -36.1682
  11   2.0000      -1.135708       -30.9042
  12   2.0000      -1.070919       -29.1412
  13   2.0000      -0.978033       -26.6136
  14   2.0000      -0.879435       -23.9307
  15   2.0000      -0.839337       -22.8395
  16   2.0000      -0.806751       -21.9528
  17   2.0000      -0.774971       -21.0880
  18   2.0000      -0.688933       -18.7468
  19   2.0000      -0.685784       -18.6611
  20   2.0000      -0.637045       -17.3349
  21   2.0000      -0.618106       -16.8195
  22   2.0000      -0.608880       -16.5685
  23   2.0000      -0.574683       -15.6379
  24   2.0000      -0.558778       -15.2051
  25   2.0000      -0.552645       -15.0382
  26   2.0000      -0.541036       -14.7223
  27   2.0000      -0.526975       -14.3397
  28   2.0000      -0.497496       -13.5376
  29   2.0000      -0.496117       -13.5000
  30   2.0000      -0.474983       -12.9249
  31   2.0000      -0.437913       -11.9162
  32   2.0000      -0.404255       -11.0003
  33   2.0000      -0.376301       -10.2397
  34   0.0000       0.132911         3.6167
  35   0.0000       0.157468         4.2849
  36   0.0000       0.168212         4.5773
  37   0.0000       0.174899         4.7592
  38   0.0000       0.199127         5.4185

MULLIKEN ATOMIC CHARGES
-----------------------
   0 C :   -0.263099
   1 C :   -0.016389
   2 O :   -0.318108
   3 C :    0.197344
   4 C :   -0.253313
   5 C :   -0.217483
   6 C :   -0.278281
   7 C :    0.236086
   8 O :   -0.323152
   9 H :    0.128704
  10 H :    0.145881
  11 H :    0.119737
  12 H :    0.119798
  13 H :    0.115427
  14 H :    0.119884
  15 H :    0.127176
  16 H :    0.121340
  17 H :    0.122557
  18 H :    0.115892
Sum of atomic charges:   -0.0000000

LOEWDIN ATOMIC CHARGES
----------------------
   0 C :   -0.175564
   1 C :   -0.255435
   2 O :    0.184108
   3 C :   -0.368113
   4 C :   -0.239835
   5 C :   -0.243733
   6 C :   -0.225648
   7 C :   -0.306084
   8 O :    0.226777
   9 H :    0.139123
  10 H :    0.145570
  11 H :    0.138794
  12 H :    0.136942
  13 H :    0.145293
  14 H :    0.140661
  15 H :    0.134638
  16 H :    0.138106
  17 H :    0.142583
  18 H :    0.141816

  Mayer bond orders larger than 0.1
B(  0-C ,  1-C ) :   0.8968 B(  0-C ,  7-C ) :   0.9095 B(  0-C ,  9-H ) :   0.9094
B(  0-C , 10-H ) :   0.8967 B(  1-C ,  2-O ) :   0.9670 B(  1-C ,  7-C ) :   0.8491
B(  1-C , 11-H ) :   0.9344 B(  2-O ,  3-C ) :   0.9450 B(  3-C ,  4-C ) :   0.9438
B(  3-C ,  8-O ) :   0.9491 B(  3-C , 12-H ) :   0.9283 B(  4-C ,  5-C ) :   0.9379
B(  4-C , 13-H ) :   0.9193 B(  4-C , 14-H ) :   0.9210 B(  5-C ,  6-C ) :   0.9374
B(  5-C , 15-H ) :   0.9349 B(  5-C , 16-H ) :   0.9342 B(  6-C ,  7-C ) :   0.9139
B(  6-C , 17-H ) :   0.9252 B(  6-C , 18-H ) :   0.9224 B(  7-C ,  8-O ) :   0.8966

MP2 TOTAL ENERGY:     -422.303119091 Eh
FINAL SINGLE POINT ENERGY      -422.303119091460

DIPOLE MOMENT
-------------
                                X             Y             Z
Electronic contribution:     -0.21375       2.65496      -4.53951
Nuclear contribution   :      0.22627      -2.88899       5.29416
                        -----------------------------------------
Total Dipole Moment    :      0.01252      -0.23403       0.75465
                        -----------------------------------------
Magnitude (a.u.)       :      0.79020
Magnitude (Debye)      :      2.00854

                             ****ORCA TERMINATED NORMALLY****
TOTAL RUN TIME: 0 days 0 hours 20 minutes 23 seconds 179 msec
