                         Program Version 3.0.3 - RELEASE   -
|  1> ! RI-MP2 RIJK def2-TZVP def2-TZVP/C def2-TZVP/JK TIGHTSCF
|  2> % maxcore 2000
|  3> % mp2 density relaxed end
|  4> *xyz 0 1
|  5>  C        0.0997841644     1.5408895803     0.2307060990
|  6>  O        1.4660278371     1.5538877597    -0.2712148437
|  7>  C        1.3789465742     0.1850448901    -0.6216763130
|  8>  C       -0.0861491206     0.0365147211    -0.0582619971
|  9>  C        0.4612080735    -0.8961975214     1.1002665829
| 10>  C        1.7902380538    -0.9430991210     0.3254985059
| 11>  C        3.2831842013    -0.7255692578    -0.0149871240
| 12>  C        2.4229515360    -0.6793795395    -1.3500630848
| 13>  O        1.6677634704    -1.8408058098    -0.8589944706
| 14>  H        0.0499365535     1.8389402246     1.2836424816
| 15>  H       -0.5329253278     2.2039775909    -0.3696424368
| 16>  H       -0.9743601314    -0.2771577421    -0.6017895908
| 17>  H        0.5071971908    -0.3898801142     2.0676680705
| 18>  H       -0.0207419171    -1.8684849780     1.2199393655
| 19>  H        3.7267370978     0.2115799608     0.3282771625
| 20>  H        3.9570347864    -1.5811282937     0.0649768815
| 21>  H        2.7818504177    -0.7107822801    -2.3825386986
| 22> *
| 23>
| 24>                          ****END OF INPUT****

CARTESIAN COORDINATES (ANGSTROEM)
---------------------------------
  C      0.099784    1.540890    0.230706
  O      1.466028    1.553888   -0.271215
  C      1.378947    0.185045   -0.621676
  C     -0.086149    0.036515   -0.058262
  C      0.461208   -0.896198    1.100267
  C      1.790238   -0.943099    0.325499
  C      3.283184   -0.725569   -0.014987
  C      2.422952   -0.679380   -1.350063
  O      1.667763   -1.840806   -0.858994
  H      0.049937    1.838940    1.283642
  H     -0.532925    2.203978   -0.369642
  H     -0.974360   -0.277158   -0.601790
  H      0.507197   -0.389880    2.067668
  H     -0.020742   -1.868485    1.219939
  H      3.726737    0.211580    0.328277
  H      3.957035   -1.581128    0.064977
  H      2.781850   -0.710782   -2.382539

 Total Charge           Charge          ....    0
 Multiplicity           Mult            ....    1
 Number of Electrons    NEL             ....   66
 Basis Dimension        Dim             ....  327

ORBITAL ENERGIES
----------------

  NO   OCC          E(Eh)            E(eV)
   0   2.0000     -20.562479      -559.5335
   1   2.0000     -20.552922      -559.2734
   2   2.0000     -11.312354      -307.8248
   3   2.0000     -11.293693      -307.3170
   4   2.0000     -11.289657      -307.2072
   5   2.0000     -11.288818      -307.1844
   6   2.0000     -11.254398      -306.2477
   7   2.0000     -11.251930      -306.1806
   8   2.0000     -11.250463      -306.1407
   9   2.0000      -1.418546       -38.6006
  10   2.0000      -1.380383       -37.5621
  11   2.0000      -1.102775       -30.0080
  12   2.0000      -1.051098       -28.6018
  13   2.0000      -0.946534       -25.7565
  14   2.0000      -0.914271       -24.8786
  15   2.0000      -0.839551       -22.8454
  16   2.0000      -0.812737       -22.1157
  17   2.0000      -0.707941       -19.2641
  18   2.0000      -0.675062       -18.3694
  19   2.0000      -0.669063       -18.2061
  20   2.0000      -0.665443       -18.1076
  21   2.0000      -0.624768       -17.0008
  22   2.0000      -0.592695       -16.1281
  23   2.0000      -0.579609       -15.7720
  24   2.0000      -0.542659       -14.7665
  25   2.0000      -0.533280       -14.5113
  26   2.0000      -0.504217       -13.7204
  27   2.0000      -0.489461       -13.3189
  28   2.0000      -0.469781       -12.7834
  29   2.0000      -0.450698       -12.2641
  30   2.0000      -0.447022       -12.1641
  31   2.0000      -0.420027       -11.4295
  32   2.0000      -0.351117        -9.5544
  33   0.0000       0.147212         4.0058
  34   0.0000       0.157104         4.2750
  35   0.0000       0.170653         4.6437
  36   0.0000       0.177803         4.8383
  37   0.0000       0.181950         4.9511

MULLIKEN ATOMIC CHARGES
-----------------------
   0 C :   -0.041124
   1 O :   -0.333399
   2 C :    0.189034
   3 C :   -0.108253
   4 C :   -0.266919
   5 C :    0.028943
   6 C :   -0.147330
   7 C :   -0.025660
   8 O :   -0.299006
   9 H :    0.102859
  10 H :    0.107911
  11 H :    0.135229
  12 H :    0.128880
  13 H :    0.138009
  14 H :    0.128804
  15 H :    0.125279
  16 H :    0.136743
Sum of atomic charges:   -0.0000000

LOEWDIN ATOMIC CHARGES
----------------------
   0 C :   -0.234923
   1 O :    0.169416
   2 C :   -0.242251
   3 C :   -0.150450
   4 C :   -0.178440
   5 C :   -0.222424
   6 C :   -0.168528
   7 C :   -0.192655
   8 O :    0.172279
   9 H :    0.119645
  10 H :    0.122011
  11 H :    0.137825
  12 H :    0.139634
  13 H :    0.138971
  14 H :    0.136559
  15 H :    0.131024
  16 H :    0.122307

  Mayer bond orders larger than 0.1
B(  0-C ,  1-O ) :   0.9250 B(  0-C ,  3-C ) :   0.9812 B(  0-C ,  9-H ) :   0.8988
B(  0-C , 10-H ) :   0.9235 B(  1-O ,  2-C ) :   1.0091 B(  2-C ,  3-C ) :   0.9066
B(  2-C ,  5-C ) :   0.8299 B(  2-C ,  7-C ) :   0.9191 B(  3-C ,  4-C ) :   0.9303
B(  3-C , 11-H ) :   0.8903 B(  4-C ,  5-C ) :   0.9034 B(  4-C , 12-H ) :   0.9079
B(  4-C , 13-H ) :   0.9101 B(  5-C ,  6-C ) :   0.9008 B(  5-C ,  8-O ) :   0.9093
B(  6-C ,  7-C ) :   0.9281 B(  6-C , 14-H ) :   0.8967 B(  6-C , 15-H ) :   0.9109
B(  7-C ,  8-O ) :   0.9152 B(  7-C , 16-H ) :   0.8747

MP2 TOTAL ENERGY:     -420.963890613 Eh
FINAL SINGLE POINT ENERGY      -420.963890612773

DIPOLE MOMENT
-------------
                                X             Y             Z
Electronic contribution:      1.18625      -0.59954      -2.38095
Nuclear contribution   :     -1.48677       0.85222       2.77651
                        -----------------------------------------
Total Dipole Moment    :     -0.30052       0.25268       0.39556
                        -----------------------------------------
Magnitude (a.u.)       :      0.55734
Magnitude (Debye)      :      1.41664

                             ****ORCA TERMINATED NORMALLY****
TOTAL RUN TIME: 0 days 0 hours 17 minutes 41 seconds 164 msec
