                         Program Version 3.0.3 - RELEASE   -
|  1> ! RI-MP2 RIJK def2-TZVP def2-TZVP/C def2-TZVP/JK TIGHTSCF
|  2> % maxcore 2000
|  3> % mp2 density relaxed end
|  4> *xyz 0 1
|  5>  O       -0.6314423659     0.8217111345     0.6978686115
|  6>  C        0.0803868978     1.0076060853    -0.2555755672
|  7>  C        1.3617285516     1.8070000414    -0.2470337948
|  8>  C        1.3311418917     2.9606343833    -1.2678421842
|  9>  C        0.2631760640     4.0418849293    -0.9612906316
| 10>  C        0.7900779254     5.3372891875    -1.6194442969
| 11>  C        2.3068437661     5.1978610325    -1.5931575457
| 12>  C        2.9437542095     4.7557861248    -0.2987318514
| 13>  C        2.6383152806     3.7391104177    -1.3740597325
| 14>  H       -0.1835180234     0.5830242264    -1.2546915559
| 15>  H        1.5418573050     2.1773419986     0.7665095195
| 16>  H        2.1785855951     1.1198785136    -0.5118940867
| 17>  H        1.1237374021     2.5319270760    -2.2590061884
| 18>  H       -0.7293943905     3.7604487696    -1.3234381727
| 19>  H        0.1695612105     4.1719674798     0.1220260486
| 20>  H        0.4537795242     5.3996499853    -2.6613574579
| 21>  H        0.4271686704     6.2368910539    -1.1106820856
| 22>  H        2.8941479246     5.8076498410    -2.2708804724
| 23>  H        3.9873251426     5.0105116651    -0.1499343660
| 24>  H        2.3585233535     4.7657815390     0.6152925961
| 25>  H        3.4718004851     3.2659318155    -1.8827382859
| 26> *
| 27>
| 28>                          ****END OF INPUT****

CARTESIAN COORDINATES (ANGSTROEM)
---------------------------------
  O     -0.631442    0.821711    0.697869
  C      0.080387    1.007606   -0.255576
  C      1.361729    1.807000   -0.247034
  C      1.331142    2.960634   -1.267842
  C      0.263176    4.041885   -0.961291
  C      0.790078    5.337289   -1.619444
  C      2.306844    5.197861   -1.593158
  C      2.943754    4.755786   -0.298732
  C      2.638315    3.739110   -1.374060
  H     -0.183518    0.583024   -1.254692
  H      1.541857    2.177342    0.766510
  H      2.178586    1.119879   -0.511894
  H      1.123737    2.531927   -2.259006
  H     -0.729394    3.760449   -1.323438
  H      0.169561    4.171967    0.122026
  H      0.453780    5.399650   -2.661357
  H      0.427169    6.236891   -1.110682
  H      2.894148    5.807650   -2.270880
  H      3.987325    5.010512   -0.149934
  H      2.358523    4.765782    0.615293
  H      3.471800    3.265932   -1.882738

 Total Charge           Charge          ....    0
 Multiplicity           Mult            ....    1
 Number of Electrons    NEL             ....   68
 Basis Dimension        Dim             ....  351

ORBITAL ENERGIES
----------------

  NO   OCC          E(Eh)            E(eV)
   0   2.0000     -20.553693      -559.2944
   1   2.0000     -11.328585      -308.2665
   2   2.0000     -11.244792      -305.9864
   3   2.0000     -11.237214      -305.7801
   4   2.0000     -11.233489      -305.6788
   5   2.0000     -11.232051      -305.6396
   6   2.0000     -11.227467      -305.5149
   7   2.0000     -11.227017      -305.5027
   8   2.0000     -11.226008      -305.4752
   9   2.0000      -1.392274       -37.8857
  10   2.0000      -1.182244       -32.1705
  11   2.0000      -1.067024       -29.0352
  12   2.0000      -1.013138       -27.5689
  13   2.0000      -0.930014       -25.3070
  14   2.0000      -0.856257       -23.2999
  15   2.0000      -0.796716       -21.6798
  16   2.0000      -0.763212       -20.7680
  17   2.0000      -0.753079       -20.4923
  18   2.0000      -0.697587       -18.9823
  19   2.0000      -0.662097       -18.0166
  20   2.0000      -0.640990       -17.4422
  21   2.0000      -0.615193       -16.7403
  22   2.0000      -0.600134       -16.3305
  23   2.0000      -0.596062       -16.2197
  24   2.0000      -0.557546       -15.1716
  25   2.0000      -0.529877       -14.4187
  26   2.0000      -0.525845       -14.3090
  27   2.0000      -0.497814       -13.5462
  28   2.0000      -0.484309       -13.1787
  29   2.0000      -0.475458       -12.9379
  30   2.0000      -0.464455       -12.6385
  31   2.0000      -0.422291       -11.4911
  32   2.0000      -0.411310       -11.1923
  33   2.0000      -0.392655       -10.6847
  34   0.0000       0.127473         3.4687
  35   0.0000       0.142683         3.8826
  36   0.0000       0.150317         4.0903
  37   0.0000       0.153724         4.1830
  38   0.0000       0.163562         4.4508

MULLIKEN ATOMIC CHARGES
-----------------------
   0 O :   -0.264244
   1 C :    0.101406
   2 C :   -0.152178
   3 C :   -0.148557
   4 C :   -0.278459
   5 C :   -0.200187
   6 C :   -0.093076
   7 C :   -0.307020
   8 C :   -0.078651
   9 H :    0.068410
  10 H :    0.116831
  11 H :    0.127599
  12 H :    0.096946
  13 H :    0.133827
  14 H :    0.130540
  15 H :    0.111672
  16 H :    0.120962
  17 H :    0.123595
  18 H :    0.132882
  19 H :    0.134861
  20 H :    0.122842
Sum of atomic charges:    0.0000000

LOEWDIN ATOMIC CHARGES
----------------------
   0 O :    0.129286
   1 C :   -0.296830
   2 C :   -0.238505
   3 C :   -0.225906
   4 C :   -0.224083
   5 C :   -0.232331
   6 C :   -0.200708
   7 C :   -0.204847
   8 C :   -0.183023
   9 H :    0.108565
  10 H :    0.147482
  11 H :    0.153675
  12 H :    0.157000
  13 H :    0.137220
  14 H :    0.141187
  15 H :    0.140177
  16 H :    0.136514
  17 H :    0.142068
  18 H :    0.135243
  19 H :    0.134384
  20 H :    0.143432

  Mayer bond orders larger than 0.1
B(  0-O ,  1-C ) :   2.0104 B(  1-C ,  2-C ) :   0.8719 B(  1-C ,  9-H ) :   0.9398
B(  2-C ,  3-C ) :   0.9020 B(  2-C , 10-H ) :   0.8979 B(  2-C , 11-H ) :   0.9159
B(  3-C ,  4-C ) :   0.9270 B(  3-C ,  8-C ) :   0.9276 B(  3-C , 12-H ) :   0.9217
B(  4-C ,  5-C ) :   0.9305 B(  4-C , 13-H ) :   0.9262 B(  4-C , 14-H ) :   0.9331
B(  5-C ,  6-C ) :   0.9421 B(  5-C , 15-H ) :   0.9270 B(  5-C , 16-H ) :   0.9337
B(  6-C ,  7-C ) :   0.8802 B(  6-C ,  8-C ) :   0.8631 B(  6-C , 17-H ) :   0.9326
B(  7-C ,  8-C ) :   0.8871 B(  7-C , 18-H ) :   0.9333 B(  7-C , 19-H ) :   0.9249
B(  8-C , 20-H ) :   0.9250

MP2 TOTAL ENERGY:     -386.425482221 Eh
FINAL SINGLE POINT ENERGY      -386.425482221085

DIPOLE MOMENT
-------------
                                X             Y             Z
Electronic contribution:     -2.39659      -4.90965       1.98473
Nuclear contribution   :      3.11488       5.32341      -2.79114
                        -----------------------------------------
Total Dipole Moment    :      0.71829       0.41376      -0.80641
                        -----------------------------------------
Magnitude (a.u.)       :      1.15648
Magnitude (Debye)      :      2.93953

                             ****ORCA TERMINATED NORMALLY****
TOTAL RUN TIME: 0 days 0 hours 19 minutes 52 seconds 804 msec
