                         Program Version 3.0.3 - RELEASE   -
|  1> ! RI-MP2 RIJK def2-TZVP def2-TZVP/C def2-TZVP/JK TIGHTSCF
|  2> % maxcore 2000
|  3> % mp2 density relaxed end
|  4> *xyz 0 1
|  5>  C        0.1081129673     1.5044624358     0.0671633940
|  6>  C       -0.0520211191    -0.0220416160    -0.0190899094
|  7>  C       -1.5436444642    -0.3820571093     0.0977475967
|  8>  C        0.6069816568    -0.5976216649    -1.3011531535
|  9>  C        2.0861223547    -0.2078688599    -1.4391497962
| 10>  C        0.4610892106    -2.1232464715    -1.3533348684
| 11>  O        0.9686815841    -2.6269542665    -2.5991225505
| 12>  C        1.8347207265    -3.6546345369    -2.5737187187
| 13>  O        2.2760178452    -4.1556116398    -3.5640732482
| 14>  H        1.1544534463     1.8124654142     0.1248956659
| 15>  H       -0.3400850945     1.9952611574    -0.8051876559
| 16>  H       -0.3975472861     1.8900045844     0.9580828358
| 17>  H        0.4704240651    -0.4602607930     0.8451903368
| 18>  H       -2.0978608683    -0.0504060786    -0.7884715659
| 19>  H       -1.7165808992    -1.4546313776     0.2187357071
| 20>  H       -1.9867365396     0.1138518347     0.9670108265
| 21>  H        0.0617786136    -0.1957678799    -2.1671520845
| 22>  H        2.6564942325    -0.5076082128    -0.5509600385
| 23>  H        2.5328836623    -0.6939454612    -2.3095747108
| 24>  H        2.2101990678     0.8689775563    -1.5682216476
| 25>  H        1.0021332646    -2.5894901324    -0.5172946224
| 26>  H       -0.5857795718    -2.4289196349    -1.2954844448
| 27>  H        2.0898392954    -3.9752710375    -1.5439762975
| 28> *
| 29>
| 30>                          ****END OF INPUT****

CARTESIAN COORDINATES (ANGSTROEM)
---------------------------------
  C      0.108113    1.504462    0.067163
  C     -0.052021   -0.022042   -0.019090
  C     -1.543644   -0.382057    0.097748
  C      0.606982   -0.597622   -1.301153
  C      2.086122   -0.207869   -1.439150
  C      0.461089   -2.123246   -1.353335
  O      0.968682   -2.626954   -2.599123
  C      1.834721   -3.654635   -2.573719
  O      2.276018   -4.155612   -3.564073
  H      1.154453    1.812465    0.124896
  H     -0.340085    1.995261   -0.805188
  H     -0.397547    1.890005    0.958083
  H      0.470424   -0.460261    0.845190
  H     -2.097861   -0.050406   -0.788472
  H     -1.716581   -1.454631    0.218736
  H     -1.986737    0.113852    0.967011
  H      0.061779   -0.195768   -2.167152
  H      2.656494   -0.507608   -0.550960
  H      2.532884   -0.693945   -2.309575
  H      2.210199    0.868978   -1.568222
  H      1.002133   -2.589490   -0.517295
  H     -0.585780   -2.428920   -1.295484
  H      2.089839   -3.975271   -1.543976

 Total Charge           Charge          ....    0
 Multiplicity           Mult            ....    1
 Number of Electrons    NEL             ....   72
 Basis Dimension        Dim             ....  363

ORBITAL ENERGIES
----------------

  NO   OCC          E(Eh)            E(eV)
   0   2.0000     -20.605290      -560.6984
   1   2.0000     -20.547580      -559.1281
   2   2.0000     -11.381136      -309.6965
   3   2.0000     -11.301723      -307.5355
   4   2.0000     -11.243409      -305.9487
   5   2.0000     -11.242834      -305.9331
   6   2.0000     -11.224501      -305.4342
   7   2.0000     -11.221651      -305.3567
   8   2.0000     -11.221312      -305.3474
   9   2.0000      -1.459563       -39.7167
  10   2.0000      -1.370236       -37.2860
  11   2.0000      -1.118656       -30.4402
  12   2.0000      -1.028037       -27.9743
  13   2.0000      -0.962656       -26.1952
  14   2.0000      -0.930961       -25.3327
  15   2.0000      -0.860106       -23.4047
  16   2.0000      -0.840357       -22.8673
  17   2.0000      -0.772759       -21.0278
  18   2.0000      -0.725065       -19.7300
  19   2.0000      -0.687790       -18.7157
  20   2.0000      -0.669668       -18.2226
  21   2.0000      -0.626906       -17.0590
  22   2.0000      -0.612662       -16.6714
  23   2.0000      -0.606314       -16.4986
  24   2.0000      -0.590116       -16.0579
  25   2.0000      -0.560762       -15.2591
  26   2.0000      -0.548089       -14.9143
  27   2.0000      -0.542139       -14.7524
  28   2.0000      -0.533434       -14.5155
  29   2.0000      -0.523265       -14.2388
  30   2.0000      -0.499224       -13.5846
  31   2.0000      -0.485118       -13.2007
  32   2.0000      -0.471604       -12.8330
  33   2.0000      -0.466529       -12.6949
  34   2.0000      -0.454242       -12.3606
  35   2.0000      -0.442203       -12.0330
  36   0.0000       0.127187         3.4609
  37   0.0000       0.141868         3.8604
  38   0.0000       0.144962         3.9446
  39   0.0000       0.160578         4.3695
  40   0.0000       0.165127         4.4933

MULLIKEN ATOMIC CHARGES
-----------------------
   0 C :   -0.413076
   1 C :   -0.045260
   2 C :   -0.416171
   3 C :   -0.024230
   4 C :   -0.449657
   5 C :   -0.105348
   6 O :   -0.211469
   7 C :    0.198824
   8 O :   -0.272828
   9 H :    0.140489
  10 H :    0.127854
  11 H :    0.134376
  12 H :    0.085527
  13 H :    0.131698
  14 H :    0.131861
  15 H :    0.136454
  16 H :    0.100299
  17 H :    0.121887
  18 H :    0.163767
  19 H :    0.145734
  20 H :    0.110957
  21 H :    0.138925
  22 H :    0.069387
Sum of atomic charges:   -0.0000000

LOEWDIN ATOMIC CHARGES
----------------------
   0 C :   -0.291720
   1 C :   -0.283024
   2 C :   -0.294830
   3 C :   -0.266300
   4 C :   -0.290881
   5 C :   -0.268883
   6 O :    0.249222
   7 C :   -0.460434
   8 O :    0.116885
   9 H :    0.122337
  10 H :    0.125781
  11 H :    0.124362
  12 H :    0.150922
  13 H :    0.126293
  14 H :    0.118661
  15 H :    0.125443
  16 H :    0.158670
  17 H :    0.124514
  18 H :    0.129677
  19 H :    0.125360
  20 H :    0.126631
  21 H :    0.131439
  22 H :    0.099877

  Mayer bond orders larger than 0.1
B(  0-C ,  1-C ) :   0.9109 B(  0-C ,  9-H ) :   0.9418 B(  0-C , 10-H ) :   0.9313
B(  0-C , 11-H ) :   0.9400 B(  1-C ,  2-C ) :   0.9055 B(  1-C ,  3-C ) :   0.9130
B(  1-C , 12-H ) :   0.9188 B(  2-C , 13-H ) :   0.9311 B(  2-C , 14-H ) :   0.9409
B(  2-C , 15-H ) :   0.9390 B(  3-C ,  4-C ) :   0.8926 B(  3-C ,  5-C ) :   0.9129
B(  3-C , 16-H ) :   0.9178 B(  4-C , 17-H ) :   0.9301 B(  4-C , 18-H ) :   0.9376
B(  4-C , 19-H ) :   0.9407 B(  5-C ,  6-O ) :   0.8663 B(  5-C , 20-H ) :   0.9332
B(  5-C , 21-H ) :   0.9391 B(  6-O ,  7-C ) :   1.0706 B(  7-C ,  8-O ) :   2.0253
B(  7-C , 22-H ) :   0.9164

MP2 TOTAL ENERGY:     -424.751086179 Eh
FINAL SINGLE POINT ENERGY      -424.751086179086

DIPOLE MOMENT
-------------
                                X             Y             Z
Electronic contribution:      4.70379     -12.04730      -9.28693
Nuclear contribution   :     -5.22751      12.78509      10.74830
                        -----------------------------------------
Total Dipole Moment    :     -0.52373       0.73779       1.46136
                        -----------------------------------------
Magnitude (a.u.)       :      1.71878
Magnitude (Debye)      :      4.36879

                             ****ORCA TERMINATED NORMALLY****
TOTAL RUN TIME: 0 days 0 hours 20 minutes 35 seconds 83 msec
