                         Program Version 3.0.3 - RELEASE   -
|  1> ! RI-MP2 RIJK def2-TZVP def2-TZVP/C def2-TZVP/JK TIGHTSCF
|  2> % maxcore 2000
|  3> % mp2 density relaxed end
|  4> *xyz 0 1
|  5>  O       -0.5009336856     0.5215664000     0.6981212230
|  6>  C        0.0843032216     0.9376221864    -0.2636822189
|  7>  C        1.3143374394     1.8447673613    -0.1806576150
|  8>  C        1.2447941720     2.9740502754    -1.1499179340
|  9>  C        0.9314185215     4.2938270730    -1.0363730746
| 10>  C        1.0192269933     4.7698375432    -2.3714452662
| 11>  N        1.3495199630     3.8257460491    -3.2168176038
| 12>  O        1.4935073913     2.6769918540    -2.4400764534
| 13>  H       -0.2250294456     0.6800165684    -1.2994803190
| 14>  H        1.4112118529     2.2086673558     0.8436455191
| 15>  H        2.1891858771     1.2223287426    -0.4128215491
| 16>  H        0.6805841027     4.8403953768    -0.1429710902
| 17>  H        0.8537501663     5.7708134738    -2.7444264280
| 18> *
| 19>
| 20>                          ****END OF INPUT****

CARTESIAN COORDINATES (ANGSTROEM)
---------------------------------
  O     -0.500934    0.521566    0.698121
  C      0.084303    0.937622   -0.263682
  C      1.314337    1.844767   -0.180658
  C      1.244794    2.974050   -1.149918
  C      0.931419    4.293827   -1.036373
  C      1.019227    4.769838   -2.371445
  N      1.349520    3.825746   -3.216818
  O      1.493507    2.676992   -2.440076
  H     -0.225029    0.680017   -1.299480
  H      1.411212    2.208667    0.843646
  H      2.189186    1.222329   -0.412822
  H      0.680584    4.840395   -0.142971
  H      0.853750    5.770813   -2.744426

 Total Charge           Charge          ....    0
 Multiplicity           Mult            ....    1
 Number of Electrons    NEL             ....   58
 Basis Dimension        Dim             ....  278

ORBITAL ENERGIES
----------------

  NO   OCC          E(Eh)            E(eV)
   0   2.0000     -20.656337      -562.0875
   1   2.0000     -20.575310      -559.8827
   2   2.0000     -15.632993      -425.3954
   3   2.0000     -11.352548      -308.9185
   4   2.0000     -11.336815      -308.4904
   5   2.0000     -11.291784      -307.2651
   6   2.0000     -11.276705      -306.8548
   7   2.0000     -11.250875      -306.1519
   8   2.0000      -1.506400       -40.9912
   9   2.0000      -1.415606       -38.5206
  10   2.0000      -1.180390       -32.1200
  11   2.0000      -1.114449       -30.3257
  12   2.0000      -1.024984       -27.8912
  13   2.0000      -0.842071       -22.9139
  14   2.0000      -0.839038       -22.8314
  15   2.0000      -0.803214       -21.8566
  16   2.0000      -0.731876       -19.9153
  17   2.0000      -0.683981       -18.6121
  18   2.0000      -0.675643       -18.3852
  19   2.0000      -0.642124       -17.4731
  20   2.0000      -0.634684       -17.2706
  21   2.0000      -0.594517       -16.1776
  22   2.0000      -0.590712       -16.0741
  23   2.0000      -0.577264       -15.7082
  24   2.0000      -0.525881       -14.3100
  25   2.0000      -0.489467       -13.3191
  26   2.0000      -0.448015       -12.1911
  27   2.0000      -0.439983       -11.9725
  28   2.0000      -0.371280       -10.1030
  29   0.0000       0.096219         2.6182
  30   0.0000       0.129923         3.5354
  31   0.0000       0.141385         3.8473
  32   0.0000       0.163671         4.4537
  33   0.0000       0.171254         4.6601

MULLIKEN ATOMIC CHARGES
-----------------------
   0 O :   -0.250746
   1 C :    0.089805
   2 C :   -0.202461
   3 C :    0.148116
   4 C :   -0.217196
   5 C :   -0.064658
   6 N :   -0.123640
   7 O :   -0.108996
   8 H :    0.105275
   9 H :    0.150251
  10 H :    0.160129
  11 H :    0.158947
  12 H :    0.155173
Sum of atomic charges:    0.0000000

LOEWDIN ATOMIC CHARGES
----------------------
   0 O :    0.145397
   1 C :   -0.279668
   2 C :   -0.222186
   3 C :   -0.281122
   4 C :   -0.169533
   5 C :   -0.264765
   6 N :    0.036917
   7 O :    0.293317
   8 H :    0.117718
   9 H :    0.160887
  10 H :    0.168838
  11 H :    0.150392
  12 H :    0.143810

  Mayer bond orders larger than 0.1
B(  0-O ,  1-C ) :   1.9945 B(  1-C ,  2-C ) :   0.8669 B(  1-C ,  8-H ) :   0.9313
B(  2-C ,  3-C ) :   0.8522 B(  2-C ,  9-H ) :   0.9191 B(  2-C , 10-H ) :   0.9151
B(  3-C ,  4-C ) :   1.5127 B(  3-C ,  7-O ) :   1.1065 B(  4-C ,  5-C ) :   1.2278
B(  4-C , 11-H ) :   0.9110 B(  5-C ,  6-N ) :   1.5880 B(  5-C , 12-H ) :   0.9255
B(  6-N ,  7-O ) :   0.8878

MP2 TOTAL ENERGY:     -397.940129842 Eh
FINAL SINGLE POINT ENERGY      -397.940129841580

DIPOLE MOMENT
-------------
                                X             Y             Z
Electronic contribution:     -0.26758      -0.56740      -1.81751
Nuclear contribution   :      0.59094       1.22089       2.25160
                        -----------------------------------------
Total Dipole Moment    :      0.32336       0.65349       0.43409
                        -----------------------------------------
Magnitude (a.u.)       :      0.84855
Magnitude (Debye)      :      2.15685

                             ****ORCA TERMINATED NORMALLY****
TOTAL RUN TIME: 0 days 0 hours 9 minutes 27 seconds 644 msec
