                         Program Version 3.0.3 - RELEASE   -
|  1> ! RI-MP2 RIJK def2-TZVP def2-TZVP/C def2-TZVP/JK TIGHTSCF
|  2> % maxcore 2000
|  3> % mp2 density relaxed end
|  4> *xyz 0 1
|  5>  C       -0.1744336629     1.5206996234     0.0702495093
|  6>  C        0.1133443707     0.0568860829     0.0368741675
|  7>  O       -0.7314052184    -0.8375213248     0.7562932685
|  8>  C        0.6789861795    -0.9131176845     0.9948295904
|  9>  C        1.2456119754    -1.8114197622    -0.1065673482
| 10>  C        0.6790359644    -0.7666866043    -1.1580809073
| 11>  O       -0.3105636623    -1.1695201116    -2.0630493646
| 12>  C        1.7718437964    -0.0554552650    -1.8393026228
| 13>  N        2.6268279268     0.4920557187    -2.3927934320
| 14>  H        0.6771954723     2.0937472271    -0.3069729605
| 15>  H       -1.0452172446     1.7509941382    -0.5524525483
| 16>  H       -0.3908661977     1.8359337607     1.0938470103
| 17>  H        1.0293160151    -0.7684477384     2.0094542029
| 18>  H        2.3333426317    -1.8937880967    -0.1272950127
| 19>  H        0.7789324669    -2.7961644588    -0.1718173417
| 20>  H        0.0980952267    -1.6882362447    -2.7652942210
| 21> *
| 22>
| 23>                          ****END OF INPUT****

CARTESIAN COORDINATES (ANGSTROEM)
---------------------------------
  C     -0.174434    1.520700    0.070250
  C      0.113344    0.056886    0.036874
  O     -0.731405   -0.837521    0.756293
  C      0.678986   -0.913118    0.994830
  C      1.245612   -1.811420   -0.106567
  C      0.679036   -0.766687   -1.158081
  O     -0.310564   -1.169520   -2.063049
  C      1.771844   -0.055455   -1.839303
  N      2.626828    0.492056   -2.392793
  H      0.677195    2.093747   -0.306973
  H     -1.045217    1.750994   -0.552453
  H     -0.390866    1.835934    1.093847
  H      1.029316   -0.768448    2.009454
  H      2.333343   -1.893788   -0.127295
  H      0.778932   -2.796164   -0.171817
  H      0.098095   -1.688236   -2.765294

 Total Charge           Charge          ....    0
 Multiplicity           Mult            ....    1
 Number of Electrons    NEL             ....   66
 Basis Dimension        Dim             ....  321

ORBITAL ENERGIES
----------------

  NO   OCC          E(Eh)            E(eV)
   0   2.0000     -20.594942      -560.4169
   1   2.0000     -20.587489      -560.2140
   2   2.0000     -15.588581      -424.1868
   3   2.0000     -11.355736      -309.0053
   4   2.0000     -11.318726      -307.9982
   5   2.0000     -11.309056      -307.7351
   6   2.0000     -11.285240      -307.0870
   7   2.0000     -11.264734      -306.5290
   8   2.0000     -11.240866      -305.8795
   9   2.0000      -1.448805       -39.4240
  10   2.0000      -1.403502       -38.1912
  11   2.0000      -1.233156       -33.5559
  12   2.0000      -1.112785       -30.2804
  13   2.0000      -1.025484       -27.9048
  14   2.0000      -0.941645       -25.6235
  15   2.0000      -0.873392       -23.7662
  16   2.0000      -0.820340       -22.3226
  17   2.0000      -0.760403       -20.6916
  18   2.0000      -0.705607       -19.2005
  19   2.0000      -0.674956       -18.3665
  20   2.0000      -0.629862       -17.1394
  21   2.0000      -0.620719       -16.8906
  22   2.0000      -0.602134       -16.3849
  23   2.0000      -0.587941       -15.9987
  24   2.0000      -0.573814       -15.6143
  25   2.0000      -0.568271       -15.4634
  26   2.0000      -0.535506       -14.5719
  27   2.0000      -0.512806       -13.9542
  28   2.0000      -0.507143       -13.8001
  29   2.0000      -0.492183       -13.3930
  30   2.0000      -0.479906       -13.0589
  31   2.0000      -0.437932       -11.9167
  32   2.0000      -0.419935       -11.4270
  33   0.0000       0.116929         3.1818
  34   0.0000       0.144799         3.9402
  35   0.0000       0.148891         4.0515
  36   0.0000       0.167171         4.5489
  37   0.0000       0.173201         4.7130

MULLIKEN ATOMIC CHARGES
-----------------------
   0 C :   -0.409141
   1 C :    0.190782
   2 O :   -0.303801
   3 C :   -0.100563
   4 C :   -0.170572
   5 C :    0.411971
   6 O :   -0.437419
   7 C :   -0.348838
   8 N :   -0.049678
   9 H :    0.158644
  10 H :    0.157486
  11 H :    0.149774
  12 H :    0.145349
  13 H :    0.149135
  14 H :    0.125913
  15 H :    0.330957
Sum of atomic charges:   -0.0000000

LOEWDIN ATOMIC CHARGES
----------------------
   0 C :   -0.259484
   1 C :   -0.266475
   2 O :    0.216713
   3 C :   -0.215742
   4 C :   -0.163074
   5 C :   -0.317246
   6 O :    0.052624
   7 C :   -0.152828
   8 N :    0.075454
   9 H :    0.140314
  10 H :    0.141125
  11 H :    0.139513
  12 H :    0.134731
  13 H :    0.144255
  14 H :    0.141369
  15 H :    0.188751

  Mayer bond orders larger than 0.1
B(  0-C ,  1-C ) :   0.8700 B(  0-C ,  9-H ) :   0.9277 B(  0-C , 10-H ) :   0.9382
B(  0-C , 11-H ) :   0.9351 B(  1-C ,  2-O ) :   0.8893 B(  1-C ,  3-C ) :   0.8876
B(  1-C ,  5-C ) :   0.7969 B(  2-O ,  3-C ) :   0.9369 B(  3-C ,  4-C ) :   0.9263
B(  3-C , 12-H ) :   0.9277 B(  4-C ,  5-C ) :   0.9020 B(  4-C , 13-H ) :   0.8968
B(  4-C , 14-H ) :   0.8967 B(  5-C ,  6-O ) :   1.0190 B(  5-C ,  7-C ) :   0.8910
B(  6-O , 15-H ) :   0.8303 B(  7-C ,  8-N ) :   2.8467

MP2 TOTAL ENERGY:     -437.138351619 Eh
FINAL SINGLE POINT ENERGY      -437.138351619109

DIPOLE MOMENT
-------------
                                X             Y             Z
Electronic contribution:      0.83362      -1.73510      -2.82256
Nuclear contribution   :     -0.71658       1.25425       3.38173
                        -----------------------------------------
Total Dipole Moment    :      0.11704      -0.48085       0.55917
                        -----------------------------------------
Magnitude (a.u.)       :      0.74672
Magnitude (Debye)      :      1.89801

                             ****ORCA TERMINATED NORMALLY****
TOTAL RUN TIME: 0 days 0 hours 16 minutes 21 seconds 738 msec
