                         Program Version 3.0.3 - RELEASE   -
|  1> ! RI-MP2 RIJK def2-TZVP def2-TZVP/C def2-TZVP/JK TIGHTSCF
|  2> % maxcore 2000
|  3> % mp2 density relaxed end
|  4> *xyz 0 1
|  5>  N       -0.0685430313     1.2817389071     0.1716935075
|  6>  C       -0.0601915610     0.0132679071    -0.2944134472
|  7>  O        0.5642247421    -0.4275335330    -1.2170965242
|  8>  O       -0.9244605295    -0.7481167086     0.5014514020
|  9>  C       -1.0041230015    -2.0618238173     0.2158690659
| 10>  C       -1.9555549342    -2.8351542907    -0.3516547649
| 11>  N       -1.5365341545    -4.1603949759    -0.2935365130
| 12>  C       -0.3856696994    -4.1068619086     0.2894959092
| 13>  O        0.0146203528    -2.8596050669     0.6423492556
| 14>  H        0.4547043251     1.9755005246    -0.3308134325
| 15>  H       -0.6796256356     1.5536896018     0.9205921544
| 16>  H       -2.8933186982    -2.5403085291    -0.7915574257
| 17>  H        0.2881219152    -4.9143302805     0.5272348430
| 18> *
| 19>
| 20>                          ****END OF INPUT****

CARTESIAN COORDINATES (ANGSTROEM)
---------------------------------
  N     -0.068543    1.281739    0.171694
  C     -0.060192    0.013268   -0.294413
  O      0.564225   -0.427534   -1.217097
  O     -0.924461   -0.748117    0.501451
  C     -1.004123   -2.061824    0.215869
  C     -1.955555   -2.835154   -0.351655
  N     -1.536534   -4.160395   -0.293537
  C     -0.385670   -4.106862    0.289496
  O      0.014620   -2.859605    0.642349
  H      0.454704    1.975501   -0.330813
  H     -0.679626    1.553690    0.920592
  H     -2.893319   -2.540309   -0.791557
  H      0.288122   -4.914330    0.527235

 Total Charge           Charge          ....    0
 Multiplicity           Mult            ....    1
 Number of Electrons    NEL             ....   66
 Basis Dimension        Dim             ....  303

ORBITAL ENERGIES
----------------

  NO   OCC          E(Eh)            E(eV)
   0   2.0000     -20.645833      -561.8017
   1   2.0000     -20.640512      -561.6569
   2   2.0000     -20.550217      -559.1998
   3   2.0000     -15.609486      -424.7557
   4   2.0000     -15.571115      -423.7116
   5   2.0000     -11.430346      -311.0355
   6   2.0000     -11.361035      -309.1495
   7   2.0000     -11.336467      -308.4809
   8   2.0000     -11.263145      -306.4857
   9   2.0000      -1.521675       -41.4069
  10   2.0000      -1.474791       -40.1311
  11   2.0000      -1.391202       -37.8565
  12   2.0000      -1.246391       -33.9160
  13   2.0000      -1.238116       -33.6909
  14   2.0000      -1.037157       -28.2225
  15   2.0000      -0.901926       -24.5426
  16   2.0000      -0.860296       -23.4098
  17   2.0000      -0.802801       -21.8453
  18   2.0000      -0.779862       -21.2211
  19   2.0000      -0.740663       -20.1545
  20   2.0000      -0.726526       -19.7698
  21   2.0000      -0.677206       -18.4277
  22   2.0000      -0.670257       -18.2386
  23   2.0000      -0.659661       -17.9503
  24   2.0000      -0.619789       -16.8653
  25   2.0000      -0.601294       -16.3620
  26   2.0000      -0.596587       -16.2340
  27   2.0000      -0.528586       -14.3836
  28   2.0000      -0.484584       -13.1862
  29   2.0000      -0.463174       -12.6036
  30   2.0000      -0.460204       -12.5228
  31   2.0000      -0.449266       -12.2252
  32   2.0000      -0.342734        -9.3263
  33   0.0000       0.121463         3.3052
  34   0.0000       0.142066         3.8658
  35   0.0000       0.171410         4.6643
  36   0.0000       0.176231         4.7955
  37   0.0000       0.183009         4.9799

MULLIKEN ATOMIC CHARGES
-----------------------
   0 N :   -0.500071
   1 C :    0.404832
   2 O :   -0.322128
   3 O :   -0.303957
   4 C :    0.329471
   5 C :   -0.139465
   6 N :   -0.264365
   7 C :    0.113934
   8 O :   -0.189111
   9 H :    0.278959
  10 H :    0.279090
  11 H :    0.151102
  12 H :    0.161710
Sum of atomic charges:   -0.0000000

LOEWDIN ATOMIC CHARGES
----------------------
   0 N :   -0.008259
   1 C :   -0.574119
   2 O :    0.119073
   3 O :    0.283938
   4 C :   -0.370874
   5 C :   -0.226450
   6 N :    0.101123
   7 C :   -0.319267
   8 O :    0.356400
   9 H :    0.183602
  10 H :    0.180597
  11 H :    0.140892
  12 H :    0.133345

  Mayer bond orders larger than 0.1
B(  0-N ,  1-C ) :   1.1986 B(  0-N ,  9-H ) :   0.8626 B(  0-N , 10-H ) :   0.8596
B(  1-C ,  2-O ) :   2.0038 B(  1-C ,  3-O ) :   0.9442 B(  3-O ,  4-C ) :   0.9972
B(  4-C ,  5-C ) :   1.5945 B(  4-C ,  8-O ) :   1.0451 B(  5-C ,  6-N ) :   1.1782
B(  5-C , 11-H ) :   0.9277 B(  6-N ,  7-C ) :   1.6482 B(  7-C ,  8-O ) :   1.0591
B(  7-C , 12-H ) :   0.9247

MP2 TOTAL ENERGY:     -489.176225089 Eh
FINAL SINGLE POINT ENERGY      -489.176225088793

DIPOLE MOMENT
-------------
                                X             Y             Z
Electronic contribution:      0.48090      -1.25692       0.31282
Nuclear contribution   :     -0.53539       2.68799       0.42967
                        -----------------------------------------
Total Dipole Moment    :     -0.05449       1.43106       0.74249
                        -----------------------------------------
Magnitude (a.u.)       :      1.61314
Magnitude (Debye)      :      4.10027

                             ****ORCA TERMINATED NORMALLY****
TOTAL RUN TIME: 0 days 0 hours 12 minutes 6 seconds 414 msec
