                         Program Version 3.0.3 - RELEASE   -
|  1> ! RI-MP2 RIJK def2-TZVP def2-TZVP/C def2-TZVP/JK TIGHTSCF
|  2> % maxcore 2000
|  3> % mp2 density relaxed end
|  4> *xyz 0 1
|  5>  O        0.3148039543     1.4130296316     0.4210655177
|  6>  C        0.0906202517     0.0738448049     0.1357163876
|  7>  C       -0.4191631968    -0.9335847419     1.1382266778
|  8>  C       -1.1180110948    -0.3766315871     2.3657208712
|  9>  N       -1.9801452324     0.6861927780     1.8150198469
| 10>  C       -2.4686546794     0.2202852873     0.5043918126
| 11>  C       -2.9191397843     1.3554117591    -0.3162772211
| 12>  N       -3.3122954507     2.2287998995    -0.9619143990
| 13>  C       -1.2759377760    -0.5412143290    -0.0663518792
| 14>  H       -0.4016651716     1.7018567379     1.0091441941
| 15>  H        0.8544960951    -0.2915084861    -0.5434063785
| 16>  H        0.0422059642    -1.9111357635     1.2163943743
| 17>  H       -1.6838342978    -1.1774292363     2.8674012172
| 18>  H       -0.4277690117     0.0598583489     3.0960145077
| 19>  H       -2.7320341751     0.9604477809     2.4355078598
| 20>  H       -3.3206522094    -0.4760447733     0.5824191922
| 21>  H       -1.4665343852    -1.2073191810    -0.8989645314
| 22> *
| 23>
| 24>                          ****END OF INPUT****

CARTESIAN COORDINATES (ANGSTROEM)
---------------------------------
  O      0.314804    1.413030    0.421066
  C      0.090620    0.073845    0.135716
  C     -0.419163   -0.933585    1.138227
  C     -1.118011   -0.376632    2.365721
  N     -1.980145    0.686193    1.815020
  C     -2.468655    0.220285    0.504392
  C     -2.919140    1.355412   -0.316277
  N     -3.312295    2.228800   -0.961914
  C     -1.275938   -0.541214   -0.066352
  H     -0.401665    1.701857    1.009144
  H      0.854496   -0.291508   -0.543406
  H      0.042206   -1.911136    1.216394
  H     -1.683834   -1.177429    2.867401
  H     -0.427769    0.059858    3.096015
  H     -2.732034    0.960448    2.435508
  H     -3.320652   -0.476045    0.582419
  H     -1.466534   -1.207319   -0.898965

 Total Charge           Charge          ....    0
 Multiplicity           Mult            ....    1
 Number of Electrons    NEL             ....   66
 Basis Dimension        Dim             ....  327

ORBITAL ENERGIES
----------------

  NO   OCC          E(Eh)            E(eV)
   0   2.0000     -20.557037      -559.3854
   1   2.0000     -15.588267      -424.1783
   2   2.0000     -15.572756      -423.7562
   3   2.0000     -11.326434      -308.2079
   4   2.0000     -11.299609      -307.4780
   5   2.0000     -11.283607      -307.0425
   6   2.0000     -11.272885      -306.7508
   7   2.0000     -11.258410      -306.3569
   8   2.0000     -11.252907      -306.2072
   9   2.0000      -1.375662       -37.4337
  10   2.0000      -1.273933       -34.6655
  11   2.0000      -1.215895       -33.0862
  12   2.0000      -1.134571       -30.8732
  13   2.0000      -1.037818       -28.2405
  14   2.0000      -0.919702       -25.0264
  15   2.0000      -0.829457       -22.5707
  16   2.0000      -0.803166       -21.8553
  17   2.0000      -0.753460       -20.5027
  18   2.0000      -0.735595       -20.0165
  19   2.0000      -0.664089       -18.0708
  20   2.0000      -0.637485       -17.3468
  21   2.0000      -0.631799       -17.1921
  22   2.0000      -0.602549       -16.3962
  23   2.0000      -0.573533       -15.6066
  24   2.0000      -0.566281       -15.4093
  25   2.0000      -0.553155       -15.0521
  26   2.0000      -0.549997       -14.9662
  27   2.0000      -0.529719       -14.4144
  28   2.0000      -0.470221       -12.7954
  29   2.0000      -0.467658       -12.7256
  30   2.0000      -0.435008       -11.8372
  31   2.0000      -0.409224       -11.1355
  32   2.0000      -0.394625       -10.7383
  33   0.0000       0.107917         2.9366
  34   0.0000       0.144979         3.9451
  35   0.0000       0.151292         4.1169
  36   0.0000       0.161199         4.3865
  37   0.0000       0.172926         4.7056

MULLIKEN ATOMIC CHARGES
-----------------------
   0 O :   -0.450123
   1 C :    0.009980
   2 C :   -0.101511
   3 C :   -0.143584
   4 N :   -0.439901
   5 C :    0.074551
   6 C :   -0.172388
   7 N :   -0.044649
   8 C :   -0.113293
   9 H :    0.347163
  10 H :    0.125295
  11 H :    0.142118
  12 H :    0.118949
  13 H :    0.143251
  14 H :    0.221670
  15 H :    0.136573
  16 H :    0.145900
Sum of atomic charges:   -0.0000000

LOEWDIN ATOMIC CHARGES
----------------------
   0 O :    0.013895
   1 C :   -0.289741
   2 C :   -0.187113
   3 C :   -0.266120
   4 N :    0.012346
   5 C :   -0.265004
   6 C :   -0.164340
   7 N :    0.071695
   8 C :   -0.156871
   9 H :    0.177951
  10 H :    0.149014
  11 H :    0.147070
  12 H :    0.129087
  13 H :    0.138480
  14 H :    0.173601
  15 H :    0.166032
  16 H :    0.150017

  Mayer bond orders larger than 0.1
B(  0-O ,  1-C ) :   1.0496 B(  0-O ,  9-H ) :   0.7907 B(  1-C ,  2-C ) :   0.8661
B(  1-C ,  8-C ) :   0.8802 B(  1-C , 10-H ) :   0.9510 B(  2-C ,  3-C ) :   0.9404
B(  2-C ,  8-C ) :   0.8130 B(  2-C , 11-H ) :   0.9190 B(  3-C ,  4-N ) :   0.8826
B(  3-C , 12-H ) :   0.9258 B(  3-C , 13-H ) :   0.9288 B(  4-N ,  5-C ) :   0.8560
B(  4-N , 14-H ) :   0.8770 B(  5-C ,  6-C ) :   0.9378 B(  5-C ,  8-C ) :   0.9141
B(  5-C , 15-H ) :   0.9098 B(  6-C ,  7-N ) :   2.8687 B(  8-C , 16-H ) :   0.9141

MP2 TOTAL ENERGY:     -417.300017012 Eh
FINAL SINGLE POINT ENERGY      -417.300017011747

DIPOLE MOMENT
-------------
                                X             Y             Z
Electronic contribution:     -2.24171       3.91580      -3.41972
Nuclear contribution   :      2.06447      -5.71777       4.70026
                        -----------------------------------------
Total Dipole Moment    :     -0.17725      -1.80197       1.28055
                        -----------------------------------------
Magnitude (a.u.)       :      2.21773
Magnitude (Debye)      :      5.63702

                             ****ORCA TERMINATED NORMALLY****
TOTAL RUN TIME: 0 days 0 hours 17 minutes 52 seconds 556 msec
