                         Program Version 3.0.3 - RELEASE   -
|  1> ! RI-MP2 RIJK def2-TZVP def2-TZVP/C def2-TZVP/JK TIGHTSCF
|  2> % maxcore 2000
|  3> % mp2 density relaxed end
|  4> *xyz 0 1
|  5>  C       -0.0600576503     1.4576984962     0.0244433642
|  6>  N        0.0297568300     0.0108688111    -0.0778313613
|  7>  C       -1.2442340664    -0.7000770431    -0.0152224258
|  8>  C       -1.1367655802    -2.1693244339    -0.4127491701
|  9>  C        0.0374981532    -2.8205978403     0.3149995120
| 10>  C        1.3273826510    -2.1029686372    -0.0855425533
| 11>  C        1.2705267040    -0.5780860417    -0.0232624296
| 12>  O        2.3009599177     0.0737806290     0.0319848320
| 13>  H        0.9489575009     1.8649947982    -0.0029276664
| 14>  H       -0.6477021848     1.8641913828    -0.8075155303
| 15>  H       -0.5469376564     1.7554771870     0.9630889550
| 16>  H       -1.6561281023    -0.6216458248     1.0047628232
| 17>  H       -1.9531707050    -0.1814196948    -0.6732749968
| 18>  H       -2.0838216182    -2.6667714122    -0.1803933108
| 19>  H       -0.9870253218    -2.2493708258    -1.4967423241
| 20>  H       -0.1152813316    -2.7445431837     1.3994585913
| 21>  H        0.1059732479    -3.8878701840     0.0806374221
| 22>  H        2.1801956594    -2.4024178680     0.5283137758
| 23>  H        1.5908686829    -2.3591812547    -1.1202933471
| 24> *
| 25>
| 26>                          ****END OF INPUT****

CARTESIAN COORDINATES (ANGSTROEM)
---------------------------------
  C     -0.060058    1.457698    0.024443
  N      0.029757    0.010869   -0.077831
  C     -1.244234   -0.700077   -0.015222
  C     -1.136766   -2.169324   -0.412749
  C      0.037498   -2.820598    0.315000
  C      1.327383   -2.102969   -0.085543
  C      1.270527   -0.578086   -0.023262
  O      2.300960    0.073781    0.031985
  H      0.948958    1.864995   -0.002928
  H     -0.647702    1.864191   -0.807516
  H     -0.546938    1.755477    0.963089
  H     -1.656128   -0.621646    1.004763
  H     -1.953171   -0.181420   -0.673275
  H     -2.083822   -2.666771   -0.180393
  H     -0.987025   -2.249371   -1.496742
  H     -0.115281   -2.744543    1.399459
  H      0.105973   -3.887870    0.080637
  H      2.180196   -2.402418    0.528314
  H      1.590869   -2.359181   -1.120293

 Total Charge           Charge          ....    0
 Multiplicity           Mult            ....    1
 Number of Electrons    NEL             ....   62
 Basis Dimension        Dim             ....  314

ORBITAL ENERGIES
----------------

  NO   OCC          E(Eh)            E(eV)
   0   2.0000     -20.502437      -557.8997
   1   2.0000     -15.580703      -423.9725
   2   2.0000     -11.339584      -308.5658
   3   2.0000     -11.272737      -306.7468
   4   2.0000     -11.248912      -306.0985
   5   2.0000     -11.237554      -305.7894
   6   2.0000     -11.236070      -305.7490
   7   2.0000     -11.234407      -305.7038
   8   2.0000      -1.370714       -37.2990
   9   2.0000      -1.242781       -33.8178
  10   2.0000      -1.092782       -29.7361
  11   2.0000      -1.012127       -27.5414
  12   2.0000      -0.949133       -25.8272
  13   2.0000      -0.886563       -24.1246
  14   2.0000      -0.829272       -22.5656
  15   2.0000      -0.721050       -19.6208
  16   2.0000      -0.673519       -18.3274
  17   2.0000      -0.659390       -17.9429
  18   2.0000      -0.651887       -17.7388
  19   2.0000      -0.618108       -16.8196
  20   2.0000      -0.600582       -16.3427
  21   2.0000      -0.587048       -15.9744
  22   2.0000      -0.561626       -15.2826
  23   2.0000      -0.545422       -14.8417
  24   2.0000      -0.540379       -14.7045
  25   2.0000      -0.500331       -13.6147
  26   2.0000      -0.494054       -13.4439
  27   2.0000      -0.483079       -13.1452
  28   2.0000      -0.478805       -13.0289
  29   2.0000      -0.405663       -11.0386
  30   2.0000      -0.368216       -10.0197
  31   0.0000       0.121741         3.3127
  32   0.0000       0.147578         4.0158
  33   0.0000       0.163087         4.4378
  34   0.0000       0.164986         4.4895
  35   0.0000       0.176274         4.7967

MULLIKEN ATOMIC CHARGES
-----------------------
   0 C :   -0.323916
   1 N :   -0.093850
   2 C :   -0.187156
   3 C :   -0.212845
   4 C :   -0.212530
   5 C :   -0.217234
   6 C :    0.178756
   7 O :   -0.384967
   8 H :    0.184830
   9 H :    0.131288
  10 H :    0.127640
  11 H :    0.117487
  12 H :    0.129467
  13 H :    0.130286
  14 H :    0.115236
  15 H :    0.115029
  16 H :    0.128417
  17 H :    0.145734
  18 H :    0.128327
Sum of atomic charges:    0.0000000

LOEWDIN ATOMIC CHARGES
----------------------
   0 C :   -0.290740
   1 N :    0.165010
   2 C :   -0.259431
   3 C :   -0.263876
   4 C :   -0.264920
   5 C :   -0.226952
   6 C :   -0.431312
   7 O :    0.067573
   8 H :    0.135604
   9 H :    0.116365
  10 H :    0.115893
  11 H :    0.131813
  12 H :    0.136370
  13 H :    0.141462
  14 H :    0.141849
  15 H :    0.140594
  16 H :    0.137810
  17 H :    0.152487
  18 H :    0.154403

  Mayer bond orders larger than 0.1
B(  0-C ,  1-N ) :   0.8665 B(  0-C ,  8-H ) :   0.9196 B(  0-C ,  9-H ) :   0.9343
B(  0-C , 10-H ) :   0.9315 B(  1-N ,  2-C ) :   0.8942 B(  1-N ,  6-C ) :   1.1706
B(  2-C ,  3-C ) :   0.9488 B(  2-C , 11-H ) :   0.9240 B(  2-C , 12-H ) :   0.9268
B(  3-C ,  4-C ) :   0.9083 B(  3-C , 13-H ) :   0.9294 B(  3-C , 14-H ) :   0.9310
B(  4-C ,  5-C ) :   0.9089 B(  4-C , 15-H ) :   0.9305 B(  4-C , 16-H ) :   0.9292
B(  5-C ,  6-C ) :   0.9280 B(  5-C , 17-H ) :   0.9264 B(  5-C , 18-H ) :   0.9168
B(  6-C ,  7-O ) :   1.9015

MP2 TOTAL ENERGY:     -364.493572143 Eh
FINAL SINGLE POINT ENERGY      -364.493572142847

DIPOLE MOMENT
-------------
                                X             Y             Z
Electronic contribution:      4.81886       1.82948      -0.04260
Nuclear contribution   :     -6.25809      -2.37156       0.01153
                        -----------------------------------------
Total Dipole Moment    :     -1.43923      -0.54207      -0.03107
                        -----------------------------------------
Magnitude (a.u.)       :      1.53824
Magnitude (Debye)      :      3.90990

                             ****ORCA TERMINATED NORMALLY****
TOTAL RUN TIME: 0 days 0 hours 13 minutes 54 seconds 495 msec
