                         Program Version 3.0.3 - RELEASE   -
|  1> ! RI-MP2 RIJK def2-TZVP def2-TZVP/C def2-TZVP/JK TIGHTSCF
|  2> % maxcore 2000
|  3> % mp2 density relaxed end
|  4> *xyz 0 1
|  5>  C       -0.0302843509     1.5017044005    -0.0823603111
|  6>  C       -0.1105559876    -0.0087092571     0.0397592739
|  7>  O       -0.4187611505    -0.5782108851     1.0689153499
|  8>  N        0.2213620916    -0.6948967821    -1.1024188395
|  9>  C        0.1885708056    -2.1394734878    -1.1569012692
| 10>  C       -0.6526302786    -2.6136944374    -2.3608561633
| 11>  O       -0.1565192901    -2.0774336516    -3.5716036493
| 12>  C        1.5485988088    -2.7036175677    -1.2760722079
| 13>  N        2.5990569276    -3.1554624783    -1.4445937422
| 14>  H        0.9729784791     1.8311359869     0.2075427139
| 15>  H       -0.2258027120     1.8564175172    -1.0979284971
| 16>  H       -0.7463067859     1.9474772574     0.6085913161
| 17>  H        0.4084659055    -0.2136376053    -1.9679662320
| 18>  H       -0.2562241915    -2.4779037151    -0.2149948590
| 19>  H       -0.6938278391    -3.7106020136    -2.3767741240
| 20>  H       -1.6676647675    -2.2264220513    -2.2387013370
| 21>  H        0.6598158655    -2.5411033294    -3.7924948623
| 22> *
| 23>
| 24>                          ****END OF INPUT****

CARTESIAN COORDINATES (ANGSTROEM)
---------------------------------
  C     -0.030284    1.501704   -0.082360
  C     -0.110556   -0.008709    0.039759
  O     -0.418761   -0.578211    1.068915
  N      0.221362   -0.694897   -1.102419
  C      0.188571   -2.139473   -1.156901
  C     -0.652630   -2.613694   -2.360856
  O     -0.156519   -2.077434   -3.571604
  C      1.548599   -2.703618   -1.276072
  N      2.599057   -3.155462   -1.444594
  H      0.972978    1.831136    0.207543
  H     -0.225803    1.856418   -1.097928
  H     -0.746307    1.947477    0.608591
  H      0.408466   -0.213638   -1.967966
  H     -0.256224   -2.477904   -0.214995
  H     -0.693828   -3.710602   -2.376774
  H     -1.667665   -2.226422   -2.238701
  H      0.659816   -2.541103   -3.792495

 Total Charge           Charge          ....    0
 Multiplicity           Mult            ....    1
 Number of Electrons    NEL             ....   68
 Basis Dimension        Dim             ....  327

ORBITAL ENERGIES
----------------

  NO   OCC          E(Eh)            E(eV)
   0   2.0000     -20.591070      -560.3115
   1   2.0000     -20.534420      -558.7700
   2   2.0000     -15.607812      -424.7102
   3   2.0000     -15.585853      -424.1126
   4   2.0000     -11.370399      -309.4043
   5   2.0000     -11.330933      -308.3303
   6   2.0000     -11.316891      -307.9483
   7   2.0000     -11.285207      -307.0861
   8   2.0000     -11.250762      -306.1488
   9   2.0000      -1.404481       -38.2179
  10   2.0000      -1.397062       -38.0160
  11   2.0000      -1.266156       -34.4539
  12   2.0000      -1.227320       -33.3971
  13   2.0000      -1.071721       -29.1630
  14   2.0000      -1.003505       -27.3067
  15   2.0000      -0.912461       -24.8293
  16   2.0000      -0.823766       -22.4158
  17   2.0000      -0.761919       -20.7329
  18   2.0000      -0.725429       -19.7399
  19   2.0000      -0.696436       -18.9510
  20   2.0000      -0.673024       -18.3139
  21   2.0000      -0.653518       -17.7831
  22   2.0000      -0.624009       -16.9801
  23   2.0000      -0.610159       -16.6033
  24   2.0000      -0.598978       -16.2990
  25   2.0000      -0.576633       -15.6910
  26   2.0000      -0.568668       -15.4742
  27   2.0000      -0.541819       -14.7437
  28   2.0000      -0.532462       -14.4890
  29   2.0000      -0.503106       -13.6902
  30   2.0000      -0.483619       -13.1599
  31   2.0000      -0.468820       -12.7572
  32   2.0000      -0.442453       -12.0397
  33   2.0000      -0.421231       -11.4623
  34   0.0000       0.115297         3.1374
  35   0.0000       0.133050         3.6205
  36   0.0000       0.148354         4.0369
  37   0.0000       0.158461         4.3119
  38   0.0000       0.164158         4.4670

MULLIKEN ATOMIC CHARGES
-----------------------
   0 C :   -0.421960
   1 C :    0.326405
   2 O :   -0.373789
   3 N :   -0.343294
   4 C :    0.103737
   5 C :   -0.040285
   6 O :   -0.476226
   7 C :   -0.218295
   8 N :   -0.049712
   9 H :    0.158870
  10 H :    0.131602
  11 H :    0.160265
  12 H :    0.256026
  13 H :    0.179101
  14 H :    0.133939
  15 H :    0.139093
  16 H :    0.334523
Sum of atomic charges:   -0.0000000

LOEWDIN ATOMIC CHARGES
----------------------
   0 C :   -0.273225
   1 C :   -0.465570
   2 O :    0.085840
   3 N :    0.137220
   4 C :   -0.279609
   5 C :   -0.307541
   6 O :   -0.033216
   7 C :   -0.173844
   8 N :    0.067721
   9 H :    0.142464
  10 H :    0.126724
  11 H :    0.139736
  12 H :    0.193851
  13 H :    0.186248
  14 H :    0.130313
  15 H :    0.138874
  16 H :    0.184015

  Mayer bond orders larger than 0.1
B(  0-C ,  1-C ) :   0.9019 B(  0-C ,  9-H ) :   0.9102 B(  0-C , 10-H ) :   0.9323
B(  0-C , 11-H ) :   0.9367 B(  1-C ,  2-O ) :   1.8795 B(  1-C ,  3-N ) :   1.1356
B(  3-N ,  4-C ) :   0.7995 B(  3-N , 12-H ) :   0.8571 B(  4-C ,  5-C ) :   0.8961
B(  4-C ,  6-O ) :   0.1097 B(  4-C ,  7-C ) :   0.9215 B(  4-C , 13-H ) :   0.8804
B(  5-C ,  6-O ) :   0.9091 B(  5-C , 14-H ) :   0.9288 B(  5-C , 15-H ) :   0.9304
B(  6-O , 16-H ) :   0.8349 B(  7-C ,  8-N ) :   2.8574

MP2 TOTAL ENERGY:     -454.454555182 Eh
FINAL SINGLE POINT ENERGY      -454.454555181815

DIPOLE MOMENT
-------------
                                X             Y             Z
Electronic contribution:      3.08654      -4.40929       0.85855
Nuclear contribution   :     -3.80597       4.97260      -1.72585
                        -----------------------------------------
Total Dipole Moment    :     -0.71943       0.56332      -0.86730
                        -----------------------------------------
Magnitude (a.u.)       :      1.25981
Magnitude (Debye)      :      3.20218

                             ****ORCA TERMINATED NORMALLY****
TOTAL RUN TIME: 0 days 0 hours 14 minutes 17 seconds 759 msec
