                         Program Version 3.0.3 - RELEASE   -
|  1> ! RI-MP2 RIJK def2-TZVP def2-TZVP/C def2-TZVP/JK TIGHTSCF
|  2> % maxcore 2000
|  3> % mp2 density relaxed end
|  4> *xyz 0 1
|  5>  C        0.0113475674     1.5090841489     0.0466136687
|  6>  C        0.0333274482    -0.0058311848    -0.0794784840
|  7>  C       -1.1332198023    -0.6395695497     0.4897297301
|  8>  C       -2.1315760925    -1.1267453888     0.9471096336
|  9>  C        0.6933087462    -0.7498365886    -1.1824186419
| 10>  C        1.9229363369    -0.0476176573    -1.7503862463
| 11>  C        2.4122100438    -0.0210081676    -0.2920439839
| 12>  O        3.3756689142     0.3752474235     0.2821532104
| 13>  N        1.2947959433    -0.8028624854     0.2244145991
| 14>  H        0.8712291017     1.9872179614    -0.4249518983
| 15>  H       -0.8997154496     1.8983612710    -0.4160275461
| 16>  H        0.0024918756     1.7895718534     1.1032159437
| 17>  H       -3.0048584046    -1.5694503534     1.3590018578
| 18>  H        0.2411763502    -1.6402756950    -1.6017061557
| 19>  H        2.5431118288    -0.7114511957    -2.3586199767
| 20>  H        1.8010463927     0.9049923584    -2.2699907905
| 21> *
| 22>
| 23>                          ****END OF INPUT****

CARTESIAN COORDINATES (ANGSTROEM)
---------------------------------
  C      0.011348    1.509084    0.046614
  C      0.033327   -0.005831   -0.079478
  C     -1.133220   -0.639570    0.489730
  C     -2.131576   -1.126745    0.947110
  C      0.693309   -0.749837   -1.182419
  C      1.922936   -0.047618   -1.750386
  C      2.412210   -0.021008   -0.292044
  O      3.375669    0.375247    0.282153
  N      1.294796   -0.802862    0.224415
  H      0.871229    1.987218   -0.424952
  H     -0.899715    1.898361   -0.416028
  H      0.002492    1.789572    1.103216
  H     -3.004858   -1.569450    1.359002
  H      0.241176   -1.640276   -1.601706
  H      2.543112   -0.711451   -2.358620
  H      1.801046    0.904992   -2.269991

 Total Charge           Charge          ....    0
 Multiplicity           Mult            ....    1
 Number of Electrons    NEL             ....   64
 Basis Dimension        Dim             ....  321

ORBITAL ENERGIES
----------------

  NO   OCC          E(Eh)            E(eV)
   0   2.0000     -20.561752      -559.5137
   1   2.0000     -15.592478      -424.2929
   2   2.0000     -11.368417      -309.3503
   3   2.0000     -11.328739      -308.2707
   4   2.0000     -11.298521      -307.4484
   5   2.0000     -11.268206      -306.6235
   6   2.0000     -11.248973      -306.1001
   7   2.0000     -11.248505      -306.0874
   8   2.0000     -11.241680      -305.9017
   9   2.0000      -1.419147       -38.6169
  10   2.0000      -1.319885       -35.9159
  11   2.0000      -1.087135       -29.5824
  12   2.0000      -1.017310       -27.6824
  13   2.0000      -1.007902       -27.4264
  14   2.0000      -0.937477       -25.5100
  15   2.0000      -0.828023       -22.5317
  16   2.0000      -0.746350       -20.3092
  17   2.0000      -0.730219       -19.8703
  18   2.0000      -0.707416       -19.2498
  19   2.0000      -0.676930       -18.4202
  20   2.0000      -0.665361       -18.1054
  21   2.0000      -0.612381       -16.6637
  22   2.0000      -0.603749       -16.4289
  23   2.0000      -0.574075       -15.6214
  24   2.0000      -0.562488       -15.3061
  25   2.0000      -0.540395       -14.7049
  26   2.0000      -0.530350       -14.4316
  27   2.0000      -0.467809       -12.7297
  28   2.0000      -0.452937       -12.3251
  29   2.0000      -0.417786       -11.3685
  30   2.0000      -0.399239       -10.8639
  31   2.0000      -0.387277       -10.5383
  32   0.0000       0.125148         3.4055
  33   0.0000       0.131387         3.5752
  34   0.0000       0.151454         4.1213
  35   0.0000       0.152951         4.1620
  36   0.0000       0.166990         4.5440

MULLIKEN ATOMIC CHARGES
-----------------------
   0 C :   -0.379726
   1 C :   -0.082850
   2 C :    0.035626
   3 C :   -0.068779
   4 C :   -0.086400
   5 C :   -0.250111
   6 C :    0.155620
   7 O :   -0.226229
   8 N :   -0.204348
   9 H :    0.143293
  10 H :    0.150773
  11 H :    0.157430
  12 H :    0.198802
  13 H :    0.156676
  14 H :    0.153088
  15 H :    0.147137
Sum of atomic charges:   -0.0000000

LOEWDIN ATOMIC CHARGES
----------------------
   0 C :   -0.236689
   1 C :   -0.257110
   2 C :   -0.057468
   3 C :   -0.067062
   4 C :   -0.151946
   5 C :   -0.199098
   6 C :   -0.388069
   7 O :    0.179399
   8 N :    0.188891
   9 H :    0.134274
  10 H :    0.139600
  11 H :    0.141702
  12 H :    0.130214
  13 H :    0.145148
  14 H :    0.156444
  15 H :    0.141770

  Mayer bond orders larger than 0.1
B(  0-C ,  1-C ) :   0.9548 B(  0-C ,  9-H ) :   0.9185 B(  0-C , 10-H ) :   0.9262
B(  0-C , 11-H ) :   0.9312 B(  1-C ,  2-C ) :   1.1462 B(  1-C ,  3-C ) :  -0.1664
B(  1-C ,  4-C ) :   0.9371 B(  1-C ,  8-N ) :   0.8059 B(  2-C ,  3-C ) :   2.5840
B(  3-C , 12-H ) :   0.8785 B(  4-C ,  5-C ) :   0.9076 B(  4-C ,  8-N ) :   0.8740
B(  4-C , 13-H ) :   0.9031 B(  5-C ,  6-C ) :   0.9293 B(  5-C , 14-H ) :   0.8988
B(  5-C , 15-H ) :   0.8981 B(  6-C ,  7-O ) :   2.0775 B(  6-C ,  8-N ) :   0.9611

MP2 TOTAL ENERGY:     -399.991274732 Eh
FINAL SINGLE POINT ENERGY      -399.991274731693

DIPOLE MOMENT
-------------
                                X             Y             Z
Electronic contribution:      2.64897      -3.12247       2.22647
Nuclear contribution   :     -3.67406       3.34143      -3.29317
                        -----------------------------------------
Total Dipole Moment    :     -1.02509       0.21896      -1.06671
                        -----------------------------------------
Magnitude (a.u.)       :      1.49553
Magnitude (Debye)      :      3.80135

                             ****ORCA TERMINATED NORMALLY****
TOTAL RUN TIME: 0 days 0 hours 17 minutes 47 seconds 936 msec
