                         Program Version 3.0.3 - RELEASE   -
|  1> ! RI-MP2 RIJK def2-TZVP def2-TZVP/C def2-TZVP/JK TIGHTSCF
|  2> % maxcore 2000
|  3> % mp2 density relaxed end
|  4> *xyz 0 1
|  5>  C       -0.0185046451     1.3261385150     0.2913710593
|  6>  O       -0.0960202727     0.0876494189    -0.3854961651
|  7>  C       -1.2822989882    -0.6014323999    -0.1293073490
|  8>  C       -1.2566249261    -2.0556754592    -0.7374079352
|  9>  N       -1.4032620548    -2.5115118091     0.6515080824
| 10>  N       -1.6574217165    -3.5500903120     1.4490102398
| 11>  C       -1.8392279867    -2.9358805289     2.6338238428
| 12>  C       -1.7365076925    -1.5199106434     2.5689487103
| 13>  C       -1.4483431688    -1.3019360456     1.2323222762
| 14>  H        0.9308105661     1.7865260785     0.0107690984
| 15>  H       -0.8421255005     1.9969554784     0.0026332372
| 16>  H       -0.0431968386     1.1896707156     1.3820170715
| 17>  H       -2.1574203513    -0.0074427946    -0.4308550557
| 18>  H       -2.0972395860    -2.3160981927    -1.3848132120
| 19>  H       -0.3053563220    -2.3229594382    -1.2018737903
| 20>  H       -2.0368864657    -3.5371690458     3.5097704388
| 21>  H       -1.8538591707    -0.8159433870     3.3754633406
| 22> *
| 23>
| 24>                          ****END OF INPUT****

CARTESIAN COORDINATES (ANGSTROEM)
---------------------------------
  C     -0.018505    1.326139    0.291371
  O     -0.096020    0.087649   -0.385496
  C     -1.282299   -0.601432   -0.129307
  C     -1.256625   -2.055675   -0.737408
  N     -1.403262   -2.511512    0.651508
  N     -1.657422   -3.550090    1.449010
  C     -1.839228   -2.935881    2.633824
  C     -1.736508   -1.519911    2.568949
  C     -1.448343   -1.301936    1.232322
  H      0.930811    1.786526    0.010769
  H     -0.842126    1.996955    0.002633
  H     -0.043197    1.189671    1.382017
  H     -2.157420   -0.007443   -0.430855
  H     -2.097240   -2.316098   -1.384813
  H     -0.305356   -2.322959   -1.201874
  H     -2.036886   -3.537169    3.509770
  H     -1.853859   -0.815943    3.375463

 Total Charge           Charge          ....    0
 Multiplicity           Mult            ....    1
 Number of Electrons    NEL             ....   66
 Basis Dimension        Dim             ....  327

ORBITAL ENERGIES
----------------

  NO   OCC          E(Eh)            E(eV)
   0   2.0000     -20.578746      -559.9761
   1   2.0000     -15.630524      -425.3282
   2   2.0000     -15.583516      -424.0490
   3   2.0000     -11.325459      -308.1814
   4   2.0000     -11.294466      -307.3380
   5   2.0000     -11.285521      -307.0946
   6   2.0000     -11.269190      -306.6502
   7   2.0000     -11.252675      -306.2009
   8   2.0000     -11.224137      -305.4243
   9   2.0000      -1.409868       -38.3645
  10   2.0000      -1.383024       -37.6340
  11   2.0000      -1.174515       -31.9602
  12   2.0000      -1.046904       -28.4877
  13   2.0000      -0.982694       -26.7405
  14   2.0000      -0.924964       -25.1696
  15   2.0000      -0.881578       -23.9889
  16   2.0000      -0.805568       -21.9206
  17   2.0000      -0.736792       -20.0491
  18   2.0000      -0.711036       -19.3483
  19   2.0000      -0.700548       -19.0629
  20   2.0000      -0.652896       -17.7662
  21   2.0000      -0.640663       -17.4333
  22   2.0000      -0.619454       -16.8562
  23   2.0000      -0.590530       -16.0691
  24   2.0000      -0.564360       -15.3570
  25   2.0000      -0.558345       -15.1933
  26   2.0000      -0.546390       -14.8680
  27   2.0000      -0.522966       -14.2306
  28   2.0000      -0.489566       -13.3218
  29   2.0000      -0.453581       -12.3426
  30   2.0000      -0.439737       -11.9658
  31   2.0000      -0.347821        -9.4647
  32   2.0000      -0.342761        -9.3270
  33   0.0000       0.134915         3.6712
  34   0.0000       0.151076         4.1110
  35   0.0000       0.158382         4.3098
  36   0.0000       0.174992         4.7618
  37   0.0000       0.185001         5.0341

MULLIKEN ATOMIC CHARGES
-----------------------
   0 C :   -0.221385
   1 O :   -0.297661
   2 C :    0.105730
   3 C :   -0.129492
   4 N :    0.139469
   5 N :   -0.291245
   6 C :   -0.063945
   7 C :   -0.271065
   8 C :   -0.018973
   9 H :    0.146967
  10 H :    0.114893
  11 H :    0.126543
  12 H :    0.107588
  13 H :    0.135593
  14 H :    0.142047
  15 H :    0.135289
  16 H :    0.139648
Sum of atomic charges:    0.0000000

LOEWDIN ATOMIC CHARGES
----------------------
   0 C :   -0.342861
   1 O :    0.165046
   2 C :   -0.274689
   3 C :   -0.157300
   4 N :    0.223755
   5 N :    0.028716
   6 C :   -0.262862
   7 C :   -0.192595
   8 C :   -0.192792
   9 H :    0.116431
  10 H :    0.103886
  11 H :    0.107547
  12 H :    0.136298
  13 H :    0.132384
  14 H :    0.137190
  15 H :    0.132860
  16 H :    0.138984

  Mayer bond orders larger than 0.1
B(  0-C ,  1-O ) :   0.9004 B(  0-C ,  9-H ) :   0.9397 B(  0-C , 10-H ) :   0.9301
B(  0-C , 11-H ) :   0.9340 B(  1-O ,  2-C ) :   0.9932 B(  2-C ,  3-C ) :   0.9003
B(  2-C ,  8-C ) :   0.9047 B(  2-C , 12-H ) :   0.9575 B(  3-C ,  4-N ) :   0.8668
B(  3-C , 13-H ) :   0.9161 B(  3-C , 14-H ) :   0.9117 B(  4-N ,  5-N ) :   1.0512
B(  4-N ,  8-C ) :   1.1946 B(  5-N ,  6-C ) :   1.4571 B(  6-C ,  7-C ) :   1.3408
B(  6-C , 15-H ) :   0.9326 B(  7-C ,  8-C ) :   1.3848 B(  7-C , 16-H ) :   0.9238

MP2 TOTAL ENERGY:     -417.264261878 Eh
FINAL SINGLE POINT ENERGY      -417.264261877769

DIPOLE MOMENT
-------------
                                X             Y             Z
Electronic contribution:     -0.99419      -5.49062       0.74733
Nuclear contribution   :      0.82838       6.66756      -1.05873
                        -----------------------------------------
Total Dipole Moment    :     -0.16580       1.17694      -0.31140
                        -----------------------------------------
Magnitude (a.u.)       :      1.22867
Magnitude (Debye)      :      3.12304

                             ****ORCA TERMINATED NORMALLY****
TOTAL RUN TIME: 0 days 0 hours 17 minutes 55 seconds 60 msec
