                         Program Version 3.0.3 - RELEASE   -
|  1> ! RI-MP2 RIJK def2-TZVP def2-TZVP/C def2-TZVP/JK TIGHTSCF
|  2> % maxcore 2000
|  3> % mp2 density relaxed end
|  4> *xyz 0 1
|  5>  O       -0.8110226524     0.8364559803     0.5315065279
|  6>  C        0.2511650323     0.8187372738    -0.0299715775
|  7>  C        1.2805288642     1.9457573657     0.0821710685
|  8>  C        1.3534575836     2.5535048925     1.4957175315
|  9>  N        2.4873166930     1.8109395211     2.0110024958
| 10>  C        3.2808796795     1.3092651998     1.0057929106
| 11>  O        4.3769749369     0.8359534394     1.0795878639
| 12>  O        2.5829773831     1.4208212769    -0.1799624414
| 13>  H        0.5701416037    -0.0142569237    -0.6914315528
| 14>  H        1.0462617053     2.6918457678    -0.6853328108
| 15>  H        1.5330355629     3.6355289803     1.4680093604
| 16>  H        0.4283629033     2.3558049020     2.0428307150
| 17>  H        2.9276919446     2.0311004040     2.8888246388
| 18> *
| 19>
| 20>                          ****END OF INPUT****

CARTESIAN COORDINATES (ANGSTROEM)
---------------------------------
  O     -0.811023    0.836456    0.531507
  C      0.251165    0.818737   -0.029972
  C      1.280529    1.945757    0.082171
  C      1.353458    2.553505    1.495718
  N      2.487317    1.810940    2.011002
  C      3.280880    1.309265    1.005793
  O      4.376975    0.835953    1.079588
  O      2.582977    1.420821   -0.179962
  H      0.570142   -0.014257   -0.691432
  H      1.046262    2.691846   -0.685333
  H      1.533036    3.635529    1.468009
  H      0.428363    2.355805    2.042831
  H      2.927692    2.031100    2.888825

 Total Charge           Charge          ....    0
 Multiplicity           Mult            ....    1
 Number of Electrons    NEL             ....   60
 Basis Dimension        Dim             ....  278

ORBITAL ENERGIES
----------------

  NO   OCC          E(Eh)            E(eV)
   0   2.0000     -20.622641      -561.1706
   1   2.0000     -20.586656      -560.1914
   2   2.0000     -20.540535      -558.9364
   3   2.0000     -15.609513      -424.7565
   4   2.0000     -11.415689      -310.6367
   5   2.0000     -11.357095      -309.0423
   6   2.0000     -11.335686      -308.4597
   7   2.0000     -11.304089      -307.5999
   8   2.0000      -1.486756       -40.4567
   9   2.0000      -1.426022       -38.8040
  10   2.0000      -1.381963       -37.6051
  11   2.0000      -1.259024       -34.2598
  12   2.0000      -1.065432       -28.9919
  13   2.0000      -0.937504       -25.5108
  14   2.0000      -0.850831       -23.1523
  15   2.0000      -0.827044       -22.5050
  16   2.0000      -0.747001       -20.3269
  17   2.0000      -0.732070       -19.9206
  18   2.0000      -0.691656       -18.8209
  19   2.0000      -0.669917       -18.2294
  20   2.0000      -0.635928       -17.3045
  21   2.0000      -0.625052       -17.0085
  22   2.0000      -0.623310       -16.9611
  23   2.0000      -0.612120       -16.6566
  24   2.0000      -0.559293       -15.2191
  25   2.0000      -0.532942       -14.5021
  26   2.0000      -0.505931       -13.7671
  27   2.0000      -0.469440       -12.7741
  28   2.0000      -0.440424       -11.9845
  29   2.0000      -0.427353       -11.6289
  30   0.0000       0.098143         2.6706
  31   0.0000       0.128198         3.4884
  32   0.0000       0.142948         3.8898
  33   0.0000       0.170797         4.6476
  34   0.0000       0.180834         4.9207

MULLIKEN ATOMIC CHARGES
-----------------------
   0 O :   -0.256291
   1 C :    0.054345
   2 C :    0.140834
   3 C :   -0.141204
   4 N :   -0.370938
   5 C :    0.343582
   6 O :   -0.310350
   7 O :   -0.262099
   8 H :    0.115336
   9 H :    0.140811
  10 H :    0.129980
  11 H :    0.159853
  12 H :    0.256141
Sum of atomic charges:    0.0000000

LOEWDIN ATOMIC CHARGES
----------------------
   0 O :    0.151261
   1 C :   -0.263050
   2 C :   -0.281027
   3 C :   -0.247543
   4 N :    0.092837
   5 C :   -0.564325
   6 O :    0.112351
   7 O :    0.254198
   8 H :    0.122170
   9 H :    0.158453
  10 H :    0.130230
  11 H :    0.142436
  12 H :    0.192011

  Mayer bond orders larger than 0.1
B(  0-O ,  1-C ) :   1.9773 B(  1-C ,  2-C ) :   0.8507 B(  1-C ,  8-H ) :   0.9260
B(  2-C ,  3-C ) :   0.9195 B(  2-C ,  7-O ) :   0.8883 B(  2-C ,  9-H ) :   0.9022
B(  3-C ,  4-N ) :   0.8963 B(  3-C , 10-H ) :   0.9313 B(  3-C , 11-H ) :   0.9175
B(  4-N ,  5-C ) :   1.1236 B(  4-N , 12-H ) :   0.8699 B(  5-C ,  6-O ) :   2.0398
B(  5-C ,  7-O ) :   1.0354

MP2 TOTAL ENERGY:     -435.109203029 Eh
FINAL SINGLE POINT ENERGY      -435.109203029221

DIPOLE MOMENT
-------------
                                X             Y             Z
Electronic contribution:      1.86965      -2.15327      -0.89622
Nuclear contribution   :     -2.60042       3.28758       1.16908
                        -----------------------------------------
Total Dipole Moment    :     -0.73077       1.13432       0.27286
                        -----------------------------------------
Magnitude (a.u.)       :      1.37665
Magnitude (Debye)      :      3.49916

                             ****ORCA TERMINATED NORMALLY****
TOTAL RUN TIME: 0 days 0 hours 9 minutes 55 seconds 16 msec
