                         Program Version 3.0.3 - RELEASE   -
|  1> ! RI-MP2 RIJK def2-TZVP def2-TZVP/C def2-TZVP/JK TIGHTSCF
|  2> % maxcore 2000
|  3> % mp2 density relaxed end
|  4> *xyz 0 1
|  5>  O        0.1529826068     1.4060192945     0.2693258171
|  6>  C        0.0757675217     0.0397116654    -0.0012113943
|  7>  C       -1.3839709424    -0.4228105042     0.0541104293
|  8>  O       -2.2658607940     0.3825814071     0.3093163063
|  9>  N       -1.6067103166    -1.7409688332    -0.1922138983
| 10>  C       -2.9133709821    -2.3426678048    -0.1818399692
| 11>  C       -3.3341185713    -3.2236231334    -1.3819659314
| 12>  O       -3.7091765256    -4.2991191798    -0.5002788083
| 13>  C       -3.1281091994    -3.6363363112     0.6389949511
| 14>  H       -0.7687969238     1.6769374837     0.4196856309
| 15>  H        0.4840571689    -0.1929809706    -0.9984472015
| 16>  H        0.6607963367    -0.5449156195     0.7277025404
| 17>  H       -0.8118213323    -2.3287988350    -0.3950752530
| 18>  H       -3.6230768514    -1.5510627491     0.0522139786
| 19>  H       -4.1726776607    -2.8710722099    -1.9916625427
| 20>  H       -2.4994779372    -3.4995389037    -2.0435065720
| 21>  H       -2.1927160400    -4.1141759309     0.9662158336
| 22>  H       -3.8180767674    -3.5816178153     1.4876136835
| 23> *
| 24>
| 25>                          ****END OF INPUT****

CARTESIAN COORDINATES (ANGSTROEM)
---------------------------------
  O      0.152983    1.406019    0.269326
  C      0.075768    0.039712   -0.001211
  C     -1.383971   -0.422811    0.054110
  O     -2.265861    0.382581    0.309316
  N     -1.606710   -1.740969   -0.192214
  C     -2.913371   -2.342668   -0.181840
  C     -3.334119   -3.223623   -1.381966
  O     -3.709177   -4.299119   -0.500279
  C     -3.128109   -3.636336    0.638995
  H     -0.768797    1.676937    0.419686
  H      0.484057   -0.192981   -0.998447
  H      0.660796   -0.544916    0.727703
  H     -0.811821   -2.328799   -0.395075
  H     -3.623077   -1.551063    0.052214
  H     -4.172678   -2.871072   -1.991663
  H     -2.499478   -3.499539   -2.043507
  H     -2.192716   -4.114176    0.966216
  H     -3.818077   -3.581618    1.487614

 Total Charge           Charge          ....    0
 Multiplicity           Mult            ....    1
 Number of Electrons    NEL             ....   70
 Basis Dimension        Dim             ....  333

ORBITAL ENERGIES
----------------

  NO   OCC          E(Eh)            E(eV)
   0   2.0000     -20.564060      -559.5765
   1   2.0000     -20.557428      -559.3960
   2   2.0000     -20.543791      -559.0250
   3   2.0000     -15.610432      -424.7814
   4   2.0000     -11.371260      -309.4277
   5   2.0000     -11.302694      -307.5619
   6   2.0000     -11.294616      -307.3421
   7   2.0000     -11.294582      -307.3412
   8   2.0000     -11.289529      -307.2037
   9   2.0000      -1.417260       -38.5656
  10   2.0000      -1.396043       -37.9883
  11   2.0000      -1.362543       -37.0767
  12   2.0000      -1.258714       -34.2514
  13   2.0000      -1.036272       -28.1984
  14   2.0000      -0.961618       -26.1670
  15   2.0000      -0.952455       -25.9176
  16   2.0000      -0.819571       -22.3017
  17   2.0000      -0.814397       -22.1609
  18   2.0000      -0.746435       -20.3115
  19   2.0000      -0.707654       -19.2562
  20   2.0000      -0.693499       -18.8711
  21   2.0000      -0.669409       -18.2155
  22   2.0000      -0.662253       -18.0208
  23   2.0000      -0.628729       -17.1086
  24   2.0000      -0.610190       -16.6041
  25   2.0000      -0.585057       -15.9202
  26   2.0000      -0.578584       -15.7441
  27   2.0000      -0.573384       -15.6026
  28   2.0000      -0.538906       -14.6644
  29   2.0000      -0.508031       -13.8242
  30   2.0000      -0.492073       -13.3900
  31   2.0000      -0.459726       -12.5098
  32   2.0000      -0.452875       -12.3234
  33   2.0000      -0.430640       -11.7183
  34   2.0000      -0.407904       -11.0996
  35   0.0000       0.111639         3.0379
  36   0.0000       0.150168         4.0863
  37   0.0000       0.152706         4.1553
  38   0.0000       0.158152         4.3035
  39   0.0000       0.177989         4.8433

MULLIKEN ATOMIC CHARGES
-----------------------
   0 O :   -0.484800
   1 C :   -0.053141
   2 C :    0.302269
   3 O :   -0.405089
   4 N :   -0.350287
   5 C :   -0.040680
   6 C :   -0.014475
   7 O :   -0.318370
   8 C :   -0.014396
   9 H :    0.341080
  10 H :    0.115569
  11 H :    0.115605
  12 H :    0.239516
  13 H :    0.159642
  14 H :    0.116388
  15 H :    0.087375
  16 H :    0.087425
  17 H :    0.116368
Sum of atomic charges:    0.0000000

LOEWDIN ATOMIC CHARGES
----------------------
   0 O :   -0.035313
   1 C :   -0.335711
   2 C :   -0.451846
   3 O :    0.072693
   4 N :    0.130772
   5 C :   -0.259005
   6 C :   -0.254502
   7 O :    0.114827
   8 C :   -0.254443
   9 H :    0.185007
  10 H :    0.129511
  11 H :    0.129526
  12 H :    0.192932
  13 H :    0.160262
  14 H :    0.121152
  15 H :    0.116489
  16 H :    0.116502
  17 H :    0.121148

  Mayer bond orders larger than 0.1
B(  0-O ,  1-C ) :   1.0325 B(  0-O ,  9-H ) :   0.7978 B(  1-C ,  2-C ) :   0.9337
B(  1-C , 10-H ) :   0.9126 B(  1-C , 11-H ) :   0.9125 B(  2-C ,  3-O ) :   1.7985
B(  2-C ,  4-N ) :   1.1815 B(  4-N ,  5-C ) :   0.8475 B(  4-N , 12-H ) :   0.8685
B(  5-C ,  6-C ) :   0.9696 B(  5-C ,  8-C ) :   0.9695 B(  5-C , 13-H ) :   0.9119
B(  6-C ,  7-O ) :   0.9617 B(  6-C , 14-H ) :   0.9244 B(  6-C , 15-H ) :   0.8924
B(  7-O ,  8-C ) :   0.9616 B(  8-C , 16-H ) :   0.8924 B(  8-C , 17-H ) :   0.9244

MP2 TOTAL ENERGY:     -475.471184417 Eh
FINAL SINGLE POINT ENERGY      -475.471184416813

DIPOLE MOMENT
-------------
                                X             Y             Z
Electronic contribution:     -0.76225       2.26488       0.54164
Nuclear contribution   :      1.09384      -3.25372      -0.77801
                        -----------------------------------------
Total Dipole Moment    :      0.33159      -0.98884      -0.23637
                        -----------------------------------------
Magnitude (a.u.)       :      1.06940
Magnitude (Debye)      :      2.71820

                             ****ORCA TERMINATED NORMALLY****
TOTAL RUN TIME: 0 days 0 hours 13 minutes 35 seconds 200 msec
