                         Program Version 3.0.3 - RELEASE   -
|  1> ! RI-MP2 RIJK def2-TZVP def2-TZVP/C def2-TZVP/JK TIGHTSCF
|  2> % maxcore 2000
|  3> % mp2 density relaxed end
|  4> *xyz 0 1
|  5>  C        0.0885435210     1.5584383750    -0.0778021167
|  6>  C       -0.0251904768     0.0594786883     0.0655440666
|  7>  C       -1.3064447875    -0.5676840002    -0.4583920248
|  8>  C       -1.2828420865    -2.1034258860    -0.3794118641
|  9>  C       -0.9684182691    -2.5912555890     1.0228450830
| 10>  O       -1.6277596223    -3.4323752053     1.5867569362
| 11>  C        0.2515739751    -1.9649382429     1.7017697013
| 12>  C        0.7259381776    -0.6532430788     1.1134516311
| 13>  O        1.1712085659    -0.6774342986    -0.2508988588
| 14>  H        1.0425120372     1.9145301760     0.3184337070
| 15>  H        0.0263388398     1.8482890442    -1.1324046801
| 16>  H       -0.7233403140     2.0633276061     0.4565944568
| 17>  H       -2.1520239887    -0.1702424893     0.1177763662
| 18>  H       -1.4657615475    -0.2546161620    -1.4972138012
| 19>  H       -2.2329230499    -2.5396898276    -0.6942039577
| 20>  H       -0.4915278168    -2.4718151578    -1.0428000992
| 21>  H        0.0162338223    -1.8458374130     2.7643536969
| 22>  H        1.0688468594    -2.6978780079     1.6516510073
| 23>  H        1.3702844807    -0.0658372412     1.7691157602
| 24> *
| 25>
| 26>                          ****END OF INPUT****

CARTESIAN COORDINATES (ANGSTROEM)
---------------------------------
  C      0.088544    1.558438   -0.077802
  C     -0.025190    0.059479    0.065544
  C     -1.306445   -0.567684   -0.458392
  C     -1.282842   -2.103426   -0.379412
  C     -0.968418   -2.591256    1.022845
  O     -1.627760   -3.432375    1.586757
  C      0.251574   -1.964938    1.701770
  C      0.725938   -0.653243    1.113452
  O      1.171209   -0.677434   -0.250899
  H      1.042512    1.914530    0.318434
  H      0.026339    1.848289   -1.132405
  H     -0.723340    2.063328    0.456594
  H     -2.152024   -0.170242    0.117776
  H     -1.465762   -0.254616   -1.497214
  H     -2.232923   -2.539690   -0.694204
  H     -0.491528   -2.471815   -1.042800
  H      0.016234   -1.845837    2.764354
  H      1.068847   -2.697878    1.651651
  H      1.370284   -0.065837    1.769116

 Total Charge           Charge          ....    0
 Multiplicity           Mult            ....    1
 Number of Electrons    NEL             ....   68
 Basis Dimension        Dim             ....  339

ORBITAL ENERGIES
----------------

  NO   OCC          E(Eh)            E(eV)
   0   2.0000     -20.571136      -559.7691
   1   2.0000     -20.544852      -559.0538
   2   2.0000     -11.332033      -308.3603
   3   2.0000     -11.302737      -307.5631
   4   2.0000     -11.297065      -307.4088
   5   2.0000     -11.247467      -306.0591
   6   2.0000     -11.246608      -306.0358
   7   2.0000     -11.238549      -305.8165
   8   2.0000     -11.233961      -305.6916
   9   2.0000      -1.419334       -38.6220
  10   2.0000      -1.389195       -37.8019
  11   2.0000      -1.094910       -29.7940
  12   2.0000      -1.044024       -28.4093
  13   2.0000      -1.011257       -27.5177
  14   2.0000      -0.914966       -24.8975
  15   2.0000      -0.866631       -23.5822
  16   2.0000      -0.800509       -21.7829
  17   2.0000      -0.718316       -19.5464
  18   2.0000      -0.695071       -18.9138
  19   2.0000      -0.659570       -17.9478
  20   2.0000      -0.639620       -17.4049
  21   2.0000      -0.625754       -17.0276
  22   2.0000      -0.622586       -16.9414
  23   2.0000      -0.601154       -16.3582
  24   2.0000      -0.575166       -15.6511
  25   2.0000      -0.555893       -15.1266
  26   2.0000      -0.550174       -14.9710
  27   2.0000      -0.533983       -14.5304
  28   2.0000      -0.521495       -14.1906
  29   2.0000      -0.495480       -13.4827
  30   2.0000      -0.481156       -13.0929
  31   2.0000      -0.451514       -12.2863
  32   2.0000      -0.435606       -11.8534
  33   2.0000      -0.398484       -10.8433
  34   0.0000       0.120404         3.2764
  35   0.0000       0.143866         3.9148
  36   0.0000       0.151182         4.1139
  37   0.0000       0.161932         4.4064
  38   0.0000       0.175197         4.7674

MULLIKEN ATOMIC CHARGES
-----------------------
   0 C :   -0.421842
   1 C :    0.170562
   2 C :   -0.236537
   3 C :   -0.172370
   4 C :    0.122629
   5 O :   -0.272362
   6 C :   -0.204574
   7 C :   -0.003218
   8 O :   -0.346965
   9 H :    0.143816
  10 H :    0.139665
  11 H :    0.134735
  12 H :    0.130688
  13 H :    0.129652
  14 H :    0.139781
  15 H :    0.140662
  16 H :    0.140895
  17 H :    0.143609
  18 H :    0.121172
Sum of atomic charges:    0.0000000

LOEWDIN ATOMIC CHARGES
----------------------
   0 C :   -0.264369
   1 C :   -0.325542
   2 C :   -0.213198
   3 C :   -0.220858
   4 C :   -0.315228
   5 O :    0.150218
   6 C :   -0.212595
   7 C :   -0.242976
   8 O :    0.177764
   9 H :    0.133099
  10 H :    0.131521
  11 H :    0.132065
  12 H :    0.150089
  13 H :    0.147890
  14 H :    0.147521
  15 H :    0.160586
  16 H :    0.158829
  17 H :    0.164635
  18 H :    0.140551

  Mayer bond orders larger than 0.1
B(  0-C ,  1-C ) :   0.8873 B(  0-C ,  9-H ) :   0.9388 B(  0-C , 10-H ) :   0.9392
B(  0-C , 11-H ) :   0.9316 B(  1-C ,  2-C ) :   0.9365 B(  1-C ,  7-C ) :   0.9566
B(  1-C ,  8-O ) :   0.8930 B(  2-C ,  3-C ) :   0.9016 B(  2-C , 12-H ) :   0.9159
B(  2-C , 13-H ) :   0.9195 B(  3-C ,  4-C ) :   0.9324 B(  3-C ,  6-C ) :  -0.1014
B(  3-C , 14-H ) :   0.9205 B(  3-C , 15-H ) :   0.9023 B(  4-C ,  5-O ) :   2.0439
B(  4-C ,  6-C ) :   0.9189 B(  6-C ,  7-C ) :   0.8822 B(  6-C , 16-H ) :   0.9078
B(  6-C , 17-H ) :   0.8927 B(  7-C ,  8-O ) :   0.8543 B(  7-C , 18-H ) :   0.9145

MP2 TOTAL ENERGY:     -422.344887892 Eh
FINAL SINGLE POINT ENERGY      -422.344887891779

DIPOLE MOMENT
-------------
                                X             Y             Z
Electronic contribution:      0.34338      -5.76372       1.82622
Nuclear contribution   :     -0.26277       6.81446      -1.91222
                        -----------------------------------------
Total Dipole Moment    :      0.08061       1.05073      -0.08600
                        -----------------------------------------
Magnitude (a.u.)       :      1.05733
Magnitude (Debye)      :      2.68751

                             ****ORCA TERMINATED NORMALLY****
TOTAL RUN TIME: 0 days 0 hours 18 minutes 8 seconds 701 msec
