                         Program Version 3.0.3 - RELEASE   -
|  1> ! RI-MP2 RIJK def2-TZVP def2-TZVP/C def2-TZVP/JK TIGHTSCF
|  2> % maxcore 2000
|  3> % mp2 density relaxed end
|  4> *xyz 0 1
|  5>  O       -0.1077124058     1.3397855890    -0.0517096975
|  6>  C        0.0523198869    -0.0237522715    -0.0446463123
|  7>  C        0.9863404304    -0.8636961254    -0.9149678077
|  8>  C        0.1043411195    -2.0565769480    -0.4411524717
|  9>  N        0.4661088906    -2.1511227592     1.0286776408
| 10>  C       -0.3148254512    -0.9001055441     1.1669327910
| 11>  C       -1.0732823052    -1.0290484369    -0.1282237765
| 12>  C       -0.0014452321    -3.2758265905    -1.1952229999
| 13>  N       -0.1052875543    -4.2575368489    -1.7973847488
| 14>  H        0.5590187895     1.7335181690     0.5226138958
| 15>  H        0.8358268624    -0.6476393621    -1.9743810476
| 16>  H        2.0478274124    -0.9378341147    -0.6657531549
| 17>  H       -0.0977030935    -2.9052994405     1.4235420197
| 18>  H       -0.6140694675    -0.4783616896     2.1171948954
| 19>  H       -2.1091043020    -0.9606098966    -0.4303113658
| 20> *
| 21>
| 22>                          ****END OF INPUT****

CARTESIAN COORDINATES (ANGSTROEM)
---------------------------------
  O     -0.107712    1.339786   -0.051710
  C      0.052320   -0.023752   -0.044646
  C      0.986340   -0.863696   -0.914968
  C      0.104341   -2.056577   -0.441152
  N      0.466109   -2.151123    1.028678
  C     -0.314825   -0.900106    1.166933
  C     -1.073282   -1.029048   -0.128224
  C     -0.001445   -3.275827   -1.195223
  N     -0.105288   -4.257537   -1.797385
  H      0.559019    1.733518    0.522614
  H      0.835827   -0.647639   -1.974381
  H      2.047827   -0.937834   -0.665753
  H     -0.097703   -2.905299    1.423542
  H     -0.614069   -0.478362    2.117195
  H     -2.109104   -0.960610   -0.430311

 Total Charge           Charge          ....    0
 Multiplicity           Mult            ....    1
 Number of Electrons    NEL             ....   64
 Basis Dimension        Dim             ....  315

ORBITAL ENERGIES
----------------

  NO   OCC          E(Eh)            E(eV)
   0   2.0000     -20.594858      -560.4146
   1   2.0000     -15.583084      -424.0373
   2   2.0000     -15.582353      -424.0174
   3   2.0000     -11.330193      -308.3102
   4   2.0000     -11.320092      -308.0354
   5   2.0000     -11.291110      -307.2467
   6   2.0000     -11.281965      -306.9979
   7   2.0000     -11.265929      -306.5615
   8   2.0000     -11.258248      -306.3525
   9   2.0000      -1.410354       -38.3777
  10   2.0000      -1.316011       -35.8105
  11   2.0000      -1.225615       -33.3507
  12   2.0000      -1.109807       -30.1994
  13   2.0000      -1.025261       -27.8988
  14   2.0000      -0.929862       -25.3028
  15   2.0000      -0.815782       -22.1986
  16   2.0000      -0.806170       -21.9370
  17   2.0000      -0.768832       -20.9210
  18   2.0000      -0.674751       -18.3609
  19   2.0000      -0.664421       -18.0798
  20   2.0000      -0.646657       -17.5964
  21   2.0000      -0.622819       -16.9478
  22   2.0000      -0.593507       -16.1501
  23   2.0000      -0.581547       -15.8247
  24   2.0000      -0.553498       -15.0615
  25   2.0000      -0.550060       -14.9679
  26   2.0000      -0.526222       -14.3192
  27   2.0000      -0.486535       -13.2393
  28   2.0000      -0.460058       -12.5188
  29   2.0000      -0.430549       -11.7158
  30   2.0000      -0.412366       -11.2210
  31   2.0000      -0.381939       -10.3931
  32   0.0000       0.124165         3.3787
  33   0.0000       0.127927         3.4811
  34   0.0000       0.144567         3.9339
  35   0.0000       0.149719         4.0741
  36   0.0000       0.173406         4.7186

MULLIKEN ATOMIC CHARGES
-----------------------
   0 O :   -0.449315
   1 C :    0.144071
   2 C :   -0.188140
   3 C :    0.210020
   4 N :   -0.313724
   5 C :   -0.120236
   6 C :   -0.177836
   7 C :   -0.228601
   8 N :   -0.031029
   9 H :    0.336373
  10 H :    0.135992
  11 H :    0.133205
  12 H :    0.218373
  13 H :    0.154631
  14 H :    0.176217
Sum of atomic charges:   -0.0000000

LOEWDIN ATOMIC CHARGES
----------------------
   0 O :    0.047989
   1 C :   -0.324517
   2 C :   -0.136784
   3 C :   -0.219521
   4 N :    0.039601
   5 C :   -0.198417
   6 C :   -0.079890
   7 C :   -0.150094
   8 N :    0.083889
   9 H :    0.192589
  10 H :    0.151049
  11 H :    0.136310
  12 H :    0.175834
  13 H :    0.139357
  14 H :    0.142605

  Mayer bond orders larger than 0.1
B(  0-O ,  1-C ) :   1.0588 B(  0-O ,  9-H ) :   0.8293 B(  1-C ,  2-C ) :   0.9647
B(  1-C ,  5-C ) :   0.8431 B(  1-C ,  6-C ) :   0.8515 B(  2-C ,  3-C ) :   0.8953
B(  2-C , 10-H ) :   0.9240 B(  2-C , 11-H ) :   0.9122 B(  3-C ,  4-N ) :   0.9542
B(  3-C ,  6-C ) :   0.9007 B(  3-C ,  7-C ) :   0.8554 B(  4-N ,  5-C ) :   0.9082
B(  4-N , 12-H ) :   0.8657 B(  5-C ,  6-C ) :   0.8874 B(  5-C , 13-H ) :   0.9260
B(  6-C , 14-H ) :   0.8769 B(  7-C ,  8-N ) :   2.8785

MP2 TOTAL ENERGY:     -416.033077928 Eh
FINAL SINGLE POINT ENERGY      -416.033077927568

DIPOLE MOMENT
-------------
                                X             Y             Z
Electronic contribution:     -0.61246      -2.69603      -1.34188
Nuclear contribution   :      0.53762       3.93955       2.28312
                        -----------------------------------------
Total Dipole Moment    :     -0.07484       1.24352       0.94124
                        -----------------------------------------
Magnitude (a.u.)       :      1.56138
Magnitude (Debye)      :      3.96870

                             ****ORCA TERMINATED NORMALLY****
TOTAL RUN TIME: 0 days 0 hours 15 minutes 31 seconds 292 msec
