                         Program Version 3.0.3 - RELEASE   -
|  1> ! RI-MP2 RIJK def2-TZVP def2-TZVP/C def2-TZVP/JK TIGHTSCF
|  2> % maxcore 2000
|  3> % mp2 density relaxed end
|  4> *xyz 0 1
|  5>  O       -0.0292912457     1.4176910966    -0.3763493196
|  6>  C       -0.1720559980     0.0423137753    -0.1720912629
|  7>  C       -0.2600014737    -0.5403301320     1.2810947889
|  8>  C       -1.6081887544     0.2192723058     1.4389536825
|  9>  C       -1.6174353487    -0.4667317438     0.0409926747
| 10>  N       -0.9484641007    -1.7107537690     0.6046449064
| 11>  C       -1.7505189919    -2.6108026309     1.4425106803
| 12>  C       -2.6803916744    -3.3851225601     0.6251250514
| 13>  C       -3.4625883707    -4.0069604868    -0.0420084871
| 14>  H        0.9101550205     1.6235891711    -0.3862719222
| 15>  H        0.4215501622    -0.5687689756    -0.8587745074
| 16>  H        0.5406465613    -0.6906015450     2.0086107427
| 17>  H       -2.3114479964    -0.1483638430     2.1854020606
| 18>  H       -1.5585769214     1.3081098233     1.4463117632
| 19>  H       -2.4220593750    -0.5343246556    -0.6913225201
| 20>  H       -1.0468513625    -3.2916796720     1.9387345695
| 21>  H       -2.3209138182    -2.1198305975     2.2471645951
| 22>  H       -4.1475172623    -4.5649398210    -0.6309280862
| 23> *
| 24>
| 25>                          ****END OF INPUT****

CARTESIAN COORDINATES (ANGSTROEM)
---------------------------------
  O     -0.029291    1.417691   -0.376349
  C     -0.172056    0.042314   -0.172091
  C     -0.260001   -0.540330    1.281095
  C     -1.608189    0.219272    1.438954
  C     -1.617435   -0.466732    0.040993
  N     -0.948464   -1.710754    0.604645
  C     -1.750519   -2.610803    1.442511
  C     -2.680392   -3.385123    0.625125
  C     -3.462588   -4.006960   -0.042008
  H      0.910155    1.623589   -0.386272
  H      0.421550   -0.568769   -0.858775
  H      0.540647   -0.690602    2.008611
  H     -2.311448   -0.148364    2.185402
  H     -1.558577    1.308110    1.446312
  H     -2.422059   -0.534325   -0.691323
  H     -1.046851   -3.291680    1.938735
  H     -2.320914   -2.119831    2.247165
  H     -4.147517   -4.564940   -0.630928

 Total Charge           Charge          ....    0
 Multiplicity           Mult            ....    1
 Number of Electrons    NEL             ....   66
 Basis Dimension        Dim             ....  333

ORBITAL ENERGIES
----------------

  NO   OCC          E(Eh)            E(eV)
   0   2.0000     -20.567304      -559.6648
   1   2.0000     -15.561554      -423.4514
   2   2.0000     -11.291571      -307.2593
   3   2.0000     -11.276464      -306.8482
   4   2.0000     -11.275910      -306.8331
   5   2.0000     -11.273153      -306.7581
   6   2.0000     -11.230923      -305.6090
   7   2.0000     -11.230756      -305.6044
   8   2.0000     -11.219380      -305.2949
   9   2.0000      -1.381886       -37.6030
  10   2.0000      -1.286712       -35.0132
  11   2.0000      -1.089386       -29.6437
  12   2.0000      -1.007839       -27.4247
  13   2.0000      -0.928582       -25.2680
  14   2.0000      -0.887324       -24.1453
  15   2.0000      -0.876121       -23.8405
  16   2.0000      -0.746100       -20.3024
  17   2.0000      -0.713203       -19.4072
  18   2.0000      -0.704674       -19.1752
  19   2.0000      -0.693477       -18.8705
  20   2.0000      -0.656736       -17.8707
  21   2.0000      -0.634077       -17.2541
  22   2.0000      -0.610221       -16.6049
  23   2.0000      -0.581195       -15.8151
  24   2.0000      -0.549106       -14.9419
  25   2.0000      -0.512122       -13.9356
  26   2.0000      -0.489389       -13.3170
  27   2.0000      -0.467717       -12.7272
  28   2.0000      -0.450778       -12.2663
  29   2.0000      -0.427256       -11.6262
  30   2.0000      -0.391868       -10.6633
  31   2.0000      -0.386386       -10.5141
  32   2.0000      -0.368059       -10.0154
  33   0.0000       0.134813         3.6685
  34   0.0000       0.147918         4.0250
  35   0.0000       0.166540         4.5318
  36   0.0000       0.169646         4.6163
  37   0.0000       0.179200         4.8763

MULLIKEN ATOMIC CHARGES
-----------------------
   0 O :   -0.462523
   1 C :    0.036293
   2 C :   -0.063034
   3 C :   -0.244659
   4 C :   -0.044247
   5 N :   -0.206049
   6 C :   -0.319316
   7 C :   -0.007801
   8 C :   -0.115054
   9 H :    0.326744
  10 H :    0.103429
  11 H :    0.139424
  12 H :    0.122321
  13 H :    0.133299
  14 H :    0.147372
  15 H :    0.141630
  16 H :    0.122340
  17 H :    0.189830
Sum of atomic charges:   -0.0000000

LOEWDIN ATOMIC CHARGES
----------------------
   0 O :   -0.002081
   1 C :   -0.301615
   2 C :   -0.195824
   3 C :   -0.208730
   4 C :   -0.177451
   5 N :    0.135022
   6 C :   -0.283496
   7 C :   -0.105885
   8 C :   -0.100564
   9 H :    0.181526
  10 H :    0.133111
  11 H :    0.121272
  12 H :    0.123421
  13 H :    0.134142
  14 H :    0.128839
  15 H :    0.152752
  16 H :    0.139116
  17 H :    0.126444

  Mayer bond orders larger than 0.1
B(  0-O ,  1-C ) :   1.1416 B(  0-O ,  2-C ) :  -0.1026 B(  0-O ,  4-C ) :  -0.1084
B(  0-O ,  9-H ) :   0.8401 B(  1-C ,  2-C ) :   0.8558 B(  1-C ,  4-C ) :   0.9030
B(  1-C , 10-H ) :   0.9530 B(  2-C ,  3-C ) :   0.9286 B(  2-C ,  5-N ) :   0.8381
B(  2-C , 11-H ) :   0.8850 B(  3-C ,  4-C ) :   0.9245 B(  3-C , 12-H ) :   0.9274
B(  3-C , 13-H ) :   0.8971 B(  4-C ,  5-N ) :   0.8459 B(  4-C , 14-H ) :   0.8860
B(  5-N ,  6-C ) :   0.9692 B(  6-C ,  7-C ) :   1.1097 B(  6-C ,  8-C ) :  -0.1067
B(  6-C , 15-H ) :   0.9026 B(  6-C , 16-H ) :   0.9440 B(  7-C ,  8-C ) :   2.6133
B(  8-C , 17-H ) :   0.9010

MP2 TOTAL ENERGY:     -401.128535797 Eh
FINAL SINGLE POINT ENERGY      -401.128535797159

DIPOLE MOMENT
-------------
                                X             Y             Z
Electronic contribution:      0.29920      -0.94842      -1.93686
Nuclear contribution   :      0.10428       1.16328       2.32765
                        -----------------------------------------
Total Dipole Moment    :      0.40348       0.21487       0.39080
                        -----------------------------------------
Magnitude (a.u.)       :      0.60140
Magnitude (Debye)      :      1.52864

                             ****ORCA TERMINATED NORMALLY****
TOTAL RUN TIME: 0 days 0 hours 17 minutes 31 seconds 727 msec
