                         Program Version 3.0.3 - RELEASE   -
|  1> ! RI-MP2 RIJK def2-TZVP def2-TZVP/C def2-TZVP/JK TIGHTSCF
|  2> % maxcore 2000
|  3> % mp2 density relaxed end
|  4> *xyz 0 1
|  5>  C       -0.1300760965     1.4292643173     0.9504416017
|  6>  O        0.2059727750     0.0589136719     0.9722364902
|  7>  C        1.5934550433    -0.1680875941     1.1236625234
|  8>  C        1.9104979816    -1.6642937061     1.0018745847
|  9>  O        3.3288448177    -1.8078185004     0.9177113586
| 10>  C        1.3431126737    -2.5971832042     2.0714242347
| 11>  C        1.6056220588    -4.0632808406     1.7863986488
| 12>  C        1.2604615407    -2.1319567946     3.4875577489
| 13>  N        0.0381402890    -2.3232282115     2.6899550023
| 14>  H        0.3644938738     1.9489322800     0.1161673920
| 15>  H       -1.2124769751     1.4981791646     0.8221570484
| 16>  H        0.1528322345     1.9332905308     1.8873827771
| 17>  H        2.1586982857     0.3464749662     0.3323266053
| 18>  H        1.9515422262     0.2336301076     2.0871452617
| 19>  H        1.5319327855    -1.9951115534     0.0267686564
| 20>  H        3.6755615850    -1.7245839089     1.8134894086
| 21>  H        2.6760240422    -4.2570090418     1.6749583646
| 22>  H        1.2088182588    -4.6829629892     2.5937909759
| 23>  H        1.1098243771    -4.3654699402     0.8567530705
| 24>  H        1.4037374545    -2.8494165158     4.2917727178
| 25>  H        1.5653776408    -1.1191762487     3.7392186203
| 26>  H       -0.3083198823    -1.4232785889     2.3652054780
| 27> *
| 28>
| 29>                          ****END OF INPUT****

CARTESIAN COORDINATES (ANGSTROEM)
---------------------------------
  C     -0.130076    1.429264    0.950442
  O      0.205973    0.058914    0.972236
  C      1.593455   -0.168088    1.123663
  C      1.910498   -1.664294    1.001875
  O      3.328845   -1.807819    0.917711
  C      1.343113   -2.597183    2.071424
  C      1.605622   -4.063281    1.786399
  C      1.260462   -2.131957    3.487558
  N      0.038140   -2.323228    2.689955
  H      0.364494    1.948932    0.116167
  H     -1.212477    1.498179    0.822157
  H      0.152832    1.933291    1.887383
  H      2.158698    0.346475    0.332327
  H      1.951542    0.233630    2.087145
  H      1.531933   -1.995112    0.026769
  H      3.675562   -1.724584    1.813489
  H      2.676024   -4.257009    1.674958
  H      1.208818   -4.682963    2.593791
  H      1.109824   -4.365470    0.856753
  H      1.403737   -2.849417    4.291773
  H      1.565378   -1.119176    3.739219
  H     -0.308320   -1.423279    2.365205

 Total Charge           Charge          ....    0
 Multiplicity           Mult            ....    1
 Number of Electrons    NEL             ....   72
 Basis Dimension        Dim             ....  357

ORBITAL ENERGIES
----------------

  NO   OCC          E(Eh)            E(eV)
   0   2.0000     -20.572418      -559.8040
   1   2.0000     -20.563118      -559.5509
   2   2.0000     -15.546765      -423.0490
   3   2.0000     -11.289141      -307.1931
   4   2.0000     -11.285931      -307.1058
   5   2.0000     -11.283336      -307.0352
   6   2.0000     -11.263885      -306.5059
   7   2.0000     -11.251668      -306.1735
   8   2.0000     -11.209710      -305.0317
   9   2.0000      -1.393949       -37.9313
  10   2.0000      -1.368355       -37.2348
  11   2.0000      -1.257644       -34.2222
  12   2.0000      -1.028414       -27.9846
  13   2.0000      -0.987282       -26.8653
  14   2.0000      -0.921160       -25.0660
  15   2.0000      -0.879185       -23.9238
  16   2.0000      -0.858321       -23.3561
  17   2.0000      -0.769156       -20.9298
  18   2.0000      -0.725605       -19.7447
  19   2.0000      -0.676718       -18.4144
  20   2.0000      -0.671790       -18.2803
  21   2.0000      -0.656585       -17.8666
  22   2.0000      -0.618189       -16.8218
  23   2.0000      -0.604992       -16.4627
  24   2.0000      -0.595777       -16.2119
  25   2.0000      -0.570757       -15.5311
  26   2.0000      -0.559942       -15.2368
  27   2.0000      -0.549055       -14.9406
  28   2.0000      -0.530916       -14.4470
  29   2.0000      -0.500979       -13.6323
  30   2.0000      -0.500149       -13.6097
  31   2.0000      -0.468344       -12.7443
  32   2.0000      -0.457093       -12.4381
  33   2.0000      -0.443387       -12.0652
  34   2.0000      -0.428179       -11.6513
  35   2.0000      -0.379397       -10.3239
  36   0.0000       0.130297         3.5455
  37   0.0000       0.140714         3.8290
  38   0.0000       0.160897         4.3782
  39   0.0000       0.178507         4.8574
  40   0.0000       0.183431         4.9914

MULLIKEN ATOMIC CHARGES
-----------------------
   0 C :   -0.216778
   1 O :   -0.329650
   2 C :   -0.076969
   3 C :    0.151438
   4 O :   -0.463893
   5 C :    0.066151
   6 C :   -0.409730
   7 C :   -0.221147
   8 N :   -0.373590
   9 H :    0.120537
  10 H :    0.146077
  11 H :    0.115902
  12 H :    0.125822
  13 H :    0.082915
  14 H :    0.096803
  15 H :    0.316725
  16 H :    0.131340
  17 H :    0.138781
  18 H :    0.127227
  19 H :    0.121508
  20 H :    0.118621
  21 H :    0.231907
Sum of atomic charges:   -0.0000000

LOEWDIN ATOMIC CHARGES
----------------------
   0 C :   -0.355918
   1 O :    0.127222
   2 C :   -0.315359
   3 C :   -0.307238
   4 O :   -0.009498
   5 C :   -0.329799
   6 C :   -0.265684
   7 C :   -0.258177
   8 N :    0.016933
   9 H :    0.105816
  10 H :    0.115591
  11 H :    0.102823
  12 H :    0.129872
  13 H :    0.117306
  14 H :    0.154714
  15 H :    0.176593
  16 H :    0.126824
  17 H :    0.130877
  18 H :    0.129030
  19 H :    0.125117
  20 H :    0.118063
  21 H :    0.164890

  Mayer bond orders larger than 0.1
B(  0-C ,  1-O ) :   0.8981 B(  0-C ,  9-H ) :   0.9347 B(  0-C , 10-H ) :   0.9388
B(  0-C , 11-H ) :   0.9376 B(  1-O ,  2-C ) :   0.9085 B(  2-C ,  3-C ) :   0.9300
B(  2-C , 12-H ) :   0.9239 B(  2-C , 13-H ) :   0.9123 B(  3-C ,  4-O ) :   0.8864
B(  3-C ,  5-C ) :   0.9638 B(  3-C , 14-H ) :   0.9065 B(  4-O , 15-H ) :   0.8366
B(  5-C ,  6-C ) :   0.9072 B(  5-C ,  7-C ) :   0.9106 B(  5-C ,  8-N ) :   0.8673
B(  6-C , 16-H ) :   0.9356 B(  6-C , 17-H ) :   0.9342 B(  6-C , 18-H ) :   0.9387
B(  7-C ,  8-N ) :   0.9322 B(  7-C , 19-H ) :   0.9109 B(  7-C , 20-H ) :   0.9183
B(  8-N , 21-H ) :   0.8641

MP2 TOTAL ENERGY:     -440.727786761 Eh
FINAL SINGLE POINT ENERGY      -440.727786761262

DIPOLE MOMENT
-------------
                                X             Y             Z
Electronic contribution:      0.36812      -1.00422      -0.82134
Nuclear contribution   :     -0.02171       2.01103       1.12309
                        -----------------------------------------
Total Dipole Moment    :      0.34641       1.00681       0.30176
                        -----------------------------------------
Magnitude (a.u.)       :      1.10668
Magnitude (Debye)      :      2.81295

                             ****ORCA TERMINATED NORMALLY****
TOTAL RUN TIME: 0 days 0 hours 17 minutes 38 seconds 349 msec
