                         Program Version 3.0.3 - RELEASE   -
|  1> ! RI-MP2 RIJK def2-TZVP def2-TZVP/C def2-TZVP/JK TIGHTSCF
|  2> % maxcore 2000
|  3> % mp2 density relaxed end
|  4> *xyz 0 1
|  5>  C        0.0338834934     1.5579088632    -0.1831753546
|  6>  C       -0.0232410082     0.0429627261     0.0696286992
|  7>  C       -1.4132282751    -0.5079569518    -0.0155082754
|  8>  C       -1.9269971338    -1.4159250977    -0.9076345422
|  9>  N       -3.2548373718    -1.5807734542    -0.5686626862
| 10>  C       -4.2164255220    -2.4454980538    -1.2186837710
| 11>  C       -3.4770084385    -0.7695350566     0.5035380779
| 12>  N       -2.4001885072    -0.1113522943     0.8642245751
| 13>  H        1.0536963373     1.9382196573    -0.0660730472
| 14>  H       -0.3065115156     1.7991126849    -1.1955061011
| 15>  H       -0.6150537997     2.0834185942     0.5223903370
| 16>  H        0.6173252727    -0.4826308910    -0.6478131408
| 17>  H        0.3840196407    -0.1673529403     1.0665580080
| 18>  H       -1.4851103105    -1.9512969515    -1.7325586741
| 19>  H       -3.9047296052    -3.4933394524    -1.1619699075
| 20>  H       -5.1811019700    -2.3430270456    -0.7177440512
| 21>  H       -4.3410587548    -2.1728360571    -2.2714664867
| 22>  H       -4.4480765315    -0.7090402793     0.9744921109
| 23> *
| 24>
| 25>                          ****END OF INPUT****

CARTESIAN COORDINATES (ANGSTROEM)
---------------------------------
  C      0.033883    1.557909   -0.183175
  C     -0.023241    0.042963    0.069629
  C     -1.413228   -0.507957   -0.015508
  C     -1.926997   -1.415925   -0.907635
  N     -3.254837   -1.580773   -0.568663
  C     -4.216426   -2.445498   -1.218684
  C     -3.477008   -0.769535    0.503538
  N     -2.400189   -0.111352    0.864225
  H      1.053696    1.938220   -0.066073
  H     -0.306512    1.799113   -1.195506
  H     -0.615054    2.083419    0.522390
  H      0.617325   -0.482631   -0.647813
  H      0.384020   -0.167353    1.066558
  H     -1.485110   -1.951297   -1.732559
  H     -3.904730   -3.493339   -1.161970
  H     -5.181102   -2.343027   -0.717744
  H     -4.341059   -2.172836   -2.271466
  H     -4.448077   -0.709040    0.974492

 Total Charge           Charge          ....    0
 Multiplicity           Mult            ....    1
 Number of Electrons    NEL             ....   60
 Basis Dimension        Dim             ....  308

ORBITAL ENERGIES
----------------

  NO   OCC          E(Eh)            E(eV)
   0   2.0000     -15.613513      -424.8653
   1   2.0000     -15.532296      -422.6553
   2   2.0000     -11.287004      -307.1350
   3   2.0000     -11.282402      -307.0098
   4   2.0000     -11.244027      -305.9655
   5   2.0000     -11.239323      -305.8375
   6   2.0000     -11.217110      -305.2331
   7   2.0000     -11.202053      -304.8234
   8   2.0000      -1.337314       -36.3902
   9   2.0000      -1.179957       -32.1083
  10   2.0000      -1.045508       -28.4497
  11   2.0000      -0.996041       -27.1036
  12   2.0000      -0.951433       -25.8898
  13   2.0000      -0.853460       -23.2238
  14   2.0000      -0.783527       -21.3209
  15   2.0000      -0.763094       -20.7648
  16   2.0000      -0.699108       -19.0237
  17   2.0000      -0.646929       -17.6038
  18   2.0000      -0.616545       -16.7770
  19   2.0000      -0.609646       -16.5893
  20   2.0000      -0.584545       -15.9063
  21   2.0000      -0.563717       -15.3395
  22   2.0000      -0.559520       -15.2253
  23   2.0000      -0.547769       -14.9056
  24   2.0000      -0.504393       -13.7252
  25   2.0000      -0.486447       -13.2369
  26   2.0000      -0.479307       -13.0426
  27   2.0000      -0.424442       -11.5496
  28   2.0000      -0.374579       -10.1928
  29   2.0000      -0.306181        -8.3316
  30   0.0000       0.131147         3.5687
  31   0.0000       0.153574         4.1789
  32   0.0000       0.155990         4.2447
  33   0.0000       0.174977         4.7614
  34   0.0000       0.180734         4.9180

MULLIKEN ATOMIC CHARGES
-----------------------
   0 C :   -0.382002
   1 C :   -0.222288
   2 C :    0.078582
   3 C :   -0.158375
   4 N :   -0.021601
   5 C :   -0.328381
   6 C :   -0.008677
   7 N :   -0.311125
   8 H :    0.121683
   9 H :    0.115686
  10 H :    0.143658
  11 H :    0.108582
  12 H :    0.117830
  13 H :    0.143158
  14 H :    0.154746
  15 H :    0.149567
  16 H :    0.154609
  17 H :    0.144346
Sum of atomic charges:   -0.0000000

LOEWDIN ATOMIC CHARGES
----------------------
   0 C :   -0.311593
   1 C :   -0.258549
   2 C :   -0.263597
   3 C :   -0.205576
   4 N :    0.219727
   5 C :   -0.271217
   6 C :   -0.309483
   7 N :    0.107574
   8 H :    0.116956
   9 H :    0.118932
  10 H :    0.126406
  11 H :    0.139893
  12 H :    0.145177
  13 H :    0.136875
  14 H :    0.124150
  15 H :    0.129563
  16 H :    0.124214
  17 H :    0.130548

  Mayer bond orders larger than 0.1
B(  0-C ,  1-C ) :   0.9181 B(  0-C ,  8-H ) :   0.9360 B(  0-C ,  9-H ) :   0.9369
B(  0-C , 10-H ) :   0.9365 B(  1-C ,  2-C ) :   0.9090 B(  1-C , 11-H ) :   0.9478
B(  1-C , 12-H ) :   0.9336 B(  2-C ,  3-C ) :   1.5117 B(  2-C ,  7-N ) :   1.2585
B(  3-C ,  4-N ) :   1.1162 B(  3-C , 13-H ) :   0.9059 B(  4-N ,  5-C ) :   0.8674
B(  4-N ,  6-C ) :   1.1743 B(  5-C , 14-H ) :   0.9299 B(  5-C , 15-H ) :   0.9329
B(  5-C , 16-H ) :   0.9300 B(  6-C ,  7-N ) :   1.5579 B(  6-C , 17-H ) :   0.9225

MP2 TOTAL ENERGY:     -343.420583377 Eh
FINAL SINGLE POINT ENERGY      -343.420583377332

DIPOLE MOMENT
-------------
                                X             Y             Z
Electronic contribution:     -3.12053      -1.96794       2.05920
Nuclear contribution   :      2.47829       0.94875      -3.01418
                        -----------------------------------------
Total Dipole Moment    :     -0.64224      -1.01919      -0.95497
                        -----------------------------------------
Magnitude (a.u.)       :      1.53727
Magnitude (Debye)      :      3.90743

                             ****ORCA TERMINATED NORMALLY****
TOTAL RUN TIME: 0 days 0 hours 12 minutes 50 seconds 790 msec
