                         Program Version 3.0.3 - RELEASE   -
|  1> ! RI-MP2 RIJK def2-TZVP def2-TZVP/C def2-TZVP/JK TIGHTSCF
|  2> % maxcore 2000
|  3> % mp2 density relaxed end
|  4> *xyz 0 1
|  5>  C       -0.5627626327     1.3733160847     0.0050692730
|  6>  C        0.1000558745     0.0002915517    -0.0070389602
|  7>  C        1.2121635904    -0.1654511304    -1.0511671455
|  8>  O        2.0211824990    -1.2725705606    -0.5912181870
|  9>  C        1.7679762502    -1.5067907896     0.7185884967
| 10>  N        2.2111323409    -2.4625407523     1.4140599425
| 11>  C        0.8196651734    -0.4557075068     1.2833972534
| 12>  C        1.6278731181     0.6501679074     1.9828359219
| 13>  O       -0.0852382754    -1.0404116740     2.1955009803
| 14>  H        0.1644683066     2.1764039912     0.1591008288
| 15>  H       -1.0750745340     1.5659298893    -0.9433380609
| 16>  H       -1.3084441485     1.4309874054     0.8031365116
| 17>  H       -0.6630935322    -0.7638460435    -0.1958370613
| 18>  H        0.8464671437    -0.4167396486    -2.0493231198
| 19>  H        1.8460608579     0.7271071645    -1.1255825588
| 20>  H        2.8129507317    -3.0873942232     0.8780351807
| 21>  H        2.3092039509     1.1688844035     1.2996720383
| 22>  H        0.9462393887     1.3826596357     2.4222964762
| 23>  H        2.2229893950     0.2042580368     2.7838196298
| 24>  H        0.3801875718    -1.8019603411     2.5720705205
| 25> *
| 26>
| 27>                          ****END OF INPUT****

CARTESIAN COORDINATES (ANGSTROEM)
---------------------------------
  C     -0.562763    1.373316    0.005069
  C      0.100056    0.000292   -0.007039
  C      1.212164   -0.165451   -1.051167
  O      2.021182   -1.272571   -0.591218
  C      1.767976   -1.506791    0.718588
  N      2.211132   -2.462541    1.414060
  C      0.819665   -0.455708    1.283397
  C      1.627873    0.650168    1.982836
  O     -0.085238   -1.040412    2.195501
  H      0.164468    2.176404    0.159101
  H     -1.075075    1.565930   -0.943338
  H     -1.308444    1.430987    0.803137
  H     -0.663094   -0.763846   -0.195837
  H      0.846467   -0.416740   -2.049323
  H      1.846061    0.727107   -1.125583
  H      2.812951   -3.087394    0.878035
  H      2.309204    1.168884    1.299672
  H      0.946239    1.382660    2.422296
  H      2.222989    0.204258    2.783820
  H      0.380188   -1.801960    2.572071

 Total Charge           Charge          ....    0
 Multiplicity           Mult            ....    1
 Number of Electrons    NEL             ....   70
 Basis Dimension        Dim             ....  345

ORBITAL ENERGIES
----------------

  NO   OCC          E(Eh)            E(eV)
   0   2.0000     -20.602176      -560.6137
   1   2.0000     -20.554986      -559.3296
   2   2.0000     -15.538562      -422.8258
   3   2.0000     -11.338428      -308.5343
   4   2.0000     -11.301847      -307.5389
   5   2.0000     -11.299593      -307.4776
   6   2.0000     -11.246346      -306.0286
   7   2.0000     -11.230415      -305.5951
   8   2.0000     -11.225833      -305.4705
   9   2.0000      -1.439922       -39.1823
  10   2.0000      -1.368924       -37.2503
  11   2.0000      -1.199846       -32.6495
  12   2.0000      -1.101607       -29.9763
  13   2.0000      -1.007983       -27.4286
  14   2.0000      -0.947375       -25.7794
  15   2.0000      -0.918559       -24.9953
  16   2.0000      -0.806143       -21.9363
  17   2.0000      -0.769202       -20.9310
  18   2.0000      -0.711178       -19.3521
  19   2.0000      -0.697526       -18.9806
  20   2.0000      -0.666187       -18.1279
  21   2.0000      -0.635409       -17.2903
  22   2.0000      -0.622725       -16.9452
  23   2.0000      -0.602840       -16.4041
  24   2.0000      -0.586282       -15.9535
  25   2.0000      -0.574365       -15.6293
  26   2.0000      -0.548372       -14.9220
  27   2.0000      -0.538188       -14.6448
  28   2.0000      -0.523328       -14.2405
  29   2.0000      -0.510210       -13.8835
  30   2.0000      -0.487258       -13.2590
  31   2.0000      -0.476869       -12.9763
  32   2.0000      -0.440556       -11.9881
  33   2.0000      -0.437923       -11.9165
  34   2.0000      -0.404738       -11.0135
  35   0.0000       0.127885         3.4799
  36   0.0000       0.157535         4.2868
  37   0.0000       0.160834         4.3765
  38   0.0000       0.169478         4.6117
  39   0.0000       0.178378         4.8539

MULLIKEN ATOMIC CHARGES
-----------------------
   0 C :   -0.434359
   1 C :   -0.087680
   2 C :   -0.059472
   3 O :   -0.243758
   4 C :    0.103889
   5 N :   -0.443729
   6 C :    0.325893
   7 C :   -0.445790
   8 O :   -0.478311
   9 H :    0.134228
  10 H :    0.140828
  11 H :    0.159032
  12 H :    0.106469
  13 H :    0.129774
  14 H :    0.109471
  15 H :    0.226530
  16 H :    0.128894
  17 H :    0.144919
  18 H :    0.146089
  19 H :    0.337085
Sum of atomic charges:   -0.0000000

LOEWDIN ATOMIC CHARGES
----------------------
   0 C :   -0.286262
   1 C :   -0.238066
   2 C :   -0.235477
   3 O :    0.246273
   4 C :   -0.386766
   5 N :   -0.064491
   6 C :   -0.357165
   7 C :   -0.258627
   8 O :    0.021155
   9 H :    0.125331
  10 H :    0.127467
  11 H :    0.134480
  12 H :    0.165404
  13 H :    0.130413
  14 H :    0.126960
  15 H :    0.169797
  16 H :    0.127335
  17 H :    0.131134
  18 H :    0.133870
  19 H :    0.187236

  Mayer bond orders larger than 0.1
B(  0-C ,  1-C ) :   0.9175 B(  0-C ,  9-H ) :   0.9279 B(  0-C , 10-H ) :   0.9385
B(  0-C , 11-H ) :   0.9392 B(  1-C ,  2-C ) :   0.9375 B(  1-C ,  6-C ) :   0.8586
B(  1-C , 12-H ) :   0.9252 B(  2-C ,  3-O ) :   0.8686 B(  2-C , 13-H ) :   0.9263
B(  2-C , 14-H ) :   0.9144 B(  3-O ,  4-C ) :   1.1268 B(  4-C ,  5-N ) :   1.9769
B(  4-C ,  6-C ) :   0.8408 B(  5-N , 15-H ) :   0.8560 B(  6-C ,  7-C ) :   0.8876
B(  6-C ,  8-O ) :   1.0731 B(  7-C , 16-H ) :   0.9247 B(  7-C , 17-H ) :   0.9354
B(  7-C , 18-H ) :   0.9268 B(  8-O , 19-H ) :   0.8105

MP2 TOTAL ENERGY:     -439.601626001 Eh
FINAL SINGLE POINT ENERGY      -439.601626001243

DIPOLE MOMENT
-------------
                                X             Y             Z
Electronic contribution:      2.48934      -7.34690      -0.01522
Nuclear contribution   :     -2.43438       8.00214      -0.77525
                        -----------------------------------------
Total Dipole Moment    :      0.05496       0.65524      -0.79047
                        -----------------------------------------
Magnitude (a.u.)       :      1.02821
Magnitude (Debye)      :      2.61349

                             ****ORCA TERMINATED NORMALLY****
TOTAL RUN TIME: 0 days 0 hours 19 minutes 31 seconds 937 msec
