                         Program Version 3.0.3 - RELEASE   -
|  1> ! RI-MP2 RIJK def2-TZVP def2-TZVP/C def2-TZVP/JK TIGHTSCF
|  2> % maxcore 2000
|  3> % mp2 density relaxed end
|  4> *xyz 0 1
|  5>  C        0.0059778297     1.3905802800    -0.0201139052
|  6>  O        0.0137712872    -0.0178712588    -0.0165823413
|  7>  C        0.6764904163    -0.5592693181     1.1021967418
|  8>  C        0.6297788707    -2.0486328069     1.0127849456
|  9>  C        0.0630562059    -2.8145957552     0.0475883552
| 10>  O        0.2292716619    -4.1178382287     0.3201604624
| 11>  N        0.9338770541    -4.2394569738     1.5128087232
| 12>  C        1.1695016127    -3.0138124546     1.9203308708
| 13>  C        1.9189057058    -2.7729925487     3.1911627417
| 14>  H        1.0265616691     1.8037524300    -0.0434164748
| 15>  H       -0.5258529706     1.7104756541    -0.9188318294
| 16>  H       -0.5099827951     1.7975255597     0.8636430028
| 17>  H        1.7232914377    -0.2060157623     1.1403007835
| 18>  H        0.2020408405    -0.2122352459     2.0384163555
| 19>  H       -0.4716905811    -2.5743771259    -0.8564966112
| 20>  H        2.8341255482    -2.1996612951     3.0068755218
| 21>  H        1.3136920980    -2.2020892748     3.9039405346
| 22>  H        2.1912455589    -3.7250786649     3.6500501528
| 23> *
| 24>
| 25>                          ****END OF INPUT****

CARTESIAN COORDINATES (ANGSTROEM)
---------------------------------
  C      0.005978    1.390580   -0.020114
  O      0.013771   -0.017871   -0.016582
  C      0.676490   -0.559269    1.102197
  C      0.629779   -2.048633    1.012785
  C      0.063056   -2.814596    0.047588
  O      0.229272   -4.117838    0.320160
  N      0.933877   -4.239457    1.512809
  C      1.169502   -3.013812    1.920331
  C      1.918906   -2.772993    3.191163
  H      1.026562    1.803752   -0.043416
  H     -0.525853    1.710476   -0.918832
  H     -0.509983    1.797526    0.863643
  H      1.723291   -0.206016    1.140301
  H      0.202041   -0.212235    2.038416
  H     -0.471691   -2.574377   -0.856497
  H      2.834126   -2.199661    3.006876
  H      1.313692   -2.202089    3.903941
  H      2.191246   -3.725079    3.650050

 Total Charge           Charge          ....    0
 Multiplicity           Mult            ....    1
 Number of Electrons    NEL             ....   68
 Basis Dimension        Dim             ....  333

ORBITAL ENERGIES
----------------

  NO   OCC          E(Eh)            E(eV)
   0   2.0000     -20.633038      -561.4535
   1   2.0000     -20.572783      -559.8139
   2   2.0000     -15.609600      -424.7588
   3   2.0000     -11.302101      -307.5458
   4   2.0000     -11.301243      -307.5225
   5   2.0000     -11.283537      -307.0407
   6   2.0000     -11.280694      -306.9633
   7   2.0000     -11.241170      -305.8878
   8   2.0000     -11.235606      -305.7364
   9   2.0000      -1.483491       -40.3678
  10   2.0000      -1.394615       -37.9494
  11   2.0000      -1.168635       -31.8002
  12   2.0000      -1.086485       -29.5647
  13   2.0000      -0.990298       -26.9474
  14   2.0000      -0.970281       -26.4027
  15   2.0000      -0.901341       -24.5267
  16   2.0000      -0.802331       -21.8325
  17   2.0000      -0.775820       -21.1111
  18   2.0000      -0.710363       -19.3300
  19   2.0000      -0.684237       -18.6190
  20   2.0000      -0.662214       -18.0198
  21   2.0000      -0.649986       -17.6870
  22   2.0000      -0.643243       -17.5035
  23   2.0000      -0.596839       -16.2408
  24   2.0000      -0.584412       -15.9027
  25   2.0000      -0.570690       -15.5293
  26   2.0000      -0.556022       -15.1301
  27   2.0000      -0.542390       -14.7592
  28   2.0000      -0.536415       -14.5966
  29   2.0000      -0.500027       -13.6064
  30   2.0000      -0.467874       -12.7315
  31   2.0000      -0.445330       -12.1181
  32   2.0000      -0.400978       -10.9112
  33   2.0000      -0.352735        -9.5984
  34   0.0000       0.123155         3.3512
  35   0.0000       0.133538         3.6338
  36   0.0000       0.147563         4.0154
  37   0.0000       0.181604         4.9417
  38   0.0000       0.188493         5.1291

MULLIKEN ATOMIC CHARGES
-----------------------
   0 C :   -0.223338
   1 O :   -0.300253
   2 C :   -0.056589
   3 C :   -0.021338
   4 C :    0.001278
   5 O :   -0.112347
   6 N :   -0.103376
   7 C :    0.040986
   8 C :   -0.436631
   9 H :    0.115407
  10 H :    0.144341
  11 H :    0.115408
  12 H :    0.108335
  13 H :    0.108337
  14 H :    0.168693
  15 H :    0.143955
  16 H :    0.143883
  17 H :    0.163249
Sum of atomic charges:   -0.0000000

LOEWDIN ATOMIC CHARGES
----------------------
   0 C :   -0.355015
   1 O :    0.145065
   2 C :   -0.284702
   3 C :   -0.180516
   4 C :   -0.231439
   5 O :    0.273602
   6 N :    0.052065
   7 C :   -0.284208
   8 C :   -0.266671
   9 H :    0.103179
  10 H :    0.115633
  11 H :    0.103179
  12 H :    0.129918
  13 H :    0.129915
  14 H :    0.142389
  15 H :    0.133747
  16 H :    0.133719
  17 H :    0.140141

  Mayer bond orders larger than 0.1
B(  0-C ,  1-O ) :   0.9120 B(  0-C ,  9-H ) :   0.9364 B(  0-C , 10-H ) :   0.9390
B(  0-C , 11-H ) :   0.9364 B(  1-O ,  2-C ) :   0.9873 B(  2-C ,  3-C ) :   0.9147
B(  2-C , 12-H ) :   0.9199 B(  2-C , 13-H ) :   0.9199 B(  3-C ,  4-C ) :   1.5399
B(  3-C ,  7-C ) :   1.1608 B(  4-C ,  5-O ) :   1.1230 B(  4-C ,  6-N ) :   0.1016
B(  4-C , 14-H ) :   0.9031 B(  5-O ,  6-N ) :   0.8804 B(  6-N ,  7-C ) :   1.6308
B(  7-C ,  8-C ) :   0.8743 B(  8-C , 15-H ) :   0.9329 B(  8-C , 16-H ) :   0.9330
B(  8-C , 17-H ) :   0.9441

MP2 TOTAL ENERGY:     -438.341082185 Eh
FINAL SINGLE POINT ENERGY      -438.341082185416

DIPOLE MOMENT
-------------
                                X             Y             Z
Electronic contribution:     -1.91275      -9.49879      -3.30485
Nuclear contribution   :      2.08087      11.09410       3.60041
                        -----------------------------------------
Total Dipole Moment    :      0.16812       1.59531       0.29556
                        -----------------------------------------
Magnitude (a.u.)       :      1.63114
Magnitude (Debye)      :      4.14603

                             ****ORCA TERMINATED NORMALLY****
TOTAL RUN TIME: 0 days 0 hours 18 minutes 11 seconds 806 msec
