                         Program Version 3.0.3 - RELEASE   -
|  1> ! RI-MP2 RIJK def2-TZVP def2-TZVP/C def2-TZVP/JK TIGHTSCF
|  2> % maxcore 2000
|  3> % mp2 density relaxed end
|  4> *xyz 0 1
|  5>  C       -0.1895436990     1.6542447513     0.4154699774
|  6>  C       -0.0762013720     0.1948746850     0.0620152334
|  7>  O        1.1776476706    -0.2738012259    -0.4319306704
|  8>  C        0.7686311566    -0.7708204082     0.8388031829
|  9>  C        1.5443868767    -0.3427071224     2.0466884432
| 10>  O        2.3152874378     0.5810251583     2.0805171853
| 11>  C       -1.3071369256    -0.4042716963    -0.6134155843
| 12>  N       -1.0210745893    -1.3664134745    -1.5296480713
| 13>  O       -2.4274742887    -0.0427263966    -0.3135461312
| 14>  H        0.6825479009     1.9888405137     0.9765435621
| 15>  H       -0.2645355731     2.2450252809    -0.5029434671
| 16>  H       -1.1030896277     1.8169517588     0.9906189094
| 17>  H        0.4519211276    -1.8144950607     0.8484853249
| 18>  H        1.3341414544    -0.9640990661     2.9452691610
| 19>  H       -0.0709858194    -1.4888712333    -1.8394563704
| 20>  H       -1.7794139596    -1.7528584640    -2.0669762351
| 21> *
| 22>
| 23>                          ****END OF INPUT****

CARTESIAN COORDINATES (ANGSTROEM)
---------------------------------
  C     -0.189544    1.654245    0.415470
  C     -0.076201    0.194875    0.062015
  O      1.177648   -0.273801   -0.431931
  C      0.768631   -0.770820    0.838803
  C      1.544387   -0.342707    2.046688
  O      2.315287    0.581025    2.080517
  C     -1.307137   -0.404272   -0.613416
  N     -1.021075   -1.366413   -1.529648
  O     -2.427474   -0.042726   -0.313546
  H      0.682548    1.988841    0.976544
  H     -0.264536    2.245025   -0.502943
  H     -1.103090    1.816952    0.990619
  H      0.451921   -1.814495    0.848485
  H      1.334141   -0.964099    2.945269
  H     -0.070986   -1.488871   -1.839456
  H     -1.779414   -1.752858   -2.066976

 Total Charge           Charge          ....    0
 Multiplicity           Mult            ....    1
 Number of Electrons    NEL             ....   68
 Basis Dimension        Dim             ....  321

ORBITAL ENERGIES
----------------

  NO   OCC          E(Eh)            E(eV)
   0   2.0000     -20.609842      -560.8223
   1   2.0000     -20.579613      -559.9997
   2   2.0000     -20.535818      -558.8080
   3   2.0000     -15.595820      -424.3838
   4   2.0000     -11.369494      -309.3797
   5   2.0000     -11.355653      -309.0030
   6   2.0000     -11.335158      -308.4453
   7   2.0000     -11.325984      -308.1957
   8   2.0000     -11.232258      -305.6453
   9   2.0000      -1.462335       -39.7922
  10   2.0000      -1.414311       -38.4853
  11   2.0000      -1.397087       -38.0167
  12   2.0000      -1.226685       -33.3798
  13   2.0000      -1.043752       -28.4019
  14   2.0000      -0.999588       -27.2002
  15   2.0000      -0.913247       -24.8507
  16   2.0000      -0.821264       -22.3477
  17   2.0000      -0.780577       -21.2406
  18   2.0000      -0.764828       -20.8120
  19   2.0000      -0.715741       -19.4763
  20   2.0000      -0.700116       -19.0511
  21   2.0000      -0.670987       -18.2585
  22   2.0000      -0.636986       -17.3333
  23   2.0000      -0.612602       -16.6697
  24   2.0000      -0.604562       -16.4510
  25   2.0000      -0.583935       -15.8897
  26   2.0000      -0.574376       -15.6296
  27   2.0000      -0.548906       -14.9365
  28   2.0000      -0.540498       -14.7077
  29   2.0000      -0.510330       -13.8868
  30   2.0000      -0.465446       -12.6654
  31   2.0000      -0.444751       -12.1023
  32   2.0000      -0.432488       -11.7686
  33   2.0000      -0.428234       -11.6529
  34   0.0000       0.086790         2.3617
  35   0.0000       0.129373         3.5204
  36   0.0000       0.155672         4.2361
  37   0.0000       0.158242         4.3060
  38   0.0000       0.176944         4.8149

MULLIKEN ATOMIC CHARGES
-----------------------
   0 C :   -0.409196
   1 C :    0.204533
   2 O :   -0.334178
   3 C :    0.021138
   4 C :    0.098491
   5 O :   -0.253175
   6 C :    0.235186
   7 N :   -0.479567
   8 O :   -0.340054
   9 H :    0.172846
  10 H :    0.141206
  11 H :    0.161881
  12 H :    0.146353
  13 H :    0.089031
  14 H :    0.284762
  15 H :    0.260744
Sum of atomic charges:    0.0000000

LOEWDIN ATOMIC CHARGES
----------------------
   0 C :   -0.252394
   1 C :   -0.272112
   2 O :    0.210836
   3 C :   -0.247561
   4 C :   -0.282604
   5 O :    0.154690
   6 C :   -0.453343
   7 N :   -0.000945
   8 O :    0.098452
   9 H :    0.138405
  10 H :    0.138761
  11 H :    0.143968
  12 H :    0.148642
  13 H :    0.118293
  14 H :    0.180290
  15 H :    0.176621

  Mayer bond orders larger than 0.1
B(  0-C ,  1-C ) :   0.9081 B(  0-C ,  9-H ) :   0.9291 B(  0-C , 10-H ) :   0.9258
B(  0-C , 11-H ) :   0.9251 B(  1-C ,  2-O ) :   0.8633 B(  1-C ,  3-C ) :   0.9146
B(  1-C ,  6-C ) :   0.8725 B(  2-O ,  3-C ) :   0.8701 B(  3-C ,  4-C ) :   0.8748
B(  3-C , 12-H ) :   0.8814 B(  4-C ,  5-O ) :   1.9793 B(  4-C , 13-H ) :   0.9363
B(  6-C ,  7-N ) :   1.1849 B(  6-C ,  8-O ) :   1.9787 B(  7-N , 14-H ) :   0.8476
B(  7-N , 15-H ) :   0.8602

MP2 TOTAL ENERGY:     -474.293271558 Eh
FINAL SINGLE POINT ENERGY      -474.293271558430

DIPOLE MOMENT
-------------
                                X             Y             Z
Electronic contribution:      1.26696      -1.62880       0.10181
Nuclear contribution   :     -1.25047       0.58349      -0.47963
                        -----------------------------------------
Total Dipole Moment    :      0.01650      -1.04531      -0.37782
                        -----------------------------------------
Magnitude (a.u.)       :      1.11162
Magnitude (Debye)      :      2.82552

                             ****ORCA TERMINATED NORMALLY****
TOTAL RUN TIME: 0 days 0 hours 16 minutes 36 seconds 34 msec
