                         Program Version 3.0.3 - RELEASE   -
|  1> ! RI-MP2 RIJK def2-TZVP def2-TZVP/C def2-TZVP/JK TIGHTSCF
|  2> % maxcore 2000
|  3> % mp2 density relaxed end
|  4> *xyz 0 1
|  5>  N       -0.0312341784     1.3000131267    -0.3040713851
|  6>  C       -0.1161481425    -0.0626645242    -0.1320234358
|  7>  C       -1.1323464572    -0.9105478766     0.0664013131
|  8>  C       -2.6095008324    -0.7215088331     0.0784520180
|  9>  O       -2.9815115812     0.3756195234    -0.7542025333
| 10>  O       -0.5837778703    -2.1795432440     0.3115020059
| 11>  C        0.7642425909    -2.0705084069     0.2242103961
| 12>  O        1.5588664703    -2.9449042349     0.3524653085
| 13>  O        1.0722123246    -0.7546534609    -0.0495628715
| 14>  H        0.6744992502     1.5807617529    -0.9740962502
| 15>  H       -0.9393197804     1.6967417078    -0.5147143709
| 16>  H       -3.1008598592    -1.6581093593    -0.2215726200
| 17>  H       -2.9886167758    -0.4661113317     1.0753108771
| 18>  H       -2.7913195186     0.1199433408    -1.6638386821
| 19> *
| 20>
| 21>                          ****END OF INPUT****

CARTESIAN COORDINATES (ANGSTROEM)
---------------------------------
  N     -0.031234    1.300013   -0.304071
  C     -0.116148   -0.062665   -0.132023
  C     -1.132346   -0.910548    0.066401
  C     -2.609501   -0.721509    0.078452
  O     -2.981512    0.375620   -0.754203
  O     -0.583778   -2.179543    0.311502
  C      0.764243   -2.070508    0.224210
  O      1.558866   -2.944904    0.352465
  O      1.072212   -0.754653   -0.049563
  H      0.674499    1.580762   -0.974096
  H     -0.939320    1.696742   -0.514714
  H     -3.100860   -1.658109   -0.221573
  H     -2.988617   -0.466111    1.075311
  H     -2.791320    0.119943   -1.663839

 Total Charge           Charge          ....    0
 Multiplicity           Mult            ....    1
 Number of Electrons    NEL             ....   68
 Basis Dimension        Dim             ....  309

ORBITAL ENERGIES
----------------

  NO   OCC          E(Eh)            E(eV)
   0   2.0000     -20.650438      -561.9270
   1   2.0000     -20.642116      -561.7005
   2   2.0000     -20.592655      -560.3546
   3   2.0000     -20.556242      -559.3638
   4   2.0000     -15.599904      -424.4950
   5   2.0000     -11.448466      -311.5286
   6   2.0000     -11.360805      -309.1432
   7   2.0000     -11.318079      -307.9806
   8   2.0000     -11.299797      -307.4831
   9   2.0000      -1.550951       -42.2035
  10   2.0000      -1.422251       -38.7014
  11   2.0000      -1.404477       -38.2178
  12   2.0000      -1.393955       -37.9314
  13   2.0000      -1.246007       -33.9056
  14   2.0000      -1.062169       -28.9031
  15   2.0000      -0.957013       -26.0416
  16   2.0000      -0.881945       -23.9989
  17   2.0000      -0.852513       -23.1980
  18   2.0000      -0.749788       -20.4028
  19   2.0000      -0.735824       -20.0228
  20   2.0000      -0.718838       -19.5606
  21   2.0000      -0.697789       -18.9878
  22   2.0000      -0.690874       -18.7996
  23   2.0000      -0.658402       -17.9160
  24   2.0000      -0.634283       -17.2597
  25   2.0000      -0.611917       -16.6511
  26   2.0000      -0.598351       -16.2820
  27   2.0000      -0.589300       -16.0357
  28   2.0000      -0.556766       -15.1504
  29   2.0000      -0.537407       -14.6236
  30   2.0000      -0.501653       -13.6507
  31   2.0000      -0.489582       -13.3222
  32   2.0000      -0.482255       -13.1228
  33   2.0000      -0.331265        -9.0142
  34   0.0000       0.106361         2.8942
  35   0.0000       0.145010         3.9459
  36   0.0000       0.159372         4.3367
  37   0.0000       0.168541         4.5862
  38   0.0000       0.184709         5.0262

MULLIKEN ATOMIC CHARGES
-----------------------
   0 N :   -0.495955
   1 C :    0.214519
   2 C :   -0.020475
   3 C :   -0.011772
   4 O :   -0.483725
   5 O :   -0.218540
   6 C :    0.363159
   7 O :   -0.277459
   8 O :   -0.222106
   9 H :    0.267466
  10 H :    0.273692
  11 H :    0.144635
  12 H :    0.140416
  13 H :    0.326148
Sum of atomic charges:   -0.0000000

LOEWDIN ATOMIC CHARGES
----------------------
   0 N :   -0.057210
   1 C :   -0.351846
   2 C :   -0.274455
   3 C :   -0.305337
   4 O :   -0.042255
   5 O :    0.316691
   6 C :   -0.557866
   7 O :    0.139230
   8 O :    0.318451
   9 H :    0.179008
  10 H :    0.181120
  11 H :    0.134657
  12 H :    0.140651
  13 H :    0.179161

  Mayer bond orders larger than 0.1
B(  0-N ,  1-C ) :   1.1032 B(  0-N ,  9-H ) :   0.8603 B(  0-N , 10-H ) :   0.8575
B(  1-C ,  2-C ) :   1.6583 B(  1-C ,  8-O ) :   1.0182 B(  2-C ,  3-C ) :   0.8824
B(  2-C ,  5-O ) :   0.9485 B(  3-C ,  4-O ) :   0.8823 B(  3-C , 11-H ) :   0.9454
B(  3-C , 12-H ) :   0.9243 B(  4-O , 13-H ) :   0.8380 B(  5-O ,  6-C ) :   1.1065
B(  6-C ,  7-O ) :   2.0645 B(  6-C ,  8-O ) :   1.0412

MP2 TOTAL ENERGY:     -510.218128665 Eh
FINAL SINGLE POINT ENERGY      -510.218128665392

DIPOLE MOMENT
-------------
                                X             Y             Z
Electronic contribution:      5.27241      -4.11656       1.01005
Nuclear contribution   :     -6.35361       5.24802      -1.94409
                        -----------------------------------------
Total Dipole Moment    :     -1.08120       1.13146      -0.93404
                        -----------------------------------------
Magnitude (a.u.)       :      1.82253
Magnitude (Debye)      :      4.63252

                             ****ORCA TERMINATED NORMALLY****
TOTAL RUN TIME: 0 days 0 hours 11 minutes 47 seconds 680 msec
