                         Program Version 3.0.3 - RELEASE   -
|  1> ! RI-MP2 RIJK def2-TZVP def2-TZVP/C def2-TZVP/JK TIGHTSCF
|  2> % maxcore 2000
|  3> % mp2 density relaxed end
|  4> *xyz 0 1
|  5>  C       -0.1030743937     1.4741657314    -0.0299166939
|  6>  C       -0.0287300648    -0.0287190990    -0.1467733161
|  7>  C        0.8719199713    -0.7042539518    -1.1209943757
|  8>  N        1.2192087949    -0.6495235503     0.3198650408
|  9>  C        1.1252585667    -2.0269148269     0.8581762139
| 10>  C        0.7131587380    -2.9469079591    -0.2786358788
| 11>  O       -0.5894512408    -2.6680585264    -0.8138917211
| 12>  C        0.5610456771    -2.1380123690    -1.5022184472
| 13>  C        0.7860910218    -2.6158714794    -2.9094315897
| 14>  H        0.8658279448     1.9291599978    -0.2529127928
| 15>  H       -0.8485630597     1.8811394125    -0.7216881342
| 16>  H       -0.3881714153     1.7692308311     0.9857655497
| 17>  H       -0.9497334375    -0.5662999124     0.0633958425
| 18>  H        1.4969551568    -0.1314447952    -1.8021125252
| 19>  H        2.1154660406    -2.3200939079     1.2270052724
| 20>  H        0.4276568064    -2.0689964676     1.7015799230
| 21>  H        1.0056742768    -3.9959884068    -0.2813431584
| 22>  H        0.1206416294    -2.0955529883    -3.6066756593
| 23>  H        1.8175522800    -2.4241722856    -3.2230856905
| 24>  H        0.5888940170    -3.6876014672    -2.9861675295
| 25> *
| 26>
| 27>                          ****END OF INPUT****

CARTESIAN COORDINATES (ANGSTROEM)
---------------------------------
  C     -0.103074    1.474166   -0.029917
  C     -0.028730   -0.028719   -0.146773
  C      0.871920   -0.704254   -1.120994
  N      1.219209   -0.649524    0.319865
  C      1.125259   -2.026915    0.858176
  C      0.713159   -2.946908   -0.278636
  O     -0.589451   -2.668059   -0.813892
  C      0.561046   -2.138012   -1.502218
  C      0.786091   -2.615871   -2.909432
  H      0.865828    1.929160   -0.252913
  H     -0.848563    1.881139   -0.721688
  H     -0.388171    1.769231    0.985766
  H     -0.949733   -0.566300    0.063396
  H      1.496955   -0.131445   -1.802113
  H      2.115466   -2.320094    1.227005
  H      0.427657   -2.068996    1.701580
  H      1.005674   -3.995988   -0.281343
  H      0.120642   -2.095553   -3.606676
  H      1.817552   -2.424172   -3.223086
  H      0.588894   -3.687601   -2.986168

 Total Charge           Charge          ....    0
 Multiplicity           Mult            ....    1
 Number of Electrons    NEL             ....   68
 Basis Dimension        Dim             ....  345

ORBITAL ENERGIES
----------------

  NO   OCC          E(Eh)            E(eV)
   0   2.0000     -20.564868      -559.5985
   1   2.0000     -15.555340      -423.2823
   2   2.0000     -11.295031      -307.3534
   3   2.0000     -11.283740      -307.0462
   4   2.0000     -11.256708      -306.3106
   5   2.0000     -11.256258      -306.2983
   6   2.0000     -11.255667      -306.2823
   7   2.0000     -11.231057      -305.6126
   8   2.0000     -11.214462      -305.1610
   9   2.0000      -1.415573       -38.5197
  10   2.0000      -1.269574       -34.5469
  11   2.0000      -1.035290       -28.1717
  12   2.0000      -1.026606       -27.9354
  13   2.0000      -0.961482       -26.1633
  14   2.0000      -0.911151       -24.7937
  15   2.0000      -0.819459       -22.2986
  16   2.0000      -0.796731       -21.6801
  17   2.0000      -0.769210       -20.9313
  18   2.0000      -0.691984       -18.8299
  19   2.0000      -0.640631       -17.4324
  20   2.0000      -0.619857       -16.8672
  21   2.0000      -0.612047       -16.6547
  22   2.0000      -0.586181       -15.9508
  23   2.0000      -0.577975       -15.7275
  24   2.0000      -0.561850       -15.2887
  25   2.0000      -0.550727       -14.9861
  26   2.0000      -0.535415       -14.5694
  27   2.0000      -0.512824       -13.9546
  28   2.0000      -0.500480       -13.6187
  29   2.0000      -0.486915       -13.2496
  30   2.0000      -0.455566       -12.3966
  31   2.0000      -0.433037       -11.7835
  32   2.0000      -0.408378       -11.1125
  33   2.0000      -0.361540        -9.8380
  34   0.0000       0.139877         3.8062
  35   0.0000       0.156761         4.2657
  36   0.0000       0.164877         4.4865
  37   0.0000       0.181141         4.9291
  38   0.0000       0.186450         5.0736

MULLIKEN ATOMIC CHARGES
-----------------------
   0 C :   -0.401595
   1 C :    0.036425
   2 C :   -0.110737
   3 N :   -0.255199
   4 C :   -0.098745
   5 C :   -0.054923
   6 O :   -0.327773
   7 C :    0.198881
   8 C :   -0.442662
   9 H :    0.135572
  10 H :    0.124381
  11 H :    0.129311
  12 H :    0.142995
  13 H :    0.129297
  14 H :    0.127223
  15 H :    0.118426
  16 H :    0.120015
  17 H :    0.143503
  18 H :    0.138703
  19 H :    0.146901
Sum of atomic charges:    0.0000000

LOEWDIN ATOMIC CHARGES
----------------------
   0 C :   -0.293333
   1 C :   -0.257521
   2 C :   -0.185813
   3 N :    0.129942
   4 C :   -0.254306
   5 C :   -0.240644
   6 O :    0.180681
   7 C :   -0.302245
   8 C :   -0.264188
   9 H :    0.128763
  10 H :    0.125481
  11 H :    0.126317
  12 H :    0.148095
  13 H :    0.144536
  14 H :    0.139349
  15 H :    0.138222
  16 H :    0.135241
  17 H :    0.133252
  18 H :    0.133531
  19 H :    0.134639

  Mayer bond orders larger than 0.1
B(  0-C ,  1-C ) :   0.8676 B(  0-C ,  9-H ) :   0.9475 B(  0-C , 10-H ) :   0.9352
B(  0-C , 11-H ) :   0.9390 B(  1-C ,  2-C ) :   0.9362 B(  1-C ,  3-N ) :   0.8166
B(  1-C , 12-H ) :   0.8931 B(  2-C ,  3-N ) :   0.9427 B(  2-C ,  7-C ) :   0.9360
B(  2-C , 13-H ) :   0.8948 B(  3-N ,  4-C ) :   0.9474 B(  4-C ,  5-C ) :   0.9377
B(  4-C , 14-H ) :   0.9158 B(  4-C , 15-H ) :   0.9153 B(  5-C ,  6-O ) :   0.9230
B(  5-C ,  7-C ) :   0.9372 B(  5-C , 16-H ) :   0.9264 B(  6-O ,  7-C ) :   0.8614
B(  7-C ,  8-C ) :   0.8519 B(  8-C , 17-H ) :   0.9387 B(  8-C , 18-H ) :   0.9381
B(  8-C , 19-H ) :   0.9457

MP2 TOTAL ENERGY:     -402.427826061 Eh
FINAL SINGLE POINT ENERGY      -402.427826060868

DIPOLE MOMENT
-------------
                                X             Y             Z
Electronic contribution:     -0.53342      -3.36977       1.50389
Nuclear contribution   :      0.81624       3.13986      -1.82030
                        -----------------------------------------
Total Dipole Moment    :      0.28282      -0.22991      -0.31641
                        -----------------------------------------
Magnitude (a.u.)       :      0.48266
Magnitude (Debye)      :      1.22681

                             ****ORCA TERMINATED NORMALLY****
TOTAL RUN TIME: 0 days 0 hours 19 minutes 25 seconds 458 msec
