                         Program Version 3.0.3 - RELEASE   -
|  1> ! RI-MP2 RIJK def2-TZVP def2-TZVP/C def2-TZVP/JK TIGHTSCF
|  2> % maxcore 2000
|  3> % mp2 density relaxed end
|  4> *xyz 0 1
|  5>  C       -0.1900577738     1.2660217350    -0.4387627516
|  6>  C       -0.0336103495    -0.1598316566    -0.2074949708
|  7>  C        0.0967602642    -1.3431744514    -0.0164614148
|  8>  C        0.2249627517    -2.7398198368     0.2042833161
|  9>  C       -0.9802562989    -3.6488142257     0.0638202419
| 10>  O       -2.1123387909    -2.8851886215    -0.2907336132
| 11>  N        1.3901200349    -3.1883811893     0.5227768801
| 12>  O        1.3475002795    -4.5773606998     0.7046916787
| 13>  H        0.7487312768     1.8020967123    -0.2628625958
| 14>  H       -0.5024941726     1.4665746642    -1.4697807293
| 15>  H       -0.9497575743     1.6925897765     0.2257789087
| 16>  H       -0.7388161384    -4.4163763485    -0.6878809306
| 17>  H       -1.1147200671    -4.1814896137     1.0181314865
| 18>  H       -2.8570950665    -3.4876297691    -0.3720719907
| 19>  H        2.2605344349    -4.7797467955     0.9338355548
| 20> *
| 21>
| 22>                          ****END OF INPUT****

CARTESIAN COORDINATES (ANGSTROEM)
---------------------------------
  C     -0.190058    1.266022   -0.438763
  C     -0.033610   -0.159832   -0.207495
  C      0.096760   -1.343174   -0.016461
  C      0.224963   -2.739820    0.204283
  C     -0.980256   -3.648814    0.063820
  O     -2.112339   -2.885189   -0.290734
  N      1.390120   -3.188381    0.522777
  O      1.347500   -4.577361    0.704692
  H      0.748731    1.802097   -0.262863
  H     -0.502494    1.466575   -1.469781
  H     -0.949758    1.692590    0.225779
  H     -0.738816   -4.416376   -0.687881
  H     -1.114720   -4.181490    1.018131
  H     -2.857095   -3.487630   -0.372072
  H      2.260534   -4.779747    0.933836

 Total Charge           Charge          ....    0
 Multiplicity           Mult            ....    1
 Number of Electrons    NEL             ....   60
 Basis Dimension        Dim             ....  290

ORBITAL ENERGIES
----------------

  NO   OCC          E(Eh)            E(eV)
   0   2.0000     -20.599462      -560.5399
   1   2.0000     -20.566695      -559.6482
   2   2.0000     -15.624165      -425.1551
   3   2.0000     -11.298998      -307.4614
   4   2.0000     -11.294941      -307.3510
   5   2.0000     -11.248881      -306.0976
   6   2.0000     -11.236551      -305.7621
   7   2.0000     -11.221572      -305.3545
   8   2.0000      -1.428848       -38.8809
   9   2.0000      -1.374936       -37.4139
  10   2.0000      -1.173954       -31.9449
  11   2.0000      -1.057317       -28.7711
  12   2.0000      -0.975384       -26.5415
  13   2.0000      -0.952708       -25.9245
  14   2.0000      -0.828896       -22.5554
  15   2.0000      -0.718318       -19.5464
  16   2.0000      -0.699828       -19.0433
  17   2.0000      -0.658465       -17.9178
  18   2.0000      -0.653748       -17.7894
  19   2.0000      -0.631941       -17.1960
  20   2.0000      -0.612012       -16.6537
  21   2.0000      -0.590353       -16.0643
  22   2.0000      -0.588381       -16.0107
  23   2.0000      -0.586515       -15.9599
  24   2.0000      -0.537360       -14.6223
  25   2.0000      -0.470423       -12.8008
  26   2.0000      -0.443977       -12.0812
  27   2.0000      -0.440304       -11.9813
  28   2.0000      -0.379574       -10.3287
  29   2.0000      -0.341211        -9.2848
  30   0.0000       0.112770         3.0686
  31   0.0000       0.130517         3.5516
  32   0.0000       0.142247         3.8707
  33   0.0000       0.149093         4.0570
  34   0.0000       0.190468         5.1829

MULLIKEN ATOMIC CHARGES
-----------------------
   0 C :   -0.471487
   1 C :    0.075643
   2 C :    0.093927
   3 C :   -0.103349
   4 C :   -0.067350
   5 O :   -0.451289
   6 N :   -0.103620
   7 O :   -0.368951
   8 H :    0.165239
   9 H :    0.164611
  10 H :    0.164891
  11 H :    0.121638
  12 H :    0.121643
  13 H :    0.318513
  14 H :    0.339941
Sum of atomic charges:   -0.0000000

LOEWDIN ATOMIC CHARGES
----------------------
   0 C :   -0.290030
   1 C :   -0.064000
   2 C :   -0.045943
   3 C :   -0.276860
   4 C :   -0.316470
   5 O :   -0.026692
   6 N :    0.042491
   7 O :   -0.063932
   8 H :    0.143153
   9 H :    0.143436
  10 H :    0.143454
  11 H :    0.131095
  12 H :    0.131098
  13 H :    0.175873
  14 H :    0.173328

  Mayer bond orders larger than 0.1
B(  0-C ,  1-C ) :   0.8459 B(  0-C ,  8-H ) :   0.9439 B(  0-C ,  9-H ) :   0.9444
B(  0-C , 10-H ) :   0.9448 B(  1-C ,  2-C ) :   2.6329 B(  1-C ,  3-C ) :  -0.1100
B(  2-C ,  3-C ) :   1.1187 B(  3-C ,  4-C ) :   0.9840 B(  3-C ,  6-N ) :   1.7712
B(  4-C ,  5-O ) :   1.0264 B(  4-C , 11-H ) :   0.9224 B(  4-C , 12-H ) :   0.9225
B(  5-O , 13-H ) :   0.8451 B(  6-N ,  7-O ) :   0.8238 B(  7-O , 14-H ) :   0.8428

MP2 TOTAL ENERGY:     -399.062260856 Eh
FINAL SINGLE POINT ENERGY      -399.062260855846

DIPOLE MOMENT
-------------
                                X             Y             Z
Electronic contribution:      2.25894      -3.93166       1.04011
Nuclear contribution   :     -2.58057       3.62472      -1.06898
                        -----------------------------------------
Total Dipole Moment    :     -0.32163      -0.30694      -0.02887
                        -----------------------------------------
Magnitude (a.u.)       :      0.44552
Magnitude (Debye)      :      1.13242

                             ****ORCA TERMINATED NORMALLY****
TOTAL RUN TIME: 0 days 0 hours 10 minutes 29 seconds 270 msec
