                         Program Version 3.0.3 - RELEASE   -
|  1> ! RI-MP2 RIJK def2-TZVP def2-TZVP/C def2-TZVP/JK TIGHTSCF
|  2> % maxcore 2000
|  3> % mp2 density relaxed end
|  4> *xyz 0 1
|  5>  C        0.0069557442     1.3783789917    -0.0280256716
|  6>  O        0.0215545937    -0.0478684402    -0.0333539069
|  7>  C        0.6201730772    -0.6128095710    -1.0807425726
|  8>  N        1.1780929732     0.0642775454    -2.0755224481
|  9>  N        1.6327990084    -0.9536065322    -2.8626849979
| 10>  C        1.3299286526    -2.1408695129    -2.3101670672
| 11>  N        0.6841899211    -1.9696241158    -1.1732731271
| 12>  H        1.0256387041     1.7793580222    -0.0280049121
| 13>  H       -0.5222353896     1.7668010535    -0.9041553764
| 14>  H       -0.5127680583     1.6671344839     0.8859572596
| 15>  H        2.1164288987    -0.7448870587    -3.7194970667
| 16>  H        1.5921065649    -3.0875693660    -2.7585523430
| 17> *
| 18>
| 19>                          ****END OF INPUT****

CARTESIAN COORDINATES (ANGSTROEM)
---------------------------------
  C      0.006956    1.378379   -0.028026
  O      0.021555   -0.047868   -0.033354
  C      0.620173   -0.612810   -1.080743
  N      1.178093    0.064278   -2.075522
  N      1.632799   -0.953607   -2.862685
  C      1.329929   -2.140870   -2.310167
  N      0.684190   -1.969624   -1.173273
  H      1.025639    1.779358   -0.028005
  H     -0.522235    1.766801   -0.904155
  H     -0.512768    1.667134    0.885957
  H      2.116429   -0.744887   -3.719497
  H      1.592107   -3.087569   -2.758552

 Total Charge           Charge          ....    0
 Multiplicity           Mult            ....    1
 Number of Electrons    NEL             ....   52
 Basis Dimension        Dim             ....  247

ORBITAL ENERGIES
----------------

  NO   OCC          E(Eh)            E(eV)
   0   2.0000     -20.591624      -560.3266
   1   2.0000     -15.648848      -425.8268
   2   2.0000     -15.583341      -424.0443
   3   2.0000     -15.555586      -423.2890
   4   2.0000     -11.347249      -308.7743
   5   2.0000     -11.325971      -308.1953
   6   2.0000     -11.279738      -306.9373
   7   2.0000      -1.445801       -39.3422
   8   2.0000      -1.389829       -37.8192
   9   2.0000      -1.199671       -32.6447
  10   2.0000      -1.107778       -30.1442
  11   2.0000      -0.963432       -26.2163
  12   2.0000      -0.866765       -23.5859
  13   2.0000      -0.800257       -21.7761
  14   2.0000      -0.774404       -21.0726
  15   2.0000      -0.675682       -18.3862
  16   2.0000      -0.674931       -18.3658
  17   2.0000      -0.655572       -17.8390
  18   2.0000      -0.616977       -16.7888
  19   2.0000      -0.581318       -15.8185
  20   2.0000      -0.526052       -14.3146
  21   2.0000      -0.507281       -13.8038
  22   2.0000      -0.502836       -13.6829
  23   2.0000      -0.449225       -12.2240
  24   2.0000      -0.412765       -11.2319
  25   2.0000      -0.356312        -9.6958
  26   0.0000       0.128207         3.4887
  27   0.0000       0.146597         3.9891
  28   0.0000       0.161287         4.3889
  29   0.0000       0.175189         4.7671
  30   0.0000       0.199729         5.4349

MULLIKEN ATOMIC CHARGES
-----------------------
   0 C :   -0.211181
   1 O :   -0.262032
   2 C :    0.293060
   3 N :   -0.265975
   4 N :   -0.140738
   5 C :    0.047632
   6 N :   -0.294539
   7 H :    0.132816
   8 H :    0.132792
   9 H :    0.146897
  10 H :    0.262746
  11 H :    0.158522
Sum of atomic charges:    0.0000000

LOEWDIN ATOMIC CHARGES
----------------------
   0 C :   -0.314653
   1 O :    0.242014
   2 C :   -0.491733
   3 N :    0.006783
   4 N :    0.117832
   5 C :   -0.321748
   6 N :    0.099920
   7 H :    0.111028
   8 H :    0.111022
   9 H :    0.115212
  10 H :    0.189490
  11 H :    0.134833

  Mayer bond orders larger than 0.1
B(  0-C ,  1-O ) :   0.8546 B(  0-C ,  7-H ) :   0.9360 B(  0-C ,  8-H ) :   0.9360
B(  0-C ,  9-H ) :   0.9351 B(  1-O ,  2-C ) :   1.1213 B(  2-C ,  3-N ) :   1.5034
B(  2-C ,  6-N ) :   1.3352 B(  3-N ,  4-N ) :   1.0183 B(  4-N ,  5-C ) :   1.2356
B(  4-N , 10-H ) :   0.8668 B(  5-C ,  6-N ) :   1.4879 B(  5-C , 11-H ) :   0.9237

MP2 TOTAL ENERGY:     -356.131712139 Eh
FINAL SINGLE POINT ENERGY      -356.131712139307

DIPOLE MOMENT
-------------
                                X             Y             Z
Electronic contribution:      0.77627      -3.59444      -1.31740
Nuclear contribution   :     -0.15719       3.94470       0.22005
                        -----------------------------------------
Total Dipole Moment    :      0.61908       0.35026      -1.09735
                        -----------------------------------------
Magnitude (a.u.)       :      1.30772
Magnitude (Debye)      :      3.32395

                             ****ORCA TERMINATED NORMALLY****
TOTAL RUN TIME: 0 days 0 hours 6 minutes 23 seconds 618 msec
