                         Program Version 3.0.3 - RELEASE   -
|  1> ! RI-MP2 RIJK def2-TZVP def2-TZVP/C def2-TZVP/JK TIGHTSCF
|  2> % maxcore 2000
|  3> % mp2 density relaxed end
|  4> *xyz 0 1
|  5>  C        0.9675695580     1.6147517465     0.3470859932
|  6>  C       -0.0608289998     0.4742496836     0.2895804111
|  7>  C        0.3207796602    -0.6789270292     1.1584313858
|  8>  N        0.5627571798    -1.8709424254     0.6803679215
|  9>  O        0.8916919670    -2.6213263974     1.8242930432
| 10>  C        0.8034691651    -1.7849443782     2.8614644169
| 11>  C        1.0516862698    -2.3183967639     4.2346801825
| 12>  N        1.5614373321    -1.2558332770     5.0961798842
| 13>  N        0.4586560725    -0.5788360769     2.5295634959
| 14>  H        1.9407670204     1.2831198889    -0.0267018579
| 15>  H        0.6358241145     2.4574724795    -0.2657366138
| 16>  H        1.0997609925     1.9649653893     1.3740473297
| 17>  H       -1.0375036835     0.8448875756     0.6221489870
| 18>  H       -0.1798620154     0.1082261816    -0.7336850644
| 19>  H        0.1074629462    -2.7808042017     4.5767297103
| 20>  H        1.7843894972    -3.1301180256     4.1647272779
| 21>  H        0.9822310097    -0.4295715417     4.9818317022
| 22>  H        1.4957178637    -1.5410709080     6.0673482347
| 23> *
| 24>
| 25>                          ****END OF INPUT****

CARTESIAN COORDINATES (ANGSTROEM)
---------------------------------
  C      0.967570    1.614752    0.347086
  C     -0.060829    0.474250    0.289580
  C      0.320780   -0.678927    1.158431
  N      0.562757   -1.870942    0.680368
  O      0.891692   -2.621326    1.824293
  C      0.803469   -1.784944    2.861464
  C      1.051686   -2.318397    4.234680
  N      1.561437   -1.255833    5.096180
  N      0.458656   -0.578836    2.529563
  H      1.940767    1.283120   -0.026702
  H      0.635824    2.457472   -0.265737
  H      1.099761    1.964965    1.374047
  H     -1.037504    0.844888    0.622149
  H     -0.179862    0.108226   -0.733685
  H      0.107463   -2.780804    4.576730
  H      1.784389   -3.130118    4.164727
  H      0.982231   -0.429572    4.981832
  H      1.495718   -1.541071    6.067348

 Total Charge           Charge          ....    0
 Multiplicity           Mult            ....    1
 Number of Electrons    NEL             ....   68
 Basis Dimension        Dim             ....  333

ORBITAL ENERGIES
----------------

  NO   OCC          E(Eh)            E(eV)
   0   2.0000     -20.650965      -561.9413
   1   2.0000     -15.617217      -424.9661
   2   2.0000     -15.567584      -423.6155
   3   2.0000     -15.558332      -423.3637
   4   2.0000     -11.359401      -309.1050
   5   2.0000     -11.311202      -307.7935
   6   2.0000     -11.288624      -307.1791
   7   2.0000     -11.244608      -305.9813
   8   2.0000     -11.225106      -305.4507
   9   2.0000      -1.514179       -41.2029
  10   2.0000      -1.254197       -34.1284
  11   2.0000      -1.209243       -32.9052
  12   2.0000      -1.155661       -31.4471
  13   2.0000      -1.047049       -28.4916
  14   2.0000      -0.966113       -26.2893
  15   2.0000      -0.892449       -24.2848
  16   2.0000      -0.815359       -22.1871
  17   2.0000      -0.801810       -21.8183
  18   2.0000      -0.713023       -19.4023
  19   2.0000      -0.691043       -18.8042
  20   2.0000      -0.653506       -17.7828
  21   2.0000      -0.631582       -17.1862
  22   2.0000      -0.618185       -16.8217
  23   2.0000      -0.607381       -16.5277
  24   2.0000      -0.585450       -15.9309
  25   2.0000      -0.559037       -15.2122
  26   2.0000      -0.538818       -14.6620
  27   2.0000      -0.516423       -14.0526
  28   2.0000      -0.512816       -13.9544
  29   2.0000      -0.502748       -13.6805
  30   2.0000      -0.464594       -12.6423
  31   2.0000      -0.453839       -12.3496
  32   2.0000      -0.419105       -11.4044
  33   2.0000      -0.390984       -10.6392
  34   0.0000       0.120337         3.2745
  35   0.0000       0.132282         3.5996
  36   0.0000       0.149963         4.0807
  37   0.0000       0.169260         4.6058
  38   0.0000       0.181192         4.9305

MULLIKEN ATOMIC CHARGES
-----------------------
   0 C :   -0.395350
   1 C :   -0.221790
   2 C :    0.167339
   3 N :   -0.127456
   4 O :   -0.102827
   5 C :    0.281793
   6 C :   -0.144056
   7 N :   -0.534558
   8 N :   -0.347721
   9 H :    0.133557
  10 H :    0.134497
  11 H :    0.144277
  12 H :    0.126716
  13 H :    0.139669
  14 H :    0.128085
  15 H :    0.140062
  16 H :    0.250664
  17 H :    0.227101
Sum of atomic charges:    0.0000000

LOEWDIN ATOMIC CHARGES
----------------------
   0 C :   -0.303623
   1 C :   -0.250435
   2 C :   -0.354193
   3 N :    0.055468
   4 O :    0.287796
   5 C :   -0.366600
   6 C :   -0.296653
   7 N :   -0.172375
   8 N :    0.127931
   9 H :    0.124931
  10 H :    0.122642
  11 H :    0.127039
  12 H :    0.150729
  13 H :    0.150544
  14 H :    0.135561
  15 H :    0.145631
  16 H :    0.161424
  17 H :    0.154183

  Mayer bond orders larger than 0.1
B(  0-C ,  1-C ) :   0.9156 B(  0-C ,  9-H ) :   0.9352 B(  0-C , 10-H ) :   0.9362
B(  0-C , 11-H ) :   0.9342 B(  1-C ,  2-C ) :   0.8896 B(  1-C , 12-H ) :   0.9271
B(  1-C , 13-H ) :   0.9464 B(  2-C ,  3-N ) :   1.6710 B(  2-C ,  8-N ) :   1.1913
B(  3-N ,  4-O ) :   0.8685 B(  4-O ,  5-C ) :   1.1797 B(  5-C ,  6-C ) :   0.9130
B(  5-C ,  8-N ) :   1.5663 B(  6-C ,  7-N ) :   0.9765 B(  6-C , 14-H ) :   0.9156
B(  6-C , 15-H ) :   0.9271 B(  7-N , 16-H ) :   0.8726 B(  7-N , 17-H ) :   0.8889

MP2 TOTAL ENERGY:     -434.549817588 Eh
FINAL SINGLE POINT ENERGY      -434.549817588243

DIPOLE MOMENT
-------------
                                X             Y             Z
Electronic contribution:     -0.61081      -7.10680      -0.63906
Nuclear contribution   :      0.14494       7.28694       1.33663
                        -----------------------------------------
Total Dipole Moment    :     -0.46586       0.18014       0.69757
                        -----------------------------------------
Magnitude (a.u.)       :      0.85795
Magnitude (Debye)      :      2.18074

                             ****ORCA TERMINATED NORMALLY****
TOTAL RUN TIME: 0 days 0 hours 17 minutes 34 seconds 753 msec
