                         Program Version 3.0.3 - RELEASE   -
|  1> ! RI-MP2 RIJK def2-TZVP def2-TZVP/C def2-TZVP/JK TIGHTSCF
|  2> % maxcore 2000
|  3> % mp2 density relaxed end
|  4> *xyz 0 1
|  5>  C       -0.2156000447     1.5492630584    -0.5045708671
|  6>  C       -0.0171526007     0.2077184191     0.2111511585
|  7>  C       -1.3101625980    -0.5703369354     0.3141101146
|  8>  N       -1.7383972982    -1.3352341402    -0.8775232194
|  9>  C       -1.4389374333    -2.0529373802     0.3791747321
| 10>  C       -0.2249914419    -2.9598773417     0.3441223981
| 11>  C       -2.6373616895    -2.5864235461     1.1687685920
| 12>  C       -3.2392102941    -3.8641292854     0.5775197134
| 13>  O       -2.3233179717    -2.7524884616     2.5490422976
| 14>  H        0.7248288358     2.1040457364    -0.5766122317
| 15>  H       -0.5952391557     1.3893793023    -1.5185604044
| 16>  H       -0.9352684910     2.1813215911     0.0279039576
| 17>  H        0.7292066728    -0.3819706624    -0.3285179663
| 18>  H        0.3774159954     0.3767325046     1.2214974326
| 19>  H       -2.0938613874    -0.0257032653     0.8433328472
| 20>  H       -2.7446920805    -1.2538133714    -1.0098505053
| 21>  H        0.5768161434    -2.5218228558    -0.2507494518
| 22>  H        0.1587091359    -3.1346740306     1.3555262579
| 23>  H       -0.4672013219    -3.9290911072    -0.1044133006
| 24>  H       -3.4081223667    -1.8044714848     1.1556547981
| 25>  H       -2.5297137099    -4.6981907983     0.6238884408
| 26>  H       -4.1328784637    -4.1494686924     1.1390074872
| 27>  H       -3.5155152926    -3.7245452466    -0.4724212374
| 28>  H       -1.8127969517    -3.5638121367     2.6403088264
| 29> *
| 30>
| 31>                          ****END OF INPUT****

CARTESIAN COORDINATES (ANGSTROEM)
---------------------------------
  C     -0.215600    1.549263   -0.504571
  C     -0.017153    0.207718    0.211151
  C     -1.310163   -0.570337    0.314110
  N     -1.738397   -1.335234   -0.877523
  C     -1.438937   -2.052937    0.379175
  C     -0.224991   -2.959877    0.344122
  C     -2.637362   -2.586424    1.168769
  C     -3.239210   -3.864129    0.577520
  O     -2.323318   -2.752488    2.549042
  H      0.724829    2.104046   -0.576612
  H     -0.595239    1.389379   -1.518560
  H     -0.935268    2.181322    0.027904
  H      0.729207   -0.381971   -0.328518
  H      0.377416    0.376733    1.221497
  H     -2.093861   -0.025703    0.843333
  H     -2.744692   -1.253813   -1.009851
  H      0.576816   -2.521823   -0.250749
  H      0.158709   -3.134674    1.355526
  H     -0.467201   -3.929091   -0.104413
  H     -3.408122   -1.804471    1.155655
  H     -2.529714   -4.698191    0.623888
  H     -4.132878   -4.149469    1.139007
  H     -3.515515   -3.724545   -0.472421
  H     -1.812797   -3.563812    2.640309

 Total Charge           Charge          ....    0
 Multiplicity           Mult            ....    1
 Number of Electrons    NEL             ....   72
 Basis Dimension        Dim             ....  369

ORBITAL ENERGIES
----------------

  NO   OCC          E(Eh)            E(eV)
   0   2.0000     -20.557671      -559.4027
   1   2.0000     -15.551230      -423.1705
   2   2.0000     -11.287108      -307.1378
   3   2.0000     -11.260510      -306.4141
   4   2.0000     -11.252460      -306.1950
   5   2.0000     -11.223653      -305.4111
   6   2.0000     -11.218883      -305.2813
   7   2.0000     -11.218361      -305.2671
   8   2.0000     -11.209826      -305.0349
   9   2.0000      -1.364742       -37.1365
  10   2.0000      -1.259953       -34.2851
  11   2.0000      -1.040650       -28.3175
  12   2.0000      -1.024652       -27.8822
  13   2.0000      -0.980897       -26.6916
  14   2.0000      -0.895767       -24.3751
  15   2.0000      -0.877652       -23.8821
  16   2.0000      -0.797884       -21.7115
  17   2.0000      -0.754408       -20.5285
  18   2.0000      -0.709084       -19.2952
  19   2.0000      -0.647839       -17.6286
  20   2.0000      -0.639137       -17.3918
  21   2.0000      -0.606555       -16.5052
  22   2.0000      -0.604300       -16.4438
  23   2.0000      -0.584808       -15.9134
  24   2.0000      -0.559484       -15.2243
  25   2.0000      -0.552207       -15.0263
  26   2.0000      -0.537987       -14.6394
  27   2.0000      -0.532893       -14.5008
  28   2.0000      -0.517877       -14.0922
  29   2.0000      -0.508669       -13.8416
  30   2.0000      -0.487432       -13.2637
  31   2.0000      -0.481923       -13.1138
  32   2.0000      -0.459106       -12.4929
  33   2.0000      -0.447941       -12.1891
  34   2.0000      -0.423232       -11.5167
  35   2.0000      -0.379607       -10.3296
  36   0.0000       0.127570         3.4713
  37   0.0000       0.143820         3.9135
  38   0.0000       0.156288         4.2528
  39   0.0000       0.174735         4.7548
  40   0.0000       0.183235         4.9861

MULLIKEN ATOMIC CHARGES
-----------------------
   0 C :   -0.403926
   1 C :   -0.185263
   2 C :   -0.100070
   3 N :   -0.400019
   4 C :    0.197986
   5 C :   -0.472312
   6 C :    0.098202
   7 C :   -0.425322
   8 O :   -0.469259
   9 H :    0.132539
  10 H :    0.138235
  11 H :    0.118751
  12 H :    0.103915
  13 H :    0.111173
  14 H :    0.115124
  15 H :    0.211934
  16 H :    0.144339
  17 H :    0.128199
  18 H :    0.139792
  19 H :    0.089950
  20 H :    0.123741
  21 H :    0.151319
  22 H :    0.135789
  23 H :    0.315184
Sum of atomic charges:    0.0000000

LOEWDIN ATOMIC CHARGES
----------------------
   0 C :   -0.315695
   1 C :   -0.274483
   2 C :   -0.240468
   3 N :    0.024745
   4 C :   -0.299158
   5 C :   -0.269746
   6 C :   -0.345050
   7 C :   -0.299227
   8 O :   -0.014337
   9 H :    0.120058
  10 H :    0.124735
  11 H :    0.119304
  12 H :    0.139332
  13 H :    0.140329
  14 H :    0.142542
  15 H :    0.163197
  16 H :    0.131375
  17 H :    0.126612
  18 H :    0.127446
  19 H :    0.148083
  20 H :    0.121517
  21 H :    0.127248
  22 H :    0.129244
  23 H :    0.172398

  Mayer bond orders larger than 0.1
B(  0-C ,  1-C ) :   0.9174 B(  0-C ,  9-H ) :   0.9412 B(  0-C , 10-H ) :   0.9389
B(  0-C , 11-H ) :   0.9385 B(  1-C ,  2-C ) :   0.9128 B(  1-C , 12-H ) :   0.9351
B(  1-C , 13-H ) :   0.9349 B(  2-C ,  3-N ) :   0.9089 B(  2-C ,  4-C ) :   0.8970
B(  2-C , 14-H ) :   0.9087 B(  3-N ,  4-C ) :   0.9152 B(  3-N , 15-H ) :   0.8677
B(  4-C ,  5-C ) :   0.8511 B(  4-C ,  6-C ) :   0.8991 B(  5-C , 16-H ) :   0.9391
B(  5-C , 17-H ) :   0.9459 B(  5-C , 18-H ) :   0.9379 B(  6-C ,  7-C ) :   0.9433
B(  6-C ,  8-O ) :   0.9364 B(  6-C , 19-H ) :   0.9209 B(  7-C , 20-H ) :   0.9213
B(  7-C , 21-H ) :   0.9415 B(  7-C , 22-H ) :   0.9330 B(  8-O , 23-H ) :   0.8423

MP2 TOTAL ENERGY:     -404.848716244 Eh
FINAL SINGLE POINT ENERGY      -404.848716244197

DIPOLE MOMENT
-------------
                                X             Y             Z
Electronic contribution:     -2.37143      -1.45682       2.45013
Nuclear contribution   :      2.27692       1.09704      -2.40655
                        -----------------------------------------
Total Dipole Moment    :     -0.09451      -0.35979       0.04357
                        -----------------------------------------
Magnitude (a.u.)       :      0.37454
Magnitude (Debye)      :      0.95200

                             ****ORCA TERMINATED NORMALLY****
TOTAL RUN TIME: 0 days 0 hours 18 minutes 36 seconds 566 msec
