                         Program Version 3.0.3 - RELEASE   -
|  1> ! RI-MP2 RIJK def2-TZVP def2-TZVP/C def2-TZVP/JK TIGHTSCF
|  2> % maxcore 2000
|  3> % mp2 density relaxed end
|  4> *xyz 0 1
|  5>  N       -0.0469897977     1.4448072000     0.1422728383
|  6>  C        0.0058447601     0.1789346627     0.1407684883
|  7>  O       -1.1077613360    -0.6034558918     0.2551680265
|  8>  C       -2.3495060338    -0.0528710287    -0.0345035776
|  9>  O       -3.3380921200    -0.6705461993     0.1835040019
| 10>  C        1.1942585074    -0.6177777998     0.0506169312
| 11>  C        2.2280487871    -1.2387388730    -0.0258200278
| 12>  C        3.3955337882    -1.9401723028    -0.1128927707
| 13>  N        4.3908459677    -2.5338192092    -0.1879831518
| 14>  H        0.8777976074     1.8581235794     0.0426042007
| 15>  H       -2.2714695405     0.9467544924    -0.4776727190
| 16> *
| 17>
| 18>                          ****END OF INPUT****

CARTESIAN COORDINATES (ANGSTROEM)
---------------------------------
  N     -0.046990    1.444807    0.142273
  C      0.005845    0.178935    0.140768
  O     -1.107761   -0.603456    0.255168
  C     -2.349506   -0.052871   -0.034504
  O     -3.338092   -0.670546    0.183504
  C      1.194259   -0.617778    0.050617
  C      2.228049   -1.238739   -0.025820
  C      3.395534   -1.940172   -0.112893
  N      4.390846   -2.533819   -0.187983
  H      0.877798    1.858124    0.042604
  H     -2.271470    0.946754   -0.477673

 Total Charge           Charge          ....    0
 Multiplicity           Mult            ....    1
 Number of Electrons    NEL             ....   62
 Basis Dimension        Dim             ....  291

ORBITAL ENERGIES
----------------

  NO   OCC          E(Eh)            E(eV)
   0   2.0000     -20.661201      -562.2199
   1   2.0000     -20.589024      -560.2558
   2   2.0000     -15.628586      -425.2755
   3   2.0000     -15.610927      -424.7949
   4   2.0000     -11.426324      -310.9261
   5   2.0000     -11.414954      -310.6167
   6   2.0000     -11.332277      -308.3669
   7   2.0000     -11.329777      -308.2989
   8   2.0000     -11.327856      -308.2466
   9   2.0000      -1.516119       -41.2557
  10   2.0000      -1.424757       -38.7696
  11   2.0000      -1.269952       -34.5572
  12   2.0000      -1.264498       -34.4087
  13   2.0000      -1.129505       -30.7354
  14   2.0000      -1.002213       -27.2716
  15   2.0000      -0.919120       -25.0105
  16   2.0000      -0.850971       -23.1561
  17   2.0000      -0.815628       -22.1944
  18   2.0000      -0.757583       -20.6149
  19   2.0000      -0.702757       -19.1230
  20   2.0000      -0.677899       -18.4466
  21   2.0000      -0.621752       -16.9187
  22   2.0000      -0.608583       -16.5604
  23   2.0000      -0.580356       -15.7923
  24   2.0000      -0.572832       -15.5875
  25   2.0000      -0.551590       -15.0095
  26   2.0000      -0.534471       -14.5437
  27   2.0000      -0.489431       -13.3181
  28   2.0000      -0.483471       -13.1559
  29   2.0000      -0.445498       -12.1226
  30   2.0000      -0.429964       -11.6999
  31   0.0000       0.019717         0.5365
  32   0.0000       0.061758         1.6805
  33   0.0000       0.118131         3.2145
  34   0.0000       0.124003         3.3743
  35   0.0000       0.150420         4.0931

MULLIKEN ATOMIC CHARGES
-----------------------
   0 N :   -0.353699
   1 C :    0.114359
   2 O :   -0.197304
   3 C :    0.198077
   4 O :   -0.223465
   5 C :   -0.021256
   6 C :    0.324859
   7 C :   -0.206098
   8 N :   -0.027107
   9 H :    0.248888
  10 H :    0.142746
Sum of atomic charges:   -0.0000000

LOEWDIN ATOMIC CHARGES
----------------------
   0 N :    0.000839
   1 C :   -0.389138
   2 O :    0.297904
   3 C :   -0.375252
   4 O :    0.164977
   5 C :    0.043404
   6 C :   -0.013696
   7 C :   -0.160577
   8 N :    0.125902
   9 H :    0.183756
  10 H :    0.121882

  Mayer bond orders larger than 0.1
B(  0-N ,  1-C ) :   1.9084 B(  0-N ,  9-H ) :   0.8565 B(  1-C ,  2-O ) :   1.0945
B(  1-C ,  5-C ) :   1.0279 B(  1-C ,  6-C ) :  -0.1002 B(  2-O ,  3-C ) :   0.9337
B(  3-C ,  4-O ) :   2.0609 B(  3-C , 10-H ) :   0.9118 B(  5-C ,  6-C ) :   2.5752
B(  5-C ,  8-N ) :   0.1087 B(  6-C ,  7-C ) :   0.9847 B(  7-C ,  8-N ) :   2.7197

MP2 TOTAL ENERGY:     -450.790149099 Eh
FINAL SINGLE POINT ENERGY      -450.790149099477

DIPOLE MOMENT
-------------
                                X             Y             Z
Electronic contribution:      2.19691      -2.70190       0.21895
Nuclear contribution   :     -2.00961       3.81407      -0.49862
                        -----------------------------------------
Total Dipole Moment    :      0.18731       1.11217      -0.27968
                        -----------------------------------------
Magnitude (a.u.)       :      1.16199
Magnitude (Debye)      :      2.95355

                             ****ORCA TERMINATED NORMALLY****
TOTAL RUN TIME: 0 days 0 hours 9 minutes 46 seconds 636 msec
