                         Program Version 3.0.3 - RELEASE   -
|  1> ! RI-MP2 RIJK def2-TZVP def2-TZVP/C def2-TZVP/JK TIGHTSCF
|  2> % maxcore 2000
|  3> % mp2 density relaxed end
|  4> *xyz 0 1
|  5>  N       -0.1643624917     1.3202576403     0.0377469727
|  6>  C        0.0383973523    -0.0168260468     0.0255676997
|  7>  O        1.1080557127    -0.5865237491     0.0325059447
|  8>  N       -1.1767694980    -0.7487036640     0.0129388299
|  9>  C       -1.2863361709    -2.1053915798     0.0086723134
| 10>  C       -2.6225368150    -2.4005009480    -0.0122068496
| 11>  C       -3.2728962202    -1.1297473106    -0.0176719231
| 12>  N       -4.6356811162    -0.8930442139    -0.1059103594
| 13>  N       -2.4018071719    -0.1320273351     0.0035039914
| 14>  H        0.6390164257     1.9194946322    -0.0148664924
| 15>  H       -1.1020076356     1.6816968948    -0.0239194260
| 16>  H       -0.4007594868    -2.7183470586     0.0177091089
| 17>  H       -3.0792446719    -3.3766174835    -0.0323970431
| 18>  H       -5.2065321171    -1.5742336999     0.3730683381
| 19>  H       -4.8891307954     0.0515992121     0.1494438147
| 20> *
| 21>
| 22>                          ****END OF INPUT****

CARTESIAN COORDINATES (ANGSTROEM)
---------------------------------
  N     -0.164362    1.320258    0.037747
  C      0.038397   -0.016826    0.025568
  O      1.108056   -0.586524    0.032506
  N     -1.176769   -0.748704    0.012939
  C     -1.286336   -2.105392    0.008672
  C     -2.622537   -2.400501   -0.012207
  C     -3.272896   -1.129747   -0.017672
  N     -4.635681   -0.893044   -0.105910
  N     -2.401807   -0.132027    0.003504
  H      0.639016    1.919495   -0.014866
  H     -1.102008    1.681697   -0.023919
  H     -0.400759   -2.718347    0.017709
  H     -3.079245   -3.376617   -0.032397
  H     -5.206532   -1.574234    0.373068
  H     -4.889131    0.051599    0.149444

 Total Charge           Charge          ....    0
 Multiplicity           Mult            ....    1
 Number of Electrons    NEL             ....   66
 Basis Dimension        Dim             ....  315

ORBITAL ENERGIES
----------------

  NO   OCC          E(Eh)            E(eV)
   0   2.0000     -20.522743      -558.4522
   1   2.0000     -15.643186      -425.6727
   2   2.0000     -15.584678      -424.0807
   3   2.0000     -15.581158      -423.9849
   4   2.0000     -15.578238      -423.9054
   5   2.0000     -11.392685      -310.0107
   6   2.0000     -11.314074      -307.8716
   7   2.0000     -11.292015      -307.2713
   8   2.0000     -11.231414      -305.6223
   9   2.0000      -1.420852       -38.6634
  10   2.0000      -1.363845       -37.1121
  11   2.0000      -1.237394       -33.6712
  12   2.0000      -1.217655       -33.1341
  13   2.0000      -1.096203       -29.8292
  14   2.0000      -1.062363       -28.9084
  15   2.0000      -0.880661       -23.9640
  16   2.0000      -0.810075       -22.0433
  17   2.0000      -0.783750       -21.3269
  18   2.0000      -0.762461       -20.7476
  19   2.0000      -0.697972       -18.9928
  20   2.0000      -0.690955       -18.8018
  21   2.0000      -0.668114       -18.1803
  22   2.0000      -0.654157       -17.8005
  23   2.0000      -0.620314       -16.8796
  24   2.0000      -0.602243       -16.3879
  25   2.0000      -0.574912       -15.6442
  26   2.0000      -0.568457       -15.4685
  27   2.0000      -0.492534       -13.4025
  28   2.0000      -0.474764       -12.9190
  29   2.0000      -0.454795       -12.3756
  30   2.0000      -0.426520       -11.6062
  31   2.0000      -0.363991        -9.9047
  32   2.0000      -0.338626        -9.2145
  33   0.0000       0.117180         3.1886
  34   0.0000       0.129167         3.5148
  35   0.0000       0.146946         3.9986
  36   0.0000       0.173134         4.7112
  37   0.0000       0.185248         5.0409

MULLIKEN ATOMIC CHARGES
-----------------------
   0 N :   -0.486194
   1 C :    0.337198
   2 O :   -0.367315
   3 N :    0.115327
   4 C :   -0.114362
   5 C :   -0.224834
   6 C :    0.206485
   7 N :   -0.515787
   8 N :   -0.334097
   9 H :    0.267408
  10 H :    0.287819
  11 H :    0.173689
  12 H :    0.146911
  13 H :    0.253619
  14 H :    0.254132
Sum of atomic charges:    0.0000000

LOEWDIN ATOMIC CHARGES
----------------------
   0 N :   -0.003104
   1 C :   -0.517580
   2 O :    0.081785
   3 N :    0.211732
   4 C :   -0.183264
   5 C :   -0.174912
   6 C :   -0.372786
   7 N :   -0.072210
   8 N :    0.037654
   9 H :    0.179122
  10 H :    0.177053
  11 H :    0.150415
  12 H :    0.143416
  13 H :    0.170761
  14 H :    0.171918

  Mayer bond orders larger than 0.1
B(  0-N ,  1-C ) :   1.2194 B(  0-N ,  9-H ) :   0.8623 B(  0-N , 10-H ) :   0.8417
B(  1-C ,  2-O ) :   1.9516 B(  1-C ,  3-N ) :   0.9375 B(  3-N ,  4-C ) :   1.1675
B(  3-N ,  8-N ) :   0.9487 B(  4-C ,  5-C ) :   1.5062 B(  4-C , 11-H ) :   0.9191
B(  5-C ,  6-C ) :   1.2122 B(  5-C , 12-H ) :   0.9120 B(  6-C ,  7-N ) :   1.0539
B(  6-C ,  8-N ) :   1.5281 B(  7-N , 13-H ) :   0.8736 B(  7-N , 14-H ) :   0.8713

MP2 TOTAL ENERGY:     -449.457342206 Eh
FINAL SINGLE POINT ENERGY      -449.457342206193

DIPOLE MOMENT
-------------
                                X             Y             Z
Electronic contribution:      3.11881       0.21440      -0.08284
Nuclear contribution   :     -4.23432       0.15958       0.42583
                        -----------------------------------------
Total Dipole Moment    :     -1.11551       0.37398       0.34299
                        -----------------------------------------
Magnitude (a.u.)       :      1.22551
Magnitude (Debye)      :      3.11499

                             ****ORCA TERMINATED NORMALLY****
TOTAL RUN TIME: 0 days 0 hours 16 minutes 17 seconds 270 msec
