                         Program Version 3.0.3 - RELEASE   -
|  1> ! RI-MP2 RIJK def2-TZVP def2-TZVP/C def2-TZVP/JK TIGHTSCF
|  2> % maxcore 2000
|  3> % mp2 density relaxed end
|  4> *xyz 0 1
|  5>  C       -1.6315340004    -0.7259588603    -0.6886708363
|  6>  C       -0.2345104434    -0.3266890808    -0.1947728538
|  7>  C        0.8803727165    -0.6522043897    -1.1770917852
|  8>  C        2.2412096805    -1.1265459402    -0.6379787323
|  9>  C        1.3454017872    -2.0966585746    -1.3216118333
| 10>  C        1.0180853357     0.1617805007    -2.4139843292
| 11>  O        1.7469151793    -0.1041481509    -3.3435775819
| 12>  C        0.2259818797     1.4131723925    -2.4732538633
| 13>  N       -0.3794253912     2.3961641631    -2.5415692748
| 14>  H       -1.9088691845    -0.1829196727    -1.5970070882
| 15>  H       -1.6793642838    -1.7971810230    -0.9090238807
| 16>  H       -2.3865550188    -0.5026005269     0.0705146159
| 17>  H       -0.2158573633     0.7432544232     0.0435655294
| 18>  H       -0.0195272693    -0.8486663774     0.7440984666
| 19>  H        3.1182640000    -0.7841473784    -1.1744407002
| 20>  H        2.3361922775    -1.1609848189     0.4414479192
| 21>  H        0.8124605734    -2.8265636440    -0.7226430672
| 22>  H        1.6180389948    -2.4163774117    -2.3203205544
| 23> *
| 24>
| 25>                          ****END OF INPUT****

CARTESIAN COORDINATES (ANGSTROEM)
---------------------------------
  C     -1.631534   -0.725959   -0.688671
  C     -0.234510   -0.326689   -0.194773
  C      0.880373   -0.652204   -1.177092
  C      2.241210   -1.126546   -0.637979
  C      1.345402   -2.096659   -1.321612
  C      1.018085    0.161781   -2.413984
  O      1.746915   -0.104148   -3.343578
  C      0.225982    1.413172   -2.473254
  N     -0.379425    2.396164   -2.541569
  H     -1.908869   -0.182920   -1.597007
  H     -1.679364   -1.797181   -0.909024
  H     -2.386555   -0.502601    0.070515
  H     -0.215857    0.743254    0.043566
  H     -0.019527   -0.848666    0.744098
  H      3.118264   -0.784147   -1.174441
  H      2.336192   -1.160985    0.441448
  H      0.812461   -2.826564   -0.722643
  H      1.618039   -2.416377   -2.320321

 Total Charge           Charge          ....    0
 Multiplicity           Mult            ....    1
 Number of Electrons    NEL             ....   66
 Basis Dimension        Dim             ....  333

ORBITAL ENERGIES
----------------

  NO   OCC          E(Eh)            E(eV)
   0   2.0000     -20.587571      -560.2163
   1   2.0000     -15.604991      -424.6334
   2   2.0000     -11.393096      -310.0219
   3   2.0000     -11.294331      -307.3344
   4   2.0000     -11.276252      -306.8424
   5   2.0000     -11.262317      -306.4632
   6   2.0000     -11.257758      -306.3392
   7   2.0000     -11.251413      -306.1665
   8   2.0000     -11.230424      -305.5954
   9   2.0000      -1.433170       -38.9985
  10   2.0000      -1.242387       -33.8071
  11   2.0000      -1.188689       -32.3459
  12   2.0000      -1.051046       -28.6004
  13   2.0000      -0.978231       -26.6190
  14   2.0000      -0.883008       -24.0279
  15   2.0000      -0.853555       -23.2264
  16   2.0000      -0.821297       -22.3486
  17   2.0000      -0.716000       -19.4834
  18   2.0000      -0.694713       -18.9041
  19   2.0000      -0.658382       -17.9155
  20   2.0000      -0.620119       -16.8743
  21   2.0000      -0.610662       -16.6170
  22   2.0000      -0.597549       -16.2601
  23   2.0000      -0.591005       -16.0821
  24   2.0000      -0.554904       -15.0997
  25   2.0000      -0.539517       -14.6810
  26   2.0000      -0.531906       -14.4739
  27   2.0000      -0.516526       -14.0554
  28   2.0000      -0.493943       -13.4409
  29   2.0000      -0.484505       -13.1840
  30   2.0000      -0.474859       -12.9216
  31   2.0000      -0.451030       -12.2732
  32   2.0000      -0.423548       -11.5253
  33   0.0000       0.059198         1.6109
  34   0.0000       0.129181         3.5152
  35   0.0000       0.150545         4.0965
  36   0.0000       0.157447         4.2843
  37   0.0000       0.163822         4.4578

MULLIKEN ATOMIC CHARGES
-----------------------
   0 C :   -0.408566
   1 C :   -0.212940
   2 C :    0.015018
   3 C :   -0.248338
   4 C :   -0.255605
   5 C :    0.309128
   6 O :   -0.262040
   7 C :   -0.182568
   8 N :   -0.037568
   9 H :    0.143303
  10 H :    0.128609
  11 H :    0.141363
  12 H :    0.140239
  13 H :    0.118593
  14 H :    0.156438
  15 H :    0.147380
  16 H :    0.147215
  17 H :    0.160339
Sum of atomic charges:    0.0000000

LOEWDIN ATOMIC CHARGES
----------------------
   0 C :   -0.304601
   1 C :   -0.244447
   2 C :   -0.210918
   3 C :   -0.171316
   4 C :   -0.180129
   5 C :   -0.291283
   6 O :    0.197029
   7 C :   -0.131899
   8 N :    0.096140
   9 H :    0.126363
  10 H :    0.122638
  11 H :    0.125541
  12 H :    0.149913
  13 H :    0.146780
  14 H :    0.144270
  15 H :    0.138872
  16 H :    0.141173
  17 H :    0.145875

  Mayer bond orders larger than 0.1
B(  0-C ,  1-C ) :   0.9238 B(  0-C ,  9-H ) :   0.9311 B(  0-C , 10-H ) :   0.9371
B(  0-C , 11-H ) :   0.9376 B(  1-C ,  2-C ) :   0.9206 B(  1-C , 12-H ) :   0.9181
B(  1-C , 13-H ) :   0.9279 B(  2-C ,  3-C ) :   0.8146 B(  2-C ,  4-C ) :   0.8311
B(  2-C ,  5-C ) :   0.9789 B(  3-C ,  4-C ) :   0.9343 B(  3-C , 14-H ) :   0.9202
B(  3-C , 15-H ) :   0.9255 B(  4-C , 16-H ) :   0.9302 B(  4-C , 17-H ) :   0.9133
B(  5-C ,  6-O ) :   1.9258 B(  5-C ,  7-C ) :   0.8754 B(  7-C ,  8-N ) :   2.7947

MP2 TOTAL ENERGY:     -401.267765996 Eh
FINAL SINGLE POINT ENERGY      -401.267765995842

DIPOLE MOMENT
-------------
                                X             Y             Z
Electronic contribution:      3.36832       6.72564      -7.53064
Nuclear contribution   :     -3.25049      -7.90715       8.69949
                        -----------------------------------------
Total Dipole Moment    :      0.11783      -1.18151       1.16885
                        -----------------------------------------
Magnitude (a.u.)       :      1.66615
Magnitude (Debye)      :      4.23502

                             ****ORCA TERMINATED NORMALLY****
TOTAL RUN TIME: 0 days 0 hours 17 minutes 57 seconds 388 msec
