                         Program Version 3.0.3 - RELEASE   -
|  1> ! RI-MP2 RIJK def2-TZVP def2-TZVP/C def2-TZVP/JK TIGHTSCF
|  2> % maxcore 2000
|  3> % mp2 density relaxed end
|  4> *xyz 0 1
|  5>  C        0.3899962482     0.0169180706    -0.8133844887
|  6>  C       -0.5590544112    -0.2964136975     0.3554990987
|  7>  O        0.0700513170    -0.0663282732     1.5895581651
|  8>  C       -1.8339398954     0.5404778370     0.2701486361
|  9>  O       -2.0993093297     1.3192515821     1.1623382952
| 10>  C       -2.7374571311     0.4242216176    -0.9516775306
| 11>  N       -2.7125521921    -0.9024694505    -1.5483702391
| 12>  C       -3.7356503444    -1.8402028896    -1.0862221483
| 13>  C       -3.8218015838    -1.2262760878    -2.4393828741
| 14>  H        1.3173586103    -0.5425691297    -0.6687379685
| 15>  H       -0.0548974889    -0.2775344253    -1.7668414428
| 16>  H        0.6376171895     1.0829867533    -0.8344997754
| 17>  H       -0.8582377789    -1.3528577109     0.2773934985
| 18>  H       -0.4563496627     0.6264871315     2.0199058871
| 19>  H       -3.7423175677     0.7638190381    -0.6522392512
| 20>  H       -2.3634397728     1.1423903523    -1.6950233818
| 21>  H       -3.4114100634    -2.8693986653    -0.9664973454
| 22>  H       -4.4425697965    -1.4916260681    -0.3353312633
| 23>  H       -4.5886470080    -0.4690920326    -2.5933568760
| 24>  H       -3.5620259083    -1.7998240421    -3.3240735154
| 25> *
| 26>
| 27>                          ****END OF INPUT****

CARTESIAN COORDINATES (ANGSTROEM)
---------------------------------
  C      0.389996    0.016918   -0.813384
  C     -0.559054   -0.296414    0.355499
  O      0.070051   -0.066328    1.589558
  C     -1.833940    0.540478    0.270149
  O     -2.099309    1.319252    1.162338
  C     -2.737457    0.424222   -0.951678
  N     -2.712552   -0.902469   -1.548370
  C     -3.735650   -1.840203   -1.086222
  C     -3.821802   -1.226276   -2.439383
  H      1.317359   -0.542569   -0.668738
  H     -0.054897   -0.277534   -1.766841
  H      0.637617    1.082987   -0.834500
  H     -0.858238   -1.352858    0.277393
  H     -0.456350    0.626487    2.019906
  H     -3.742318    0.763819   -0.652239
  H     -2.363440    1.142390   -1.695023
  H     -3.411410   -2.869399   -0.966497
  H     -4.442570   -1.491626   -0.335331
  H     -4.588647   -0.469092   -2.593357
  H     -3.562026   -1.799824   -3.324074

 Total Charge           Charge          ....    0
 Multiplicity           Mult            ....    1
 Number of Electrons    NEL             ....   70
 Basis Dimension        Dim             ....  345

ORBITAL ENERGIES
----------------

  NO   OCC          E(Eh)            E(eV)
   0   2.0000     -20.562619      -559.5373
   1   2.0000     -20.544505      -559.0444
   2   2.0000     -15.583320      -424.0437
   3   2.0000     -11.340019      -308.5776
   4   2.0000     -11.288382      -307.1725
   5   2.0000     -11.281654      -306.9894
   6   2.0000     -11.274290      -306.7890
   7   2.0000     -11.272946      -306.7524
   8   2.0000     -11.220617      -305.3285
   9   2.0000      -1.413901       -38.4742
  10   2.0000      -1.351365       -36.7725
  11   2.0000      -1.296578       -35.2817
  12   2.0000      -1.062066       -28.9003
  13   2.0000      -1.009132       -27.4599
  14   2.0000      -0.889350       -24.2004
  15   2.0000      -0.862181       -23.4611
  16   2.0000      -0.855078       -23.2679
  17   2.0000      -0.760867       -20.7042
  18   2.0000      -0.717599       -19.5269
  19   2.0000      -0.694642       -18.9022
  20   2.0000      -0.668939       -18.2028
  21   2.0000      -0.655956       -17.8495
  22   2.0000      -0.630397       -17.1540
  23   2.0000      -0.609890       -16.5959
  24   2.0000      -0.575912       -15.6714
  25   2.0000      -0.552350       -15.0302
  26   2.0000      -0.546290       -14.8653
  27   2.0000      -0.533446       -14.5158
  28   2.0000      -0.528323       -14.3764
  29   2.0000      -0.519128       -14.1262
  30   2.0000      -0.493164       -13.4197
  31   2.0000      -0.483690       -13.1619
  32   2.0000      -0.438187       -11.9237
  33   2.0000      -0.421917       -11.4809
  34   2.0000      -0.398131       -10.8337
  35   0.0000       0.126627         3.4457
  36   0.0000       0.134571         3.6619
  37   0.0000       0.151507         4.1227
  38   0.0000       0.155701         4.2369
  39   0.0000       0.171435         4.6650

MULLIKEN ATOMIC CHARGES
-----------------------
   0 C :   -0.398636
   1 C :    0.140067
   2 O :   -0.481852
   3 C :    0.140397
   4 O :   -0.313903
   5 C :   -0.120939
   6 N :   -0.245971
   7 C :   -0.194199
   8 C :   -0.179453
   9 H :    0.142888
  10 H :    0.141806
  11 H :    0.120333
  12 H :    0.095634
  13 H :    0.332782
  14 H :    0.130863
  15 H :    0.148517
  16 H :    0.140568
  17 H :    0.135791
  18 H :    0.127368
  19 H :    0.137940
Sum of atomic charges:   -0.0000000

LOEWDIN ATOMIC CHARGES
----------------------
   0 C :   -0.286199
   1 C :   -0.359672
   2 O :   -0.011480
   3 C :   -0.298901
   4 O :    0.143092
   5 C :   -0.263761
   6 N :    0.089479
   7 C :   -0.263391
   8 C :   -0.262464
   9 H :    0.130208
  10 H :    0.127152
  11 H :    0.124172
  12 H :    0.152416
  13 H :    0.179993
  14 H :    0.139711
  15 H :    0.154576
  16 H :    0.126872
  17 H :    0.126052
  18 H :    0.125181
  19 H :    0.126965

  Mayer bond orders larger than 0.1
B(  0-C ,  1-C ) :   0.8602 B(  0-C ,  9-H ) :   0.9305 B(  0-C , 10-H ) :   0.9184
B(  0-C , 11-H ) :   0.9295 B(  1-C ,  2-O ) :   1.0643 B(  1-C ,  3-C ) :   0.9524
B(  1-C , 12-H ) :   0.9111 B(  2-O , 13-H ) :   0.8029 B(  3-C ,  4-O ) :   1.9310
B(  3-C ,  5-C ) :   0.9016 B(  5-C ,  6-N ) :   0.8751 B(  5-C , 14-H ) :   0.9074
B(  5-C , 15-H ) :   0.8929 B(  6-N ,  7-C ) :   0.8653 B(  6-N ,  8-C ) :   0.8904
B(  7-C ,  8-C ) :   0.9409 B(  7-C , 16-H ) :   0.9298 B(  7-C , 17-H ) :   0.9226
B(  8-C , 18-H ) :   0.9260 B(  8-C , 19-H ) :   0.9268

MP2 TOTAL ENERGY:     -439.545070241 Eh
FINAL SINGLE POINT ENERGY      -439.545070240943

DIPOLE MOMENT
-------------
                                X             Y             Z
Electronic contribution:      0.09836       2.44155       5.21225
Nuclear contribution   :     -1.00825      -2.73436      -6.30265
                        -----------------------------------------
Total Dipole Moment    :     -0.90989      -0.29281      -1.09040
                        -----------------------------------------
Magnitude (a.u.)       :      1.45004
Magnitude (Debye)      :      3.68570

                             ****ORCA TERMINATED NORMALLY****
TOTAL RUN TIME: 0 days 0 hours 17 minutes 57 seconds 582 msec
