                         Program Version 3.0.3 - RELEASE   -
|  1> ! RI-MP2 RIJK def2-TZVP def2-TZVP/C def2-TZVP/JK TIGHTSCF
|  2> % maxcore 2000
|  3> % mp2 density relaxed end
|  4> *xyz 0 1
|  5>  C        0.2684582686     1.3533417173     0.2794294724
|  6>  C        0.0153818678    -0.0898540658    -0.0882795195
|  7>  C        0.8133474416    -0.7583562863    -1.1698113681
|  8>  N        0.9724233773    -1.1333340011     0.2286176735
|  9>  C        2.1291391034    -0.9117537980     0.9870764704
| 10>  N        3.2606088564    -1.4712902694     0.4267618812
| 11>  O        2.1315689401    -0.3185928136     2.0454719205
| 12>  H        1.2964222033     1.6498423849     0.0552948001
| 13>  H       -0.4102163081     2.0017931862    -0.2844115145
| 14>  H        0.1044141637     1.5157519693     1.3472582272
| 15>  H       -1.0170499486    -0.4142216813     0.0340427849
| 16>  H        0.3603046523    -1.5066428298    -1.8156562109
| 17>  H        1.6097703522    -0.1757259237    -1.6282915320
| 18>  H        3.1387588772    -2.2158583536    -0.2413982517
| 19>  H        4.0285879527    -1.5822835552     1.0703754464
| 20> *
| 21>
| 22>                          ****END OF INPUT****

CARTESIAN COORDINATES (ANGSTROEM)
---------------------------------
  C      0.268458    1.353342    0.279429
  C      0.015382   -0.089854   -0.088280
  C      0.813347   -0.758356   -1.169811
  N      0.972423   -1.133334    0.228618
  C      2.129139   -0.911754    0.987076
  N      3.260609   -1.471290    0.426762
  O      2.131569   -0.318593    2.045472
  H      1.296422    1.649842    0.055295
  H     -0.410216    2.001793   -0.284412
  H      0.104414    1.515752    1.347258
  H     -1.017050   -0.414222    0.034043
  H      0.360305   -1.506643   -1.815656
  H      1.609770   -0.175726   -1.628292
  H      3.138759   -2.215858   -0.241398
  H      4.028588   -1.582284    1.070375

 Total Charge           Charge          ....    0
 Multiplicity           Mult            ....    1
 Number of Electrons    NEL             ....   54
 Basis Dimension        Dim             ....  265

ORBITAL ENERGIES
----------------

  NO   OCC          E(Eh)            E(eV)
   0   2.0000     -20.513091      -558.1896
   1   2.0000     -15.579842      -423.9491
   2   2.0000     -15.578932      -423.9243
   3   2.0000     -11.373931      -309.5004
   4   2.0000     -11.278940      -306.9156
   5   2.0000     -11.274912      -306.8059
   6   2.0000     -11.222280      -305.3738
   7   2.0000      -1.394222       -37.9387
   8   2.0000      -1.288889       -35.0725
   9   2.0000      -1.204900       -32.7870
  10   2.0000      -1.008203       -27.4346
  11   2.0000      -0.946981       -25.7687
  12   2.0000      -0.834475       -22.7072
  13   2.0000      -0.766104       -20.8468
  14   2.0000      -0.716522       -19.4976
  15   2.0000      -0.687183       -18.6992
  16   2.0000      -0.680225       -18.5099
  17   2.0000      -0.620740       -16.8912
  18   2.0000      -0.588790       -16.0218
  19   2.0000      -0.564785       -15.3686
  20   2.0000      -0.558225       -15.1901
  21   2.0000      -0.524417       -14.2701
  22   2.0000      -0.501128       -13.6364
  23   2.0000      -0.482956       -13.1419
  24   2.0000      -0.433946       -11.8083
  25   2.0000      -0.418170       -11.3790
  26   2.0000      -0.394196       -10.7266
  27   0.0000       0.130601         3.5538
  28   0.0000       0.153075         4.1654
  29   0.0000       0.173158         4.7119
  30   0.0000       0.177871         4.8401
  31   0.0000       0.188371         5.1258

MULLIKEN ATOMIC CHARGES
-----------------------
   0 C :   -0.384460
   1 C :   -0.012402
   2 C :   -0.200409
   3 N :   -0.214567
   4 C :    0.337597
   5 N :   -0.508324
   6 O :   -0.360465
   7 H :    0.130226
   8 H :    0.133225
   9 H :    0.154532
  10 H :    0.123636
  11 H :    0.134921
  12 H :    0.141980
  13 H :    0.261422
  14 H :    0.263086
Sum of atomic charges:    0.0000000

LOEWDIN ATOMIC CHARGES
----------------------
   0 C :   -0.291400
   1 C :   -0.257175
   2 C :   -0.229111
   3 N :    0.166700
   4 C :   -0.558758
   5 N :   -0.048846
   6 O :    0.080057
   7 H :    0.130327
   8 H :    0.128273
   9 H :    0.135050
  10 H :    0.143640
  11 H :    0.124441
  12 H :    0.130012
  13 H :    0.171768
  14 H :    0.175020

  Mayer bond orders larger than 0.1
B(  0-C ,  1-C ) :   0.9370 B(  0-C ,  7-H ) :   0.9322 B(  0-C ,  8-H ) :   0.9277
B(  0-C ,  9-H ) :   0.9308 B(  1-C ,  2-C ) :   0.9336 B(  1-C ,  3-N ) :   0.8952
B(  1-C , 10-H ) :   0.9172 B(  2-C ,  3-N ) :   0.8504 B(  2-C , 11-H ) :   0.9218
B(  2-C , 12-H ) :   0.9154 B(  3-N ,  4-C ) :   1.0146 B(  4-C ,  5-N ) :   1.1021
B(  4-C ,  6-O ) :   1.9822 B(  5-N , 13-H ) :   0.8651 B(  5-N , 14-H ) :   0.8685

MP2 TOTAL ENERGY:     -341.288214434 Eh
FINAL SINGLE POINT ENERGY      -341.288214433950

DIPOLE MOMENT
-------------
                                X             Y             Z
Electronic contribution:      2.11404      -3.23199       3.13940
Nuclear contribution   :     -2.02847       2.84880      -4.38735
                        -----------------------------------------
Total Dipole Moment    :      0.08556      -0.38320      -1.24795
                        -----------------------------------------
Magnitude (a.u.)       :      1.30826
Magnitude (Debye)      :      3.32534

                             ****ORCA TERMINATED NORMALLY****
TOTAL RUN TIME: 0 days 0 hours 7 minutes 38 seconds 902 msec
