                         Program Version 3.0.3 - RELEASE   -
|  1> ! RI-MP2 RIJK def2-TZVP def2-TZVP/C def2-TZVP/JK TIGHTSCF
|  2> % maxcore 2000
|  3> % mp2 density relaxed end
|  4> *xyz 0 1
|  5>  C       -0.7436633274     1.2105943148    -0.0808103672
|  6>  C       -0.0962072556    -0.1682024009    -0.0428442819
|  7>  C        1.0610984835    -0.5496054341    -1.0235310261
|  8>  C        1.8461320745     0.5946975036    -1.6425170608
|  9>  O        2.9386142655     0.0221645500    -2.3502043013
| 10>  C        1.7797076207    -1.2697961005     0.1523367050
| 11>  C        0.7959299274    -0.5983174887     1.1616379801
| 12>  C        1.4109407207     0.5220352796     1.9947341263
| 13>  O        0.0695065092    -1.4858421251     2.0007507721
| 14>  H       -0.0138962564     2.0220920516     0.0024375197
| 15>  H       -1.2954662578     1.3575141901    -1.0156760649
| 16>  H       -1.4583323910     1.3226962279     0.7415571341
| 17>  H       -0.8784216886    -0.9290580731    -0.1226628002
| 18>  H        0.7562047171    -1.2114905764    -1.8386718232
| 19>  H        1.1948805902     1.1725160027    -2.3180704383
| 20>  H        2.2068650251     1.2904170766    -0.8679994893
| 21>  H        3.4535144636     0.7364984121    -2.7365206684
| 22>  H        1.6389929441    -2.3525483518     0.1353814591
| 23>  H        2.8441061447    -1.0483725414     0.2694525352
| 24>  H        1.9459328551     1.2511642039     1.3799761054
| 25>  H        0.6396558278     1.0483871599     2.5652780664
| 26>  H        2.1375743216     0.1052718439     2.7043365760
| 27>  H        0.6434219159    -1.7465791348     2.7295822522
| 28> *
| 29>
| 30>                          ****END OF INPUT****

CARTESIAN COORDINATES (ANGSTROEM)
---------------------------------
  C     -0.743663    1.210594   -0.080810
  C     -0.096207   -0.168202   -0.042844
  C      1.061098   -0.549605   -1.023531
  C      1.846132    0.594698   -1.642517
  O      2.938614    0.022165   -2.350204
  C      1.779708   -1.269796    0.152337
  C      0.795930   -0.598317    1.161638
  C      1.410941    0.522035    1.994734
  O      0.069507   -1.485842    2.000751
  H     -0.013896    2.022092    0.002438
  H     -1.295466    1.357514   -1.015676
  H     -1.458332    1.322696    0.741557
  H     -0.878422   -0.929058   -0.122663
  H      0.756205   -1.211491   -1.838672
  H      1.194881    1.172516   -2.318070
  H      2.206865    1.290417   -0.867999
  H      3.453514    0.736498   -2.736521
  H      1.638993   -2.352548    0.135381
  H      2.844106   -1.048373    0.269453
  H      1.945933    1.251164    1.379976
  H      0.639656    1.048387    2.565278
  H      2.137574    0.105272    2.704337
  H      0.643422   -1.746579    2.729582

 Total Charge           Charge          ....    0
 Multiplicity           Mult            ....    1
 Number of Electrons    NEL             ....   72
 Basis Dimension        Dim             ....  363

ORBITAL ENERGIES
----------------

  NO   OCC          E(Eh)            E(eV)
   0   2.0000     -20.554267      -559.3100
   1   2.0000     -20.548561      -559.1548
   2   2.0000     -11.278437      -306.9019
   3   2.0000     -11.273631      -306.7711
   4   2.0000     -11.221107      -305.3419
   5   2.0000     -11.220005      -305.3118
   6   2.0000     -11.218365      -305.2672
   7   2.0000     -11.213788      -305.1427
   8   2.0000     -11.209492      -305.0258
   9   2.0000      -1.358450       -36.9653
  10   2.0000      -1.356802       -36.9205
  11   2.0000      -1.128552       -30.7095
  12   2.0000      -0.992115       -26.9968
  13   2.0000      -0.984597       -26.7922
  14   2.0000      -0.933547       -25.4031
  15   2.0000      -0.849714       -23.1219
  16   2.0000      -0.806411       -21.9435
  17   2.0000      -0.720072       -19.5942
  18   2.0000      -0.691430       -18.8148
  19   2.0000      -0.677175       -18.4269
  20   2.0000      -0.649454       -17.6725
  21   2.0000      -0.620545       -16.8859
  22   2.0000      -0.608467       -16.5572
  23   2.0000      -0.592741       -16.1293
  24   2.0000      -0.569964       -15.5095
  25   2.0000      -0.554553       -15.0901
  26   2.0000      -0.550463       -14.9788
  27   2.0000      -0.538499       -14.6533
  28   2.0000      -0.518316       -14.1041
  29   2.0000      -0.504944       -13.7402
  30   2.0000      -0.491678       -13.3792
  31   2.0000      -0.453096       -12.3294
  32   2.0000      -0.450993       -12.2721
  33   2.0000      -0.438175       -11.9234
  34   2.0000      -0.412184       -11.2161
  35   2.0000      -0.403676       -10.9846
  36   0.0000       0.128009         3.4833
  37   0.0000       0.141671         3.8551
  38   0.0000       0.151281         4.1166
  39   0.0000       0.165864         4.5134
  40   0.0000       0.187045         5.0897

MULLIKEN ATOMIC CHARGES
-----------------------
   0 C :   -0.416882
   1 C :   -0.008022
   2 C :   -0.062193
   3 C :   -0.131298
   4 O :   -0.464205
   5 C :   -0.194275
   6 C :    0.166724
   7 C :   -0.473249
   8 O :   -0.460009
   9 H :    0.119241
  10 H :    0.139475
  11 H :    0.144224
  12 H :    0.102057
  13 H :    0.103349
  14 H :    0.104459
  15 H :    0.088915
  16 H :    0.313780
  17 H :    0.112360
  18 H :    0.111664
  19 H :    0.122893
  20 H :    0.144300
  21 H :    0.127999
  22 H :    0.308693
Sum of atomic charges:   -0.0000000

LOEWDIN ATOMIC CHARGES
----------------------
   0 C :   -0.298142
   1 C :   -0.193170
   2 C :   -0.210233
   3 C :   -0.334584
   4 O :   -0.044696
   5 C :   -0.181647
   6 C :   -0.360013
   7 C :   -0.283479
   8 O :   -0.000149
   9 H :    0.120806
  10 H :    0.125875
  11 H :    0.128936
  12 H :    0.161220
  13 H :    0.146587
  14 H :    0.118264
  15 H :    0.113515
  16 H :    0.170828
  17 H :    0.137678
  18 H :    0.132428
  19 H :    0.124053
  20 H :    0.128568
  21 H :    0.124722
  22 H :    0.172633

  Mayer bond orders larger than 0.1
B(  0-C ,  1-C ) :   0.8973 B(  0-C ,  9-H ) :   0.9304 B(  0-C , 10-H ) :   0.9429
B(  0-C , 11-H ) :   0.9408 B(  1-C ,  2-C ) :   0.8908 B(  1-C ,  6-C ) :   0.8691
B(  1-C , 12-H ) :   0.9151 B(  2-C ,  3-C ) :   0.9213 B(  2-C ,  5-C ) :   0.9268
B(  2-C , 13-H ) :   0.9111 B(  3-C ,  4-O ) :   1.0295 B(  3-C , 14-H ) :   0.9334
B(  3-C , 15-H ) :   0.9208 B(  4-O , 16-H ) :   0.8488 B(  5-C ,  6-C ) :   0.9184
B(  5-C , 17-H ) :   0.9023 B(  5-C , 18-H ) :   0.9181 B(  6-C ,  7-C ) :   0.9252
B(  6-C ,  8-O ) :   1.0329 B(  7-C , 19-H ) :   0.9301 B(  7-C , 20-H ) :   0.9441
B(  7-C , 21-H ) :   0.9230 B(  8-O , 22-H ) :   0.8433

MP2 TOTAL ENERGY:     -424.719901407 Eh
FINAL SINGLE POINT ENERGY      -424.719901406728

DIPOLE MOMENT
-------------
                                X             Y             Z
Electronic contribution:      1.03217      -4.42855      -1.16701
Nuclear contribution   :     -0.62167       5.18453       1.29158
                        -----------------------------------------
Total Dipole Moment    :      0.41051       0.75598       0.12457
                        -----------------------------------------
Magnitude (a.u.)       :      0.86922
Magnitude (Debye)      :      2.20937

                             ****ORCA TERMINATED NORMALLY****
TOTAL RUN TIME: 0 days 0 hours 32 minutes 36 seconds 840 msec
