                         Program Version 3.0.3 - RELEASE   -
|  1> ! RI-MP2 RIJK def2-TZVP def2-TZVP/C def2-TZVP/JK TIGHTSCF
|  2> % maxcore 2000
|  3> % mp2 density relaxed end
|  4> *xyz 0 1
|  5>  C       -0.1565966582     1.6362157483    -0.0601765330
|  6>  C        0.0031676101     0.1210622029    -0.0010576282
|  7>  C        0.9541790522    -0.5828844574    -1.0875534671
|  8>  C        1.8907435601    -0.9100328467     0.1027086784
|  9>  C        2.5797840267    -1.8020024655     1.1893354945
| 10>  N        2.1136480895    -0.5532563979     2.0106199569
| 11>  C        2.6464856225     0.2388173428     0.8160397829
| 12>  C        0.8076206186    -0.7007841261     1.1132286792
| 13>  H        0.7859114395     2.1676985696    -0.2087783582
| 14>  H       -0.8120733476     1.9069021558    -0.8958847988
| 15>  H       -0.6173733160     2.0151979919     0.8578515524
| 16>  H       -1.0005444463    -0.3142754812    -0.0273362396
| 17>  H        0.4713482446    -1.4520209015    -1.5417218791
| 18>  H        1.3613167682     0.0547110887    -1.8783152205
| 19>  H        2.0747506442    -2.7290007837     1.4721464227
| 20>  H        3.6689534676    -1.9132250616     1.1965398720
| 21>  H        3.7387160911     0.2414199636     0.7430265470
| 22>  H        2.2593369288     1.2548722759     0.7682922632
| 23>  H        0.2180509444    -1.5519223280     1.4634177452
| 24> *
| 25>
| 26>                          ****END OF INPUT****

CARTESIAN COORDINATES (ANGSTROEM)
---------------------------------
  C     -0.156597    1.636216   -0.060177
  C      0.003168    0.121062   -0.001058
  C      0.954179   -0.582884   -1.087553
  C      1.890744   -0.910033    0.102709
  C      2.579784   -1.802002    1.189335
  N      2.113648   -0.553256    2.010620
  C      2.646486    0.238817    0.816040
  C      0.807621   -0.700784    1.113229
  H      0.785911    2.167699   -0.208778
  H     -0.812073    1.906902   -0.895885
  H     -0.617373    2.015198    0.857852
  H     -1.000544   -0.314275   -0.027336
  H      0.471348   -1.452021   -1.541722
  H      1.361317    0.054711   -1.878315
  H      2.074751   -2.729001    1.472146
  H      3.668953   -1.913225    1.196540
  H      3.738716    0.241420    0.743027
  H      2.259337    1.254872    0.768292
  H      0.218051   -1.551922    1.463418

 Total Charge           Charge          ....    0
 Multiplicity           Mult            ....    1
 Number of Electrons    NEL             ....   60
 Basis Dimension        Dim             ....  314

ORBITAL ENERGIES
----------------

  NO   OCC          E(Eh)            E(eV)
   0   2.0000     -15.570930      -423.7065
   1   2.0000     -11.268364      -306.6278
   2   2.0000     -11.250814      -306.1502
   3   2.0000     -11.248854      -306.0969
   4   2.0000     -11.247347      -306.0559
   5   2.0000     -11.241176      -305.8879
   6   2.0000     -11.238597      -305.8178
   7   2.0000     -11.221530      -305.3534
   8   2.0000      -1.286373       -35.0040
   9   2.0000      -1.092651       -29.7326
  10   2.0000      -0.975169       -26.5357
  11   2.0000      -0.919330       -25.0162
  12   2.0000      -0.902756       -24.5652
  13   2.0000      -0.853229       -23.2175
  14   2.0000      -0.800928       -21.7944
  15   2.0000      -0.714182       -19.4339
  16   2.0000      -0.661315       -17.9953
  17   2.0000      -0.617528       -16.8038
  18   2.0000      -0.601755       -16.3746
  19   2.0000      -0.583192       -15.8694
  20   2.0000      -0.569494       -15.4967
  21   2.0000      -0.556594       -15.1457
  22   2.0000      -0.521341       -14.1864
  23   2.0000      -0.505968       -13.7681
  24   2.0000      -0.482735       -13.1359
  25   2.0000      -0.467211       -12.7135
  26   2.0000      -0.442332       -12.0365
  27   2.0000      -0.433993       -11.8096
  28   2.0000      -0.400934       -10.9100
  29   2.0000      -0.336391        -9.1537
  30   0.0000       0.135064         3.6753
  31   0.0000       0.147094         4.0026
  32   0.0000       0.162833         4.4309
  33   0.0000       0.172382         4.6908
  34   0.0000       0.189463         5.1556

MULLIKEN ATOMIC CHARGES
-----------------------
   0 C :   -0.402161
   1 C :   -0.076672
   2 C :   -0.243871
   3 C :   -0.026914
   4 C :   -0.108935
   5 N :   -0.188042
   6 C :   -0.159177
   7 C :   -0.080721
   8 H :    0.118226
   9 H :    0.135522
  10 H :    0.143066
  11 H :    0.108117
  12 H :    0.118546
  13 H :    0.122016
  14 H :    0.114311
  15 H :    0.114471
  16 H :    0.107366
  17 H :    0.109304
  18 H :    0.095546
Sum of atomic charges:   -0.0000000

LOEWDIN ATOMIC CHARGES
----------------------
   0 C :   -0.304979
   1 C :   -0.206497
   2 C :   -0.183862
   3 C :   -0.228540
   4 C :   -0.197832
   5 N :    0.090409
   6 C :   -0.212082
   7 C :   -0.169721
   8 H :    0.118217
   9 H :    0.126286
  10 H :    0.129203
  11 H :    0.148904
  12 H :    0.133591
  13 H :    0.127565
  14 H :    0.123786
  15 H :    0.121646
  16 H :    0.122565
  17 H :    0.124705
  18 H :    0.136637

  Mayer bond orders larger than 0.1
B(  0-C ,  1-C ) :   0.9219 B(  0-C ,  8-H ) :   0.9321 B(  0-C ,  9-H ) :   0.9350
B(  0-C , 10-H ) :   0.9369 B(  1-C ,  2-C ) :   0.9074 B(  1-C ,  7-C ) :   0.8731
B(  1-C , 11-H ) :   0.9199 B(  2-C ,  3-C ) :   0.8928 B(  2-C , 12-H ) :   0.9076
B(  2-C , 13-H ) :   0.9190 B(  3-C ,  4-C ) :   0.9038 B(  3-C ,  6-C ) :   0.9506
B(  3-C ,  7-C ) :   0.8935 B(  4-C ,  5-N ) :   0.9032 B(  4-C , 14-H ) :   0.9182
B(  4-C , 15-H ) :   0.9208 B(  5-N ,  6-C ) :   0.9232 B(  5-N ,  7-C ) :   0.8995
B(  6-C , 16-H ) :   0.9258 B(  6-C , 17-H ) :   0.9111 B(  7-C , 18-H ) :   0.9340

MP2 TOTAL ENERGY:     -327.178583355 Eh
FINAL SINGLE POINT ENERGY      -327.178583355027

DIPOLE MOMENT
-------------
                                X             Y             Z
Electronic contribution:      2.21097      -2.80357       2.53967
Nuclear contribution   :     -2.46132       2.73203      -3.36403
                        -----------------------------------------
Total Dipole Moment    :     -0.25035      -0.07154      -0.82437
                        -----------------------------------------
Magnitude (a.u.)       :      0.86451
Magnitude (Debye)      :      2.19740

                             ****ORCA TERMINATED NORMALLY****
TOTAL RUN TIME: 0 days 0 hours 14 minutes 54 seconds 498 msec
