                         Program Version 3.0.3 - RELEASE   -
|  1> ! RI-MP2 RIJK def2-TZVP def2-TZVP/C def2-TZVP/JK TIGHTSCF
|  2> % maxcore 2000
|  3> % mp2 density relaxed end
|  4> *xyz 0 1
|  5>  N       -0.0001698372     1.3722197048     0.0092952124
|  6>  C       -0.0594653250     0.0294727898     0.0020410261
|  7>  C       -1.2631110057    -0.6556712512     0.0051942396
|  8>  C       -1.4889720153    -2.0380073783    -0.0007932139
|  9>  C       -0.5840691255    -3.0786241097    -0.0110507089
| 10>  N        0.7610987530    -3.0485789694    -0.0179317709
| 11>  C        1.5384866156    -2.0037626846    -0.0169712862
| 12>  C        1.3055704623    -0.5659049555    -0.0090283374
| 13>  O        2.2644905682     0.2134322252    -0.0111767231
| 14>  H        0.9331381276     1.7636344849     0.0037344207
| 15>  H       -0.8179912334     1.9540853545     0.0139095586
| 16>  H       -2.1567221628    -0.0340913190     0.0134370362
| 17>  H       -2.5352293584    -2.3352219482     0.0033360298
| 18>  H       -0.9980699636    -4.0847699402    -0.0140932271
| 19>  H        2.6100642002    -2.2126162431    -0.0236185259
| 20> *
| 21>
| 22>                          ****END OF INPUT****

CARTESIAN COORDINATES (ANGSTROEM)
---------------------------------
  N     -0.000170    1.372220    0.009295
  C     -0.059465    0.029473    0.002041
  C     -1.263111   -0.655671    0.005194
  C     -1.488972   -2.038007   -0.000793
  C     -0.584069   -3.078624   -0.011051
  N      0.761099   -3.048579   -0.017932
  C      1.538487   -2.003763   -0.016971
  C      1.305570   -0.565905   -0.009028
  O      2.264491    0.213432   -0.011177
  H      0.933138    1.763634    0.003734
  H     -0.817991    1.954085    0.013910
  H     -2.156722   -0.034091    0.013437
  H     -2.535229   -2.335222    0.003336
  H     -0.998070   -4.084770   -0.014093
  H      2.610064   -2.212616   -0.023619

 Total Charge           Charge          ....    0
 Multiplicity           Mult            ....    1
 Number of Electrons    NEL             ....   64
 Basis Dimension        Dim             ....  315

ORBITAL ENERGIES
----------------

  NO   OCC          E(Eh)            E(eV)
   0   2.0000     -20.539821      -558.9169
   1   2.0000     -15.592155      -424.2841
   2   2.0000     -15.590400      -424.2364
   3   2.0000     -11.342201      -308.6370
   4   2.0000     -11.323371      -308.1246
   5   2.0000     -11.286958      -307.1337
   6   2.0000     -11.271251      -306.7063
   7   2.0000     -11.267788      -306.6121
   8   2.0000     -11.260319      -306.4089
   9   2.0000      -1.386681       -37.7335
  10   2.0000      -1.260451       -34.2986
  11   2.0000      -1.253203       -34.1014
  12   2.0000      -1.096168       -29.8283
  13   2.0000      -1.032050       -28.0835
  14   2.0000      -0.919707       -25.0265
  15   2.0000      -0.913077       -24.8461
  16   2.0000      -0.805607       -21.9217
  17   2.0000      -0.765174       -20.8214
  18   2.0000      -0.716857       -19.5067
  19   2.0000      -0.689631       -18.7658
  20   2.0000      -0.661989       -18.0136
  21   2.0000      -0.630162       -17.1476
  22   2.0000      -0.618905       -16.8413
  23   2.0000      -0.591967       -16.1082
  24   2.0000      -0.571740       -15.5578
  25   2.0000      -0.542438       -14.7605
  26   2.0000      -0.513265       -13.9666
  27   2.0000      -0.500538       -13.6203
  28   2.0000      -0.463958       -12.6249
  29   2.0000      -0.413349       -11.2478
  30   2.0000      -0.397721       -10.8225
  31   2.0000      -0.288769        -7.8578
  32   0.0000       0.049420         1.3448
  33   0.0000       0.061294         1.6679
  34   0.0000       0.126594         3.4448
  35   0.0000       0.151464         4.1215
  36   0.0000       0.177147         4.8204

MULLIKEN ATOMIC CHARGES
-----------------------
   0 N :   -0.445792
   1 C :    0.133054
   2 C :   -0.192866
   3 C :   -0.107630
   4 C :   -0.019301
   5 N :   -0.243029
   6 C :   -0.043234
   7 C :    0.266308
   8 O :   -0.400056
   9 H :    0.287891
  10 H :    0.251852
  11 H :    0.119009
  12 H :    0.129583
  13 H :    0.127475
  14 H :    0.136734
Sum of atomic charges:   -0.0000000

LOEWDIN ATOMIC CHARGES
----------------------
   0 N :    0.034709
   1 C :   -0.201922
   2 C :   -0.127791
   3 C :   -0.154498
   4 C :   -0.222403
   5 N :    0.137441
   6 C :   -0.173384
   7 C :   -0.341930
   8 O :    0.079658
   9 H :    0.188590
  10 H :    0.172840
  11 H :    0.155470
  12 H :    0.158461
  13 H :    0.144469
  14 H :    0.150289

  Mayer bond orders larger than 0.1
B(  0-N ,  1-C ) :   1.2282 B(  0-N ,  9-H ) :   0.8189 B(  0-N , 10-H ) :   0.8715
B(  1-C ,  2-C ) :   1.3034 B(  1-C ,  7-C ) :   0.9692 B(  2-C ,  3-C ) :   1.3154
B(  2-C , 11-H ) :   0.9175 B(  3-C ,  4-C ) :   1.3316 B(  3-C , 12-H ) :   0.9123
B(  4-C ,  5-N ) :   1.2947 B(  4-C , 13-H ) :   0.9548 B(  5-N ,  6-C ) :   1.5379
B(  6-C ,  7-C ) :   1.0715 B(  6-C , 14-H ) :   0.9415 B(  7-C ,  8-O ) :   1.6656

MP2 TOTAL ENERGY:     -416.125439229 Eh
FINAL SINGLE POINT ENERGY      -416.125439228870

DIPOLE MOMENT
-------------
                                X             Y             Z
Electronic contribution:      2.80518      -0.28788      -0.01653
Nuclear contribution   :     -4.46976       1.13399       0.02775
                        -----------------------------------------
Total Dipole Moment    :     -1.66459       0.84610       0.01122
                        -----------------------------------------
Magnitude (a.u.)       :      1.86731
Magnitude (Debye)      :      4.74634

                             ****ORCA TERMINATED NORMALLY****
TOTAL RUN TIME: 0 days 0 hours 16 minutes 7 seconds 282 msec
