                         Program Version 3.0.3 - RELEASE   -
|  1> ! RI-MP2 RIJK def2-TZVP def2-TZVP/C def2-TZVP/JK TIGHTSCF
|  2> % maxcore 2000
|  3> % mp2 density relaxed end
|  4> *xyz 0 1
|  5>  C       -0.2052107195    -1.3218156023    -0.0435401065
|  6>  C       -0.1158874480    -0.1228552011     0.0212955905
|  7>  C       -0.0518030140     1.3258793664     0.0247927465
|  8>  C       -0.3064932039     2.0879307960     1.4022416220
|  9>  C        1.2157174252     2.3057124696     1.3917863133
| 10>  C        2.5013403164     3.1696597456     1.2477481743
| 11>  C        2.6817357779     1.8139387671     0.4316564294
| 12>  C        2.1402966625     1.0651716884     1.6558447197
| 13>  N        1.2717059774     2.1134192902    -0.0950305139
| 14>  H       -0.2696685753    -2.3809041946    -0.0898440019
| 15>  H       -0.6921328817     1.6906433647    -0.7826740091
| 16>  H       -0.8973894164     2.9914866226     1.2414971265
| 17>  H       -0.7180395353     1.5019406022     2.2248896981
| 18>  H        2.3909149155     4.0685775063     0.6415703942
| 19>  H        3.1563688862     3.3011298905     2.1121338307
| 20>  H        3.5158355892     1.5559321962    -0.2249693848
| 21>  H        2.7509136356     1.0855596011     2.5631593165
| 22>  H        1.7127188280     0.0805700609     1.4839398547
| 23> *
| 24>
| 25>                          ****END OF INPUT****

CARTESIAN COORDINATES (ANGSTROEM)
---------------------------------
  C     -0.205211   -1.321816   -0.043540
  C     -0.115887   -0.122855    0.021296
  C     -0.051803    1.325879    0.024793
  C     -0.306493    2.087931    1.402242
  C      1.215717    2.305712    1.391786
  C      2.501340    3.169660    1.247748
  C      2.681736    1.813939    0.431656
  C      2.140297    1.065172    1.655845
  N      1.271706    2.113419   -0.095031
  H     -0.269669   -2.380904   -0.089844
  H     -0.692133    1.690643   -0.782674
  H     -0.897389    2.991487    1.241497
  H     -0.718040    1.501941    2.224890
  H      2.390915    4.068578    0.641570
  H      3.156369    3.301130    2.112134
  H      3.515836    1.555932   -0.224969
  H      2.750914    1.085560    2.563159
  H      1.712719    0.080570    1.483940

 Total Charge           Charge          ....    0
 Multiplicity           Mult            ....    1
 Number of Electrons    NEL             ....   64
 Basis Dimension        Dim             ....  333

ORBITAL ENERGIES
----------------

  NO   OCC          E(Eh)            E(eV)
   0   2.0000     -15.544305      -422.9820
   1   2.0000     -11.290235      -307.2229
   2   2.0000     -11.284862      -307.0767
   3   2.0000     -11.280541      -306.9591
   4   2.0000     -11.246709      -306.0385
   5   2.0000     -11.243349      -305.9471
   6   2.0000     -11.236834      -305.7698
   7   2.0000     -11.225842      -305.4707
   8   2.0000     -11.223284      -305.4011
   9   2.0000      -1.300930       -35.4001
  10   2.0000      -1.098755       -29.8986
  11   2.0000      -1.024292       -27.8724
  12   2.0000      -0.968907       -26.3653
  13   2.0000      -0.915617       -24.9152
  14   2.0000      -0.886137       -24.1130
  15   2.0000      -0.816854       -22.2277
  16   2.0000      -0.738826       -20.1045
  17   2.0000      -0.705272       -19.1914
  18   2.0000      -0.667502       -18.1637
  19   2.0000      -0.656673       -17.8690
  20   2.0000      -0.617624       -16.8064
  21   2.0000      -0.591071       -16.0838
  22   2.0000      -0.566100       -15.4044
  23   2.0000      -0.558714       -15.2034
  24   2.0000      -0.501585       -13.6488
  25   2.0000      -0.483105       -13.1459
  26   2.0000      -0.456472       -12.4212
  27   2.0000      -0.454396       -12.3648
  28   2.0000      -0.405410       -11.0318
  29   2.0000      -0.396197       -10.7811
  30   2.0000      -0.373626       -10.1669
  31   2.0000      -0.351112        -9.5542
  32   0.0000       0.145147         3.9496
  33   0.0000       0.157157         4.2764
  34   0.0000       0.160004         4.3539
  35   0.0000       0.165419         4.5013
  36   0.0000       0.166297         4.5252

MULLIKEN ATOMIC CHARGES
-----------------------
   0 C :   -0.161687
   1 C :   -0.081649
   2 C :   -0.076119
   3 C :   -0.195362
   4 C :   -0.044260
   5 C :   -0.120169
   6 C :   -0.084515
   7 C :   -0.209278
   8 N :   -0.236343
   9 H :    0.191607
  10 H :    0.133527
  11 H :    0.124454
  12 H :    0.137117
  13 H :    0.116034
  14 H :    0.117237
  15 H :    0.133628
  16 H :    0.110004
  17 H :    0.145775
Sum of atomic charges:    0.0000000

LOEWDIN ATOMIC CHARGES
----------------------
   0 C :   -0.096563
   1 C :   -0.108745
   2 C :   -0.215515
   3 C :   -0.167832
   4 C :   -0.239294
   5 C :   -0.172709
   6 C :   -0.192271
   7 C :   -0.183000
   8 N :    0.166450
   9 H :    0.127150
  10 H :    0.162229
  11 H :    0.138921
  12 H :    0.133987
  13 H :    0.131922
  14 H :    0.126363
  15 H :    0.121317
  16 H :    0.127963
  17 H :    0.139629

  Mayer bond orders larger than 0.1
B(  0-C ,  1-C ) :   2.5919 B(  0-C ,  9-H ) :   0.8940 B(  1-C ,  2-C ) :   1.1368
B(  2-C ,  3-C ) :   0.8934 B(  2-C ,  8-N ) :   0.8942 B(  2-C , 10-H ) :   0.9251
B(  3-C ,  4-C ) :   0.9277 B(  3-C , 11-H ) :   0.9092 B(  3-C , 12-H ) :   0.9203
B(  4-C ,  5-C ) :   0.8796 B(  4-C ,  7-C ) :   0.9100 B(  4-C ,  8-N ) :   0.8642
B(  5-C ,  6-C ) :   0.9058 B(  5-C , 13-H ) :   0.9112 B(  5-C , 14-H ) :   0.9192
B(  6-C ,  7-C ) :   0.8947 B(  6-C ,  8-N ) :   0.8565 B(  6-C , 15-H ) :   0.8925
B(  7-C , 16-H ) :   0.9193 B(  7-C , 17-H ) :   0.9084

MP2 TOTAL ENERGY:     -363.970218383 Eh
FINAL SINGLE POINT ENERGY      -363.970218383089

DIPOLE MOMENT
-------------
                                X             Y             Z
Electronic contribution:     -1.47728      -1.33279      -2.33649
Nuclear contribution   :      1.54081       1.16407       2.81947
                        -----------------------------------------
Total Dipole Moment    :      0.06352      -0.16872       0.48298
                        -----------------------------------------
Magnitude (a.u.)       :      0.51553
Magnitude (Debye)      :      1.31038

                             ****ORCA TERMINATED NORMALLY****
TOTAL RUN TIME: 0 days 0 hours 19 minutes 47 seconds 13 msec
