                         Program Version 3.0.3 - RELEASE   -
|  1> ! RI-MP2 RIJK def2-TZVP def2-TZVP/C def2-TZVP/JK TIGHTSCF
|  2> % maxcore 2000
|  3> % mp2 density relaxed end
|  4> *xyz 0 1
|  5>  C        0.0705499760     1.6053365274    -0.0161157990
|  6>  C        0.0258110032     0.0764661911     0.0346653245
|  7>  C        0.6183361037    -0.5639138013    -1.2225576294
|  8>  C        0.5941456093    -2.0593731612    -1.2134554438
|  9>  N        0.1448451575    -2.8116783566    -0.2940861476
| 10>  C        0.3423214059    -4.1961402421    -0.7457184332
| 11>  C        1.0101744961    -4.0635001776    -2.1396919058
| 12>  O        1.1214072001    -2.6373658837    -2.3328747289
| 13>  H        1.0991684867     1.9722963940    -0.1085114066
| 14>  H       -0.4951141762     1.9936379918    -0.8708082605
| 15>  H       -0.3573455606     2.0424680447     0.8910263338
| 16>  H        0.5690589993    -0.2902856886     0.9116354947
| 17>  H       -1.0056038392    -0.2692030286     0.1587713542
| 18>  H        0.0855927655    -0.2246489296    -2.1211372255
| 19>  H        1.6592939418    -0.2455115278    -1.3688104611
| 20>  H        0.9697634916    -4.7379442372    -0.0298369271
| 21>  H       -0.6202855508    -4.7168895214    -0.7896231107
| 22>  H        2.0131964279    -4.4972884389    -2.1882995099
| 23>  H        0.4087218721    -4.4759961445    -2.9549775582
| 24> *
| 25>
| 26>                          ****END OF INPUT****

CARTESIAN COORDINATES (ANGSTROEM)
---------------------------------
  C      0.070550    1.605337   -0.016116
  C      0.025811    0.076466    0.034665
  C      0.618336   -0.563914   -1.222558
  C      0.594146   -2.059373   -1.213455
  N      0.144845   -2.811678   -0.294086
  C      0.342321   -4.196140   -0.745718
  C      1.010174   -4.063500   -2.139692
  O      1.121407   -2.637366   -2.332875
  H      1.099168    1.972296   -0.108511
  H     -0.495114    1.993638   -0.870808
  H     -0.357346    2.042468    0.891026
  H      0.569059   -0.290286    0.911635
  H     -1.005604   -0.269203    0.158771
  H      0.085593   -0.224649   -2.121137
  H      1.659294   -0.245512   -1.368810
  H      0.969763   -4.737944   -0.029837
  H     -0.620286   -4.716890   -0.789623
  H      2.013196   -4.497288   -2.188300
  H      0.408722   -4.475996   -2.954978

 Total Charge           Charge          ....    0
 Multiplicity           Mult            ....    1
 Number of Electrons    NEL             ....   62
 Basis Dimension        Dim             ....  314

ORBITAL ENERGIES
----------------

  NO   OCC          E(Eh)            E(eV)
   0   2.0000     -20.586020      -560.1741
   1   2.0000     -15.535513      -422.7428
   2   2.0000     -11.325958      -308.1950
   3   2.0000     -11.287143      -307.1388
   4   2.0000     -11.255953      -306.2900
   5   2.0000     -11.235130      -305.7234
   6   2.0000     -11.218858      -305.2807
   7   2.0000     -11.213137      -305.1250
   8   2.0000      -1.428538       -38.8725
   9   2.0000      -1.204751       -32.7829
  10   2.0000      -1.078979       -29.3605
  11   2.0000      -1.016490       -27.6601
  12   2.0000      -0.939058       -25.5531
  13   2.0000      -0.857996       -23.3472
  14   2.0000      -0.818615       -22.2756
  15   2.0000      -0.742552       -20.2059
  16   2.0000      -0.685895       -18.6642
  17   2.0000      -0.683831       -18.6080
  18   2.0000      -0.633467       -17.2375
  19   2.0000      -0.612776       -16.6745
  20   2.0000      -0.580087       -15.7850
  21   2.0000      -0.566799       -15.4234
  22   2.0000      -0.553243       -15.0545
  23   2.0000      -0.545523       -14.8444
  24   2.0000      -0.511177       -13.9098
  25   2.0000      -0.504309       -13.7229
  26   2.0000      -0.488796       -13.3008
  27   2.0000      -0.481619       -13.1055
  28   2.0000      -0.469742       -12.7823
  29   2.0000      -0.427100       -11.6220
  30   2.0000      -0.372196       -10.1280
  31   0.0000       0.134949         3.6721
  32   0.0000       0.148213         4.0331
  33   0.0000       0.173741         4.7277
  34   0.0000       0.179174         4.8756
  35   0.0000       0.188416         5.1270

MULLIKEN ATOMIC CHARGES
-----------------------
   0 C :   -0.382935
   1 C :   -0.170720
   2 C :   -0.227020
   3 C :    0.202674
   4 N :   -0.275126
   5 C :   -0.141995
   6 C :   -0.063494
   7 O :   -0.281972
   8 H :    0.120990
   9 H :    0.120989
  10 H :    0.136206
  11 H :    0.116382
  12 H :    0.116363
  13 H :    0.130618
  14 H :    0.130613
  15 H :    0.120169
  16 H :    0.120169
  17 H :    0.114046
  18 H :    0.114045
Sum of atomic charges:   -0.0000000

LOEWDIN ATOMIC CHARGES
----------------------
   0 C :   -0.320848
   1 C :   -0.284773
   2 C :   -0.228210
   3 C :   -0.374638
   4 N :    0.081864
   5 C :   -0.282098
   6 C :   -0.266860
   7 O :    0.222503
   8 H :    0.119698
   9 H :    0.119698
  10 H :    0.121795
  11 H :    0.140375
  12 H :    0.140371
  13 H :    0.153697
  14 H :    0.153698
  15 H :    0.129308
  16 H :    0.129308
  17 H :    0.122556
  18 H :    0.122556

  Mayer bond orders larger than 0.1
B(  0-C ,  1-C ) :   0.9076 B(  0-C ,  8-H ) :   0.9382 B(  0-C ,  9-H ) :   0.9382
B(  0-C , 10-H ) :   0.9451 B(  1-C ,  2-C ) :   0.9515 B(  1-C , 11-H ) :   0.9334
B(  1-C , 12-H ) :   0.9334 B(  2-C ,  3-C ) :   0.9471 B(  2-C , 13-H ) :   0.9114
B(  2-C , 14-H ) :   0.9114 B(  3-C ,  4-N ) :   1.8220 B(  3-C ,  7-O ) :   1.0831
B(  4-N ,  5-C ) :   0.9318 B(  5-C ,  6-C ) :   0.9419 B(  5-C , 15-H ) :   0.9272
B(  5-C , 16-H ) :   0.9272 B(  6-C ,  7-O ) :   0.8791 B(  6-C , 17-H ) :   0.9278
B(  6-C , 18-H ) :   0.9278

MP2 TOTAL ENERGY:     -364.465807128 Eh
FINAL SINGLE POINT ENERGY      -364.465807127706

DIPOLE MOMENT
-------------
                                X             Y             Z
Electronic contribution:      1.21689      -6.42648      -2.72456
Nuclear contribution   :     -1.06787       6.11935       2.40420
                        -----------------------------------------
Total Dipole Moment    :      0.14901      -0.30713      -0.32036
                        -----------------------------------------
Magnitude (a.u.)       :      0.46815
Magnitude (Debye)      :      1.18995

                             ****ORCA TERMINATED NORMALLY****
TOTAL RUN TIME: 0 days 0 hours 12 minutes 0 seconds 86 msec
