                         Program Version 3.0.3 - RELEASE   -
|  1> ! RI-MP2 RIJK def2-TZVP def2-TZVP/C def2-TZVP/JK TIGHTSCF
|  2> % maxcore 2000
|  3> % mp2 density relaxed end
|  4> *xyz 0 1
|  5>  O       -0.0338720394     1.3253883022     0.0704024409
|  6>  C        0.0653950728    -0.0422460697     0.0682109506
|  7>  C        0.7853215954    -0.9752715644     1.0719727716
|  8>  C        0.0880824815    -1.9424726041     0.0846802634
|  9>  O        0.1448514204    -3.3111331403     0.0227802569
| 10>  C       -1.1563449533    -0.9889670497    -0.1076471006
| 11>  O       -1.0879870379    -1.0204892810    -1.5599326641
| 12>  C        0.3068555470    -1.0199382528    -1.1485781013
| 13>  H        0.8516361129     1.7021371791     0.0255769089
| 14>  H        1.8793754096    -0.9709783447     1.0541845753
| 15>  H        0.4101614397    -0.9622343826     2.0997732978
| 16>  H       -0.1815098981    -3.6743999546     0.8532015606
| 17>  H       -2.1297128965    -0.9714025016     0.3818565111
| 18>  H        1.0884465059    -1.0421277457    -1.9075185009
| 19> *
| 20>
| 21>                          ****END OF INPUT****

CARTESIAN COORDINATES (ANGSTROEM)
---------------------------------
  O     -0.033872    1.325388    0.070402
  C      0.065395   -0.042246    0.068211
  C      0.785322   -0.975272    1.071973
  C      0.088082   -1.942473    0.084680
  O      0.144851   -3.311133    0.022780
  C     -1.156345   -0.988967   -0.107647
  O     -1.087987   -1.020489   -1.559933
  C      0.306856   -1.019938   -1.148578
  H      0.851636    1.702137    0.025577
  H      1.879375   -0.970978    1.054185
  H      0.410161   -0.962234    2.099773
  H     -0.181510   -3.674400    0.853202
  H     -2.129713   -0.971403    0.381857
  H      1.088447   -1.042128   -1.907519

 Total Charge           Charge          ....    0
 Multiplicity           Mult            ....    1
 Number of Electrons    NEL             ....   60
 Basis Dimension        Dim             ....  284

ORBITAL ENERGIES
----------------

  NO   OCC          E(Eh)            E(eV)
   0   2.0000     -20.583556      -560.1070
   1   2.0000     -20.583554      -560.1070
   2   2.0000     -20.549753      -559.1872
   3   2.0000     -11.312925      -307.8403
   4   2.0000     -11.312864      -307.8387
   5   2.0000     -11.299996      -307.4885
   6   2.0000     -11.299956      -307.4874
   7   2.0000     -11.245140      -305.9958
   8   2.0000      -1.425456       -38.7886
   9   2.0000      -1.393781       -37.9267
  10   2.0000      -1.376094       -37.4454
  11   2.0000      -1.162476       -31.6326
  12   2.0000      -0.914027       -24.8719
  13   2.0000      -0.902804       -24.5666
  14   2.0000      -0.864356       -23.5203
  15   2.0000      -0.765535       -20.8313
  16   2.0000      -0.719485       -19.5782
  17   2.0000      -0.676739       -18.4150
  18   2.0000      -0.661916       -18.0117
  19   2.0000      -0.649563       -17.6755
  20   2.0000      -0.625491       -17.0205
  21   2.0000      -0.625066       -17.0089
  22   2.0000      -0.564504       -15.3609
  23   2.0000      -0.556628       -15.1466
  24   2.0000      -0.539968       -14.6933
  25   2.0000      -0.479873       -13.0580
  26   2.0000      -0.452006       -12.2997
  27   2.0000      -0.449161       -12.2223
  28   2.0000      -0.404131       -10.9970
  29   2.0000      -0.392061       -10.6685
  30   0.0000       0.120537         3.2800
  31   0.0000       0.136383         3.7112
  32   0.0000       0.164563         4.4780
  33   0.0000       0.183055         4.9812
  34   0.0000       0.184122         5.0102

MULLIKEN ATOMIC CHARGES
-----------------------
   0 O :   -0.443207
   1 C :    0.134846
   2 C :   -0.222887
   3 C :    0.134853
   4 O :   -0.443208
   5 C :    0.002977
   6 O :   -0.333801
   7 C :    0.002977
   8 H :    0.330692
   9 H :    0.115840
  10 H :    0.115840
  11 H :    0.330692
  12 H :    0.137192
  13 H :    0.137193
Sum of atomic charges:    0.0000000

LOEWDIN ATOMIC CHARGES
----------------------
   0 O :    0.045749
   1 C :   -0.307471
   2 C :   -0.184462
   3 C :   -0.307471
   4 O :    0.045749
   5 C :   -0.165423
   6 O :    0.139122
   7 C :   -0.165422
   8 H :    0.190196
   9 H :    0.129961
  10 H :    0.129961
  11 H :    0.190196
  12 H :    0.129657
  13 H :    0.129657

  Mayer bond orders larger than 0.1
B(  0-O ,  1-C ) :   1.0701 B(  0-O ,  8-H ) :   0.8315 B(  1-C ,  2-C ) :   0.9254
B(  1-C ,  5-C ) :   0.8618 B(  1-C ,  7-C ) :   0.8648 B(  2-C ,  3-C ) :   0.9253
B(  2-C ,  9-H ) :   0.9105 B(  2-C , 10-H ) :   0.9105 B(  3-C ,  4-O ) :   1.0701
B(  3-C ,  5-C ) :   0.8648 B(  3-C ,  7-C ) :   0.8618 B(  4-O , 11-H ) :   0.8315
B(  5-C ,  6-O ) :   0.9159 B(  5-C ,  7-C ) :   0.1112 B(  5-C , 12-H ) :   0.8849
B(  6-O ,  7-C ) :   0.9159 B(  7-C , 13-H ) :   0.8849

MP2 TOTAL ENERGY:     -418.911767067 Eh
FINAL SINGLE POINT ENERGY      -418.911767067070

DIPOLE MOMENT
-------------
                                X             Y             Z
Electronic contribution:     -1.59455      -0.03846      -2.24027
Nuclear contribution   :      2.41309       0.05822       3.39029
                        -----------------------------------------
Total Dipole Moment    :      0.81854       0.01976       1.15002
                        -----------------------------------------
Magnitude (a.u.)       :      1.41172
Magnitude (Debye)      :      3.58830

                             ****ORCA TERMINATED NORMALLY****
TOTAL RUN TIME: 0 days 0 hours 9 minutes 28 seconds 483 msec
