                         Program Version 3.0.3 - RELEASE   -
|  1> ! RI-MP2 RIJK def2-TZVP def2-TZVP/C def2-TZVP/JK TIGHTSCF
|  2> % maxcore 2000
|  3> % mp2 density relaxed end
|  4> *xyz 0 1
|  5>  C        0.0331536926     1.5053839993     0.0618047267
|  6>  C       -0.0531134113    -0.0177432800    -0.0225938460
|  7>  C       -1.5226730651    -0.4701394242    -0.0433408662
|  8>  C        0.7092464988    -0.5433789967    -1.2583799690
|  9>  C        1.0720698580    -1.9973421216    -1.1144601754
| 10>  C        1.0515289184    -2.6103241033     0.0656225627
| 11>  C        0.6800094263    -1.8828745821     1.3247131359
| 12>  O        0.6054131324    -0.4796608221     1.1682230809
| 13>  H        1.0748846618     1.8165883511     0.1791600211
| 14>  H       -0.3703025584     1.9664644082    -0.8450894533
| 15>  H       -0.5328193663     1.8751683051     0.9217540504
| 16>  H       -2.0616129832     0.0226830957    -0.8584667319
| 17>  H       -1.6133618087    -1.5499066657    -0.1898764256
| 18>  H       -2.0091192101    -0.2036601385     0.8997178044
| 19>  H        0.0996356759    -0.3924901753    -2.1584245128
| 20>  H        1.6193277041     0.0539462037    -1.4074686016
| 21>  H        1.3573972999    -2.5379808618    -2.0131616021
| 22>  H        1.2938956970    -3.6652810968     0.1632542492
| 23>  H       -0.2670788925    -2.2890245983     1.7249259984
| 24>  H        1.4371024803    -2.0542203266     2.1005625542
| 25> *
| 26>
| 27>                          ****END OF INPUT****

CARTESIAN COORDINATES (ANGSTROEM)
---------------------------------
  C      0.033154    1.505384    0.061805
  C     -0.053113   -0.017743   -0.022594
  C     -1.522673   -0.470139   -0.043341
  C      0.709246   -0.543379   -1.258380
  C      1.072070   -1.997342   -1.114460
  C      1.051529   -2.610324    0.065623
  C      0.680009   -1.882875    1.324713
  O      0.605413   -0.479661    1.168223
  H      1.074885    1.816588    0.179160
  H     -0.370303    1.966464   -0.845089
  H     -0.532819    1.875168    0.921754
  H     -2.061613    0.022683   -0.858467
  H     -1.613362   -1.549907   -0.189876
  H     -2.009119   -0.203660    0.899718
  H      0.099636   -0.392490   -2.158425
  H      1.619328    0.053946   -1.407469
  H      1.357397   -2.537981   -2.013162
  H      1.293896   -3.665281    0.163254
  H     -0.267079   -2.289025    1.724926
  H      1.437102   -2.054220    2.100563

 Total Charge           Charge          ....    0
 Multiplicity           Mult            ....    1
 Number of Electrons    NEL             ....   62
 Basis Dimension        Dim             ....  320

ORBITAL ENERGIES
----------------

  NO   OCC          E(Eh)            E(eV)
   0   2.0000     -20.545104      -559.0607
   1   2.0000     -11.283722      -307.0457
   2   2.0000     -11.273790      -306.7754
   3   2.0000     -11.227506      -305.5160
   4   2.0000     -11.224264      -305.4278
   5   2.0000     -11.224050      -305.4219
   6   2.0000     -11.211137      -305.0705
   7   2.0000     -11.208568      -305.0006
   8   2.0000      -1.368713       -37.2446
   9   2.0000      -1.086530       -29.5660
  10   2.0000      -1.065065       -28.9819
  11   2.0000      -0.954091       -25.9621
  12   2.0000      -0.932514       -25.3750
  13   2.0000      -0.882631       -24.0176
  14   2.0000      -0.793284       -21.5864
  15   2.0000      -0.692240       -18.8368
  16   2.0000      -0.678776       -18.4704
  17   2.0000      -0.649372       -17.6703
  18   2.0000      -0.629203       -17.1215
  19   2.0000      -0.596255       -16.2249
  20   2.0000      -0.586325       -15.9547
  21   2.0000      -0.567436       -15.4407
  22   2.0000      -0.550971       -14.9927
  23   2.0000      -0.528475       -14.3805
  24   2.0000      -0.523779       -14.2528
  25   2.0000      -0.509346       -13.8600
  26   2.0000      -0.496913       -13.5217
  27   2.0000      -0.486963       -13.2509
  28   2.0000      -0.438244       -11.9252
  29   2.0000      -0.405946       -11.0463
  30   2.0000      -0.350281        -9.5316
  31   0.0000       0.132928         3.6172
  32   0.0000       0.161207         4.3867
  33   0.0000       0.165544         4.5047
  34   0.0000       0.170949         4.6518
  35   0.0000       0.185745         5.0544

MULLIKEN ATOMIC CHARGES
-----------------------
   0 C :   -0.378264
   1 C :    0.228528
   2 C :   -0.471932
   3 C :   -0.153413
   4 C :   -0.230476
   5 C :   -0.177133
   6 C :   -0.037873
   7 O :   -0.309357
   8 H :    0.134664
   9 H :    0.120133
  10 H :    0.133492
  11 H :    0.131719
  12 H :    0.151525
  13 H :    0.138629
  14 H :    0.118610
  15 H :    0.118218
  16 H :    0.121029
  17 H :    0.122558
  18 H :    0.107826
  19 H :    0.131516
Sum of atomic charges:   -0.0000000

LOEWDIN ATOMIC CHARGES
----------------------
   0 C :   -0.269943
   1 C :   -0.387076
   2 C :   -0.272031
   3 C :   -0.214736
   4 C :   -0.171749
   5 C :   -0.183936
   6 C :   -0.312599
   7 O :    0.196453
   8 H :    0.127935
   9 H :    0.126747
  10 H :    0.127583
  11 H :    0.128540
  12 H :    0.129914
  13 H :    0.128830
  14 H :    0.147796
  15 H :    0.150218
  16 H :    0.141031
  17 H :    0.143170
  18 H :    0.126630
  19 H :    0.137225

  Mayer bond orders larger than 0.1
B(  0-C ,  1-C ) :   0.8801 B(  0-C ,  8-H ) :   0.9410 B(  0-C ,  9-H ) :   0.9316
B(  0-C , 10-H ) :   0.9412 B(  1-C ,  2-C ) :   0.9188 B(  1-C ,  3-C ) :   0.9242
B(  1-C ,  7-O ) :   0.9378 B(  2-C , 11-H ) :   0.9281 B(  2-C , 12-H ) :   0.9283
B(  2-C , 13-H ) :   0.9408 B(  3-C ,  4-C ) :   0.9389 B(  3-C , 14-H ) :   0.9167
B(  3-C , 15-H ) :   0.9035 B(  4-C ,  5-C ) :   1.8098 B(  4-C , 16-H ) :   0.9339
B(  5-C ,  6-C ) :   0.9414 B(  5-C , 17-H ) :   0.9197 B(  6-C ,  7-O ) :   0.9680
B(  6-C , 18-H ) :   0.9352 B(  6-C , 19-H ) :   0.9170

MP2 TOTAL ENERGY:     -348.410740593 Eh
FINAL SINGLE POINT ENERGY      -348.410740593401

DIPOLE MOMENT
-------------
                                X             Y             Z
Electronic contribution:      3.12336      -2.44242       1.55171
Nuclear contribution   :     -3.31925       2.20359      -1.91129
                        -----------------------------------------
Total Dipole Moment    :     -0.19590      -0.23883      -0.35959
                        -----------------------------------------
Magnitude (a.u.)       :      0.47404
Magnitude (Debye)      :      1.20492

                             ****ORCA TERMINATED NORMALLY****
TOTAL RUN TIME: 0 days 0 hours 14 minutes 24 seconds 400 msec
