                         Program Version 3.0.3 - RELEASE   -
|  1> ! RI-MP2 RIJK def2-TZVP def2-TZVP/C def2-TZVP/JK TIGHTSCF
|  2> % maxcore 2000
|  3> % mp2 density relaxed end
|  4> *xyz 0 1
|  5>  C        0.0495604600     1.5246297271    -0.0296382190
|  6>  C        0.0560741157    -0.0017729967     0.1190925648
|  7>  C        0.6256814384    -0.4172630810     1.4811512576
|  8>  C       -1.3673911973    -0.5615703626    -0.1212221655
|  9>  C       -1.4393581162    -2.0593917932    -0.1772732275
| 10>  N       -1.2767349860    -2.6794161876    -1.3245925310
| 11>  O       -1.3772993308    -4.0406378610    -1.0459042363
| 12>  C       -1.6038630776    -4.1965511556     0.2647222192
| 13>  C       -1.6577962620    -2.9913238770     0.8831240602
| 14>  H        1.0563432442     1.9354029176     0.0972467104
| 15>  H       -0.3165910527     1.8298398701    -1.0153291321
| 16>  H       -0.5954633846     1.9904235810     0.7253984972
| 17>  H        0.6998540353    -0.4213724700    -0.6647329651
| 18>  H        0.0080260381    -0.0259621249     2.2993619766
| 19>  H        0.6751552653    -1.5047572549     1.5870432173
| 20>  H        1.6381716462    -0.0230572597     1.6153780314
| 21>  H       -2.0370381228    -0.1977605861     0.6679244709
| 22>  H       -1.7437309241    -0.1685950756    -1.0707730814
| 23>  H       -1.7090531272    -5.2148857865     0.6061540076
| 24>  H       -1.8304439219    -2.7845398335     1.9260328647
| 25> *
| 26>
| 27>                          ****END OF INPUT****

CARTESIAN COORDINATES (ANGSTROEM)
---------------------------------
  C      0.049560    1.524630   -0.029638
  C      0.056074   -0.001773    0.119093
  C      0.625681   -0.417263    1.481151
  C     -1.367391   -0.561570   -0.121222
  C     -1.439358   -2.059392   -0.177273
  N     -1.276735   -2.679416   -1.324593
  O     -1.377299   -4.040638   -1.045904
  C     -1.603863   -4.196551    0.264722
  C     -1.657796   -2.991324    0.883124
  H      1.056343    1.935403    0.097247
  H     -0.316591    1.829840   -1.015329
  H     -0.595463    1.990424    0.725398
  H      0.699854   -0.421372   -0.664733
  H      0.008026   -0.025962    2.299362
  H      0.675155   -1.504757    1.587043
  H      1.638172   -0.023057    1.615378
  H     -2.037038   -0.197761    0.667924
  H     -1.743731   -0.168595   -1.070773
  H     -1.709053   -5.214886    0.606154
  H     -1.830444   -2.784540    1.926033

 Total Charge           Charge          ....    0
 Multiplicity           Mult            ....    1
 Number of Electrons    NEL             ....   68
 Basis Dimension        Dim             ....  345

ORBITAL ENERGIES
----------------

  NO   OCC          E(Eh)            E(eV)
   0   2.0000     -20.639189      -561.6209
   1   2.0000     -15.611202      -424.8024
   2   2.0000     -11.313016      -307.8428
   3   2.0000     -11.279854      -306.9404
   4   2.0000     -11.238268      -305.8088
   5   2.0000     -11.236731      -305.7670
   6   2.0000     -11.235432      -305.7316
   7   2.0000     -11.217336      -305.2392
   8   2.0000     -11.217222      -305.2361
   9   2.0000      -1.488513       -40.5045
  10   2.0000      -1.172541       -31.9065
  11   2.0000      -1.087793       -29.6003
  12   2.0000      -1.066227       -29.0135
  13   2.0000      -0.958403       -26.0795
  14   2.0000      -0.934291       -25.4234
  15   2.0000      -0.829839       -22.5811
  16   2.0000      -0.798945       -21.7404
  17   2.0000      -0.763425       -20.7739
  18   2.0000      -0.718491       -19.5511
  19   2.0000      -0.654303       -17.8045
  20   2.0000      -0.640118       -17.4185
  21   2.0000      -0.620197       -16.8764
  22   2.0000      -0.601922       -16.3791
  23   2.0000      -0.581790       -15.8313
  24   2.0000      -0.576119       -15.6770
  25   2.0000      -0.542290       -14.7565
  26   2.0000      -0.536447       -14.5975
  27   2.0000      -0.521972       -14.2036
  28   2.0000      -0.487906       -13.2766
  29   2.0000      -0.478475       -13.0200
  30   2.0000      -0.472340       -12.8530
  31   2.0000      -0.465287       -12.6611
  32   2.0000      -0.404566       -11.0088
  33   2.0000      -0.365054        -9.9336
  34   0.0000       0.121528         3.3069
  35   0.0000       0.133638         3.6365
  36   0.0000       0.160264         4.3610
  37   0.0000       0.169342         4.6080
  38   0.0000       0.174686         4.7535

MULLIKEN ATOMIC CHARGES
-----------------------
   0 C :   -0.389850
   1 C :   -0.026717
   2 C :   -0.429686
   3 C :   -0.276894
   4 C :    0.130659
   5 N :   -0.121874
   6 O :   -0.105597
   7 C :    0.007269
   8 C :   -0.260923
   9 H :    0.132834
  10 H :    0.133575
  11 H :    0.119845
  12 H :    0.104629
  13 H :    0.117108
  14 H :    0.145308
  15 H :    0.134965
  16 H :    0.132086
  17 H :    0.140607
  18 H :    0.159344
  19 H :    0.153313
Sum of atomic charges:    0.0000000

LOEWDIN ATOMIC CHARGES
----------------------
   0 C :   -0.294969
   1 C :   -0.299238
   2 C :   -0.294940
   3 C :   -0.206959
   4 C :   -0.279778
   5 N :    0.059600
   6 O :    0.276307
   7 C :   -0.267691
   8 C :   -0.180405
   9 H :    0.124018
  10 H :    0.123531
  11 H :    0.122752
  12 H :    0.154872
  13 H :    0.122351
  14 H :    0.125081
  15 H :    0.124640
  16 H :    0.149364
  17 H :    0.155441
  18 H :    0.137645
  19 H :    0.148377

  Mayer bond orders larger than 0.1
B(  0-C ,  1-C ) :   0.9138 B(  0-C ,  9-H ) :   0.9400 B(  0-C , 10-H ) :   0.9402
B(  0-C , 11-H ) :   0.9300 B(  1-C ,  2-C ) :   0.9195 B(  1-C ,  3-C ) :   0.9045
B(  1-C , 12-H ) :   0.9275 B(  2-C , 13-H ) :   0.9312 B(  2-C , 14-H ) :   0.9352
B(  2-C , 15-H ) :   0.9395 B(  3-C ,  4-C ) :   0.8800 B(  3-C , 16-H ) :   0.9395
B(  3-C , 17-H ) :   0.9259 B(  4-C ,  5-N ) :   1.5910 B(  4-C ,  8-C ) :   1.1821
B(  5-N ,  6-O ) :   0.8855 B(  5-N ,  7-C ) :   0.1030 B(  6-O ,  7-C ) :   1.1265
B(  7-C ,  8-C ) :   1.5634 B(  7-C , 18-H ) :   0.9217 B(  8-C , 19-H ) :   0.9132

MP2 TOTAL ENERGY:     -402.457026616 Eh
FINAL SINGLE POINT ENERGY      -402.457026615549

DIPOLE MOMENT
-------------
                                X             Y             Z
Electronic contribution:     -5.08482     -12.91650      -5.22662
Nuclear contribution   :      5.01384      13.08171       6.28202
                        -----------------------------------------
Total Dipole Moment    :     -0.07098       0.16521       1.05540
                        -----------------------------------------
Magnitude (a.u.)       :      1.07061
Magnitude (Debye)      :      2.72128

                             ****ORCA TERMINATED NORMALLY****
TOTAL RUN TIME: 0 days 0 hours 17 minutes 58 seconds 14 msec
