                         Program Version 3.0.3 - RELEASE   -
|  1> ! RI-MP2 RIJK def2-TZVP def2-TZVP/C def2-TZVP/JK TIGHTSCF
|  2> % maxcore 2000
|  3> % mp2 density relaxed end
|  4> *xyz 0 1
|  5>  C       -0.1332646933    -1.2185484570     0.0208718980
|  6>  C       -0.0634464128    -0.0170435664     0.0248650264
|  7>  C        0.0094419804     1.4140989100     0.0219401817
|  8>  C        0.5104540083     2.1583987710     1.2536092557
|  9>  C        1.3581942541     2.1348043408     0.0148373368
| 10>  C        2.6419851294     1.3736142432    -0.0329880343
| 11>  C        3.4939230146     1.3987973607    -1.2775180066
| 12>  C        3.9588443630     2.1120333273    -0.0318492067
| 13>  H       -0.1979962230    -2.2780442495     0.0175080738
| 14>  H       -0.7844788878     1.9031891261    -0.5351998814
| 15>  H       -0.0014141196     3.0740617193     1.5280640025
| 16>  H        0.8286381481     1.5481831660     2.0915399256
| 17>  H        1.3637156073     3.0507304321    -0.5716895031
| 18>  H        2.6193870724     0.4317851535     0.5065367320
| 19>  H        3.9995334728     0.4862507701    -1.5725775189
| 20>  H        3.1541045182     2.0052860938    -2.1108528764
| 21>  H        3.9315252932     3.1969757900    -0.0290794832
| 22>  H        4.7850448246     1.6899538689     0.5296608783
| 23> *
| 24>
| 25>                          ****END OF INPUT****

CARTESIAN COORDINATES (ANGSTROEM)
---------------------------------
  C     -0.133265   -1.218548    0.020872
  C     -0.063446   -0.017044    0.024865
  C      0.009442    1.414099    0.021940
  C      0.510454    2.158399    1.253609
  C      1.358194    2.134804    0.014837
  C      2.641985    1.373614   -0.032988
  C      3.493923    1.398797   -1.277518
  C      3.958844    2.112033   -0.031849
  H     -0.197996   -2.278044    0.017508
  H     -0.784479    1.903189   -0.535200
  H     -0.001414    3.074062    1.528064
  H      0.828638    1.548183    2.091540
  H      1.363716    3.050730   -0.571690
  H      2.619387    0.431785    0.506537
  H      3.999533    0.486251   -1.572578
  H      3.154105    2.005286   -2.110853
  H      3.931525    3.196976   -0.029079
  H      4.785045    1.689954    0.529661

 Total Charge           Charge          ....    0
 Multiplicity           Mult            ....    1
 Number of Electrons    NEL             ....   58
 Basis Dimension        Dim             ....  308

ORBITAL ENERGIES
----------------

  NO   OCC          E(Eh)            E(eV)
   0   2.0000     -11.254345      -306.2463
   1   2.0000     -11.246011      -306.0195
   2   2.0000     -11.235452      -305.7322
   3   2.0000     -11.232297      -305.6463
   4   2.0000     -11.231117      -305.6142
   5   2.0000     -11.223691      -305.4122
   6   2.0000     -11.222503      -305.3798
   7   2.0000     -11.215537      -305.1903
   8   2.0000      -1.173775       -31.9400
   9   2.0000      -1.123690       -30.5772
  10   2.0000      -1.019255       -27.7353
  11   2.0000      -0.884328       -24.0638
  12   2.0000      -0.856046       -23.2942
  13   2.0000      -0.819968       -22.3125
  14   2.0000      -0.779994       -21.2247
  15   2.0000      -0.711333       -19.3564
  16   2.0000      -0.681983       -18.5577
  17   2.0000      -0.671808       -18.2808
  18   2.0000      -0.625942       -17.0327
  19   2.0000      -0.595115       -16.1939
  20   2.0000      -0.545741       -14.8504
  21   2.0000      -0.515761       -14.0346
  22   2.0000      -0.496961       -13.5230
  23   2.0000      -0.495113       -13.4727
  24   2.0000      -0.476915       -12.9775
  25   2.0000      -0.420096       -11.4314
  26   2.0000      -0.401485       -10.9250
  27   2.0000      -0.369532       -10.0555
  28   2.0000      -0.351673        -9.5695
  29   0.0000       0.142415         3.8753
  30   0.0000       0.160672         4.3721
  31   0.0000       0.163903         4.4600
  32   0.0000       0.167910         4.5691
  33   0.0000       0.176263         4.7963

MULLIKEN ATOMIC CHARGES
-----------------------
   0 C :   -0.140263
   1 C :   -0.015420
   2 C :   -0.262443
   3 C :   -0.237373
   4 C :   -0.090205
   5 C :   -0.080322
   6 C :   -0.261011
   7 C :   -0.263572
   8 H :    0.187136
   9 H :    0.136141
  10 H :    0.135408
  11 H :    0.134120
  12 H :    0.119745
  13 H :    0.131132
  14 H :    0.129198
  15 H :    0.124783
  16 H :    0.124026
  17 H :    0.128921
Sum of atomic charges:    0.0000000

LOEWDIN ATOMIC CHARGES
----------------------
   0 C :   -0.105170
   1 C :   -0.095771
   2 C :   -0.189016
   3 C :   -0.178623
   4 C :   -0.176457
   5 C :   -0.208062
   6 C :   -0.223302
   7 C :   -0.225576
   8 H :    0.125453
   9 H :    0.163177
  10 H :    0.133166
  11 H :    0.141677
  12 H :    0.155062
  13 H :    0.157114
  14 H :    0.131295
  15 H :    0.132290
  16 H :    0.132242
  17 H :    0.130502

  Mayer bond orders larger than 0.1
B(  0-C ,  1-C ) :   2.5478 B(  0-C ,  2-C ) :  -0.1350 B(  0-C ,  8-H ) :   0.8992
B(  1-C ,  2-C ) :   1.2119 B(  2-C ,  3-C ) :   0.8470 B(  2-C ,  4-C ) :   0.8415
B(  2-C ,  9-H ) :   0.9364 B(  3-C ,  4-C ) :   0.8856 B(  3-C , 10-H ) :   0.9236
B(  3-C , 11-H ) :   0.9266 B(  4-C ,  5-C ) :   0.9459 B(  4-C , 12-H ) :   0.9126
B(  5-C ,  6-C ) :   0.8835 B(  5-C ,  7-C ) :   0.8810 B(  5-C , 13-H ) :   0.9103
B(  6-C ,  7-C ) :   0.9109 B(  6-C , 14-H ) :   0.9283 B(  6-C , 15-H ) :   0.9293
B(  7-C , 16-H ) :   0.9261 B(  7-C , 17-H ) :   0.9277

MP2 TOTAL ENERGY:     -310.016954048 Eh
FINAL SINGLE POINT ENERGY      -310.016954047972

DIPOLE MOMENT
-------------
                                X             Y             Z
Electronic contribution:     -4.08967      -2.62404       0.15557
Nuclear contribution   :      4.22674       2.89814      -0.11743
                        -----------------------------------------
Total Dipole Moment    :      0.13708       0.27410       0.03813
                        -----------------------------------------
Magnitude (a.u.)       :      0.30883
Magnitude (Debye)      :      0.78497

                             ****ORCA TERMINATED NORMALLY****
TOTAL RUN TIME: 0 days 0 hours 13 minutes 53 seconds 451 msec
