                         Program Version 3.0.3 - RELEASE   -
|  1> ! RI-MP2 RIJK def2-TZVP def2-TZVP/C def2-TZVP/JK TIGHTSCF
|  2> % maxcore 2000
|  3> % mp2 density relaxed end
|  4> *xyz 0 1
|  5>  C        0.1009403911     1.5134104420     0.0688289952
|  6>  C        0.0046257796     0.0220402543    -0.0404601091
|  7>  C        0.4836494289    -0.7295757537    -1.3003432610
|  8>  C        0.4446768106    -2.1977116666    -0.7462823584
|  9>  O        1.7168617569    -2.7878132983    -0.6278114192
| 10>  C       -0.1660316581    -1.8858681244     0.6369352087
| 11>  O        0.6713249245    -0.7470904789     1.0409450756
| 12>  C       -1.2381283857    -0.8185877698     0.3467705493
| 13>  O       -2.4033181350    -0.6473152490     0.5191114552
| 14>  H        1.1361087674     1.8467832666    -0.0544659860
| 15>  H       -0.5031196534     1.9797921869    -0.7152979989
| 16>  H       -0.2671672305     1.8571083701     1.0385307019
| 17>  H       -0.1731114701    -0.5718776264    -2.1605737540
| 18>  H        1.5037923632    -0.4530580979    -1.5806484828
| 19>  H       -0.1636729344    -2.8761562461    -1.3481170644
| 20>  H        2.2096899403    -2.2372197936    -0.0050925295
| 21>  H       -0.2475910152    -2.6790699752     1.3766663975
| 22> *
| 23>
| 24>                          ****END OF INPUT****

CARTESIAN COORDINATES (ANGSTROEM)
---------------------------------
  C      0.100940    1.513410    0.068829
  C      0.004626    0.022040   -0.040460
  C      0.483649   -0.729576   -1.300343
  C      0.444677   -2.197712   -0.746282
  O      1.716862   -2.787813   -0.627811
  C     -0.166032   -1.885868    0.636935
  O      0.671325   -0.747090    1.040945
  C     -1.238128   -0.818588    0.346771
  O     -2.403318   -0.647315    0.519111
  H      1.136109    1.846783   -0.054466
  H     -0.503120    1.979792   -0.715298
  H     -0.267167    1.857108    1.038531
  H     -0.173111   -0.571878   -2.160574
  H      1.503792   -0.453058   -1.580648
  H     -0.163673   -2.876156   -1.348117
  H      2.209690   -2.237220   -0.005093
  H     -0.247591   -2.679070    1.376666

 Total Charge           Charge          ....    0
 Multiplicity           Mult            ....    1
 Number of Electrons    NEL             ....   68
 Basis Dimension        Dim             ....  327

ORBITAL ENERGIES
----------------

  NO   OCC          E(Eh)            E(eV)
   0   2.0000     -20.587135      -560.2044
   1   2.0000     -20.576223      -559.9075
   2   2.0000     -20.570467      -559.7509
   3   2.0000     -11.352987      -308.9305
   4   2.0000     -11.319783      -308.0270
   5   2.0000     -11.310030      -307.7616
   6   2.0000     -11.308124      -307.7097
   7   2.0000     -11.251493      -306.1687
   8   2.0000     -11.241487      -305.8964
   9   2.0000      -1.438596       -39.1462
  10   2.0000      -1.406392       -38.2699
  11   2.0000      -1.373634       -37.3785
  12   2.0000      -1.093120       -29.7453
  13   2.0000      -1.040502       -28.3135
  14   2.0000      -0.954765       -25.9805
  15   2.0000      -0.913849       -24.8671
  16   2.0000      -0.820212       -22.3191
  17   2.0000      -0.745676       -20.2909
  18   2.0000      -0.710591       -19.3362
  19   2.0000      -0.688288       -18.7293
  20   2.0000      -0.670830       -18.2542
  21   2.0000      -0.660146       -17.9635
  22   2.0000      -0.637396       -17.3444
  23   2.0000      -0.588663       -16.0183
  24   2.0000      -0.577364       -15.7109
  25   2.0000      -0.569335       -15.4924
  26   2.0000      -0.562611       -15.3094
  27   2.0000      -0.550775       -14.9873
  28   2.0000      -0.536075       -14.5873
  29   2.0000      -0.512806       -13.9542
  30   2.0000      -0.500013       -13.6061
  31   2.0000      -0.485901       -13.2220
  32   2.0000      -0.436119       -11.8674
  33   2.0000      -0.405954       -11.0466
  34   0.0000       0.128481         3.4961
  35   0.0000       0.134003         3.6464
  36   0.0000       0.158917         4.3243
  37   0.0000       0.161351         4.3906
  38   0.0000       0.176503         4.8029

MULLIKEN ATOMIC CHARGES
-----------------------
   0 C :   -0.411649
   1 C :    0.096402
   2 C :   -0.220290
   3 C :    0.048285
   4 O :   -0.461562
   5 C :    0.001456
   6 O :   -0.297783
   7 C :    0.155380
   8 O :   -0.228698
   9 H :    0.147547
  10 H :    0.145926
  11 H :    0.153369
  12 H :    0.135773
  13 H :    0.133841
  14 H :    0.123028
  15 H :    0.324795
  16 H :    0.154179
Sum of atomic charges:   -0.0000000

LOEWDIN ATOMIC CHARGES
----------------------
   0 C :   -0.261582
   1 C :   -0.291975
   2 C :   -0.188561
   3 C :   -0.314118
   4 O :   -0.006602
   5 C :   -0.214042
   6 O :    0.181435
   7 C :   -0.258081
   8 O :    0.182475
   9 H :    0.136253
  10 H :    0.141253
  11 H :    0.138271
  12 H :    0.144667
  13 H :    0.145257
  14 H :    0.144600
  15 H :    0.180215
  16 H :    0.140536

  Mayer bond orders larger than 0.1
B(  0-C ,  1-C ) :   0.8701 B(  0-C ,  9-H ) :   0.9396 B(  0-C , 10-H ) :   0.9299
B(  0-C , 11-H ) :   0.9373 B(  1-C ,  2-C ) :   0.9027 B(  1-C ,  5-C ) :  -0.1196
B(  1-C ,  6-O ) :   0.9083 B(  1-C ,  7-C ) :   0.8654 B(  2-C ,  3-C ) :   0.9324
B(  2-C , 12-H ) :   0.9092 B(  2-C , 13-H ) :   0.9055 B(  3-C ,  4-O ) :   0.9364
B(  3-C ,  5-C ) :   0.9101 B(  3-C , 14-H ) :   0.9256 B(  4-O , 15-H ) :   0.8249
B(  5-C ,  6-O ) :   0.8835 B(  5-C ,  7-C ) :   0.9028 B(  5-C , 16-H ) :   0.9048
B(  7-C ,  8-O ) :   2.0890

MP2 TOTAL ENERGY:     -458.225445269 Eh
FINAL SINGLE POINT ENERGY      -458.225445269228

DIPOLE MOMENT
-------------
                                X             Y             Z
Electronic contribution:     -2.96674      -3.57052       2.77827
Nuclear contribution   :      3.34737       4.02611      -3.16379
                        -----------------------------------------
Total Dipole Moment    :      0.38063       0.45559      -0.38552
                        -----------------------------------------
Magnitude (a.u.)       :      0.70786
Magnitude (Debye)      :      1.79924

                             ****ORCA TERMINATED NORMALLY****
TOTAL RUN TIME: 0 days 0 hours 16 minutes 40 seconds 802 msec
