                         Program Version 3.0.3 - RELEASE   -
|  1> ! RI-MP2 RIJK def2-TZVP def2-TZVP/C def2-TZVP/JK TIGHTSCF
|  2> % maxcore 2000
|  3> % mp2 density relaxed end
|  4> *xyz 0 1
|  5>  C       -0.1043923078     1.7041334967     0.0491387968
|  6>  C       -0.1533513242     0.2314700012    -0.3506810846
|  7>  N       -1.5328242606    -0.2408280089    -0.4055821769
|  8>  C       -1.7866617650    -1.2978615770    -1.0468289122
|  9>  N       -1.0854499386    -2.2460970163    -1.7787342725
| 10>  C       -2.3014490085    -2.8007476301    -2.4095190955
| 11>  C       -3.1342599379    -1.9332829462    -1.4050766901
| 12>  C       -3.8373013077    -2.6969947452    -0.2922832108
| 13>  O       -4.0072387659    -1.0247146875    -2.0437889340
| 14>  H        0.9290041589     2.0591249812     0.1161965174
| 15>  H       -0.6341847170     2.3201115868    -0.6839976881
| 16>  H       -0.5872245653     1.8504848965     1.0196979429
| 17>  H        0.3607365837     0.0967849032    -1.3183868301
| 18>  H        0.4100137639    -0.3662384620     0.3814907101
| 19>  H       -0.1829597172    -2.1255774576    -2.2157321328
| 20>  H       -2.4632815103    -2.4820351724    -3.4430877092
| 21>  H       -2.3906486571    -3.8872880407    -2.3232092319
| 22>  H       -3.1726938493    -3.4386828367     0.1614396865
| 23>  H       -4.1620448737    -2.0017798587     0.4874043920
| 24>  H       -4.7194850052    -3.2073735801    -0.6907112361
| 25>  H       -3.8404658051    -0.1639402763    -1.6394740811
| 26> *
| 27>
| 28>                          ****END OF INPUT****

CARTESIAN COORDINATES (ANGSTROEM)
---------------------------------
  C     -0.104392    1.704133    0.049139
  C     -0.153351    0.231470   -0.350681
  N     -1.532824   -0.240828   -0.405582
  C     -1.786662   -1.297862   -1.046829
  N     -1.085450   -2.246097   -1.778734
  C     -2.301449   -2.800748   -2.409519
  C     -3.134260   -1.933283   -1.405077
  C     -3.837301   -2.696995   -0.292283
  O     -4.007239   -1.024715   -2.043789
  H      0.929004    2.059125    0.116197
  H     -0.634185    2.320112   -0.683998
  H     -0.587225    1.850485    1.019698
  H      0.360737    0.096785   -1.318387
  H      0.410014   -0.366238    0.381491
  H     -0.182960   -2.125577   -2.215732
  H     -2.463282   -2.482035   -3.443088
  H     -2.390649   -3.887288   -2.323209
  H     -3.172694   -3.438683    0.161440
  H     -4.162045   -2.001780    0.487404
  H     -4.719485   -3.207374   -0.690711
  H     -3.840466   -0.163940   -1.639474

 Total Charge           Charge          ....    0
 Multiplicity           Mult            ....    1
 Number of Electrons    NEL             ....   70
 Basis Dimension        Dim             ....  351

ORBITAL ENERGIES
----------------

  NO   OCC          E(Eh)            E(eV)
   0   2.0000     -20.559056      -559.4403
   1   2.0000     -15.580138      -423.9571
   2   2.0000     -15.531137      -422.6237
   3   2.0000     -11.306838      -307.6747
   4   2.0000     -11.298895      -307.4586
   5   2.0000     -11.269439      -306.6570
   6   2.0000     -11.249523      -306.1151
   7   2.0000     -11.220223      -305.3178
   8   2.0000     -11.207037      -304.9590
   9   2.0000      -1.375426       -37.4272
  10   2.0000      -1.286337       -35.0030
  11   2.0000      -1.191114       -32.4118
  12   2.0000      -1.027068       -27.9479
  13   2.0000      -1.007209       -27.4075
  14   2.0000      -0.924870       -25.1670
  15   2.0000      -0.881173       -23.9779
  16   2.0000      -0.820714       -22.3328
  17   2.0000      -0.756296       -20.5799
  18   2.0000      -0.685394       -18.6505
  19   2.0000      -0.680740       -18.5239
  20   2.0000      -0.653756       -17.7896
  21   2.0000      -0.618268       -16.8239
  22   2.0000      -0.601558       -16.3692
  23   2.0000      -0.597338       -16.2544
  24   2.0000      -0.566586       -15.4176
  25   2.0000      -0.559649       -15.2288
  26   2.0000      -0.536999       -14.6125
  27   2.0000      -0.520707       -14.1692
  28   2.0000      -0.517784       -14.0896
  29   2.0000      -0.511778       -13.9262
  30   2.0000      -0.467488       -12.7210
  31   2.0000      -0.462307       -12.5800
  32   2.0000      -0.441883       -12.0242
  33   2.0000      -0.396604       -10.7921
  34   2.0000      -0.356988        -9.7141
  35   0.0000       0.128661         3.5011
  36   0.0000       0.146155         3.9771
  37   0.0000       0.158640         4.3168
  38   0.0000       0.171053         4.6546
  39   0.0000       0.185303         5.0424

MULLIKEN ATOMIC CHARGES
-----------------------
   0 C :   -0.347156
   1 C :   -0.107421
   2 N :   -0.287639
   3 C :   -0.021959
   4 N :   -0.350039
   5 C :   -0.148853
   6 C :    0.396010
   7 C :   -0.418349
   8 O :   -0.484795
   9 H :    0.117142
  10 H :    0.117258
  11 H :    0.126007
  12 H :    0.075116
  13 H :    0.118240
  14 H :    0.236397
  15 H :    0.123771
  16 H :    0.119274
  17 H :    0.133025
  18 H :    0.133493
  19 H :    0.136943
  20 H :    0.333534
Sum of atomic charges:    0.0000000

LOEWDIN ATOMIC CHARGES
----------------------
   0 C :   -0.321544
   1 C :   -0.322267
   2 N :    0.076615
   3 C :   -0.329462
   4 N :    0.094190
   5 C :   -0.200165
   6 C :   -0.345488
   7 C :   -0.268393
   8 O :    0.013157
   9 H :    0.118567
  10 H :    0.119813
  11 H :    0.122605
  12 H :    0.116696
  13 H :    0.129760
  14 H :    0.167571
  15 H :    0.127939
  16 H :    0.121870
  17 H :    0.130885
  18 H :    0.131594
  19 H :    0.129813
  20 H :    0.186245

  Mayer bond orders larger than 0.1
B(  0-C ,  1-C ) :   0.9531 B(  0-C ,  9-H ) :   0.9364 B(  0-C , 10-H ) :   0.9357
B(  0-C , 11-H ) :   0.9385 B(  1-C ,  2-N ) :   0.8753 B(  1-C , 12-H ) :   0.9157
B(  1-C , 13-H ) :   0.9226 B(  2-N ,  3-C ) :   1.9511 B(  3-C ,  4-N ) :   1.1547
B(  3-C ,  6-C ) :   0.8361 B(  4-N ,  5-C ) :   0.9313 B(  4-N , 14-H ) :   0.8618
B(  5-C ,  6-C ) :   0.8629 B(  5-C , 15-H ) :   0.9306 B(  5-C , 16-H ) :   0.9162
B(  6-C ,  7-C ) :   0.8925 B(  6-C ,  8-O ) :   0.9670 B(  7-C , 17-H ) :   0.9297
B(  7-C , 18-H ) :   0.9301 B(  7-C , 19-H ) :   0.9343 B(  8-O , 20-H ) :   0.8240

MP2 TOTAL ENERGY:     -419.693811423 Eh
FINAL SINGLE POINT ENERGY      -419.693811423350

DIPOLE MOMENT
-------------
                                X             Y             Z
Electronic contribution:     -2.64256      -2.44402      -3.00044
Nuclear contribution   :      3.39225       2.02619       2.67781
                        -----------------------------------------
Total Dipole Moment    :      0.74969      -0.41783      -0.32262
                        -----------------------------------------
Magnitude (a.u.)       :      0.91690
Magnitude (Debye)      :      2.33056

                             ****ORCA TERMINATED NORMALLY****
TOTAL RUN TIME: 0 days 0 hours 17 minutes 27 seconds 111 msec
