                         Program Version 3.0.3 - RELEASE   -
|  1> ! RI-MP2 RIJK def2-TZVP def2-TZVP/C def2-TZVP/JK TIGHTSCF
|  2> % maxcore 2000
|  3> % mp2 density relaxed end
|  4> *xyz 0 1
|  5>  O       -0.2144140941     0.9452470458    -0.7905703372
|  6>  C       -0.1962183477    -0.1871254408     0.0405313681
|  7>  C        0.2593610636     0.0447923771     1.5050715763
|  8>  C       -0.5463874968    -0.9739419399     2.2685537870
|  9>  C       -1.5412215076    -1.4890111905     1.5451516907
| 10>  C       -1.5828403070    -0.8907672394     0.1673328625
| 11>  O       -2.6302103261     0.0981113513     0.1088318120
| 12>  C       -3.2868848389     0.2467917258    -1.0614071587
| 13>  N       -4.0675499500     1.2245224649    -1.2226446479
| 14>  H       -0.9266649515     1.5173604167    -0.4782703624
| 15>  H        0.4948432971    -0.8932722185    -0.4311459883
| 16>  H        1.3407759487    -0.0754910477     1.6258647566
| 17>  H        0.0191736461     1.0654810168     1.8317376116
| 18>  H       -0.3321654294    -1.2359266890     3.2991322365
| 19>  H       -2.2725452018    -2.2106302843     1.8884474871
| 20>  H       -1.7508043678    -1.6207609678    -0.6334012350
| 21>  H       -3.0737687694    -0.5495922021    -1.7872010886
| 22>  H       -4.5029776674     1.1738760817    -2.1412190003
| 23> *
| 24>
| 25>                          ****END OF INPUT****

CARTESIAN COORDINATES (ANGSTROEM)
---------------------------------
  O     -0.214414    0.945247   -0.790570
  C     -0.196218   -0.187125    0.040531
  C      0.259361    0.044792    1.505072
  C     -0.546387   -0.973942    2.268554
  C     -1.541222   -1.489011    1.545152
  C     -1.582840   -0.890767    0.167333
  O     -2.630210    0.098111    0.108832
  C     -3.286885    0.246792   -1.061407
  N     -4.067550    1.224522   -1.222645
  H     -0.926665    1.517360   -0.478270
  H      0.494843   -0.893272   -0.431146
  H      1.340776   -0.075491    1.625865
  H      0.019174    1.065481    1.831738
  H     -0.332165   -1.235927    3.299132
  H     -2.272545   -2.210630    1.888447
  H     -1.750804   -1.620761   -0.633401
  H     -3.073769   -0.549592   -1.787201
  H     -4.502978    1.173876   -2.141219

 Total Charge           Charge          ....    0
 Multiplicity           Mult            ....    1
 Number of Electrons    NEL             ....   68
 Basis Dimension        Dim             ....  333

ORBITAL ENERGIES
----------------

  NO   OCC          E(Eh)            E(eV)
   0   2.0000     -20.595533      -560.4329
   1   2.0000     -20.561675      -559.5116
   2   2.0000     -15.541382      -422.9025
   3   2.0000     -11.340690      -308.5959
   4   2.0000     -11.305957      -307.6507
   5   2.0000     -11.292067      -307.2728
   6   2.0000     -11.249001      -306.1009
   7   2.0000     -11.237699      -305.7933
   8   2.0000     -11.236736      -305.7671
   9   2.0000      -1.432271       -38.9741
  10   2.0000      -1.369469       -37.2651
  11   2.0000      -1.202653       -32.7259
  12   2.0000      -1.138773       -30.9876
  13   2.0000      -0.978454       -26.6251
  14   2.0000      -0.967080       -26.3156
  15   2.0000      -0.846926       -23.0460
  16   2.0000      -0.809743       -22.0342
  17   2.0000      -0.764554       -20.8046
  18   2.0000      -0.735476       -20.0133
  19   2.0000      -0.702922       -19.1275
  20   2.0000      -0.665663       -18.1136
  21   2.0000      -0.659056       -17.9338
  22   2.0000      -0.627971       -17.0880
  23   2.0000      -0.605016       -16.4633
  24   2.0000      -0.576725       -15.6935
  25   2.0000      -0.550872       -14.9900
  26   2.0000      -0.547875       -14.9084
  27   2.0000      -0.537705       -14.6317
  28   2.0000      -0.513386       -13.9699
  29   2.0000      -0.486484       -13.2379
  30   2.0000      -0.444815       -12.1040
  31   2.0000      -0.439375       -11.9560
  32   2.0000      -0.398629       -10.8473
  33   2.0000      -0.374625       -10.1941
  34   0.0000       0.129728         3.5301
  35   0.0000       0.138257         3.7622
  36   0.0000       0.152369         4.1462
  37   0.0000       0.161089         4.3834
  38   0.0000       0.165722         4.5095

MULLIKEN ATOMIC CHARGES
-----------------------
   0 O :   -0.467124
   1 C :    0.039356
   2 C :   -0.167320
   3 C :   -0.172031
   4 C :   -0.185444
   5 C :    0.113966
   6 O :   -0.250331
   7 C :    0.044085
   8 N :   -0.336400
   9 H :    0.338292
  10 H :    0.105546
  11 H :    0.131944
  12 H :    0.120155
  13 H :    0.135275
  14 H :    0.138664
  15 H :    0.104969
  16 H :    0.078871
  17 H :    0.227525
Sum of atomic charges:    0.0000000

LOEWDIN ATOMIC CHARGES
----------------------
   0 O :   -0.002062
   1 C :   -0.310640
   2 C :   -0.224091
   3 C :   -0.131686
   4 C :   -0.141668
   5 C :   -0.264301
   6 O :    0.254688
   7 C :   -0.408565
   8 N :   -0.084203
   9 H :    0.182746
  10 H :    0.149912
  11 H :    0.140588
  12 H :    0.147418
  13 H :    0.139592
  14 H :    0.139963
  15 H :    0.137129
  16 H :    0.106430
  17 H :    0.168749

  Mayer bond orders larger than 0.1
B(  0-O ,  1-C ) :   0.9873 B(  0-O ,  9-H ) :   0.8232 B(  1-C ,  2-C ) :   0.9665
B(  1-C ,  5-C ) :   0.8974 B(  1-C , 10-H ) :   0.9151 B(  2-C ,  3-C ) :   0.9396
B(  2-C , 11-H ) :   0.9286 B(  2-C , 12-H ) :   0.8913 B(  3-C ,  4-C ) :   1.7732
B(  3-C , 13-H ) :   0.9217 B(  4-C ,  5-C ) :   0.9173 B(  4-C , 14-H ) :   0.9141
B(  5-C ,  6-O ) :   0.8360 B(  5-C , 15-H ) :   0.9259 B(  6-O ,  7-C ) :   1.0476
B(  7-C ,  8-N ) :   1.9684 B(  7-C , 16-H ) :   0.9244 B(  8-N , 17-H ) :   0.8505

MP2 TOTAL ENERGY:     -438.362891513 Eh
FINAL SINGLE POINT ENERGY      -438.362891513203

DIPOLE MOMENT
-------------
                                X             Y             Z
Electronic contribution:     -2.36019       0.98793      -1.02003
Nuclear contribution   :      2.70777      -2.09614       1.04044
                        -----------------------------------------
Total Dipole Moment    :      0.34758      -1.10821       0.02041
                        -----------------------------------------
Magnitude (a.u.)       :      1.16162
Magnitude (Debye)      :      2.95260

                             ****ORCA TERMINATED NORMALLY****
TOTAL RUN TIME: 0 days 0 hours 15 minutes 26 seconds 656 msec
