                         Program Version 3.0.3 - RELEASE   -
|  1> ! RI-MP2 RIJK def2-TZVP def2-TZVP/C def2-TZVP/JK TIGHTSCF
|  2> % maxcore 2000
|  3> % mp2 density relaxed end
|  4> *xyz 0 1
|  5>  O       -0.6278943812     0.9340740269     1.1179946899
|  6>  C       -0.2303531508     1.3903391061     0.0784066987
|  7>  C        1.2361911740     1.6321112255    -0.2428997674
|  8>  N        1.3676056331     2.7037052652    -1.2157402913
|  9>  C        1.6053604446     4.0556790296    -0.6915260958
| 10>  C        2.6745072334     3.3040894913    -1.3964549647
| 11>  C        4.0309571493     2.8861853539    -0.8029922547
| 12>  C        4.7055286844     3.5790629920    -2.0245537100
| 13>  C        3.3251354170     3.6240350702    -2.7457529007
| 14>  H       -0.9187544691     1.6619781039    -0.7523759801
| 15>  H        1.7830318037     1.7857359563     0.7002534271
| 16>  H        1.6183452135     0.7030532702    -0.6923367066
| 17>  H        1.0631381040     4.8546600229    -1.1909748751
| 18>  H        1.7027807869     4.1729210292     0.3876710262
| 19>  H        4.2873438381     3.2563486944     0.1924150295
| 20>  H        4.1711306842     1.8001559840    -0.8174494442
| 21>  H        5.0748332924     4.5768821393    -1.7771840201
| 22>  H        5.5032224352     3.0247992785    -2.5218495895
| 23>  H        3.1959678898     2.8052750049    -3.4599770372
| 24>  H        3.0378237974     4.5605052956    -3.2296262240
| 25> *
| 26>
| 27>                          ****END OF INPUT****

CARTESIAN COORDINATES (ANGSTROEM)
---------------------------------
  O     -0.627894    0.934074    1.117995
  C     -0.230353    1.390339    0.078407
  C      1.236191    1.632111   -0.242900
  N      1.367606    2.703705   -1.215740
  C      1.605360    4.055679   -0.691526
  C      2.674507    3.304089   -1.396455
  C      4.030957    2.886185   -0.802992
  C      4.705529    3.579063   -2.024554
  C      3.325135    3.624035   -2.745753
  H     -0.918754    1.661978   -0.752376
  H      1.783032    1.785736    0.700253
  H      1.618345    0.703053   -0.692337
  H      1.063138    4.854660   -1.190975
  H      1.702781    4.172921    0.387671
  H      4.287344    3.256349    0.192415
  H      4.171131    1.800156   -0.817449
  H      5.074833    4.576882   -1.777184
  H      5.503222    3.024799   -2.521850
  H      3.195968    2.805275   -3.459977
  H      3.037824    4.560505   -3.229626

 Total Charge           Charge          ....    0
 Multiplicity           Mult            ....    1
 Number of Electrons    NEL             ....   68
 Basis Dimension        Dim             ....  345

ORBITAL ENERGIES
----------------

  NO   OCC          E(Eh)            E(eV)
   0   2.0000     -20.555689      -559.3487
   1   2.0000     -15.570683      -423.6998
   2   2.0000     -11.328623      -308.2675
   3   2.0000     -11.273550      -306.7689
   4   2.0000     -11.270648      -306.6899
   5   2.0000     -11.261216      -306.4333
   6   2.0000     -11.235842      -305.7428
   7   2.0000     -11.232715      -305.6577
   8   2.0000     -11.229391      -305.5673
   9   2.0000      -1.395274       -37.9673
  10   2.0000      -1.289821       -35.0978
  11   2.0000      -1.121217       -30.5099
  12   2.0000      -1.027189       -27.9512
  13   2.0000      -0.916497       -24.9392
  14   2.0000      -0.865257       -23.5448
  15   2.0000      -0.856356       -23.3026
  16   2.0000      -0.793516       -21.5927
  17   2.0000      -0.739302       -20.1174
  18   2.0000      -0.686364       -18.6769
  19   2.0000      -0.665390       -18.1062
  20   2.0000      -0.652381       -17.7522
  21   2.0000      -0.650411       -17.6986
  22   2.0000      -0.626158       -17.0386
  23   2.0000      -0.592407       -16.1202
  24   2.0000      -0.552258       -15.0277
  25   2.0000      -0.547246       -14.8913
  26   2.0000      -0.519159       -14.1270
  27   2.0000      -0.503914       -13.7122
  28   2.0000      -0.497887       -13.5482
  29   2.0000      -0.467569       -12.7232
  30   2.0000      -0.453171       -12.3314
  31   2.0000      -0.439936       -11.9713
  32   2.0000      -0.410618       -11.1735
  33   2.0000      -0.380412       -10.3515
  34   0.0000       0.127043         3.4570
  35   0.0000       0.133934         3.6445
  36   0.0000       0.151966         4.1352
  37   0.0000       0.160461         4.3664
  38   0.0000       0.165382         4.5003

MULLIKEN ATOMIC CHARGES
-----------------------
   0 O :   -0.264166
   1 C :    0.086553
   2 C :   -0.088581
   3 N :   -0.252225
   4 C :   -0.248639
   5 C :    0.078239
   6 C :   -0.201858
   7 C :   -0.238640
   8 C :   -0.186709
   9 H :    0.086977
  10 H :    0.115769
  11 H :    0.137306
  12 H :    0.130453
  13 H :    0.131664
  14 H :    0.122082
  15 H :    0.117024
  16 H :    0.118391
  17 H :    0.121671
  18 H :    0.115630
  19 H :    0.119059
Sum of atomic charges:    0.0000000

LOEWDIN ATOMIC CHARGES
----------------------
   0 O :    0.132207
   1 C :   -0.288683
   2 C :   -0.292632
   3 N :    0.126779
   4 C :   -0.217437
   5 C :   -0.276683
   6 C :   -0.204543
   7 C :   -0.230588
   8 C :   -0.194978
   9 H :    0.113237
  10 H :    0.135701
  11 H :    0.149789
  12 H :    0.127501
  13 H :    0.127611
  14 H :    0.128620
  15 H :    0.137909
  16 H :    0.133571
  17 H :    0.124735
  18 H :    0.138749
  19 H :    0.129133

  Mayer bond orders larger than 0.1
B(  0-O ,  1-C ) :   2.0082 B(  1-C ,  2-C ) :   0.8801 B(  1-C ,  9-H ) :   0.9395
B(  2-C ,  3-N ) :   0.8684 B(  2-C , 10-H ) :   0.8912 B(  2-C , 11-H ) :   0.9020
B(  3-N ,  4-C ) :   0.9289 B(  3-N ,  5-C ) :   0.8484 B(  4-C ,  5-C ) :   0.9089
B(  4-C , 12-H ) :   0.9146 B(  4-C , 13-H ) :   0.9262 B(  5-C ,  6-C ) :   0.9109
B(  5-C ,  8-C ) :   0.8870 B(  6-C ,  7-C ) :   0.9596 B(  6-C , 14-H ) :   0.9250
B(  6-C , 15-H ) :   0.9175 B(  7-C ,  8-C ) :   0.9444 B(  7-C , 16-H ) :   0.9226
B(  7-C , 17-H ) :   0.9331 B(  8-C , 18-H ) :   0.9212 B(  8-C , 19-H ) :   0.9255

MP2 TOTAL ENERGY:     -402.410460495 Eh
FINAL SINGLE POINT ENERGY      -402.410460495261

DIPOLE MOMENT
-------------
                                X             Y             Z
Electronic contribution:     -7.17321      -3.22662       3.04615
Nuclear contribution   :      8.12414       3.73845      -3.54798
                        -----------------------------------------
Total Dipole Moment    :      0.95094       0.51184      -0.50183
                        -----------------------------------------
Magnitude (a.u.)       :      1.19083
Magnitude (Debye)      :      3.02686

                             ****ORCA TERMINATED NORMALLY****
TOTAL RUN TIME: 0 days 0 hours 16 minutes 45 seconds 116 msec
