                         Program Version 3.0.3 - RELEASE   -
|  1> ! RI-MP2 RIJK def2-TZVP def2-TZVP/C def2-TZVP/JK TIGHTSCF
|  2> % maxcore 2000
|  3> % mp2 density relaxed end
|  4> *xyz 0 1
|  5>  O       -0.0411228300    -0.0450459859    -0.0121560737
|  6>  C       -0.0294354194     1.1556652958    -0.0126114759
|  7>  C       -1.2351618072     2.1192928538     0.0366768323
|  8>  N       -0.6634228597     3.4596577336    -0.1201092252
|  9>  C        0.7073503588     3.3344454209    -0.0393367207
| 10>  N        1.7136253185     4.1521531053     0.0115543320
| 11>  C        2.8232385315     3.2940067919     0.0225082097
| 12>  C        2.4707972939     1.9789505249    -0.0226648394
| 13>  N        1.0734369247     2.0017046625    -0.0559044009
| 14>  H       -1.9370169741     1.8712708705    -0.7649659763
| 15>  H       -1.7506445199     1.9847056337     0.9948900553
| 16>  H       -1.0872625244     4.2329003054     0.3695838473
| 17>  H        3.8223085032     3.7015258167     0.0589820676
| 18>  H        3.0288069840     1.0600980009    -0.0373885822
| 19> *
| 20>
| 21>                          ****END OF INPUT****

CARTESIAN COORDINATES (ANGSTROEM)
---------------------------------
  O     -0.041123   -0.045046   -0.012156
  C     -0.029435    1.155665   -0.012611
  C     -1.235162    2.119293    0.036677
  N     -0.663423    3.459658   -0.120109
  C      0.707350    3.334445   -0.039337
  N      1.713625    4.152153    0.011554
  C      2.823239    3.294007    0.022508
  C      2.470797    1.978951   -0.022665
  N      1.073437    2.001705   -0.055904
  H     -1.937017    1.871271   -0.764966
  H     -1.750645    1.984706    0.994890
  H     -1.087263    4.232900    0.369584
  H      3.822309    3.701526    0.058982
  H      3.028807    1.060098   -0.037389

 Total Charge           Charge          ....    0
 Multiplicity           Mult            ....    1
 Number of Electrons    NEL             ....   64
 Basis Dimension        Dim             ....  309

ORBITAL ENERGIES
----------------

  NO   OCC          E(Eh)            E(eV)
   0   2.0000     -20.563027      -559.5484
   1   2.0000     -15.636616      -425.4939
   2   2.0000     -15.608706      -424.7345
   3   2.0000     -15.553945      -423.2444
   4   2.0000     -11.393206      -310.0249
   5   2.0000     -11.356693      -309.0313
   6   2.0000     -11.309127      -307.7370
   7   2.0000     -11.271067      -306.7013
   8   2.0000     -11.268431      -306.6296
   9   2.0000      -1.434158       -39.0254
  10   2.0000      -1.379338       -37.5337
  11   2.0000      -1.258070       -34.2338
  12   2.0000      -1.205692       -32.8086
  13   2.0000      -1.021021       -27.7834
  14   2.0000      -1.007006       -27.4020
  15   2.0000      -0.869261       -23.6538
  16   2.0000      -0.841554       -22.8998
  17   2.0000      -0.784322       -21.3425
  18   2.0000      -0.718568       -19.5532
  19   2.0000      -0.697147       -18.9703
  20   2.0000      -0.662016       -18.0144
  21   2.0000      -0.653643       -17.7865
  22   2.0000      -0.641337       -17.4517
  23   2.0000      -0.613204       -16.6861
  24   2.0000      -0.609296       -16.5798
  25   2.0000      -0.575224       -15.6526
  26   2.0000      -0.560085       -15.2407
  27   2.0000      -0.470830       -12.8119
  28   2.0000      -0.466183       -12.6855
  29   2.0000      -0.445742       -12.1293
  30   2.0000      -0.418570       -11.3899
  31   2.0000      -0.318636        -8.6705
  32   0.0000       0.107199         2.9170
  33   0.0000       0.120092         3.2679
  34   0.0000       0.153540         4.1780
  35   0.0000       0.179884         4.8949
  36   0.0000       0.185549         5.0490

MULLIKEN ATOMIC CHARGES
-----------------------
   0 O :   -0.285358
   1 C :    0.173350
   2 C :   -0.101562
   3 N :   -0.334437
   4 C :    0.204444
   5 N :   -0.274824
   6 C :   -0.072904
   7 C :   -0.151485
   8 N :   -0.026683
   9 H :    0.152809
  10 H :    0.151265
  11 H :    0.253891
  12 H :    0.142570
  13 H :    0.168923
Sum of atomic charges:   -0.0000000

LOEWDIN ATOMIC CHARGES
----------------------
   0 O :    0.143967
   1 C :   -0.371617
   2 C :   -0.217950
   3 N :    0.081585
   4 C :   -0.358010
   5 N :    0.094490
   6 C :   -0.225537
   7 C :   -0.199682
   8 N :    0.288014
   9 H :    0.148000
  10 H :    0.147760
  11 H :    0.189278
  12 H :    0.136183
  13 H :    0.143519

  Mayer bond orders larger than 0.1
B(  0-O ,  1-C ) :   2.0279 B(  1-C ,  2-C ) :   0.9310 B(  1-C ,  8-N ) :   0.9937
B(  2-C ,  3-N ) :   0.9117 B(  2-C ,  9-H ) :   0.9078 B(  2-C , 10-H ) :   0.9104
B(  3-N ,  4-C ) :   1.1157 B(  3-N , 11-H ) :   0.8633 B(  4-C ,  5-N ) :   1.7006
B(  4-C ,  8-N ) :   1.0692 B(  5-N ,  6-C ) :   1.1618 B(  6-C ,  7-C ) :   1.5920
B(  6-C , 12-H ) :   0.9374 B(  7-C ,  8-N ) :   1.0098 B(  7-C , 13-H ) :   0.9187

MP2 TOTAL ENERGY:     -432.204543996 Eh
FINAL SINGLE POINT ENERGY      -432.204543995630

DIPOLE MOMENT
-------------
                                X             Y             Z
Electronic contribution:      0.74862      -0.84216      -0.31549
Nuclear contribution   :     -1.41925       1.00012       0.66053
                        -----------------------------------------
Total Dipole Moment    :     -0.67063       0.15796       0.34504
                        -----------------------------------------
Magnitude (a.u.)       :      0.77055
Magnitude (Debye)      :      1.95858

                             ****ORCA TERMINATED NORMALLY****
TOTAL RUN TIME: 0 days 0 hours 15 minutes 13 seconds 989 msec
