                         Program Version 3.0.3 - RELEASE   -
|  1> ! RI-MP2 RIJK def2-TZVP def2-TZVP/C def2-TZVP/JK TIGHTSCF
|  2> % maxcore 2000
|  3> % mp2 density relaxed end
|  4> *xyz 0 1
|  5>  C       -0.1938219875     1.2677684256     0.0932914849
|  6>  C       -0.2690014040    -0.0978964735    -0.5959639580
|  7>  C        1.0868291989    -0.5062023022    -1.1886088694
|  8>  N        1.2094918958    -1.7754599027    -1.8831674050
|  9>  C        0.2236242557    -2.5434552499    -2.0061653105
| 10>  O        0.3641684315    -3.7209129323    -2.6581677193
| 11>  C       -0.8108683676    -4.5144809840    -2.7417118605
| 12>  H        0.5359444901     1.2588436018     0.9103459655
| 13>  H        0.1092344050     2.0502096528    -0.6110943238
| 14>  H       -1.1614839924     1.5560716010     0.5146448727
| 15>  H       -0.6029079951    -0.8541460564     0.1262676057
| 16>  H       -1.0277848381    -0.0661956220    -1.3885973905
| 17>  H        1.4186326022     0.2747715390    -1.8876147491
| 18>  H        1.8394455970    -0.5056051930    -0.3872417877
| 19>  H       -0.7923712239    -2.3666170937    -1.6293539622
| 20>  H       -1.1797133747    -4.7980295475    -1.7478049874
| 21>  H       -1.6107847347    -3.9976946494    -3.2870221922
| 22>  H       -0.5350524581    -5.4172295136    -3.2883495131
| 23> *
| 24>
| 25>                          ****END OF INPUT****

CARTESIAN COORDINATES (ANGSTROEM)
---------------------------------
  C     -0.193822    1.267768    0.093291
  C     -0.269001   -0.097896   -0.595964
  C      1.086829   -0.506202   -1.188609
  N      1.209492   -1.775460   -1.883167
  C      0.223624   -2.543455   -2.006165
  O      0.364168   -3.720913   -2.658168
  C     -0.810868   -4.514481   -2.741712
  H      0.535944    1.258844    0.910346
  H      0.109234    2.050210   -0.611094
  H     -1.161484    1.556072    0.514645
  H     -0.602908   -0.854146    0.126268
  H     -1.027785   -0.066196   -1.388597
  H      1.418633    0.274772   -1.887615
  H      1.839446   -0.505605   -0.387242
  H     -0.792371   -2.366617   -1.629354
  H     -1.179713   -4.798030   -1.747805
  H     -1.610785   -3.997695   -3.287022
  H     -0.535052   -5.417230   -3.288350

 Total Charge           Charge          ....    0
 Multiplicity           Mult            ....    1
 Number of Electrons    NEL             ....   56
 Basis Dimension        Dim             ....  283

ORBITAL ENERGIES
----------------

  NO   OCC          E(Eh)            E(eV)
   0   2.0000     -20.584342      -560.1284
   1   2.0000     -15.537670      -422.8015
   2   2.0000     -11.323902      -308.1390
   3   2.0000     -11.289695      -307.2082
   4   2.0000     -11.248277      -306.0812
   5   2.0000     -11.224881      -305.4446
   6   2.0000     -11.218227      -305.2635
   7   2.0000      -1.418032       -38.5866
   8   2.0000      -1.215147       -33.0658
   9   2.0000      -1.051136       -28.6029
  10   2.0000      -0.969852       -26.3910
  11   2.0000      -0.912999       -24.8440
  12   2.0000      -0.841665       -22.9029
  13   2.0000      -0.782117       -21.2825
  14   2.0000      -0.700594       -19.0641
  15   2.0000      -0.659933       -17.9577
  16   2.0000      -0.648494       -17.6464
  17   2.0000      -0.638383       -17.3713
  18   2.0000      -0.594374       -16.1737
  19   2.0000      -0.557928       -15.1820
  20   2.0000      -0.556492       -15.1429
  21   2.0000      -0.535997       -14.5852
  22   2.0000      -0.511857       -13.9283
  23   2.0000      -0.507164       -13.8006
  24   2.0000      -0.492144       -13.3919
  25   2.0000      -0.481116       -13.0918
  26   2.0000      -0.396410       -10.7869
  27   2.0000      -0.376073       -10.2335
  28   0.0000       0.130639         3.5549
  29   0.0000       0.145343         3.9550
  30   0.0000       0.151137         4.1127
  31   0.0000       0.174521         4.7489
  32   0.0000       0.184051         5.0083

MULLIKEN ATOMIC CHARGES
-----------------------
   0 C :   -0.388370
   1 C :   -0.234366
   2 C :   -0.104708
   3 N :   -0.184636
   4 C :    0.073668
   5 O :   -0.234123
   6 C :   -0.243865
   7 H :    0.125960
   8 H :    0.125959
   9 H :    0.134744
  10 H :    0.107829
  11 H :    0.107826
  12 H :    0.117649
  13 H :    0.117647
  14 H :    0.068660
  15 H :    0.129912
  16 H :    0.129918
  17 H :    0.150296
Sum of atomic charges:   -0.0000000

LOEWDIN ATOMIC CHARGES
----------------------
   0 C :   -0.318605
   1 C :   -0.310530
   2 C :   -0.308859
   3 N :    0.087633
   4 C :   -0.368813
   5 O :    0.210158
   6 C :   -0.340657
   7 H :    0.121910
   8 H :    0.121910
   9 H :    0.121190
  10 H :    0.132563
  11 H :    0.132561
  12 H :    0.137641
  13 H :    0.137640
  14 H :    0.112977
  15 H :    0.106379
  16 H :    0.106379
  17 H :    0.118524

  Mayer bond orders larger than 0.1
B(  0-C ,  1-C ) :   0.9234 B(  0-C ,  7-H ) :   0.9400 B(  0-C ,  8-H ) :   0.9400
B(  0-C ,  9-H ) :   0.9404 B(  1-C ,  2-C ) :   0.9238 B(  1-C , 10-H ) :   0.9259
B(  1-C , 11-H ) :   0.9259 B(  2-C ,  3-N ) :   0.9472 B(  2-C , 12-H ) :   0.9214
B(  2-C , 13-H ) :   0.9214 B(  3-N ,  4-C ) :   1.8749 B(  4-C ,  5-O ) :   1.0630
B(  4-C , 14-H ) :   0.9297 B(  5-O ,  6-C ) :   0.8781 B(  6-C , 15-H ) :   0.9360
B(  6-C , 16-H ) :   0.9360 B(  6-C , 17-H ) :   0.9394

MP2 TOTAL ENERGY:     -326.411749588 Eh
FINAL SINGLE POINT ENERGY      -326.411749588480

DIPOLE MOMENT
-------------
                                X             Y             Z
Electronic contribution:      3.67009      -5.69770      -3.99238
Nuclear contribution   :     -4.87169       5.66996       4.31478
                        -----------------------------------------
Total Dipole Moment    :     -1.20159      -0.02774       0.32240
                        -----------------------------------------
Magnitude (a.u.)       :      1.24441
Magnitude (Debye)      :      3.16303

                             ****ORCA TERMINATED NORMALLY****
TOTAL RUN TIME: 0 days 0 hours 7 minutes 46 seconds 941 msec
