                         Program Version 3.0.3 - RELEASE   -
|  1> ! RI-MP2 RIJK def2-TZVP def2-TZVP/C def2-TZVP/JK TIGHTSCF
|  2> % maxcore 2000
|  3> % mp2 density relaxed end
|  4> *xyz 0 1
|  5>  C       -0.2818203556     1.3479112718    -0.7356748683
|  6>  C       -0.0251684831     0.0183552522    -0.0551577372
|  7>  C        1.1054988150    -0.8222589217    -0.5551902656
|  8>  N        1.2050669845    -0.1499044974     0.7477827703
|  9>  C       -1.2146152001    -0.6449259738     0.5332513631
| 10>  C       -2.5353501523    -0.4895084595     0.2458181952
| 11>  O       -3.2898340094    -1.2922041806     1.0132227633
| 12>  N       -2.4566457712    -2.0183780838     1.8586154861
| 13>  C       -1.2426180032    -1.6279125740     1.5676805768
| 14>  H        0.6457570151     1.7604416757    -1.1443969603
| 15>  H       -0.9877368021     1.2385890008    -1.5663814970
| 16>  H       -0.7018576681     2.0737600208    -0.0313482029
| 17>  H        1.0349820338    -1.9052655849    -0.5079275049
| 18>  H        1.6864346256    -0.4411265300    -1.3916274672
| 19>  H        1.7845320304     0.6824978351     0.6719384798
| 20>  H       -3.0761433859     0.1316992521    -0.4506553084
| 21>  H       -0.4013494634    -2.0377292328     2.1068964875
| 22> *
| 23>
| 24>                          ****END OF INPUT****

CARTESIAN COORDINATES (ANGSTROEM)
---------------------------------
  C     -0.281820    1.347911   -0.735675
  C     -0.025168    0.018355   -0.055158
  C      1.105499   -0.822259   -0.555190
  N      1.205067   -0.149904    0.747783
  C     -1.214615   -0.644926    0.533251
  C     -2.535350   -0.489508    0.245818
  O     -3.289834   -1.292204    1.013223
  N     -2.456646   -2.018378    1.858615
  C     -1.242618   -1.627913    1.567681
  H      0.645757    1.760442   -1.144397
  H     -0.987737    1.238589   -1.566381
  H     -0.701858    2.073760   -0.031348
  H      1.034982   -1.905266   -0.507928
  H      1.686435   -0.441127   -1.391627
  H      1.784532    0.682498    0.671938
  H     -3.076143    0.131699   -0.450655
  H     -0.401349   -2.037729    2.106896

 Total Charge           Charge          ....    0
 Multiplicity           Mult            ....    1
 Number of Electrons    NEL             ....   66
 Basis Dimension        Dim             ....  327

ORBITAL ENERGIES
----------------

  NO   OCC          E(Eh)            E(eV)
   0   2.0000     -20.640119      -561.6462
   1   2.0000     -15.619479      -425.0276
   2   2.0000     -15.571806      -423.7304
   3   2.0000     -11.309318      -307.7422
   4   2.0000     -11.291681      -307.2623
   5   2.0000     -11.273255      -306.7609
   6   2.0000     -11.268099      -306.6206
   7   2.0000     -11.244118      -305.9680
   8   2.0000     -11.242901      -305.9349
   9   2.0000      -1.489905       -40.5424
  10   2.0000      -1.281598       -34.8740
  11   2.0000      -1.159791       -31.5595
  12   2.0000      -1.084236       -29.5036
  13   2.0000      -1.002932       -27.2912
  14   2.0000      -0.902798       -24.5664
  15   2.0000      -0.863371       -23.4935
  16   2.0000      -0.816204       -22.2100
  17   2.0000      -0.784811       -21.3558
  18   2.0000      -0.721317       -19.6280
  19   2.0000      -0.683558       -18.6006
  20   2.0000      -0.654569       -17.8117
  21   2.0000      -0.647966       -17.6321
  22   2.0000      -0.596035       -16.2189
  23   2.0000      -0.584971       -15.9179
  24   2.0000      -0.569608       -15.4998
  25   2.0000      -0.567214       -15.4347
  26   2.0000      -0.538320       -14.6484
  27   2.0000      -0.499265       -13.5857
  28   2.0000      -0.486514       -13.2387
  29   2.0000      -0.472670       -12.8620
  30   2.0000      -0.423054       -11.5119
  31   2.0000      -0.406974       -11.0743
  32   2.0000      -0.348795        -9.4912
  33   0.0000       0.119957         3.2642
  34   0.0000       0.123963         3.3732
  35   0.0000       0.152911         4.1609
  36   0.0000       0.173077         4.7097
  37   0.0000       0.176626         4.8062

MULLIKEN ATOMIC CHARGES
-----------------------
   0 C :   -0.407654
   1 C :    0.098353
   2 C :   -0.195294
   3 N :   -0.365534
   4 C :    0.015535
   5 C :   -0.041043
   6 O :   -0.104745
   7 N :   -0.100370
   8 C :   -0.130834
   9 H :    0.129051
  10 H :    0.137703
  11 H :    0.151788
  12 H :    0.134224
  13 H :    0.131565
  14 H :    0.220011
  15 H :    0.160728
  16 H :    0.166516
Sum of atomic charges:   -0.0000000

LOEWDIN ATOMIC CHARGES
----------------------
   0 C :   -0.263730
   1 C :   -0.295266
   2 C :   -0.234394
   3 N :    0.013959
   4 C :   -0.165140
   5 C :   -0.237332
   6 O :    0.273910
   7 N :    0.034616
   8 C :   -0.230173
   9 H :    0.128951
  10 H :    0.132227
  11 H :    0.132690
  12 H :    0.129412
  13 H :    0.123535
  14 H :    0.167015
  15 H :    0.139585
  16 H :    0.150134

  Mayer bond orders larger than 0.1
B(  0-C ,  1-C ) :   0.9364 B(  0-C ,  9-H ) :   0.9233 B(  0-C , 10-H ) :   0.9353
B(  0-C , 11-H ) :   0.9347 B(  1-C ,  2-C ) :   0.9071 B(  1-C ,  3-N ) :   0.9647
B(  1-C ,  4-C ) :   0.8959 B(  2-C ,  3-N ) :   0.9252 B(  2-C , 12-H ) :   0.9164
B(  2-C , 13-H ) :   0.9192 B(  3-N , 14-H ) :   0.8694 B(  4-C ,  5-C ) :   1.5009
B(  4-C ,  8-C ) :   1.1963 B(  5-C ,  6-O ) :   1.1251 B(  5-C ,  7-N ) :   0.1100
B(  5-C , 15-H ) :   0.9159 B(  6-O ,  7-N ) :   0.8950 B(  7-N ,  8-C ) :   1.5958
B(  8-C , 16-H ) :   0.9144

MP2 TOTAL ENERGY:     -417.262943012 Eh
FINAL SINGLE POINT ENERGY      -417.262943012203

DIPOLE MOMENT
-------------
                                X             Y             Z
Electronic contribution:     -6.37087      -4.94831       4.70113
Nuclear contribution   :      7.24360       6.00009      -5.92704
                        -----------------------------------------
Total Dipole Moment    :      0.87273       1.05178      -1.22591
                        -----------------------------------------
Magnitude (a.u.)       :      1.83596
Magnitude (Debye)      :      4.66664

                             ****ORCA TERMINATED NORMALLY****
TOTAL RUN TIME: 0 days 0 hours 16 minutes 37 seconds 290 msec
