                         Program Version 3.0.3 - RELEASE   -
|  1> ! RI-MP2 RIJK def2-TZVP def2-TZVP/C def2-TZVP/JK TIGHTSCF
|  2> % maxcore 2000
|  3> % mp2 density relaxed end
|  4> *xyz 0 1
|  5>  N        0.0777718444     0.9960817086     0.7645548192
|  6>  C       -0.0187096497     0.0226210710    -0.1850654607
|  7>  O        0.8071459031    -0.1760979412    -1.0552490797
|  8>  C       -1.2800547495    -0.7984414237    -0.1130442565
|  9>  C       -2.6183696077    -0.1484976732    -0.0882701008
| 10>  N       -2.0781538834    -0.7643054799     1.1478442923
| 11>  C       -2.4918041380    -2.1346954487     1.2652150910
| 12>  N       -2.0753500731    -2.9811671472     0.4165826015
| 13>  C       -1.2270028950    -2.2626570878    -0.5517632094
| 14>  H        0.9491563086     1.4984950757     0.8231045390
| 15>  H       -0.4973416668     0.9195278807     1.5897695151
| 16>  H       -2.6862552217     0.9341296242    -0.0603351263
| 17>  H       -3.4394222306    -0.6609254407    -0.5835157576
| 18>  H       -3.1336464040    -2.3921782651     2.1024850561
| 19>  H       -1.5960181144    -2.4350241355    -1.5671346525
| 20>  H       -0.2017174022    -2.6432419772    -0.5150260608
| 21> *
| 22>
| 23>                          ****END OF INPUT****

CARTESIAN COORDINATES (ANGSTROEM)
---------------------------------
  N      0.077772    0.996082    0.764555
  C     -0.018710    0.022621   -0.185065
  O      0.807146   -0.176098   -1.055249
  C     -1.280055   -0.798441   -0.113044
  C     -2.618370   -0.148498   -0.088270
  N     -2.078154   -0.764305    1.147844
  C     -2.491804   -2.134695    1.265215
  N     -2.075350   -2.981167    0.416583
  C     -1.227003   -2.262657   -0.551763
  H      0.949156    1.498495    0.823105
  H     -0.497342    0.919528    1.589770
  H     -2.686255    0.934130   -0.060335
  H     -3.439422   -0.660925   -0.583516
  H     -3.133646   -2.392178    2.102485
  H     -1.596018   -2.435024   -1.567135
  H     -0.201717   -2.643242   -0.515026

 Total Charge           Charge          ....    0
 Multiplicity           Mult            ....    1
 Number of Electrons    NEL             ....   66
 Basis Dimension        Dim             ....  321

ORBITAL ENERGIES
----------------

  NO   OCC          E(Eh)            E(eV)
   0   2.0000     -20.529673      -558.6408
   1   2.0000     -15.601653      -424.5426
   2   2.0000     -15.587619      -424.1607
   3   2.0000     -15.568528      -423.6412
   4   2.0000     -11.363235      -309.2094
   5   2.0000     -11.315869      -307.9204
   6   2.0000     -11.296732      -307.3997
   7   2.0000     -11.295427      -307.3642
   8   2.0000     -11.269634      -306.6623
   9   2.0000      -1.394976       -37.9592
  10   2.0000      -1.348310       -36.6894
  11   2.0000      -1.225330       -33.3429
  12   2.0000      -1.201452       -32.6932
  13   2.0000      -1.032692       -28.1010
  14   2.0000      -0.922067       -25.0907
  15   2.0000      -0.894053       -24.3284
  16   2.0000      -0.799985       -21.7687
  17   2.0000      -0.775787       -21.1102
  18   2.0000      -0.747826       -20.3494
  19   2.0000      -0.693258       -18.8645
  20   2.0000      -0.676794       -18.4165
  21   2.0000      -0.642771       -17.4907
  22   2.0000      -0.611789       -16.6476
  23   2.0000      -0.595546       -16.2056
  24   2.0000      -0.581541       -15.8245
  25   2.0000      -0.572824       -15.5873
  26   2.0000      -0.532671       -14.4947
  27   2.0000      -0.514036       -13.9876
  28   2.0000      -0.457598       -12.4519
  29   2.0000      -0.444610       -12.0984
  30   2.0000      -0.433218       -11.7885
  31   2.0000      -0.422268       -11.4905
  32   2.0000      -0.389796       -10.6069
  33   0.0000       0.131303         3.5729
  34   0.0000       0.136886         3.7249
  35   0.0000       0.154757         4.2112
  36   0.0000       0.160810         4.3759
  37   0.0000       0.177980         4.8431

MULLIKEN ATOMIC CHARGES
-----------------------
   0 N :   -0.482022
   1 C :    0.188370
   2 O :   -0.337529
   3 C :    0.131507
   4 C :   -0.156104
   5 N :   -0.290431
   6 C :    0.003939
   7 N :   -0.211465
   8 C :   -0.119308
   9 H :    0.257859
  10 H :    0.280640
  11 H :    0.147615
  12 H :    0.148567
  13 H :    0.146887
  14 H :    0.140219
  15 H :    0.151255
Sum of atomic charges:   -0.0000000

LOEWDIN ATOMIC CHARGES
----------------------
   0 N :   -0.008752
   1 C :   -0.450715
   2 O :    0.097168
   3 C :   -0.227484
   4 C :   -0.186763
   5 N :    0.125642
   6 C :   -0.279733
   7 N :    0.100396
   8 C :   -0.224079
   9 H :    0.175310
  10 H :    0.178850
  11 H :    0.135088
  12 H :    0.137526
  13 H :    0.136048
  14 H :    0.143081
  15 H :    0.148417

  Mayer bond orders larger than 0.1
B(  0-N ,  1-C ) :   1.1898 B(  0-N ,  9-H ) :   0.8616 B(  0-N , 10-H ) :   0.8485
B(  1-C ,  2-O ) :   1.9929 B(  1-C ,  3-C ) :   0.8754 B(  3-C ,  4-C ) :   0.8931
B(  3-C ,  5-N ) :   0.7766 B(  3-C ,  8-C ) :   0.9424 B(  4-C ,  5-N ) :   0.8427
B(  4-C , 11-H ) :   0.9167 B(  4-C , 12-H ) :   0.9140 B(  5-N ,  6-C ) :   0.9765
B(  6-C ,  7-N ) :   1.8553 B(  6-C , 13-H ) :   0.9241 B(  7-N ,  8-C ) :   0.9276
B(  8-C , 14-H ) :   0.9199 B(  8-C , 15-H ) :   0.9175

MP2 TOTAL ENERGY:     -433.364001781 Eh
FINAL SINGLE POINT ENERGY      -433.364001780637

DIPOLE MOMENT
-------------
                                X             Y             Z
Electronic contribution:      1.53282      -0.47639       0.18366
Nuclear contribution   :     -2.23045       1.30253       0.54370
                        -----------------------------------------
Total Dipole Moment    :     -0.69763       0.82614       0.72736
                        -----------------------------------------
Magnitude (a.u.)       :      1.30317
Magnitude (Debye)      :      3.31239

                             ****ORCA TERMINATED NORMALLY****
TOTAL RUN TIME: 0 days 0 hours 17 minutes 57 seconds 443 msec
