                         Program Version 3.0.3 - RELEASE   -
|  1> ! RI-MP2 RIJK def2-TZVP def2-TZVP/C def2-TZVP/JK TIGHTSCF
|  2> % maxcore 2000
|  3> % mp2 density relaxed end
|  4> *xyz 0 1
|  5>  C        0.2722009899     1.3465902089     0.5195772503
|  6>  C       -0.0412466794    -0.0480515713    -0.0307733416
|  7>  C       -1.5413655287    -0.2859252251    -0.1666731664
|  8>  O        0.5176705529    -0.2317069506    -1.3318975378
|  9>  C        1.8823138753    -0.5505280183    -1.3610223894
| 10>  C        2.3313672786    -2.0025927106    -1.0174066345
| 11>  C        3.3045540982    -1.9201456218    -2.2262404437
| 12>  C        2.4590945737    -0.7389464815    -2.7778144095
| 13>  H        1.3494219600     1.5171776122     0.6035449466
| 14>  H       -0.1448048335     2.1137105741    -0.1407615183
| 15>  H       -0.1622244900     1.4734202097     1.5165656907
| 16>  H        0.3790444578    -0.8058603836     0.6497035245
| 17>  H       -1.9760038170     0.4373396343    -0.8642500644
| 18>  H       -1.7355920209    -1.2901233627    -0.5525055046
| 19>  H       -2.0421448615    -0.1780873659     0.8002169725
| 20>  H        2.4763157082     0.1785434918    -0.7901822249
| 21>  H        2.7503196535    -2.2032210111    -0.0285157549
| 22>  H        1.5108738230    -2.6999254298    -1.2111960393
| 23>  H        4.3056840159    -1.6008998792    -1.9237004846
| 24>  H        3.4007054340    -2.8070021132    -2.8552449038
| 25>  H        1.6697058820    -1.0894878639    -3.4486148735
| 26>  H        2.9737627980     0.1058130876    -3.2407245334
| 27> *
| 28>
| 29>                          ****END OF INPUT****

CARTESIAN COORDINATES (ANGSTROEM)
---------------------------------
  C      0.272201    1.346590    0.519577
  C     -0.041247   -0.048052   -0.030773
  C     -1.541366   -0.285925   -0.166673
  O      0.517671   -0.231707   -1.331898
  C      1.882314   -0.550528   -1.361022
  C      2.331367   -2.002593   -1.017407
  C      3.304554   -1.920146   -2.226240
  C      2.459095   -0.738946   -2.777814
  H      1.349422    1.517178    0.603545
  H     -0.144805    2.113711   -0.140762
  H     -0.162224    1.473420    1.516566
  H      0.379044   -0.805860    0.649704
  H     -1.976004    0.437340   -0.864250
  H     -1.735592   -1.290123   -0.552506
  H     -2.042145   -0.178087    0.800217
  H      2.476316    0.178543   -0.790182
  H      2.750320   -2.203221   -0.028516
  H      1.510874   -2.699925   -1.211196
  H      4.305684   -1.600900   -1.923700
  H      3.400705   -2.807002   -2.855245
  H      1.669706   -1.089488   -3.448615
  H      2.973763    0.105813   -3.240725

 Total Charge           Charge          ....    0
 Multiplicity           Mult            ....    1
 Number of Electrons    NEL             ....   64
 Basis Dimension        Dim             ....  332

ORBITAL ENERGIES
----------------

  NO   OCC          E(Eh)            E(eV)
   0   2.0000     -20.544345      -559.0401
   1   2.0000     -11.276559      -306.8508
   2   2.0000     -11.272000      -306.7267
   3   2.0000     -11.220059      -305.3133
   4   2.0000     -11.216262      -305.2100
   5   2.0000     -11.214106      -305.1513
   6   2.0000     -11.212217      -305.0999
   7   2.0000     -11.209244      -305.0190
   8   2.0000      -1.368589       -37.2412
   9   2.0000      -1.120289       -30.4846
  10   2.0000      -1.039108       -28.2756
  11   2.0000      -0.934599       -25.4317
  12   2.0000      -0.898128       -24.4393
  13   2.0000      -0.877989       -23.8913
  14   2.0000      -0.792108       -21.5543
  15   2.0000      -0.753618       -20.5070
  16   2.0000      -0.686569       -18.6825
  17   2.0000      -0.656702       -17.8698
  18   2.0000      -0.622069       -16.9274
  19   2.0000      -0.609314       -16.5803
  20   2.0000      -0.568182       -15.4610
  21   2.0000      -0.557754       -15.1773
  22   2.0000      -0.539150       -14.6710
  23   2.0000      -0.537014       -14.6129
  24   2.0000      -0.534787       -14.5523
  25   2.0000      -0.509369       -13.8606
  26   2.0000      -0.478654       -13.0248
  27   2.0000      -0.468857       -12.7583
  28   2.0000      -0.457594       -12.4518
  29   2.0000      -0.455891       -12.4054
  30   2.0000      -0.431416       -11.7394
  31   2.0000      -0.396334       -10.7848
  32   0.0000       0.135650         3.6912
  33   0.0000       0.153853         4.1866
  34   0.0000       0.160507         4.3676
  35   0.0000       0.168194         4.5768
  36   0.0000       0.187317         5.0972

MULLIKEN ATOMIC CHARGES
-----------------------
   0 C :   -0.394507
   1 C :    0.099196
   2 C :   -0.363308
   3 O :   -0.295235
   4 C :    0.012065
   5 C :   -0.225096
   6 C :   -0.232691
   7 C :   -0.184650
   8 H :    0.127425
   9 H :    0.127091
  10 H :    0.126918
  11 H :    0.071082
  12 H :    0.127739
  13 H :    0.132167
  14 H :    0.119501
  15 H :    0.061244
  16 H :    0.116443
  17 H :    0.110461
  18 H :    0.113635
  19 H :    0.118612
  20 H :    0.114475
  21 H :    0.117434
Sum of atomic charges:    0.0000000

LOEWDIN ATOMIC CHARGES
----------------------
   0 C :   -0.300186
   1 C :   -0.368342
   2 C :   -0.294179
   3 O :    0.198517
   4 C :   -0.321600
   5 C :   -0.234876
   6 C :   -0.245799
   7 C :   -0.221996
   8 H :    0.119456
   9 H :    0.125989
  10 H :    0.125139
  11 H :    0.135577
  12 H :    0.126262
  13 H :    0.124110
  14 H :    0.123969
  15 H :    0.132040
  16 H :    0.120057
  17 H :    0.137672
  18 H :    0.131699
  19 H :    0.123010
  20 H :    0.140622
  21 H :    0.122858

  Mayer bond orders larger than 0.1
B(  0-C ,  1-C ) :   0.9169 B(  0-C ,  8-H ) :   0.9347 B(  0-C ,  9-H ) :   0.9335
B(  0-C , 10-H ) :   0.9322 B(  1-C ,  2-C ) :   0.9322 B(  1-C ,  3-O ) :   0.8775
B(  1-C , 11-H ) :   0.9262 B(  2-C , 12-H ) :   0.9332 B(  2-C , 13-H ) :   0.9384
B(  2-C , 14-H ) :   0.9351 B(  3-O ,  4-C ) :   1.0205 B(  4-C ,  5-C ) :   0.9282
B(  4-C ,  7-C ) :   0.9172 B(  4-C , 15-H ) :   0.9331 B(  5-C ,  6-C ) :   0.9368
B(  5-C , 16-H ) :   0.9263 B(  5-C , 17-H ) :   0.9188 B(  6-C ,  7-C ) :   0.9203
B(  6-C , 18-H ) :   0.9287 B(  6-C , 19-H ) :   0.9312 B(  7-C , 20-H ) :   0.9236
B(  7-C , 21-H ) :   0.9294

MP2 TOTAL ENERGY:     -349.587195643 Eh
FINAL SINGLE POINT ENERGY      -349.587195642871

DIPOLE MOMENT
-------------
                                X             Y             Z
Electronic contribution:      1.00088      -0.64737      -2.35714
Nuclear contribution   :     -0.80332       0.60177       2.75708
                        -----------------------------------------
Total Dipole Moment    :      0.19756      -0.04560       0.39993
                        -----------------------------------------
Magnitude (a.u.)       :      0.44839
Magnitude (Debye)      :      1.13973

                             ****ORCA TERMINATED NORMALLY****
TOTAL RUN TIME: 0 days 0 hours 14 minutes 45 seconds 668 msec
