                         Program Version 3.0.3 - RELEASE   -
|  1> ! RI-MP2 RIJK def2-TZVP def2-TZVP/C def2-TZVP/JK TIGHTSCF
|  2> % maxcore 2000
|  3> % mp2 density relaxed end
|  4> *xyz 0 1
|  5>  C       -0.6825199655     1.3145986156     0.4992421600
|  6>  C       -0.4083564663    -0.1034222167     0.3251224232
|  7>  C       -0.2052073312    -1.2850163379     0.2022542548
|  8>  C        0.0812845059    -2.6764306394    -0.0087672315
|  9>  C       -0.5935530290    -3.7464535759     0.7975410728
| 10>  N       -0.9047337408    -3.5967571899    -0.6137324247
| 11>  C       -2.2193340836    -3.0812499119    -1.0312311865
| 12>  C       -3.1082291778    -2.5356515032    -0.0032499162
| 13>  C       -3.8656219919    -2.1383040235     0.8422586489
| 14>  H       -0.1940856189     1.7076481684     1.3979657054
| 15>  H       -0.3273328168     1.9012631709    -0.3552675733
| 16>  H       -1.7586686879     1.4931455251     0.6017567302
| 17>  H        1.0922527725    -2.8767026526    -0.3591709085
| 18>  H       -0.0437794250    -4.6453086000     1.0646771977
| 19>  H       -1.3312746574    -3.4130771769     1.5223963893
| 20>  H       -2.0446502082    -2.3244848598    -1.8042217741
| 21>  H       -2.7351540122    -3.9165576157    -1.5205779453
| 22>  H       -4.5292324460    -1.7662610964     1.5831375678
| 23> *
| 24>
| 25>                          ****END OF INPUT****

CARTESIAN COORDINATES (ANGSTROEM)
---------------------------------
  C     -0.682520    1.314599    0.499242
  C     -0.408356   -0.103422    0.325122
  C     -0.205207   -1.285016    0.202254
  C      0.081285   -2.676431   -0.008767
  C     -0.593553   -3.746454    0.797541
  N     -0.904734   -3.596757   -0.613732
  C     -2.219334   -3.081250   -1.031231
  C     -3.108229   -2.535652   -0.003250
  C     -3.865622   -2.138304    0.842259
  H     -0.194086    1.707648    1.397966
  H     -0.327333    1.901263   -0.355268
  H     -1.758669    1.493146    0.601757
  H      1.092253   -2.876703   -0.359171
  H     -0.043779   -4.645309    1.064677
  H     -1.331275   -3.413077    1.522396
  H     -2.044650   -2.324485   -1.804222
  H     -2.735154   -3.916558   -1.520578
  H     -4.529232   -1.766261    1.583138

 Total Charge           Charge          ....    0
 Multiplicity           Mult            ....    1
 Number of Electrons    NEL             ....   64
 Basis Dimension        Dim             ....  333

ORBITAL ENERGIES
----------------

  NO   OCC          E(Eh)            E(eV)
   0   2.0000     -15.572244      -423.7423
   1   2.0000     -11.281724      -306.9913
   2   2.0000     -11.280313      -306.9529
   3   2.0000     -11.260272      -306.4076
   4   2.0000     -11.247137      -306.0502
   5   2.0000     -11.234350      -305.7022
   6   2.0000     -11.227362      -305.5121
   7   2.0000     -11.223549      -305.4083
   8   2.0000     -11.218805      -305.2792
   9   2.0000      -1.282056       -34.8865
  10   2.0000      -1.068043       -29.0629
  11   2.0000      -1.055239       -28.7145
  12   2.0000      -0.992349       -27.0032
  13   2.0000      -0.964043       -26.2329
  14   2.0000      -0.863948       -23.5092
  15   2.0000      -0.844923       -22.9915
  16   2.0000      -0.726088       -19.7579
  17   2.0000      -0.710295       -19.3281
  18   2.0000      -0.673007       -18.3134
  19   2.0000      -0.632665       -17.2157
  20   2.0000      -0.626936       -17.0598
  21   2.0000      -0.600850       -16.3500
  22   2.0000      -0.586666       -15.9640
  23   2.0000      -0.586051       -15.9472
  24   2.0000      -0.559340       -15.2204
  25   2.0000      -0.494648       -13.4601
  26   2.0000      -0.481802       -13.1105
  27   2.0000      -0.420452       -11.4411
  28   2.0000      -0.400021       -10.8851
  29   2.0000      -0.389444       -10.5973
  30   2.0000      -0.363910        -9.9025
  31   2.0000      -0.343887        -9.3576
  32   0.0000       0.134939         3.6719
  33   0.0000       0.153849         4.1864
  34   0.0000       0.162323         4.4170
  35   0.0000       0.166625         4.5341
  36   0.0000       0.175171         4.7667

MULLIKEN ATOMIC CHARGES
-----------------------
   0 C :   -0.486510
   1 C :    0.044855
   2 C :    0.003087
   3 C :   -0.182760
   4 C :   -0.154151
   5 N :   -0.192906
   6 C :   -0.200031
   7 C :   -0.039618
   8 C :   -0.192221
   9 H :    0.162424
  10 H :    0.162027
  11 H :    0.165835
  12 H :    0.135202
  13 H :    0.128576
  14 H :    0.148414
  15 H :    0.156714
  16 H :    0.155117
  17 H :    0.185944
Sum of atomic charges:   -0.0000000

LOEWDIN ATOMIC CHARGES
----------------------
   0 C :   -0.293803
   1 C :   -0.088726
   2 C :   -0.074871
   3 C :   -0.241539
   4 C :   -0.221936
   5 N :    0.126640
   6 C :   -0.271000
   7 C :   -0.115877
   8 C :   -0.102024
   9 H :    0.141428
  10 H :    0.140599
  11 H :    0.142785
  12 H :    0.157215
  13 H :    0.125559
  14 H :    0.135517
  15 H :    0.157338
  16 H :    0.156192
  17 H :    0.126502

  Mayer bond orders larger than 0.1
B(  0-C ,  1-C ) :   0.8667 B(  0-C ,  9-H ) :   0.9467 B(  0-C , 10-H ) :   0.9476
B(  0-C , 11-H ) :   0.9444 B(  1-C ,  2-C ) :   2.6232 B(  2-C ,  3-C ) :   1.1008
B(  3-C ,  4-C ) :   0.9078 B(  3-C ,  5-N ) :   0.9068 B(  3-C , 12-H ) :   0.9288
B(  4-C ,  5-N ) :   0.9008 B(  4-C , 13-H ) :   0.9217 B(  4-C , 14-H ) :   0.9150
B(  5-N ,  6-C ) :   0.9302 B(  6-C ,  7-C ) :   0.9780 B(  6-C , 15-H ) :   0.9488
B(  6-C , 16-H ) :   0.9280 B(  7-C ,  8-C ) :   2.6443 B(  8-C , 17-H ) :   0.9170

MP2 TOTAL ENERGY:     -364.031923309 Eh
FINAL SINGLE POINT ENERGY      -364.031923309335

DIPOLE MOMENT
-------------
                                X             Y             Z
Electronic contribution:     -0.13111      -3.21024      -0.78282
Nuclear contribution   :     -0.02711       3.69354       1.07053
                        -----------------------------------------
Total Dipole Moment    :     -0.15822       0.48330       0.28771
                        -----------------------------------------
Magnitude (a.u.)       :      0.58428
Magnitude (Debye)      :      1.48513

                             ****ORCA TERMINATED NORMALLY****
TOTAL RUN TIME: 0 days 0 hours 17 minutes 58 seconds 263 msec
