                         Program Version 3.0.3 - RELEASE   -
|  1> ! RI-MP2 RIJK def2-TZVP def2-TZVP/C def2-TZVP/JK TIGHTSCF
|  2> % maxcore 2000
|  3> % mp2 density relaxed end
|  4> *xyz 0 1
|  5>  O       -0.0500977146     1.4745266896     0.0073924266
|  6>  C        0.0348852583     0.0575424983     0.0012419584
|  7>  C       -1.3566442996    -0.5035536055     0.0114080103
|  8>  C       -2.4834925656     0.2270841119     0.0239807788
|  9>  C       -3.7377333066    -0.6022237774     0.0317261081
| 10>  C       -3.2203429184    -2.0620193187     0.0226339918
| 11>  C       -1.7023093201    -1.9350309731     0.0090997830
| 12>  N       -0.9841578135    -2.9930639117    -0.0016060303
| 13>  O        0.3985990340    -2.7073672954    -0.0131304057
| 14>  H        0.8459658777     1.8215942654     0.0014766743
| 15>  H        0.5720490696    -0.3131503932    -0.8837837307
| 16>  H        0.5876096128    -0.3198550670     0.8737632289
| 17>  H       -2.4919582495     1.3093828348     0.0280392459
| 18>  H       -4.3548676836    -0.3855476432     0.9127410869
| 19>  H       -4.3692831322    -0.3798170520    -0.8375838069
| 20>  H       -3.5494158997    -2.6225262837     0.9017318136
| 21>  H       -3.5656781199    -2.6176552332    -0.8532900734
| 22>  H        0.7829314309    -3.5896009860    -0.0201321897
| 23> *
| 24>
| 25>                          ****END OF INPUT****

CARTESIAN COORDINATES (ANGSTROEM)
---------------------------------
  O     -0.050098    1.474527    0.007392
  C      0.034885    0.057542    0.001242
  C     -1.356644   -0.503554    0.011408
  C     -2.483493    0.227084    0.023981
  C     -3.737733   -0.602224    0.031726
  C     -3.220343   -2.062019    0.022634
  C     -1.702309   -1.935031    0.009100
  N     -0.984158   -2.993064   -0.001606
  O      0.398599   -2.707367   -0.013130
  H      0.845966    1.821594    0.001477
  H      0.572049   -0.313150   -0.883784
  H      0.587610   -0.319855    0.873763
  H     -2.491958    1.309383    0.028039
  H     -4.354868   -0.385548    0.912741
  H     -4.369283   -0.379817   -0.837584
  H     -3.549416   -2.622526    0.901732
  H     -3.565678   -2.617655   -0.853290
  H      0.782931   -3.589601   -0.020132

 Total Charge           Charge          ....    0
 Multiplicity           Mult            ....    1
 Number of Electrons    NEL             ....   68
 Basis Dimension        Dim             ....  333

ORBITAL ENERGIES
----------------

  NO   OCC          E(Eh)            E(eV)
   0   2.0000     -20.583276      -560.0994
   1   2.0000     -20.557429      -559.3961
   2   2.0000     -15.601247      -424.5315
   3   2.0000     -11.278795      -306.9116
   4   2.0000     -11.277161      -306.8672
   5   2.0000     -11.240798      -305.8777
   6   2.0000     -11.237493      -305.7877
   7   2.0000     -11.235264      -305.7271
   8   2.0000     -11.233039      -305.6665
   9   2.0000      -1.407131       -38.2900
  10   2.0000      -1.363086       -37.0915
  11   2.0000      -1.180509       -32.1233
  12   2.0000      -1.099267       -29.9126
  13   2.0000      -1.011768       -27.5316
  14   2.0000      -0.922839       -25.1117
  15   2.0000      -0.884431       -24.0666
  16   2.0000      -0.782950       -21.3052
  17   2.0000      -0.712959       -19.4006
  18   2.0000      -0.696039       -18.9402
  19   2.0000      -0.675243       -18.3743
  20   2.0000      -0.652873       -17.7656
  21   2.0000      -0.644027       -17.5249
  22   2.0000      -0.622856       -16.9488
  23   2.0000      -0.591357       -16.0916
  24   2.0000      -0.578625       -15.7452
  25   2.0000      -0.554694       -15.0940
  26   2.0000      -0.518094       -14.0980
  27   2.0000      -0.516292       -14.0490
  28   2.0000      -0.500668       -13.6239
  29   2.0000      -0.495675       -13.4880
  30   2.0000      -0.460639       -12.5346
  31   2.0000      -0.423797       -11.5321
  32   2.0000      -0.417642       -11.3646
  33   2.0000      -0.325950        -8.8696
  34   0.0000       0.114808         3.1241
  35   0.0000       0.135682         3.6921
  36   0.0000       0.145185         3.9507
  37   0.0000       0.155310         4.2262
  38   0.0000       0.178895         4.8680

MULLIKEN ATOMIC CHARGES
-----------------------
   0 O :   -0.470055
   1 C :   -0.058829
   2 C :   -0.030960
   3 C :   -0.171569
   4 C :   -0.147116
   5 C :   -0.208424
   6 C :    0.012002
   7 N :   -0.092995
   8 O :   -0.377624
   9 H :    0.316642
  10 H :    0.119539
  11 H :    0.119525
  12 H :    0.154604
  13 H :    0.121128
  14 H :    0.121102
  15 H :    0.130184
  16 H :    0.130225
  17 H :    0.332621
Sum of atomic charges:    0.0000000

LOEWDIN ATOMIC CHARGES
----------------------
   0 O :   -0.041422
   1 C :   -0.312612
   2 C :   -0.140115
   3 C :   -0.094453
   4 C :   -0.233360
   5 C :   -0.193313
   6 C :   -0.248570
   7 N :    0.019643
   8 O :   -0.077270
   9 H :    0.173858
  10 H :    0.129778
  11 H :    0.129775
  12 H :    0.146234
  13 H :    0.141182
  14 H :    0.141203
  15 H :    0.145958
  16 H :    0.145933
  17 H :    0.167551

  Mayer bond orders larger than 0.1
B(  0-O ,  1-C ) :   1.0303 B(  0-O ,  2-C ) :  -0.1184 B(  0-O ,  9-H ) :   0.8486
B(  1-C ,  2-C ) :   0.9551 B(  1-C , 10-H ) :   0.9238 B(  1-C , 11-H ) :   0.9238
B(  2-C ,  3-C ) :   1.6677 B(  2-C ,  6-C ) :   0.9456 B(  3-C ,  4-C ) :   0.9323
B(  3-C , 12-H ) :   0.9107 B(  4-C ,  5-C ) :   0.9719 B(  4-C , 13-H ) :   0.9137
B(  4-C , 14-H ) :   0.9135 B(  5-C ,  6-C ) :   0.9361 B(  5-C , 15-H ) :   0.9194
B(  5-C , 16-H ) :   0.9195 B(  6-C ,  7-N ) :   1.8462 B(  7-N ,  8-O ) :   0.7873
B(  8-O , 17-H ) :   0.8461

MP2 TOTAL ENERGY:     -438.329187229 Eh
FINAL SINGLE POINT ENERGY      -438.329187229120

DIPOLE MOMENT
-------------
                                X             Y             Z
Electronic contribution:      3.30098      -1.67636      -0.03636
Nuclear contribution   :     -3.00522       1.75424       0.03445
                        -----------------------------------------
Total Dipole Moment    :      0.29576       0.07788      -0.00190
                        -----------------------------------------
Magnitude (a.u.)       :      0.30584
Magnitude (Debye)      :      0.77739

                             ****ORCA TERMINATED NORMALLY****
TOTAL RUN TIME: 0 days 0 hours 16 minutes 36 seconds 520 msec
