                         Program Version 3.0.3 - RELEASE   -
|  1> ! RI-MP2 RIJK def2-TZVP def2-TZVP/C def2-TZVP/JK TIGHTSCF
|  2> % maxcore 2000
|  3> % mp2 density relaxed end
|  4> *xyz 0 1
|  5>  O        0.1322730802     0.1445227027    -0.7825619601
|  6>  C        0.0373908531     1.2068372412    -0.1868654167
|  7>  N        1.0948422614     1.7821155851     0.4627033112
|  8>  C        2.4304636815     1.2059697867     0.4092467263
|  9>  C        3.4388074736     2.1748126542    -0.0107590683
| 10>  C        4.2639809477     2.9877160908    -0.3299462998
| 11>  C       -1.2439421834     1.9712295434    -0.1021789254
| 12>  C       -2.1672051146     1.8942402433    -1.3043724515
| 13>  C       -2.5261460441     1.1608645590    -0.0538567397
| 14>  H        0.9862064846     2.6887430392     0.8861201664
| 15>  H        2.7106555135     0.7848853402     1.3846914340
| 16>  H        2.3676753318     0.3692961303    -0.2939720880
| 17>  H        4.9986790641     3.6943960119    -0.6276222000
| 18>  H       -1.2235912241     2.9043455858     0.4515040602
| 19>  H       -2.7183500142     2.7903898772    -1.5648838849
| 20>  H       -1.8030181153     1.3063322222    -2.1384286597
| 21>  H       -2.4016394604     0.0845550607    -0.0555267829
| 22>  H       -3.3303224455     1.5407449260     0.5656869789
| 23> *
| 24>
| 25>                          ****END OF INPUT****

CARTESIAN COORDINATES (ANGSTROEM)
---------------------------------
  O      0.132273    0.144523   -0.782562
  C      0.037391    1.206837   -0.186865
  N      1.094842    1.782116    0.462703
  C      2.430464    1.205970    0.409247
  C      3.438807    2.174813   -0.010759
  C      4.263981    2.987716   -0.329946
  C     -1.243942    1.971230   -0.102179
  C     -2.167205    1.894240   -1.304372
  C     -2.526146    1.160865   -0.053857
  H      0.986206    2.688743    0.886120
  H      2.710656    0.784885    1.384691
  H      2.367675    0.369296   -0.293972
  H      4.998679    3.694396   -0.627622
  H     -1.223591    2.904346    0.451504
  H     -2.718350    2.790390   -1.564884
  H     -1.803018    1.306332   -2.138429
  H     -2.401639    0.084555   -0.055527
  H     -3.330322    1.540745    0.565687

 Total Charge           Charge          ....    0
 Multiplicity           Mult            ....    1
 Number of Electrons    NEL             ....   66
 Basis Dimension        Dim             ....  333

ORBITAL ENERGIES
----------------

  NO   OCC          E(Eh)            E(eV)
   0   2.0000     -20.513435      -558.1989
   1   2.0000     -15.590589      -424.2415
   2   2.0000     -11.351849      -308.8995
   3   2.0000     -11.293438      -307.3101
   4   2.0000     -11.247694      -306.0653
   5   2.0000     -11.242451      -305.9226
   6   2.0000     -11.238395      -305.8123
   7   2.0000     -11.237690      -305.7931
   8   2.0000     -11.232468      -305.6510
   9   2.0000      -1.381945       -37.6046
  10   2.0000      -1.238816       -33.7099
  11   2.0000      -1.152899       -31.3720
  12   2.0000      -1.057650       -28.7801
  13   2.0000      -0.972009       -26.4497
  14   2.0000      -0.875702       -23.8291
  15   2.0000      -0.830754       -22.6060
  16   2.0000      -0.788409       -21.4537
  17   2.0000      -0.738854       -20.1053
  18   2.0000      -0.717470       -19.5233
  19   2.0000      -0.677488       -18.4354
  20   2.0000      -0.655334       -17.8325
  21   2.0000      -0.637382       -17.3440
  22   2.0000      -0.623316       -16.9613
  23   2.0000      -0.585108       -15.9216
  24   2.0000      -0.560996       -15.2655
  25   2.0000      -0.554647       -15.0927
  26   2.0000      -0.520269       -14.1572
  27   2.0000      -0.447806       -12.1854
  28   2.0000      -0.431855       -11.7514
  29   2.0000      -0.423875       -11.5342
  30   2.0000      -0.411677       -11.2023
  31   2.0000      -0.399855       -10.8806
  32   2.0000      -0.387569       -10.5463
  33   0.0000       0.130574         3.5531
  34   0.0000       0.154416         4.2019
  35   0.0000       0.164058         4.4642
  36   0.0000       0.166335         4.5262
  37   0.0000       0.168297         4.5796

MULLIKEN ATOMIC CHARGES
-----------------------
   0 O :   -0.400411
   1 C :    0.264739
   2 N :   -0.313890
   3 C :   -0.202442
   4 C :   -0.067235
   5 C :   -0.135394
   6 C :   -0.097184
   7 C :   -0.263139
   8 C :   -0.263623
   9 H :    0.240598
  10 H :    0.151146
  11 H :    0.193145
  12 H :    0.194586
  13 H :    0.117648
  14 H :    0.135280
  15 H :    0.155830
  16 H :    0.155205
  17 H :    0.135141
Sum of atomic charges:   -0.0000000

LOEWDIN ATOMIC CHARGES
----------------------
   0 O :    0.074387
   1 C :   -0.439490
   2 N :    0.118020
   3 C :   -0.257240
   4 C :   -0.113862
   5 C :   -0.094447
   6 C :   -0.200789
   7 C :   -0.209161
   8 C :   -0.209736
   9 H :    0.188397
  10 H :    0.150644
  11 H :    0.168119
  12 H :    0.128197
  13 H :    0.145402
  14 H :    0.132412
  15 H :    0.143513
  16 H :    0.143315
  17 H :    0.132317

  Mayer bond orders larger than 0.1
B(  0-O ,  1-C ) :   1.8723 B(  1-C ,  2-N ) :   1.1661 B(  1-C ,  6-C ) :   0.9406
B(  2-N ,  3-C ) :   0.8278 B(  2-N ,  9-H ) :   0.8731 B(  3-C ,  4-C ) :   1.0519
B(  3-C , 10-H ) :   0.9283 B(  3-C , 11-H ) :   0.9241 B(  4-C ,  5-C ) :   2.6251
B(  5-C , 12-H ) :   0.9034 B(  6-C ,  7-C ) :   0.8522 B(  6-C ,  8-C ) :   0.8531
B(  6-C , 13-H ) :   0.9157 B(  7-C ,  8-C ) :   0.9239 B(  7-C , 14-H ) :   0.9287
B(  7-C , 15-H ) :   0.9236 B(  8-C , 16-H ) :   0.9240 B(  8-C , 17-H ) :   0.9285

MP2 TOTAL ENERGY:     -401.228506571 Eh
FINAL SINGLE POINT ENERGY      -401.228506571385

DIPOLE MOMENT
-------------
                                X             Y             Z
Electronic contribution:      5.02430      -0.69893       0.15418
Nuclear contribution   :     -5.04533       1.77997       0.49931
                        -----------------------------------------
Total Dipole Moment    :     -0.02103       1.08104       0.65349
                        -----------------------------------------
Magnitude (a.u.)       :      1.26338
Magnitude (Debye)      :      3.21127

                             ****ORCA TERMINATED NORMALLY****
TOTAL RUN TIME: 0 days 0 hours 14 minutes 44 seconds 266 msec
