                         Program Version 3.0.3 - RELEASE   -
|  1> ! RI-MP2 RIJK def2-TZVP def2-TZVP/C def2-TZVP/JK TIGHTSCF
|  2> % maxcore 2000
|  3> % mp2 density relaxed end
|  4> *xyz 0 1
|  5>  C       -0.0526879950     1.5234952569     0.0089277297
|  6>  C        0.0455615075     0.0317006086    -0.0055413693
|  7>  C        0.1444063960    -0.8017692720    -1.0782923801
|  8>  O        0.2154097139    -0.4836257449    -2.3801946064
|  9>  C       -0.0519930610    -1.4367621142    -3.3340792875
| 10>  N        0.1048536806    -1.1165014162    -4.5376770523
| 11>  O        0.2132290849    -2.0882003410    -0.7153485561
| 12>  N        0.1475185205    -2.1489510266     0.6924843000
| 13>  C        0.0557254551    -0.8982326422     1.0717662823
| 14>  H        0.7988436211     1.9796822667     0.5252187173
| 15>  H       -0.0714065547     1.9127856884    -1.0117007850
| 16>  H       -0.9627185329     1.8624086265     0.5152555748
| 17>  H       -0.3854698931    -2.3869702627    -2.9154003730
| 18>  H       -0.1382370800    -1.8991978391    -5.1418483230
| 19>  H       -0.0068066629    -0.6869617184     2.1312317185
| 20> *
| 21>
| 22>                          ****END OF INPUT****

CARTESIAN COORDINATES (ANGSTROEM)
---------------------------------
  C     -0.052688    1.523495    0.008928
  C      0.045562    0.031701   -0.005541
  C      0.144406   -0.801769   -1.078292
  O      0.215410   -0.483626   -2.380195
  C     -0.051993   -1.436762   -3.334079
  N      0.104854   -1.116501   -4.537677
  O      0.213229   -2.088200   -0.715349
  N      0.147519   -2.148951    0.692484
  C      0.055725   -0.898233    1.071766
  H      0.798844    1.979682    0.525219
  H     -0.071407    1.912786   -1.011701
  H     -0.962719    1.862409    0.515256
  H     -0.385470   -2.386970   -2.915400
  H     -0.138237   -1.899198   -5.141848
  H     -0.006807   -0.686962    2.131232

 Total Charge           Charge          ....    0
 Multiplicity           Mult            ....    1
 Number of Electrons    NEL             ....   66
 Basis Dimension        Dim             ....  315

ORBITAL ENERGIES
----------------

  NO   OCC          E(Eh)            E(eV)
   0   2.0000     -20.655381      -562.0615
   1   2.0000     -20.644614      -561.7685
   2   2.0000     -15.627458      -425.2448
   3   2.0000     -15.567602      -423.6160
   4   2.0000     -11.386859      -309.8522
   5   2.0000     -11.363821      -309.2253
   6   2.0000     -11.291522      -307.2579
   7   2.0000     -11.246825      -306.0417
   8   2.0000     -11.242494      -305.9238
   9   2.0000      -1.526709       -41.5439
  10   2.0000      -1.462496       -39.7965
  11   2.0000      -1.231441       -33.5092
  12   2.0000      -1.177182       -32.0327
  13   2.0000      -1.096214       -29.8295
  14   2.0000      -0.969002       -26.3679
  15   2.0000      -0.907634       -24.6980
  16   2.0000      -0.841453       -22.8971
  17   2.0000      -0.800576       -21.7848
  18   2.0000      -0.763321       -20.7710
  19   2.0000      -0.705119       -19.1873
  20   2.0000      -0.696374       -18.9493
  21   2.0000      -0.641420       -17.4539
  22   2.0000      -0.631677       -17.1888
  23   2.0000      -0.618754       -16.8372
  24   2.0000      -0.592380       -16.1195
  25   2.0000      -0.583988       -15.8911
  26   2.0000      -0.569508       -15.4971
  27   2.0000      -0.552936       -15.0462
  28   2.0000      -0.484162       -13.1747
  29   2.0000      -0.464182       -12.6310
  30   2.0000      -0.454261       -12.3611
  31   2.0000      -0.436682       -11.8827
  32   2.0000      -0.345716        -9.4074
  33   0.0000       0.118576         3.2266
  34   0.0000       0.136457         3.7132
  35   0.0000       0.144312         3.9269
  36   0.0000       0.152252         4.1430
  37   0.0000       0.174463         4.7474

MULLIKEN ATOMIC CHARGES
-----------------------
   0 C :   -0.410466
   1 C :   -0.056955
   2 C :    0.305727
   3 O :   -0.206939
   4 C :    0.041770
   5 N :   -0.314841
   6 O :   -0.137185
   7 N :   -0.127109
   8 C :   -0.080408
   9 H :    0.150244
  10 H :    0.162768
  11 H :    0.148358
  12 H :    0.136924
  13 H :    0.238161
  14 H :    0.149951
Sum of atomic charges:   -0.0000000

LOEWDIN ATOMIC CHARGES
----------------------
   0 C :   -0.264294
   1 C :   -0.204008
   2 C :   -0.372501
   3 O :    0.325563
   4 C :   -0.349511
   5 N :   -0.050637
   6 O :    0.269954
   7 N :    0.035615
   8 C :   -0.242101
   9 H :    0.134642
  10 H :    0.139934
  11 H :    0.134150
  12 H :    0.121808
  13 H :    0.176118
  14 H :    0.145269

  Mayer bond orders larger than 0.1
B(  0-C ,  1-C ) :   0.8585 B(  0-C ,  9-H ) :   0.9342 B(  0-C , 10-H ) :   0.9416
B(  0-C , 11-H ) :   0.9332 B(  1-C ,  2-C ) :   1.4787 B(  1-C ,  8-C ) :   1.2062
B(  2-C ,  3-O ) :   1.0485 B(  2-C ,  6-O ) :   1.1177 B(  2-C ,  7-N ) :   0.1133
B(  3-O ,  4-C ) :   0.9514 B(  4-C ,  5-N ) :   1.9832 B(  4-C , 12-H ) :   0.9265
B(  5-N , 13-H ) :   0.8467 B(  6-O ,  7-N ) :   0.8562 B(  7-N ,  8-C ) :   1.6141
B(  8-C , 14-H ) :   0.9271

MP2 TOTAL ENERGY:     -453.183577024 Eh
FINAL SINGLE POINT ENERGY      -453.183577023894

DIPOLE MOMENT
-------------
                                X             Y             Z
Electronic contribution:      0.79519      -5.17638      -0.93300
Nuclear contribution   :     -1.21938       5.40203       1.11743
                        -----------------------------------------
Total Dipole Moment    :     -0.42419       0.22564       0.18443
                        -----------------------------------------
Magnitude (a.u.)       :      0.51465
Magnitude (Debye)      :      1.30815

                             ****ORCA TERMINATED NORMALLY****
TOTAL RUN TIME: 0 days 0 hours 14 minutes 17 seconds 217 msec
