                         Program Version 3.0.3 - RELEASE   -
|  1> ! RI-MP2 RIJK def2-TZVP def2-TZVP/C def2-TZVP/JK TIGHTSCF
|  2> % maxcore 2000
|  3> % mp2 density relaxed end
|  4> *xyz 0 1
|  5>  C       -0.0360335149     1.6158054141     0.1851289261
|  6>  C        0.0345596306     0.1080504091    -0.0437093193
|  7>  N        0.7083762404    -0.5386582081     1.0826372963
|  8>  C        0.7559127360    -2.0076505632     1.1039051273
|  9>  C        1.3958115237    -2.6448602785    -0.1534070862
| 10>  C        1.5260712748    -2.4063187719     2.3923914478
| 11>  C        1.5708047805    -3.9008159023     2.7152339737
| 12>  C       -0.6370398141    -2.4962818902     1.2180142814
| 13>  N       -1.7155335307    -2.9038571569     1.2983661777
| 14>  H        0.9671313115     2.0543411578     0.2439524916
| 15>  H       -0.5630654191     2.1061278474    -0.6385939768
| 16>  H       -0.5574089491     1.8390623061     1.1197243269
| 17>  H       -0.9794754256    -0.3028401056    -0.1046113597
| 18>  H        0.5155030435    -0.0908187776    -1.0164997117
| 19>  H        1.6584679038    -0.1897435964     1.1663546898
| 20>  H        2.4370579437    -2.3149658702    -0.2327770077
| 21>  H        1.3806537827    -3.7360780942    -0.1029726034
| 22>  H        0.8660503138    -2.3462888097    -1.0602616462
| 23>  H        2.5477372275    -2.0201702537     2.2796735086
| 24>  H        1.0692510843    -1.8544296854     3.2191581257
| 25>  H        0.5633054506    -4.3185633507     2.8014913544
| 26>  H        2.1120963783    -4.4731378171     1.9561294700
| 27>  H        2.0806921376    -4.0601992126     3.6697163836
| 28> *
| 29>
| 30>                          ****END OF INPUT****

CARTESIAN COORDINATES (ANGSTROEM)
---------------------------------
  C     -0.036034    1.615805    0.185129
  C      0.034560    0.108050   -0.043709
  N      0.708376   -0.538658    1.082637
  C      0.755913   -2.007651    1.103905
  C      1.395812   -2.644860   -0.153407
  C      1.526071   -2.406319    2.392391
  C      1.570805   -3.900816    2.715234
  C     -0.637040   -2.496282    1.218014
  N     -1.715534   -2.903857    1.298366
  H      0.967131    2.054341    0.243952
  H     -0.563065    2.106128   -0.638594
  H     -0.557409    1.839062    1.119724
  H     -0.979475   -0.302840   -0.104611
  H      0.515503   -0.090819   -1.016500
  H      1.658468   -0.189744    1.166355
  H      2.437058   -2.314966   -0.232777
  H      1.380654   -3.736078   -0.102973
  H      0.866050   -2.346289   -1.060262
  H      2.547737   -2.020170    2.279674
  H      1.069251   -1.854430    3.219158
  H      0.563305   -4.318563    2.801491
  H      2.112096   -4.473138    1.956129
  H      2.080692   -4.060199    3.669716

 Total Charge           Charge          ....    0
 Multiplicity           Mult            ....    1
 Number of Electrons    NEL             ....   70
 Basis Dimension        Dim             ....  363

ORBITAL ENERGIES
----------------

  NO   OCC          E(Eh)            E(eV)
   0   2.0000     -15.563450      -423.5030
   1   2.0000     -15.561107      -423.4393
   2   2.0000     -11.314682      -307.8882
   3   2.0000     -11.263927      -306.5070
   4   2.0000     -11.257650      -306.3362
   5   2.0000     -11.243944      -305.9633
   6   2.0000     -11.238450      -305.8138
   7   2.0000     -11.225200      -305.4532
   8   2.0000     -11.220172      -305.3164
   9   2.0000      -1.245386       -33.8887
  10   2.0000      -1.203393       -32.7460
  11   2.0000      -1.088418       -29.6173
  12   2.0000      -1.011164       -27.5152
  13   2.0000      -0.985318       -26.8119
  14   2.0000      -0.906063       -24.6552
  15   2.0000      -0.850530       -23.1441
  16   2.0000      -0.828240       -22.5376
  17   2.0000      -0.684502       -18.6262
  18   2.0000      -0.673576       -18.3289
  19   2.0000      -0.642318       -17.4784
  20   2.0000      -0.628816       -17.1110
  21   2.0000      -0.598890       -16.2966
  22   2.0000      -0.582496       -15.8505
  23   2.0000      -0.573951       -15.6180
  24   2.0000      -0.558916       -15.2089
  25   2.0000      -0.550858       -14.9896
  26   2.0000      -0.538318       -14.6484
  27   2.0000      -0.517924       -14.0934
  28   2.0000      -0.508787       -13.8448
  29   2.0000      -0.505231       -13.7480
  30   2.0000      -0.495130       -13.4732
  31   2.0000      -0.489728       -13.3262
  32   2.0000      -0.457867       -12.4592
  33   2.0000      -0.447288       -12.1713
  34   2.0000      -0.388617       -10.5748
  35   0.0000       0.120340         3.2746
  36   0.0000       0.144762         3.9392
  37   0.0000       0.153799         4.1851
  38   0.0000       0.163631         4.4526
  39   0.0000       0.180484         4.9112

MULLIKEN ATOMIC CHARGES
-----------------------
   0 C :   -0.379453
   1 C :   -0.142387
   2 N :   -0.348725
   3 C :    0.339857
   4 C :   -0.441179
   5 C :   -0.227336
   6 C :   -0.433651
   7 C :   -0.265983
   8 N :   -0.045706
   9 H :    0.116227
  10 H :    0.130132
  11 H :    0.138704
  12 H :    0.136781
  13 H :    0.095736
  14 H :    0.199844
  15 H :    0.135218
  16 H :    0.151289
  17 H :    0.155609
  18 H :    0.113652
  19 H :    0.142674
  20 H :    0.157436
  21 H :    0.128666
  22 H :    0.142596
Sum of atomic charges:   -0.0000000

LOEWDIN ATOMIC CHARGES
----------------------
   0 C :   -0.318989
   1 C :   -0.329569
   2 N :    0.032440
   3 C :   -0.350532
   4 C :   -0.253957
   5 C :   -0.239054
   6 C :   -0.309618
   7 C :   -0.152859
   8 N :    0.063246
   9 H :    0.118429
  10 H :    0.123968
  11 H :    0.125245
  12 H :    0.139902
  13 H :    0.115697
  14 H :    0.175427
  15 H :    0.128592
  16 H :    0.132224
  17 H :    0.130474
  18 H :    0.140381
  19 H :    0.149714
  20 H :    0.131458
  21 H :    0.120870
  22 H :    0.126511

  Mayer bond orders larger than 0.1
B(  0-C ,  1-C ) :   0.9360 B(  0-C ,  9-H ) :   0.9362 B(  0-C , 10-H ) :   0.9374
B(  0-C , 11-H ) :   0.9379 B(  1-C ,  2-N ) :   0.9202 B(  1-C , 12-H ) :   0.9206
B(  1-C , 13-H ) :   0.9182 B(  2-N ,  3-C ) :   0.9239 B(  2-N , 14-H ) :   0.8681
B(  3-C ,  4-C ) :   0.8986 B(  3-C ,  5-C ) :   0.8384 B(  3-C ,  7-C ) :   0.8791
B(  4-C , 15-H ) :   0.9296 B(  4-C , 16-H ) :   0.9279 B(  4-C , 17-H ) :   0.9292
B(  5-C ,  6-C ) :   0.9212 B(  5-C , 18-H ) :   0.9237 B(  5-C , 19-H ) :   0.9347
B(  6-C , 20-H ) :   0.9323 B(  6-C , 21-H ) :   0.9363 B(  6-C , 22-H ) :   0.9361
B(  7-C ,  8-N ) :   2.8904

MP2 TOTAL ENERGY:     -383.811837536 Eh
FINAL SINGLE POINT ENERGY      -383.811837536091

DIPOLE MOMENT
-------------
                                X             Y             Z
Electronic contribution:     -5.86038      -2.82635       1.29486
Nuclear contribution   :      7.44248       3.26133      -1.65900
                        -----------------------------------------
Total Dipole Moment    :      1.58210       0.43498      -0.36415
                        -----------------------------------------
Magnitude (a.u.)       :      1.68073
Magnitude (Debye)      :      4.27207

                             ****ORCA TERMINATED NORMALLY****
TOTAL RUN TIME: 0 days 0 hours 20 minutes 16 seconds 312 msec
