                         Program Version 3.0.3 - RELEASE   -
|  1> ! RI-MP2 RIJK def2-TZVP def2-TZVP/C def2-TZVP/JK TIGHTSCF
|  2> % maxcore 2000
|  3> % mp2 density relaxed end
|  4> *xyz 0 1
|  5>  C        0.0105383062     1.4953351616     0.0099811702
|  6>  C        0.0531960983    -0.0168452545     0.0014690044
|  7>  O        0.7069782023    -0.4359339021    -1.1750871851
|  8>  C        0.7928923838    -1.8518177629    -1.2567056843
|  9>  C        1.5043098237    -2.4167026496    -0.0252906466
| 10>  C        0.8166523195    -1.8651266454     1.2255033118
| 11>  O        0.7293230874    -0.4484586917     1.1607418595
| 12>  H        1.0302424599     1.8878419687     0.0020002702
| 13>  H       -0.5182555578     1.8583931460    -0.8740389084
| 14>  H       -0.5006416939     1.8488267103     0.9081250693
| 15>  H       -0.9681209771    -0.4502998273     0.0089116702
| 16>  H       -0.2196840449    -2.2843850157    -1.3375676604
| 17>  H        1.3307502379    -2.0784320548    -2.1810423090
| 18>  H        1.4760481052    -3.5121709118    -0.0308902693
| 19>  H        2.5523765725    -2.0997412374    -0.0336253742
| 20>  H       -0.1942331279    -2.2986462988     1.3210886558
| 21>  H        1.3720836449    -2.1015852746     2.1368905058
| 22> *
| 23>
| 24>                          ****END OF INPUT****

CARTESIAN COORDINATES (ANGSTROEM)
---------------------------------
  C      0.010538    1.495335    0.009981
  C      0.053196   -0.016845    0.001469
  O      0.706978   -0.435934   -1.175087
  C      0.792892   -1.851818   -1.256706
  C      1.504310   -2.416703   -0.025291
  C      0.816652   -1.865127    1.225503
  O      0.729323   -0.448459    1.160742
  H      1.030242    1.887842    0.002000
  H     -0.518256    1.858393   -0.874039
  H     -0.500642    1.848827    0.908125
  H     -0.968121   -0.450300    0.008912
  H     -0.219684   -2.284385   -1.337568
  H      1.330750   -2.078432   -2.181042
  H      1.476048   -3.512171   -0.030890
  H      2.552377   -2.099741   -0.033625
  H     -0.194233   -2.298646    1.321089
  H      1.372084   -2.101585    2.136891

 Total Charge           Charge          ....    0
 Multiplicity           Mult            ....    1
 Number of Electrons    NEL             ....   56
 Basis Dimension        Dim             ....  277

ORBITAL ENERGIES
----------------

  NO   OCC          E(Eh)            E(eV)
   0   2.0000     -20.556364      -559.3671
   1   2.0000     -20.556346      -559.3666
   2   2.0000     -11.327734      -308.2433
   3   2.0000     -11.278853      -306.9132
   4   2.0000     -11.278847      -306.9130
   5   2.0000     -11.227055      -305.5037
   6   2.0000     -11.210142      -305.0435
   7   2.0000      -1.419466       -38.6256
   8   2.0000      -1.341150       -36.4946
   9   2.0000      -1.072756       -29.1912
  10   2.0000      -0.985953       -26.8291
  11   2.0000      -0.915306       -24.9067
  12   2.0000      -0.851580       -23.1727
  13   2.0000      -0.794135       -21.6095
  14   2.0000      -0.680187       -18.5088
  15   2.0000      -0.673754       -18.3338
  16   2.0000      -0.661115       -17.9899
  17   2.0000      -0.626668       -17.0525
  18   2.0000      -0.616292       -16.7702
  19   2.0000      -0.565923       -15.3995
  20   2.0000      -0.552131       -15.0243
  21   2.0000      -0.534647       -14.5485
  22   2.0000      -0.531544       -14.4641
  23   2.0000      -0.503797       -13.7090
  24   2.0000      -0.478935       -13.0325
  25   2.0000      -0.470107       -12.7923
  26   2.0000      -0.429110       -11.6767
  27   2.0000      -0.423334       -11.5195
  28   0.0000       0.143624         3.9082
  29   0.0000       0.159174         4.3313
  30   0.0000       0.168475         4.5844
  31   0.0000       0.181342         4.9346
  32   0.0000       0.199495         5.4285

MULLIKEN ATOMIC CHARGES
-----------------------
   0 C :   -0.351423
   1 C :    0.158626
   2 O :   -0.290885
   3 C :   -0.074223
   4 C :   -0.202047
   5 C :   -0.074227
   6 O :   -0.290888
   7 H :    0.131762
   8 H :    0.130347
   9 H :    0.130356
  10 H :    0.060378
  11 H :    0.095420
  12 H :    0.129041
  13 H :    0.113254
  14 H :    0.110049
  15 H :    0.095421
  16 H :    0.129040
Sum of atomic charges:   -0.0000000

LOEWDIN ATOMIC CHARGES
----------------------
   0 C :   -0.285856
   1 C :   -0.440932
   2 O :    0.176416
   3 C :   -0.317515
   4 C :   -0.279147
   5 C :   -0.317515
   6 O :    0.176415
   7 H :    0.130742
   8 H :    0.128550
   9 H :    0.128555
  10 H :    0.120283
  11 H :    0.120120
  12 H :    0.129360
  13 H :    0.140274
  14 H :    0.140769
  15 H :    0.120120
  16 H :    0.129360

  Mayer bond orders larger than 0.1
B(  0-C ,  1-C ) :   0.9248 B(  0-C ,  7-H ) :   0.9344 B(  0-C ,  8-H ) :   0.9352
B(  0-C ,  9-H ) :   0.9352 B(  1-C ,  2-O ) :   0.9880 B(  1-C ,  6-O ) :   0.9880
B(  1-C , 10-H ) :   0.9324 B(  2-O ,  3-C ) :   0.9188 B(  3-C ,  4-C ) :   0.9375
B(  3-C , 11-H ) :   0.9379 B(  3-C , 12-H ) :   0.9315 B(  4-C ,  5-C ) :   0.9375
B(  4-C , 13-H ) :   0.9197 B(  4-C , 14-H ) :   0.9133 B(  5-C ,  6-O ) :   0.9188
B(  5-C , 15-H ) :   0.9379 B(  5-C , 16-H ) :   0.9315

MP2 TOTAL ENERGY:     -346.305528127 Eh
FINAL SINGLE POINT ENERGY      -346.305528126650

DIPOLE MOMENT
-------------
                                X             Y             Z
Electronic contribution:      0.83968       0.67734      -0.00438
Nuclear contribution   :     -1.08194      -1.35917       0.00304
                        -----------------------------------------
Total Dipole Moment    :     -0.24226      -0.68183      -0.00134
                        -----------------------------------------
Magnitude (a.u.)       :      0.72359
Magnitude (Debye)      :      1.83923

                             ****ORCA TERMINATED NORMALLY****
TOTAL RUN TIME: 0 days 0 hours 8 minutes 38 seconds 987 msec
