                         Program Version 3.0.3 - RELEASE   -
|  1> ! RI-MP2 RIJK def2-TZVP def2-TZVP/C def2-TZVP/JK TIGHTSCF
|  2> % maxcore 2000
|  3> % mp2 density relaxed end
|  4> *xyz 0 1
|  5>  N       -0.0715492689     1.4185867639    -0.0296271287
|  6>  C       -0.0498833094     0.0221438885     0.0149885291
|  7>  C       -1.0698060933    -0.9011222305     0.1106798588
|  8>  N       -0.6321017005    -2.2245293838     0.1260230897
|  9>  C        0.6527157700    -2.0737954083     0.0388939311
| 10>  O        1.7547057017    -2.8764463548    -0.0055291174
| 11>  C        2.7867838266    -1.9877196672    -0.1010536508
| 12>  N        2.4608025081    -0.7358071127    -0.1212839857
| 13>  N        1.0900079012    -0.7950200625    -0.0311142427
| 14>  H        0.4207893672     1.8451755834     0.7483894835
| 15>  H        0.3159154068     1.7911453147    -0.8903067884
| 16>  H       -2.1220669024    -0.6691204998     0.1705941597
| 17>  H        3.7844475128    -2.3899832107    -0.1518654482
| 18> *
| 19>
| 20>                          ****END OF INPUT****

CARTESIAN COORDINATES (ANGSTROEM)
---------------------------------
  N     -0.071549    1.418587   -0.029627
  C     -0.049883    0.022144    0.014989
  C     -1.069806   -0.901122    0.110680
  N     -0.632102   -2.224529    0.126023
  C      0.652716   -2.073795    0.038894
  O      1.754706   -2.876446   -0.005529
  C      2.786784   -1.987720   -0.101054
  N      2.460803   -0.735807   -0.121284
  N      1.090008   -0.795020   -0.031114
  H      0.420789    1.845176    0.748389
  H      0.315915    1.791145   -0.890307
  H     -2.122067   -0.669120    0.170594
  H      3.784448   -2.389983   -0.151865

 Total Charge           Charge          ....    0
 Multiplicity           Mult            ....    1
 Number of Electrons    NEL             ....   64
 Basis Dimension        Dim             ....  303

ORBITAL ENERGIES
----------------

  NO   OCC          E(Eh)            E(eV)
   0   2.0000     -20.671015      -562.4869
   1   2.0000     -15.659914      -426.1279
   2   2.0000     -15.646511      -425.7632
   3   2.0000     -15.573021      -423.7634
   4   2.0000     -15.556107      -423.3032
   5   2.0000     -11.377046      -309.5852
   6   2.0000     -11.368752      -309.3595
   7   2.0000     -11.302694      -307.5619
   8   2.0000     -11.256696      -306.3103
   9   2.0000      -1.540205       -41.9111
  10   2.0000      -1.378923       -37.5224
  11   2.0000      -1.287913       -35.0459
  12   2.0000      -1.212797       -33.0019
  13   2.0000      -1.121854       -30.5272
  14   2.0000      -1.006080       -27.3768
  15   2.0000      -0.892169       -24.2772
  16   2.0000      -0.860185       -23.4068
  17   2.0000      -0.827772       -22.5248
  18   2.0000      -0.727705       -19.8019
  19   2.0000      -0.721114       -19.6225
  20   2.0000      -0.691220       -18.8090
  21   2.0000      -0.679822       -18.4989
  22   2.0000      -0.670498       -18.2452
  23   2.0000      -0.619433       -16.8556
  24   2.0000      -0.583872       -15.8880
  25   2.0000      -0.579564       -15.7707
  26   2.0000      -0.536835       -14.6080
  27   2.0000      -0.516440       -14.0530
  28   2.0000      -0.469535       -12.7767
  29   2.0000      -0.428601       -11.6628
  30   2.0000      -0.370082       -10.0704
  31   2.0000      -0.322164        -8.7665
  32   0.0000       0.117481         3.1968
  33   0.0000       0.128957         3.5091
  34   0.0000       0.156443         4.2570
  35   0.0000       0.177050         4.8178
  36   0.0000       0.180664         4.9161

MULLIKEN ATOMIC CHARGES
-----------------------
   0 N :   -0.522526
   1 C :    0.070629
   2 C :   -0.092423
   3 N :   -0.264906
   4 C :    0.254975
   5 O :   -0.209342
   6 C :    0.115885
   7 N :   -0.259837
   8 N :    0.082592
   9 H :    0.254043
  10 H :    0.254045
  11 H :    0.138173
  12 H :    0.178691
Sum of atomic charges:   -0.0000000

LOEWDIN ATOMIC CHARGES
----------------------
   0 N :   -0.101905
   1 C :   -0.328660
   2 C :   -0.210841
   3 N :    0.098351
   4 C :   -0.406229
   5 O :    0.334556
   6 C :   -0.303766
   7 N :    0.065081
   8 N :    0.233988
   9 H :    0.169405
  10 H :    0.169412
  11 H :    0.139529
  12 H :    0.141079

  Mayer bond orders larger than 0.1
B(  0-N ,  1-C ) :   1.1393 B(  0-N ,  9-H ) :   0.8821 B(  0-N , 10-H ) :   0.8821
B(  1-C ,  2-C ) :   1.5275 B(  1-C ,  8-N ) :   1.0122 B(  2-C ,  3-N ) :   1.2131
B(  2-C , 11-H ) :   0.9409 B(  3-N ,  4-C ) :   1.6480 B(  4-C ,  5-O ) :   1.0068
B(  4-C ,  8-N ) :   1.1634 B(  5-O ,  6-C ) :   1.0636 B(  6-C ,  7-N ) :   1.6659
B(  6-C , 12-H ) :   0.9236 B(  7-N ,  8-N ) :   0.8801

MP2 TOTAL ENERGY:     -448.190362698 Eh
FINAL SINGLE POINT ENERGY      -448.190362698459

DIPOLE MOMENT
-------------
                                X             Y             Z
Electronic contribution:      1.95296      -4.09248       0.00957
Nuclear contribution   :     -0.70725       4.68503      -0.10881
                        -----------------------------------------
Total Dipole Moment    :      1.24572       0.59255      -0.09924
                        -----------------------------------------
Magnitude (a.u.)       :      1.38303
Magnitude (Debye)      :      3.51538

                             ****ORCA TERMINATED NORMALLY****
TOTAL RUN TIME: 0 days 0 hours 14 minutes 44 seconds 719 msec
