                         Program Version 3.0.3 - RELEASE   -
|  1> ! RI-MP2 RIJK def2-TZVP def2-TZVP/C def2-TZVP/JK TIGHTSCF
|  2> % maxcore 2000
|  3> % mp2 density relaxed end
|  4> *xyz 0 1
|  5>  C        0.1674895588     1.5070350624     0.1609647872
|  6>  C        0.3277897222     0.0022899763     0.0246401100
|  7>  O        0.4491753305    -0.5572436966     1.3184839037
|  8>  C        0.5829426783    -1.9534259553     1.3234938719
|  9>  C        1.9484476117    -2.5887673893     0.9028686456
| 10>  C        1.9511264781    -3.4175328346     2.2214357373
| 11>  C        2.8158030680    -2.8101816552     3.3495157638
| 12>  C        1.6576311641    -1.8257242213     3.6971538516
| 13>  C        0.7112388491    -2.5831755099     2.7202600166
| 14>  H        1.0371529404     1.9417459573     0.6621146145
| 15>  H        0.0663515581     1.9716921903    -0.8244970392
| 16>  H       -0.7215508610     1.7458226778     0.7515910546
| 17>  H       -0.5426455446    -0.4347067626    -0.4940849781
| 18>  H        1.2161822995    -0.2365264461    -0.5823127683
| 19>  H       -0.2447157511    -2.4127858743     0.7593285626
| 20>  H        1.9313914973    -3.1663443474    -0.0241277028
| 21>  H        2.7645510888    -1.8617176809     0.8462674190
| 22>  H        1.9366131803    -4.5016782566     2.1057500282
| 23>  H        3.0083970444    -3.5223711291     4.1570457478
| 24>  H        3.7718492049    -2.3721849130     3.0452423759
| 25>  H        1.3400722760    -1.8462536671     4.7415848413
| 26>  H        1.8265938230    -0.7861750710     3.4104581087
| 27>  H       -0.1864992668    -3.0221378938     3.1572580682
| 28> *
| 29>
| 30>                          ****END OF INPUT****

CARTESIAN COORDINATES (ANGSTROEM)
---------------------------------
  C      0.167490    1.507035    0.160965
  C      0.327790    0.002290    0.024640
  O      0.449175   -0.557244    1.318484
  C      0.582943   -1.953426    1.323494
  C      1.948448   -2.588767    0.902869
  C      1.951126   -3.417533    2.221436
  C      2.815803   -2.810182    3.349516
  C      1.657631   -1.825724    3.697154
  C      0.711239   -2.583176    2.720260
  H      1.037153    1.941746    0.662115
  H      0.066352    1.971692   -0.824497
  H     -0.721551    1.745823    0.751591
  H     -0.542646   -0.434707   -0.494085
  H      1.216182   -0.236526   -0.582313
  H     -0.244716   -2.412786    0.759329
  H      1.931391   -3.166344   -0.024128
  H      2.764551   -1.861718    0.846267
  H      1.936613   -4.501678    2.105750
  H      3.008397   -3.522371    4.157046
  H      3.771849   -2.372185    3.045242
  H      1.340072   -1.846254    4.741585
  H      1.826594   -0.786175    3.410458
  H     -0.186499   -3.022138    3.157258

 Total Charge           Charge          ....    0
 Multiplicity           Mult            ....    1
 Number of Electrons    NEL             ....   70
 Basis Dimension        Dim             ....  363

ORBITAL ENERGIES
----------------

  NO   OCC          E(Eh)            E(eV)
   0   2.0000     -20.547906      -559.1369
   1   2.0000     -11.271710      -306.7188
   2   2.0000     -11.271685      -306.7182
   3   2.0000     -11.221763      -305.3597
   4   2.0000     -11.216829      -305.2254
   5   2.0000     -11.215422      -305.1871
   6   2.0000     -11.213817      -305.1435
   7   2.0000     -11.212275      -305.1015
   8   2.0000     -11.210910      -305.0644
   9   2.0000      -1.372775       -37.3551
  10   2.0000      -1.153796       -31.3964
  11   2.0000      -1.023698       -27.8562
  12   2.0000      -0.990199       -26.9447
  13   2.0000      -0.915964       -24.9247
  14   2.0000      -0.841594       -22.9009
  15   2.0000      -0.837053       -22.7774
  16   2.0000      -0.803652       -21.8685
  17   2.0000      -0.701287       -19.0830
  18   2.0000      -0.686944       -18.6927
  19   2.0000      -0.658801       -17.9269
  20   2.0000      -0.643816       -17.5191
  21   2.0000      -0.626654       -17.0521
  22   2.0000      -0.584587       -15.9074
  23   2.0000      -0.566511       -15.4155
  24   2.0000      -0.545203       -14.8357
  25   2.0000      -0.537454       -14.6249
  26   2.0000      -0.522300       -14.2125
  27   2.0000      -0.504459       -13.7270
  28   2.0000      -0.485494       -13.2110
  29   2.0000      -0.472606       -12.8602
  30   2.0000      -0.460384       -12.5277
  31   2.0000      -0.439167       -11.9503
  32   2.0000      -0.414145       -11.2695
  33   2.0000      -0.405957       -11.0467
  34   2.0000      -0.385937       -10.5019
  35   0.0000       0.138601         3.7715
  36   0.0000       0.152710         4.1554
  37   0.0000       0.159171         4.3313
  38   0.0000       0.168127         4.5750
  39   0.0000       0.179887         4.8950

MULLIKEN ATOMIC CHARGES
-----------------------
   0 C :   -0.362739
   1 C :   -0.050116
   2 O :   -0.291117
   3 C :   -0.019370
   4 C :   -0.251780
   5 C :   -0.082368
   6 C :   -0.247603
   7 C :   -0.290239
   8 C :    0.038260
   9 H :    0.128692
  10 H :    0.121692
  11 H :    0.129120
  12 H :    0.089768
  13 H :    0.093700
  14 H :    0.068585
  15 H :    0.121145
  16 H :    0.108352
  17 H :    0.112299
  18 H :    0.113126
  19 H :    0.104130
  20 H :    0.114290
  21 H :    0.137175
  22 H :    0.114997
Sum of atomic charges:   -0.0000000

LOEWDIN ATOMIC CHARGES
----------------------
   0 C :   -0.317816
   1 C :   -0.349028
   2 O :    0.182881
   3 C :   -0.300719
   4 C :   -0.205184
   5 C :   -0.183024
   6 C :   -0.228136
   7 C :   -0.214307
   8 C :   -0.162294
   9 H :    0.123380
  10 H :    0.123712
  11 H :    0.123848
  12 H :    0.116059
  13 H :    0.117324
  14 H :    0.133302
  15 H :    0.126831
  16 H :    0.136061
  17 H :    0.129400
  18 H :    0.131092
  19 H :    0.123141
  20 H :    0.127246
  21 H :    0.134779
  22 H :    0.131449

  Mayer bond orders larger than 0.1
B(  0-C ,  1-C ) :   0.9534 B(  0-C ,  9-H ) :   0.9371 B(  0-C , 10-H ) :   0.9339
B(  0-C , 11-H ) :   0.9356 B(  1-C ,  2-O ) :   0.9111 B(  1-C , 12-H ) :   0.9215
B(  1-C , 13-H ) :   0.9211 B(  2-O ,  3-C ) :   1.0232 B(  3-C ,  4-C ) :   0.9693
B(  3-C ,  8-C ) :   0.8836 B(  3-C , 14-H ) :   0.9247 B(  4-C ,  5-C ) :   0.9474
B(  4-C , 15-H ) :   0.9172 B(  4-C , 16-H ) :   0.9035 B(  5-C ,  6-C ) :   0.9194
B(  5-C ,  8-C ) :   0.8928 B(  5-C , 17-H ) :   0.9159 B(  6-C ,  7-C ) :   0.9547
B(  6-C , 18-H ) :   0.9229 B(  6-C , 19-H ) :   0.9214 B(  7-C ,  8-C ) :   0.9257
B(  7-C , 20-H ) :   0.9272 B(  7-C , 21-H ) :   0.9148 B(  8-C , 22-H ) :   0.9166

MP2 TOTAL ENERGY:     -387.577011693 Eh
FINAL SINGLE POINT ENERGY      -387.577011693213

DIPOLE MOMENT
-------------
                                X             Y             Z
Electronic contribution:     -0.87721      -2.79269       1.74860
Nuclear contribution   :      0.87299       2.61154      -2.11118
                        -----------------------------------------
Total Dipole Moment    :     -0.00422      -0.18115      -0.36258
                        -----------------------------------------
Magnitude (a.u.)       :      0.40534
Magnitude (Debye)      :      1.03029

                             ****ORCA TERMINATED NORMALLY****
TOTAL RUN TIME: 0 days 0 hours 17 minutes 49 seconds 47 msec
