                         Program Version 3.0.3 - RELEASE   -
|  1> ! RI-MP2 RIJK def2-TZVP def2-TZVP/C def2-TZVP/JK TIGHTSCF
|  2> % maxcore 2000
|  3> % mp2 density relaxed end
|  4> *xyz 0 1
|  5>  N       -0.0666324042     1.2749686108    -0.3852794675
|  6>  C       -0.0044752135     0.1184832764     0.0906820273
|  7>  O        1.2030091485    -0.5179158550     0.3353860796
|  8>  C        1.2204010253    -1.7655973891     0.8496440080
|  9>  C        0.1194731602    -2.4585215769     1.1513479779
| 10>  C       -1.1821685768    -1.8558951978     0.9215537322
| 11>  O       -2.2565051756    -2.3302310290     1.1326466321
| 12>  O       -1.1337667136    -0.5596009035     0.3862522002
| 13>  H        0.8654199782     1.6467220411    -0.5520728041
| 14>  H        2.2351285937    -2.1212746360     0.9816118656
| 15>  H        0.1624106079    -3.4559439011     1.5620630186
| 16> *
| 17>
| 18>                          ****END OF INPUT****

CARTESIAN COORDINATES (ANGSTROEM)
---------------------------------
  N     -0.066632    1.274969   -0.385279
  C     -0.004475    0.118483    0.090682
  O      1.203009   -0.517916    0.335386
  C      1.220401   -1.765597    0.849644
  C      0.119473   -2.458522    1.151348
  C     -1.182169   -1.855895    0.921554
  O     -2.256505   -2.330231    1.132647
  O     -1.133767   -0.559601    0.386252
  H      0.865420    1.646722   -0.552073
  H      2.235129   -2.121275    0.981612
  H      0.162411   -3.455944    1.562063

 Total Charge           Charge          ....    0
 Multiplicity           Mult            ....    1
 Number of Electrons    NEL             ....   58
 Basis Dimension        Dim             ....  266

ORBITAL ENERGIES
----------------

  NO   OCC          E(Eh)            E(eV)
   0   2.0000     -20.671039      -562.4876
   1   2.0000     -20.648073      -561.8626
   2   2.0000     -20.571403      -559.7763
   3   2.0000     -15.559683      -423.4005
   4   2.0000     -11.434737      -311.1550
   5   2.0000     -11.418935      -310.7250
   6   2.0000     -11.374779      -309.5235
   7   2.0000     -11.276740      -306.8557
   8   2.0000      -1.539084       -41.8806
   9   2.0000      -1.471635       -40.0452
  10   2.0000      -1.403671       -38.1958
  11   2.0000      -1.238640       -33.7051
  12   2.0000      -1.112557       -30.2742
  13   2.0000      -0.956876       -26.0379
  14   2.0000      -0.927593       -25.2411
  15   2.0000      -0.803040       -21.8518
  16   2.0000      -0.768713       -20.9177
  17   2.0000      -0.723397       -19.6846
  18   2.0000      -0.715896       -19.4805
  19   2.0000      -0.693223       -18.8635
  20   2.0000      -0.670650       -18.2493
  21   2.0000      -0.637766       -17.3545
  22   2.0000      -0.616241       -16.7688
  23   2.0000      -0.574725       -15.6391
  24   2.0000      -0.556545       -15.1444
  25   2.0000      -0.488712       -13.2985
  26   2.0000      -0.476755       -12.9732
  27   2.0000      -0.447297       -12.1716
  28   2.0000      -0.399349       -10.8668
  29   0.0000       0.069579         1.8933
  30   0.0000       0.134558         3.6615
  31   0.0000       0.150448         4.0939
  32   0.0000       0.166114         4.5202
  33   0.0000       0.173805         4.7295

MULLIKEN ATOMIC CHARGES
-----------------------
   0 N :   -0.346563
   1 C :    0.298844
   2 O :   -0.228775
   3 C :    0.071291
   4 C :   -0.251773
   5 C :    0.291957
   6 O :   -0.248289
   7 O :   -0.165716
   8 H :    0.241013
   9 H :    0.166068
  10 H :    0.171944
Sum of atomic charges:    0.0000000

LOEWDIN ATOMIC CHARGES
----------------------
   0 N :   -0.037538
   1 C :   -0.487610
   2 O :    0.303503
   3 C :   -0.196846
   4 C :   -0.166102
   5 C :   -0.427425
   6 O :    0.180391
   7 O :    0.336144
   8 H :    0.179154
   9 H :    0.149733
  10 H :    0.166594

  Mayer bond orders larger than 0.1
B(  0-N ,  1-C ) :   2.0112 B(  0-N ,  8-H ) :   0.8438 B(  1-C ,  2-O ) :   0.9755
B(  1-C ,  7-O ) :   1.0764 B(  2-O ,  3-C ) :   1.0387 B(  3-C ,  4-C ) :   1.6295
B(  3-C ,  9-H ) :   0.9252 B(  4-C ,  5-C ) :   1.0412 B(  4-C , 10-H ) :   0.9074
B(  5-C ,  6-O ) :   2.0340 B(  5-C ,  7-O ) :   0.9752

MP2 TOTAL ENERGY:     -433.888935195 Eh
FINAL SINGLE POINT ENERGY      -433.888935195171

DIPOLE MOMENT
-------------
                                X             Y             Z
Electronic contribution:     -1.85916       0.19395      -0.05324
Nuclear contribution   :      3.80870      -0.88785       0.31126
                        -----------------------------------------
Total Dipole Moment    :      1.94954      -0.69390       0.25802
                        -----------------------------------------
Magnitude (a.u.)       :      2.08537
Magnitude (Debye)      :      5.30060

                             ****ORCA TERMINATED NORMALLY****
TOTAL RUN TIME: 0 days 0 hours 8 minutes 12 seconds 213 msec
