                         Program Version 3.0.3 - RELEASE   -
|  1> ! RI-MP2 RIJK def2-TZVP def2-TZVP/C def2-TZVP/JK TIGHTSCF
|  2> % maxcore 2000
|  3> % mp2 density relaxed end
|  4> *xyz 0 1
|  5>  C        0.0080165399     1.4936355824    -0.2062597911
|  6>  C        0.0788887881    -0.0127577543     0.1209939278
|  7>  C        0.7797227234    -0.2483069979     1.3833058072
|  8>  C        1.3406788788    -0.4352404922     2.4297472226
|  9>  C       -1.3251617942    -0.6151926602     0.1512817916
| 10>  C       -1.9628975589    -1.1502239469    -1.0853213510
| 11>  C       -1.5934395350    -2.1130794083     0.0417539553
| 12>  C       -0.5010896526    -3.0870469020    -0.1832165703
| 13>  O       -0.4826721680    -4.2022624207     0.2758295951
| 14>  H        1.0101423555     1.9266952008    -0.2531512389
| 15>  H       -0.4874159535     1.6480921253    -1.1692795096
| 16>  H       -0.5565837377     2.0279791098     0.5636023034
| 17>  H        0.6508812073    -0.4983889951    -0.6800385993
| 18>  H        1.8427756744    -0.6123612709     3.3486204585
| 19>  H       -1.9828264169    -0.1148050641     0.8570716427
| 20>  H       -3.0172667818    -0.9784554264    -1.2675869602
| 21>  H       -1.3547538538    -1.2001389570    -1.9843351847
| 22>  H       -2.3998956482    -2.5064987278     0.6506980135
| 23>  H        0.3222127230    -2.7286115045    -0.8432380024
| 24> *
| 25>
| 26>                          ****END OF INPUT****

CARTESIAN COORDINATES (ANGSTROEM)
---------------------------------
  C      0.008017    1.493636   -0.206260
  C      0.078889   -0.012758    0.120994
  C      0.779723   -0.248307    1.383306
  C      1.340679   -0.435240    2.429747
  C     -1.325162   -0.615193    0.151282
  C     -1.962898   -1.150224   -1.085321
  C     -1.593440   -2.113079    0.041754
  C     -0.501090   -3.087047   -0.183217
  O     -0.482672   -4.202262    0.275830
  H      1.010142    1.926695   -0.253151
  H     -0.487416    1.648092   -1.169280
  H     -0.556584    2.027979    0.563602
  H      0.650881   -0.498389   -0.680039
  H      1.842776   -0.612361    3.348620
  H     -1.982826   -0.114805    0.857072
  H     -3.017267   -0.978455   -1.267587
  H     -1.354754   -1.200139   -1.984335
  H     -2.399896   -2.506499    0.650698
  H      0.322213   -2.728612   -0.843238

 Total Charge           Charge          ....    0
 Multiplicity           Mult            ....    1
 Number of Electrons    NEL             ....   66
 Basis Dimension        Dim             ....  339

ORBITAL ENERGIES
----------------

  NO   OCC          E(Eh)            E(eV)
   0   2.0000     -20.547883      -559.1363
   1   2.0000     -11.329921      -308.3028
   2   2.0000     -11.276248      -306.8423
   3   2.0000     -11.264409      -306.5201
   4   2.0000     -11.255346      -306.2735
   5   2.0000     -11.251220      -306.1613
   6   2.0000     -11.237438      -305.7862
   7   2.0000     -11.235529      -305.7343
   8   2.0000     -11.227456      -305.5146
   9   2.0000      -1.387729       -37.7620
  10   2.0000      -1.183167       -32.1956
  11   2.0000      -1.089035       -29.6342
  12   2.0000      -1.005347       -27.3569
  13   2.0000      -0.918548       -24.9950
  14   2.0000      -0.899364       -24.4729
  15   2.0000      -0.826360       -22.4864
  16   2.0000      -0.778874       -21.1942
  17   2.0000      -0.725076       -19.7303
  18   2.0000      -0.696443       -18.9512
  19   2.0000      -0.675206       -18.3733
  20   2.0000      -0.648629       -17.6501
  21   2.0000      -0.624609       -16.9965
  22   2.0000      -0.586363       -15.9558
  23   2.0000      -0.573849       -15.6152
  24   2.0000      -0.559415       -15.2224
  25   2.0000      -0.541968       -14.7477
  26   2.0000      -0.530112       -14.4251
  27   2.0000      -0.517071       -14.0702
  28   2.0000      -0.459635       -12.5073
  29   2.0000      -0.424195       -11.5429
  30   2.0000      -0.417568       -11.3626
  31   2.0000      -0.391975       -10.6662
  32   2.0000      -0.390196       -10.6178
  33   0.0000       0.123833         3.3697
  34   0.0000       0.130508         3.5513
  35   0.0000       0.141965         3.8631
  36   0.0000       0.161850         4.4042
  37   0.0000       0.164488         4.4759

MULLIKEN ATOMIC CHARGES
-----------------------
   0 C :   -0.383723
   1 C :   -0.194714
   2 C :   -0.015258
   3 C :   -0.142544
   4 C :   -0.103714
   5 C :   -0.276245
   6 C :   -0.030228
   7 C :    0.058840
   8 O :   -0.268071
   9 H :    0.147092
  10 H :    0.137770
  11 H :    0.133166
  12 H :    0.115782
  13 H :    0.193123
  14 H :    0.133818
  15 H :    0.148741
  16 H :    0.137838
  17 H :    0.136465
  18 H :    0.071861
Sum of atomic charges:   -0.0000000

LOEWDIN ATOMIC CHARGES
----------------------
   0 C :   -0.263567
   1 C :   -0.253855
   2 C :   -0.085208
   3 C :   -0.090978
   4 C :   -0.165111
   5 C :   -0.186563
   6 C :   -0.187184
   7 C :   -0.289811
   8 O :    0.129082
   9 H :    0.129283
  10 H :    0.126296
  11 H :    0.128881
  12 H :    0.169805
  13 H :    0.127964
  14 H :    0.160844
  15 H :    0.138225
  16 H :    0.141041
  17 H :    0.157307
  18 H :    0.113551

  Mayer bond orders larger than 0.1
B(  0-C ,  1-C ) :   0.9237 B(  0-C ,  9-H ) :   0.9363 B(  0-C , 10-H ) :   0.9355
B(  0-C , 11-H ) :   0.9305 B(  1-C ,  2-C ) :   1.1002 B(  1-C ,  4-C ) :   0.9139
B(  1-C , 12-H ) :   0.9401 B(  2-C ,  3-C ) :   2.6133 B(  3-C , 13-H ) :   0.8927
B(  4-C ,  5-C ) :   0.8975 B(  4-C ,  6-C ) :   0.8175 B(  4-C , 14-H ) :   0.9128
B(  5-C ,  6-C ) :   0.8339 B(  5-C , 15-H ) :   0.9249 B(  5-C , 16-H ) :   0.9173
B(  6-C ,  7-C ) :   0.8904 B(  6-C , 17-H ) :   0.9191 B(  6-C , 18-H ) :  -0.1025
B(  7-C ,  8-O ) :   1.9875 B(  7-C , 18-H ) :   0.9553

MP2 TOTAL ENERGY:     -385.166191569 Eh
FINAL SINGLE POINT ENERGY      -385.166191568559

DIPOLE MOMENT
-------------
                                X             Y             Z
Electronic contribution:      1.29748      -6.94088       2.98698
Nuclear contribution   :     -1.62015       8.19410      -3.45489
                        -----------------------------------------
Total Dipole Moment    :     -0.32267       1.25322      -0.46791
                        -----------------------------------------
Magnitude (a.u.)       :      1.37609
Magnitude (Debye)      :      3.49774

                             ****ORCA TERMINATED NORMALLY****
TOTAL RUN TIME: 0 days 0 hours 17 minutes 39 seconds 788 msec
