                         Program Version 3.0.3 - RELEASE   -
|  1> ! RI-MP2 RIJK def2-TZVP def2-TZVP/C def2-TZVP/JK TIGHTSCF
|  2> % maxcore 2000
|  3> % mp2 density relaxed end
|  4> *xyz 0 1
|  5>  C       -0.1883803001     1.2177971715    -0.0330211483
|  6>  O        0.3679062914    -0.0813446500    -0.0963761680
|  7>  C        0.8179113826    -0.5832764832     1.1329606333
|  8>  C        2.0891487180     0.0267997071     1.6775162201
|  9>  C       -0.2526456856    -1.0959886076     2.0985541492
| 10>  C        0.5786690780    -2.0493522269     1.2930410265
| 11>  C        0.1853352349    -3.0599502092     0.2261373377
| 12>  C        1.2971295980    -3.9196780975     0.8671594146
| 13>  O        1.5418905062    -2.9192336222     1.8880104820
| 14>  H        0.5618005794     1.9785336528     0.2234130792
| 15>  H       -0.5864874668     1.4413987817    -1.0257732389
| 16>  H       -1.0045984696     1.2735282292     0.7013654218
| 17>  H        1.9335124503     1.0484693923     2.0399171245
| 18>  H        2.4725890924    -0.5756783676     2.5040939886
| 19>  H        2.8539729034     0.0514685911     0.8943933391
| 20>  H       -0.0499074886    -1.0275561558     3.1627719855
| 21>  H       -1.2942235031    -0.9780261282     1.8159240554
| 22>  H       -0.8230109261    -3.4671552036     0.3218721322
| 23>  H        0.3532882892    -2.7339464699    -0.8005559962
| 24>  H        0.9814412148    -4.8715473690     1.3070560130
| 25>  H        2.1836401111    -4.0845063050     0.2441137488
| 26> *
| 27>
| 28>                          ****END OF INPUT****

CARTESIAN COORDINATES (ANGSTROEM)
---------------------------------
  C     -0.188380    1.217797   -0.033021
  O      0.367906   -0.081345   -0.096376
  C      0.817911   -0.583276    1.132961
  C      2.089149    0.026800    1.677516
  C     -0.252646   -1.095989    2.098554
  C      0.578669   -2.049352    1.293041
  C      0.185335   -3.059950    0.226137
  C      1.297130   -3.919678    0.867159
  O      1.541891   -2.919234    1.888010
  H      0.561801    1.978534    0.223413
  H     -0.586487    1.441399   -1.025773
  H     -1.004598    1.273528    0.701365
  H      1.933512    1.048469    2.039917
  H      2.472589   -0.575678    2.504094
  H      2.853973    0.051469    0.894393
  H     -0.049907   -1.027556    3.162772
  H     -1.294224   -0.978026    1.815924
  H     -0.823011   -3.467155    0.321872
  H      0.353288   -2.733946   -0.800556
  H      0.981441   -4.871547    1.307056
  H      2.183640   -4.084506    0.244114

 Total Charge           Charge          ....    0
 Multiplicity           Mult            ....    1
 Number of Electrons    NEL             ....   70
 Basis Dimension        Dim             ....  351

ORBITAL ENERGIES
----------------

  NO   OCC          E(Eh)            E(eV)
   0   2.0000     -20.559102      -559.4416
   1   2.0000     -20.548485      -559.1527
   2   2.0000     -11.283076      -307.0281
   3   2.0000     -11.281546      -306.9865
   4   2.0000     -11.277995      -306.8899
   5   2.0000     -11.270573      -306.6879
   6   2.0000     -11.227839      -305.5250
   7   2.0000     -11.220302      -305.3199
   8   2.0000     -11.214198      -305.1538
   9   2.0000      -1.388667       -37.7875
  10   2.0000      -1.374002       -37.3885
  11   2.0000      -1.125491       -30.6262
  12   2.0000      -1.008681       -27.4476
  13   2.0000      -0.964746       -26.2521
  14   2.0000      -0.930092       -25.3091
  15   2.0000      -0.868862       -23.6429
  16   2.0000      -0.783633       -21.3237
  17   2.0000      -0.725070       -19.7301
  18   2.0000      -0.688167       -18.7260
  19   2.0000      -0.662766       -18.0348
  20   2.0000      -0.660057       -17.9611
  21   2.0000      -0.633860       -17.2482
  22   2.0000      -0.605540       -16.4776
  23   2.0000      -0.602382       -16.3917
  24   2.0000      -0.566277       -15.4092
  25   2.0000      -0.547641       -14.9021
  26   2.0000      -0.541771       -14.7423
  27   2.0000      -0.531594       -14.4654
  28   2.0000      -0.513792       -13.9810
  29   2.0000      -0.497819       -13.5463
  30   2.0000      -0.485432       -13.2093
  31   2.0000      -0.463930       -12.6242
  32   2.0000      -0.445696       -12.1280
  33   2.0000      -0.385918       -10.5014
  34   2.0000      -0.365331        -9.9412
  35   0.0000       0.141773         3.8578
  36   0.0000       0.155749         4.2381
  37   0.0000       0.169263         4.6059
  38   0.0000       0.179973         4.8973
  39   0.0000       0.189309         5.1514

MULLIKEN ATOMIC CHARGES
-----------------------
   0 C :   -0.219245
   1 O :   -0.313581
   2 C :    0.213443
   3 C :   -0.438222
   4 C :   -0.337466
   5 C :    0.194165
   6 C :   -0.292316
   7 C :   -0.009336
   8 O :   -0.332902
   9 H :    0.118692
  10 H :    0.140257
  11 H :    0.114110
  12 H :    0.131237
  13 H :    0.154193
  14 H :    0.136818
  15 H :    0.131819
  16 H :    0.142724
  17 H :    0.121437
  18 H :    0.144254
  19 H :    0.101615
  20 H :    0.098305
Sum of atomic charges:    0.0000000

LOEWDIN ATOMIC CHARGES
----------------------
   0 C :   -0.345158
   1 O :    0.189901
   2 C :   -0.337932
   3 C :   -0.268332
   4 C :   -0.178794
   5 C :   -0.275691
   6 C :   -0.199829
   7 C :   -0.253011
   8 O :    0.163886
   9 H :    0.103284
  10 H :    0.112953
  11 H :    0.103662
  12 H :    0.124332
  13 H :    0.138722
  14 H :    0.132268
  15 H :    0.142163
  16 H :    0.140338
  17 H :    0.134723
  18 H :    0.139036
  19 H :    0.116456
  20 H :    0.117023

  Mayer bond orders larger than 0.1
B(  0-C ,  1-O ) :   0.8996 B(  0-C ,  9-H ) :   0.9358 B(  0-C , 10-H ) :   0.9403
B(  0-C , 11-H ) :   0.9336 B(  1-O ,  2-C ) :   0.9700 B(  2-C ,  3-C ) :   0.8977
B(  2-C ,  4-C ) :   0.8922 B(  2-C ,  5-C ) :   0.8360 B(  3-C , 12-H ) :   0.9336
B(  3-C , 13-H ) :   0.9210 B(  3-C , 14-H ) :   0.9398 B(  4-C ,  5-C ) :   0.8749
B(  4-C , 15-H ) :   0.9005 B(  4-C , 16-H ) :   0.9133 B(  5-C ,  6-C ) :   0.9104
B(  5-C ,  8-O ) :   0.9827 B(  6-C ,  7-C ) :   0.9913 B(  6-C , 17-H ) :   0.9196
B(  6-C , 18-H ) :   0.9195 B(  7-C ,  8-O ) :   0.9259 B(  7-C , 19-H ) :   0.9153
B(  7-C , 20-H ) :   0.9146

MP2 TOTAL ENERGY:     -423.467149829 Eh
FINAL SINGLE POINT ENERGY      -423.467149829315

DIPOLE MOMENT
-------------
                                X             Y             Z
Electronic contribution:      0.60142      -3.85235       0.29970
Nuclear contribution   :     -1.01118       4.04771      -0.50633
                        -----------------------------------------
Total Dipole Moment    :     -0.40976       0.19536      -0.20663
                        -----------------------------------------
Magnitude (a.u.)       :      0.49876
Magnitude (Debye)      :      1.26776

                             ****ORCA TERMINATED NORMALLY****
TOTAL RUN TIME: 0 days 0 hours 17 minutes 46 seconds 999 msec
