                         Program Version 3.0.3 - RELEASE   -
|  1> ! RI-MP2 RIJK def2-TZVP def2-TZVP/C def2-TZVP/JK TIGHTSCF
|  2> % maxcore 2000
|  3> % mp2 density relaxed end
|  4> *xyz 0 1
|  5>  N       -0.0935242705     1.2727949924    -0.5522535909
|  6>  C       -0.0935142874     0.1140525326    -0.0543206825
|  7>  O       -1.0720809840    -0.7564794180    -0.3737844382
|  8>  C       -0.9312938798    -2.0911168012     0.1171396064
|  9>  C       -2.3026429489    -2.7143307944     0.1185258343
| 10>  C       -2.8448079536    -3.4091964842    -1.0821401659
| 11>  C       -2.5076146174    -4.2306508056     0.1567137185
| 12>  C       -1.3671466662    -5.1746646827     0.0985986954
| 13>  O       -1.3019822655    -6.1990098581     0.7316763178
| 14>  H        0.6943894774     1.8063869022    -0.1910740949
| 15>  H        0.6406388438    -0.2920970816     0.6562590356
| 16>  H       -0.2374517980    -2.6445519279    -0.5274236525
| 17>  H       -0.5115931252    -2.0763633919     1.1323132781
| 18>  H       -3.0160246908    -2.1613011231     0.7221712422
| 19>  H       -3.8917635522    -3.2952825170    -1.3357433189
| 20>  H       -2.1841734949    -3.5236241498    -1.9364854155
| 21>  H       -3.3270592554    -4.5851768925     0.7721170619
| 22>  H       -0.5520123014    -4.8855114992    -0.6048207208
| 23> *
| 24>
| 25>                          ****END OF INPUT****

CARTESIAN COORDINATES (ANGSTROEM)
---------------------------------
  N     -0.093524    1.272795   -0.552254
  C     -0.093514    0.114053   -0.054321
  O     -1.072081   -0.756479   -0.373784
  C     -0.931294   -2.091117    0.117140
  C     -2.302643   -2.714331    0.118526
  C     -2.844808   -3.409196   -1.082140
  C     -2.507615   -4.230651    0.156714
  C     -1.367147   -5.174665    0.098599
  O     -1.301982   -6.199010    0.731676
  H      0.694389    1.806387   -0.191074
  H      0.640639   -0.292097    0.656259
  H     -0.237452   -2.644552   -0.527424
  H     -0.511593   -2.076363    1.132313
  H     -3.016025   -2.161301    0.722171
  H     -3.891764   -3.295283   -1.335743
  H     -2.184173   -3.523624   -1.936485
  H     -3.327059   -4.585177    0.772117
  H     -0.552012   -4.885511   -0.604821

 Total Charge           Charge          ....    0
 Multiplicity           Mult            ....    1
 Number of Electrons    NEL             ....   68
 Basis Dimension        Dim             ....  333

ORBITAL ENERGIES
----------------

  NO   OCC          E(Eh)            E(eV)
   0   2.0000     -20.602178      -560.6138
   1   2.0000     -20.559445      -559.4509
   2   2.0000     -15.547257      -423.0624
   3   2.0000     -11.345941      -308.7387
   4   2.0000     -11.340916      -308.6020
   5   2.0000     -11.317238      -307.9577
   6   2.0000     -11.270248      -306.6790
   7   2.0000     -11.261921      -306.4525
   8   2.0000     -11.260060      -306.4018
   9   2.0000      -1.438008       -39.1302
  10   2.0000      -1.399287       -38.0765
  11   2.0000      -1.209171       -32.9032
  12   2.0000      -1.181742       -32.1568
  13   2.0000      -1.000777       -27.2325
  14   2.0000      -0.922782       -25.1102
  15   2.0000      -0.840171       -22.8622
  16   2.0000      -0.832732       -22.6598
  17   2.0000      -0.787073       -21.4173
  18   2.0000      -0.734448       -19.9853
  19   2.0000      -0.704205       -19.1624
  20   2.0000      -0.683411       -18.5966
  21   2.0000      -0.670941       -18.2572
  22   2.0000      -0.650916       -17.7123
  23   2.0000      -0.627841       -17.0844
  24   2.0000      -0.585452       -15.9309
  25   2.0000      -0.567134       -15.4325
  26   2.0000      -0.551703       -15.0126
  27   2.0000      -0.542642       -14.7660
  28   2.0000      -0.525716       -14.3054
  29   2.0000      -0.463862       -12.6223
  30   2.0000      -0.445813       -12.1312
  31   2.0000      -0.435632       -11.8542
  32   2.0000      -0.425396       -11.5756
  33   2.0000      -0.409179       -11.1343
  34   0.0000       0.118193         3.2162
  35   0.0000       0.132103         3.5947
  36   0.0000       0.135533         3.6880
  37   0.0000       0.150697         4.1007
  38   0.0000       0.154241         4.1971

MULLIKEN ATOMIC CHARGES
-----------------------
   0 N :   -0.341370
   1 C :    0.064695
   2 O :   -0.202836
   3 C :   -0.107723
   4 C :   -0.053876
   5 C :   -0.284901
   6 C :   -0.060615
   7 C :    0.055183
   8 O :   -0.265442
   9 H :    0.226291
  10 H :    0.079354
  11 H :    0.110393
  12 H :    0.125468
  13 H :    0.140642
  14 H :    0.152970
  15 H :    0.145439
  16 H :    0.142887
  17 H :    0.073443
Sum of atomic charges:   -0.0000000

LOEWDIN ATOMIC CHARGES
----------------------
   0 N :   -0.078656
   1 C :   -0.402833
   2 O :    0.244681
   3 C :   -0.281501
   4 C :   -0.197303
   5 C :   -0.180026
   6 C :   -0.188882
   7 C :   -0.296138
   8 O :    0.130678
   9 H :    0.168701
  10 H :    0.106255
  11 H :    0.128766
  12 H :    0.130570
  13 H :    0.160317
  14 H :    0.141154
  15 H :    0.143547
  16 H :    0.158172
  17 H :    0.112500

  Mayer bond orders larger than 0.1
B(  0-N ,  1-C ) :   1.9581 B(  0-N ,  9-H ) :   0.8494 B(  1-C ,  2-O ) :   1.0531
B(  1-C , 10-H ) :   0.9268 B(  2-O ,  3-C ) :   0.9012 B(  3-C ,  4-C ) :   0.9570
B(  3-C , 11-H ) :   0.9126 B(  3-C , 12-H ) :   0.9285 B(  4-C ,  5-C ) :   0.8944
B(  4-C ,  6-C ) :   0.7930 B(  4-C , 13-H ) :   0.9193 B(  5-C ,  6-C ) :   0.8367
B(  5-C , 14-H ) :   0.9244 B(  5-C , 15-H ) :   0.9222 B(  6-C ,  7-C ) :   0.8997
B(  6-C , 16-H ) :   0.9145 B(  7-C ,  8-O ) :   1.9872 B(  7-C , 17-H ) :   0.9484

MP2 TOTAL ENERGY:     -438.341025311 Eh
FINAL SINGLE POINT ENERGY      -438.341025310630

DIPOLE MOMENT
-------------
                                X             Y             Z
Electronic contribution:      0.46184      -1.13036       0.78223
Nuclear contribution   :     -0.15486       1.29504      -0.49002
                        -----------------------------------------
Total Dipole Moment    :      0.30698       0.16468       0.29221
                        -----------------------------------------
Magnitude (a.u.)       :      0.45469
Magnitude (Debye)      :      1.15572

                             ****ORCA TERMINATED NORMALLY****
TOTAL RUN TIME: 0 days 0 hours 13 minutes 0 seconds 844 msec
