                         Program Version 3.0.3 - RELEASE   -
|  1> ! RI-MP2 RIJK def2-TZVP def2-TZVP/C def2-TZVP/JK TIGHTSCF
|  2> % maxcore 2000
|  3> % mp2 density relaxed end
|  4> *xyz 0 1
|  5>  O        0.5260986403     0.9705623034    -0.7353209634
|  6>  C        0.2205317685    -0.1456843510     0.0656157547
|  7>  C        0.0270330150     0.0400632264     1.5976472387
|  8>  C       -1.1962334233    -0.9118347796     1.4971355514
|  9>  O       -2.3297320045    -0.7035376677     2.2983439274
| 10>  C       -1.2455952618    -0.6168664193    -0.0253678320
| 11>  C       -2.3166218545     0.3320766782    -0.6000973869
| 12>  C       -2.5955484787    -0.8253443030    -1.5785352214
| 13>  O       -1.5954230689    -1.6548059884    -0.9466094924
| 14>  H        1.4635523690     1.1662250217    -0.6441589993
| 15>  H        0.8827333512    -0.9950765944    -0.1520790193
| 16>  H        0.8418403009    -0.2342959959     2.2695518452
| 17>  H       -0.2891124715     1.0677609060     1.8084837027
| 18>  H       -0.9057847373    -1.9556892200     1.6499345421
| 19>  H       -2.5437474610     0.2349908631     2.2757706984
| 20>  H       -3.1371688952     0.5541464230     0.0851604981
| 21>  H       -1.9290715597     1.2502387275    -1.0395136396
| 22>  H       -3.5929804603    -1.2750014620    -1.5196815057
| 23>  H       -2.3514923183    -0.6238589979    -2.6279462687
| 24> *
| 25>
| 26>                          ****END OF INPUT****

CARTESIAN COORDINATES (ANGSTROEM)
---------------------------------
  O      0.526099    0.970562   -0.735321
  C      0.220532   -0.145684    0.065616
  C      0.027033    0.040063    1.597647
  C     -1.196233   -0.911835    1.497136
  O     -2.329732   -0.703538    2.298344
  C     -1.245595   -0.616866   -0.025368
  C     -2.316622    0.332077   -0.600097
  C     -2.595548   -0.825344   -1.578535
  O     -1.595423   -1.654806   -0.946609
  H      1.463552    1.166225   -0.644159
  H      0.882733   -0.995077   -0.152079
  H      0.841840   -0.234296    2.269552
  H     -0.289112    1.067761    1.808484
  H     -0.905785   -1.955689    1.649935
  H     -2.543747    0.234991    2.275771
  H     -3.137169    0.554146    0.085160
  H     -1.929072    1.250239   -1.039514
  H     -3.592980   -1.275001   -1.519682
  H     -2.351492   -0.623859   -2.627946

 Total Charge           Charge          ....    0
 Multiplicity           Mult            ....    1
 Number of Electrons    NEL             ....   70
 Basis Dimension        Dim             ....  339

ORBITAL ENERGIES
----------------

  NO   OCC          E(Eh)            E(eV)
   0   2.0000     -20.567890      -559.6807
   1   2.0000     -20.563225      -559.5538
   2   2.0000     -20.547043      -559.1135
   3   2.0000     -11.286462      -307.1203
   4   2.0000     -11.284628      -307.0703
   5   2.0000     -11.283081      -307.0282
   6   2.0000     -11.277031      -306.8636
   7   2.0000     -11.230737      -305.6039
   8   2.0000     -11.228661      -305.5474
   9   2.0000      -1.388337       -37.7786
  10   2.0000      -1.370831       -37.3022
  11   2.0000      -1.367128       -37.2015
  12   2.0000      -1.118323       -30.4311
  13   2.0000      -1.006426       -27.3862
  14   2.0000      -0.914047       -24.8725
  15   2.0000      -0.884695       -24.0738
  16   2.0000      -0.825351       -22.4589
  17   2.0000      -0.746493       -20.3131
  18   2.0000      -0.716564       -19.4987
  19   2.0000      -0.694262       -18.8918
  20   2.0000      -0.673257       -18.3203
  21   2.0000      -0.639198       -17.3934
  22   2.0000      -0.625962       -17.0333
  23   2.0000      -0.611960       -16.6523
  24   2.0000      -0.586819       -15.9682
  25   2.0000      -0.574796       -15.6410
  26   2.0000      -0.542363       -14.7585
  27   2.0000      -0.534625       -14.5479
  28   2.0000      -0.526114       -14.3163
  29   2.0000      -0.496975       -13.5234
  30   2.0000      -0.481674       -13.1070
  31   2.0000      -0.458794       -12.4844
  32   2.0000      -0.431846       -11.7511
  33   2.0000      -0.424438       -11.5496
  34   2.0000      -0.390294       -10.6204
  35   0.0000       0.126538         3.4433
  36   0.0000       0.139835         3.8051
  37   0.0000       0.157732         4.2921
  38   0.0000       0.167813         4.5664
  39   0.0000       0.187890         5.1128

MULLIKEN ATOMIC CHARGES
-----------------------
   0 O :   -0.455788
   1 C :   -0.033632
   2 C :   -0.186115
   3 C :   -0.036847
   4 O :   -0.451456
   5 C :    0.309408
   6 C :   -0.331213
   7 C :   -0.013577
   8 O :   -0.337542
   9 H :    0.321081
  10 H :    0.094708
  11 H :    0.132414
  12 H :    0.107043
  13 H :    0.109646
  14 H :    0.315775
  15 H :    0.104001
  16 H :    0.155694
  17 H :    0.098131
  18 H :    0.098270
Sum of atomic charges:   -0.0000000

LOEWDIN ATOMIC CHARGES
----------------------
   0 O :   -0.013300
   1 C :   -0.296418
   2 C :   -0.217357
   3 C :   -0.296187
   4 O :   -0.005639
   5 C :   -0.283263
   6 C :   -0.202035
   7 C :   -0.259406
   8 O :    0.161984
   9 H :    0.178490
  10 H :    0.139851
  11 H :    0.126262
  12 H :    0.139512
  13 H :    0.151294
  14 H :    0.173023
  15 H :    0.129270
  16 H :    0.139304
  17 H :    0.116892
  18 H :    0.117725

  Mayer bond orders larger than 0.1
B(  0-O ,  1-C ) :   1.1138 B(  0-O ,  9-H ) :   0.8437 B(  1-C ,  2-C ) :   0.8948
B(  1-C ,  5-C ) :   0.8767 B(  1-C , 10-H ) :   0.9526 B(  2-C ,  3-C ) :   0.9109
B(  2-C , 11-H ) :   0.9267 B(  2-C , 12-H ) :   0.8963 B(  3-C ,  4-O ) :   0.9602
B(  3-C ,  5-C ) :   0.8691 B(  3-C , 13-H ) :   0.9191 B(  4-O , 14-H ) :   0.8387
B(  5-C ,  6-C ) :   0.9069 B(  5-C ,  8-O ) :   0.9591 B(  6-C ,  7-C ) :   1.0094
B(  6-C , 15-H ) :   0.9149 B(  6-C , 16-H ) :   0.9097 B(  7-C ,  8-O ) :   0.9443
B(  7-C , 17-H ) :   0.9110 B(  7-C , 18-H ) :   0.9145

MP2 TOTAL ENERGY:     -459.397572585 Eh
FINAL SINGLE POINT ENERGY      -459.397572585478

DIPOLE MOMENT
-------------
                                X             Y             Z
Electronic contribution:      0.44757      -1.86095      -0.22142
Nuclear contribution   :      0.06833       2.73724       0.28444
                        -----------------------------------------
Total Dipole Moment    :      0.51590       0.87630       0.06302
                        -----------------------------------------
Magnitude (a.u.)       :      1.01883
Magnitude (Debye)      :      2.58967

                             ****ORCA TERMINATED NORMALLY****
TOTAL RUN TIME: 0 days 0 hours 16 minutes 1 seconds 136 msec
