                         Program Version 3.0.3 - RELEASE   -
|  1> ! RI-MP2 RIJK def2-TZVP def2-TZVP/C def2-TZVP/JK TIGHTSCF
|  2> % maxcore 2000
|  3> % mp2 density relaxed end
|  4> *xyz 0 1
|  5>  N        0.1228002801     1.2692158576     0.2078987478
|  6>  C        0.0139503655     0.0473077974    -0.0976133482
|  7>  N       -1.1913429081    -0.6621694798     0.0145274279
|  8>  C       -1.2211850423    -2.0752869598     0.0946454404
|  9>  N       -0.2664532503    -2.8835019126     0.2931980556
| 10>  C       -2.6602565875    -2.5137603750    -0.0925840387
| 11>  C       -3.4858475263    -1.2380703052     0.1034139138
| 12>  C       -2.4939267837    -0.0903401704    -0.0490336708
| 13>  O       -2.7417532055     1.0706901500    -0.2009416820
| 14>  H        1.0696765886     1.5919259360     0.0093645256
| 15>  H        0.8166112262    -0.5860158953    -0.4924126831
| 16>  H        0.6327647287    -2.4226373394     0.4278394003
| 17>  H       -2.7734912046    -2.9095945911    -1.1072725830
| 18>  H       -2.8980060919    -3.3215685220     0.5996676666
| 19>  H       -4.3037616770    -1.1077656149    -0.6064577777
| 20>  H       -3.9147905519    -1.1733235357     1.1092064955
| 21> *
| 22>
| 23>                          ****END OF INPUT****

CARTESIAN COORDINATES (ANGSTROEM)
---------------------------------
  N      0.122800    1.269216    0.207899
  C      0.013950    0.047308   -0.097613
  N     -1.191343   -0.662169    0.014527
  C     -1.221185   -2.075287    0.094645
  N     -0.266453   -2.883502    0.293198
  C     -2.660257   -2.513760   -0.092584
  C     -3.485848   -1.238070    0.103414
  C     -2.493927   -0.090340   -0.049034
  O     -2.741753    1.070690   -0.200942
  H      1.069677    1.591926    0.009365
  H      0.816611   -0.586016   -0.492413
  H      0.632765   -2.422637    0.427839
  H     -2.773491   -2.909595   -1.107273
  H     -2.898006   -3.321569    0.599668
  H     -4.303762   -1.107766   -0.606458
  H     -3.914791   -1.173324    1.109206

 Total Charge           Charge          ....    0
 Multiplicity           Mult            ....    1
 Number of Electrons    NEL             ....   66
 Basis Dimension        Dim             ....  321

ORBITAL ENERGIES
----------------

  NO   OCC          E(Eh)            E(eV)
   0   2.0000     -20.550201      -559.1994
   1   2.0000     -15.632724      -425.3881
   2   2.0000     -15.565954      -423.5711
   3   2.0000     -15.555766      -423.2939
   4   2.0000     -11.377105      -309.5868
   5   2.0000     -11.346842      -308.7633
   6   2.0000     -11.339160      -308.5542
   7   2.0000     -11.262746      -306.4749
   8   2.0000     -11.261634      -306.4446
   9   2.0000      -1.418159       -38.5901
  10   2.0000      -1.328810       -36.1588
  11   2.0000      -1.233620       -33.5685
  12   2.0000      -1.185508       -32.2593
  13   2.0000      -1.093123       -29.7454
  14   2.0000      -0.944584       -25.7034
  15   2.0000      -0.904550       -24.6141
  16   2.0000      -0.832067       -22.6417
  17   2.0000      -0.741781       -20.1849
  18   2.0000      -0.736712       -20.0470
  19   2.0000      -0.693360       -18.8673
  20   2.0000      -0.678044       -18.4505
  21   2.0000      -0.661640       -18.0041
  22   2.0000      -0.621339       -16.9075
  23   2.0000      -0.599553       -16.3147
  24   2.0000      -0.579236       -15.7618
  25   2.0000      -0.572472       -15.5778
  26   2.0000      -0.556961       -15.1557
  27   2.0000      -0.496797       -13.5185
  28   2.0000      -0.483374       -13.1533
  29   2.0000      -0.463670       -12.6171
  30   2.0000      -0.439871       -11.9695
  31   2.0000      -0.425150       -11.5689
  32   2.0000      -0.385627       -10.4934
  33   0.0000       0.108960         2.9649
  34   0.0000       0.119820         3.2605
  35   0.0000       0.135508         3.6874
  36   0.0000       0.147717         4.0196
  37   0.0000       0.161843         4.4040

MULLIKEN ATOMIC CHARGES
-----------------------
   0 N :   -0.304079
   1 C :   -0.032540
   2 N :   -0.030681
   3 C :    0.051049
   4 N :   -0.346668
   5 C :   -0.180157
   6 C :   -0.221582
   7 C :    0.182663
   8 O :   -0.251552
   9 H :    0.228345
  10 H :    0.107691
  11 H :    0.209847
  12 H :    0.140174
  13 H :    0.149997
  14 H :    0.151453
  15 H :    0.146041
Sum of atomic charges:    0.0000000

LOEWDIN ATOMIC CHARGES
----------------------
   0 N :   -0.030033
   1 C :   -0.302261
   2 N :    0.236073
   3 C :   -0.319690
   4 N :   -0.041995
   5 C :   -0.201942
   6 C :   -0.210166
   7 C :   -0.367381
   8 O :    0.169038
   9 H :    0.171233
  10 H :    0.121453
  11 H :    0.157031
  12 H :    0.156448
  13 H :    0.151789
  14 H :    0.151961
  15 H :    0.158442

  Mayer bond orders larger than 0.1
B(  0-N ,  1-C ) :   1.9783 B(  0-N ,  9-H ) :   0.8511 B(  1-C ,  2-N ) :   0.9380
B(  1-C , 10-H ) :   0.9169 B(  2-N ,  3-C ) :   1.0014 B(  2-N ,  7-C ) :   0.9579
B(  3-C ,  4-N ) :   2.0461 B(  3-C ,  5-C ) :   0.9089 B(  4-N , 11-H ) :   0.8642
B(  5-C ,  6-C ) :   0.9361 B(  5-C , 12-H ) :   0.9105 B(  5-C , 13-H ) :   0.9268
B(  6-C ,  7-C ) :   0.9240 B(  6-C , 14-H ) :   0.9248 B(  6-C , 15-H ) :   0.9037
B(  7-C ,  8-O ) :   2.0495

MP2 TOTAL ENERGY:     -433.388229582 Eh
FINAL SINGLE POINT ENERGY      -433.388229582283

DIPOLE MOMENT
-------------
                                X             Y             Z
Electronic contribution:      0.89376       3.56238      -0.00807
Nuclear contribution   :     -0.57522      -4.28789      -0.23854
                        -----------------------------------------
Total Dipole Moment    :      0.31854      -0.72552      -0.24661
                        -----------------------------------------
Magnitude (a.u.)       :      0.82985
Magnitude (Debye)      :      2.10932

                             ****ORCA TERMINATED NORMALLY****
TOTAL RUN TIME: 0 days 0 hours 15 minutes 24 seconds 339 msec
