                         Program Version 3.0.3 - RELEASE   -
|  1> ! RI-MP2 RIJK def2-TZVP def2-TZVP/C def2-TZVP/JK TIGHTSCF
|  2> % maxcore 2000
|  3> % mp2 density relaxed end
|  4> *xyz 0 1
|  5>  C        0.0670187746     1.4045942443     0.0624475829
|  6>  N        0.1098374539    -0.0370528872    -0.0429410061
|  7>  C        0.6240046516    -0.6880975796    -1.1020836532
|  8>  N        1.1191885159    -0.0126147321    -2.1030997561
|  9>  O        1.6416982040    -0.7401383230    -3.1794884733
| 10>  N        1.6567310244    -2.0903409205    -3.2289680217
| 11>  C        1.1654555102    -2.7541549410    -2.2361921322
| 12>  C        0.5897201313    -2.1582073292    -1.0534822123
| 13>  N        0.0821419262    -2.7379396827    -0.0269091599
| 14>  H        1.0742948659     1.8343956702     0.0216273220
| 15>  H       -0.5144857809     1.8442761881    -0.7558405436
| 16>  H       -0.3963228510     1.6734017375     1.0127659843
| 17>  H       -0.2515810872    -0.6363389915     0.6831140489
| 18>  H        1.2094315630    -3.8351829069    -2.3409025802
| 19>  H        0.1190622581    -3.7550935764    -0.1170978294
| 20> *
| 21>
| 22>                          ****END OF INPUT****

CARTESIAN COORDINATES (ANGSTROEM)
---------------------------------
  C      0.067019    1.404594    0.062448
  N      0.109837   -0.037053   -0.042941
  C      0.624005   -0.688098   -1.102084
  N      1.119189   -0.012615   -2.103100
  O      1.641698   -0.740138   -3.179488
  N      1.656731   -2.090341   -3.228968
  C      1.165456   -2.754155   -2.236192
  C      0.589720   -2.158207   -1.053482
  N      0.082142   -2.737940   -0.026909
  H      1.074295    1.834396    0.021627
  H     -0.514486    1.844276   -0.755841
  H     -0.396323    1.673402    1.012766
  H     -0.251581   -0.636339    0.683114
  H      1.209432   -3.835183   -2.340903
  H      0.119062   -3.755094   -0.117098

 Total Charge           Charge          ....    0
 Multiplicity           Mult            ....    1
 Number of Electrons    NEL             ....   66
 Basis Dimension        Dim             ....  315

ORBITAL ENERGIES
----------------

  NO   OCC          E(Eh)            E(eV)
   0   2.0000     -20.659670      -562.1782
   1   2.0000     -15.673253      -426.4909
   2   2.0000     -15.623185      -425.1285
   3   2.0000     -15.588451      -424.1833
   4   2.0000     -15.587550      -424.1588
   5   2.0000     -11.339079      -308.5520
   6   2.0000     -11.331212      -308.3379
   7   2.0000     -11.301573      -307.5314
   8   2.0000     -11.266828      -306.5860
   9   2.0000      -1.505259       -40.9602
  10   2.0000      -1.303925       -35.4816
  11   2.0000      -1.251953       -34.0674
  12   2.0000      -1.205302       -32.7979
  13   2.0000      -1.132402       -30.8142
  14   2.0000      -0.975820       -26.5534
  15   2.0000      -0.928653       -25.2699
  16   2.0000      -0.880391       -23.9566
  17   2.0000      -0.784042       -21.3349
  18   2.0000      -0.750944       -20.4342
  19   2.0000      -0.702348       -19.1119
  20   2.0000      -0.676195       -18.4002
  21   2.0000      -0.674235       -18.3469
  22   2.0000      -0.620676       -16.8895
  23   2.0000      -0.613960       -16.7067
  24   2.0000      -0.597258       -16.2522
  25   2.0000      -0.561281       -15.2732
  26   2.0000      -0.537493       -14.6259
  27   2.0000      -0.523942       -14.2572
  28   2.0000      -0.495335       -13.4788
  29   2.0000      -0.493002       -13.4153
  30   2.0000      -0.432865       -11.7789
  31   2.0000      -0.406230       -11.0541
  32   2.0000      -0.343202        -9.3390
  33   0.0000       0.057332         1.5601
  34   0.0000       0.129869         3.5339
  35   0.0000       0.130159         3.5418
  36   0.0000       0.145346         3.9551
  37   0.0000       0.175324         4.7708

MULLIKEN ATOMIC CHARGES
-----------------------
   0 C :   -0.271938
   1 N :   -0.315753
   2 C :    0.192989
   3 N :   -0.138469
   4 O :   -0.057446
   5 N :   -0.042329
   6 C :   -0.099968
   7 C :    0.083513
   8 N :   -0.414422
   9 H :    0.146146
  10 H :    0.146072
  11 H :    0.140869
  12 H :    0.270617
  13 H :    0.146266
  14 H :    0.213854
Sum of atomic charges:    0.0000000

LOEWDIN ATOMIC CHARGES
----------------------
   0 C :   -0.310781
   1 N :    0.104148
   2 C :   -0.336968
   3 N :    0.031506
   4 O :    0.156022
   5 N :    0.037673
   6 C :   -0.231231
   7 C :   -0.288238
   8 N :   -0.039748
   9 H :    0.121204
  10 H :    0.121156
  11 H :    0.121643
  12 H :    0.198319
  13 H :    0.151565
  14 H :    0.163730

  Mayer bond orders larger than 0.1
B(  0-C ,  1-N ) :   0.8742 B(  0-C ,  9-H ) :   0.9333 B(  0-C , 10-H ) :   0.9333
B(  0-C , 11-H ) :   0.9306 B(  1-N ,  2-C ) :   1.2274 B(  1-N , 12-H ) :   0.8458
B(  2-C ,  3-N ) :   1.6191 B(  2-C ,  7-C ) :   0.9684 B(  3-N ,  4-O ) :   0.8104
B(  4-O ,  5-N ) :   0.9213 B(  5-N ,  6-C ) :   1.6654 B(  6-C ,  7-C ) :   1.0473
B(  6-C , 13-H ) :   0.9336 B(  7-C ,  8-N ) :   1.8157 B(  8-N , 14-H ) :   0.8641

MP2 TOTAL ENERGY:     -449.303557350 Eh
FINAL SINGLE POINT ENERGY      -449.303557350270

DIPOLE MOMENT
-------------
                                X             Y             Z
Electronic contribution:      2.72738      -3.64693      -5.61133
Nuclear contribution   :     -3.21935       3.26108       6.60772
                        -----------------------------------------
Total Dipole Moment    :     -0.49196      -0.38586       0.99638
                        -----------------------------------------
Magnitude (a.u.)       :      1.17630
Magnitude (Debye)      :      2.98993

                             ****ORCA TERMINATED NORMALLY****
TOTAL RUN TIME: 0 days 0 hours 16 minutes 2 seconds 754 msec
