                         Program Version 3.0.3 - RELEASE   -
|  1> ! RI-MP2 RIJK def2-TZVP def2-TZVP/C def2-TZVP/JK TIGHTSCF
|  2> % maxcore 2000
|  3> % mp2 density relaxed end
|  4> *xyz 0 1
|  5>  C       -0.1292606936     1.4636953105     0.0744203737
|  6>  C        0.0693022522    -0.0125243651    -0.0157269339
|  7>  C        0.0050052857    -0.8013313388    -1.1060405236
|  8>  C        0.1967986321    -2.2154559698    -0.7588637456
|  9>  C        0.5340715178    -2.2905679943     0.6728699979
| 10>  C        0.1561387929    -0.9002632965     1.2285418653
| 11>  N       -1.2942062546    -1.0174547441     1.5628025516
| 12>  C       -1.6959044631    -2.0670996718     0.9491468908
| 13>  N       -0.7528849812    -2.9182621477     0.3416825550
| 14>  H        0.7404479096     1.9486843184     0.5356636691
| 15>  H       -0.2873915822     1.9092089859    -0.9113784599
| 16>  H       -0.9947100746     1.6959157968     0.7040358944
| 17>  H       -0.2124311860    -0.4612310931    -2.1115199500
| 18>  H        0.5061362805    -2.9556561723    -1.4847671761
| 19>  H        1.3124193274    -2.9174439275     1.0965580135
| 20>  H        0.7406076503    -0.5145896589     2.0643749552
| 21>  H       -2.7455791132    -2.3376943120     0.8790642024
| 22> *
| 23>
| 24>                          ****END OF INPUT****

CARTESIAN COORDINATES (ANGSTROEM)
---------------------------------
  C     -0.129261    1.463695    0.074420
  C      0.069302   -0.012524   -0.015727
  C      0.005005   -0.801331   -1.106041
  C      0.196799   -2.215456   -0.758864
  C      0.534072   -2.290568    0.672870
  C      0.156139   -0.900263    1.228542
  N     -1.294206   -1.017455    1.562803
  C     -1.695904   -2.067100    0.949147
  N     -0.752885   -2.918262    0.341683
  H      0.740448    1.948684    0.535664
  H     -0.287392    1.909209   -0.911378
  H     -0.994710    1.695916    0.704036
  H     -0.212431   -0.461231   -2.111520
  H      0.506136   -2.955656   -1.484767
  H      1.312419   -2.917444    1.096558
  H      0.740608   -0.514590    2.064375
  H     -2.745579   -2.337694    0.879064

 Total Charge           Charge          ....    0
 Multiplicity           Mult            ....    1
 Number of Electrons    NEL             ....   64
 Basis Dimension        Dim             ....  327

ORBITAL ENERGIES
----------------

  NO   OCC          E(Eh)            E(eV)
   0   2.0000     -15.575082      -423.8195
   1   2.0000     -15.551782      -423.1855
   2   2.0000     -11.295383      -307.3630
   3   2.0000     -11.284974      -307.0798
   4   2.0000     -11.271373      -306.7097
   5   2.0000     -11.267732      -306.6106
   6   2.0000     -11.254695      -306.2558
   7   2.0000     -11.229396      -305.5674
   8   2.0000     -11.228755      -305.5500
   9   2.0000      -1.326874       -36.1061
  10   2.0000      -1.178333       -32.0641
  11   2.0000      -1.117439       -30.4071
  12   2.0000      -0.994884       -27.0722
  13   2.0000      -0.965523       -26.2732
  14   2.0000      -0.893614       -24.3165
  15   2.0000      -0.796891       -21.6845
  16   2.0000      -0.765668       -20.8349
  17   2.0000      -0.741470       -20.1764
  18   2.0000      -0.712746       -19.3948
  19   2.0000      -0.622755       -16.9460
  20   2.0000      -0.603673       -16.4268
  21   2.0000      -0.592699       -16.1282
  22   2.0000      -0.579554       -15.7705
  23   2.0000      -0.552623       -15.0376
  24   2.0000      -0.539749       -14.6873
  25   2.0000      -0.527130       -14.3439
  26   2.0000      -0.501517       -13.6470
  27   2.0000      -0.483815       -13.1653
  28   2.0000      -0.461547       -12.5593
  29   2.0000      -0.412489       -11.2244
  30   2.0000      -0.370939       -10.0938
  31   2.0000      -0.336817        -9.1653
  32   0.0000       0.127274         3.4633
  33   0.0000       0.138555         3.7703
  34   0.0000       0.146013         3.9732
  35   0.0000       0.163928         4.4607
  36   0.0000       0.175863         4.7855

MULLIKEN ATOMIC CHARGES
-----------------------
   0 C :   -0.454874
   1 C :   -0.042448
   2 C :   -0.186518
   3 C :   -0.064756
   4 C :   -0.072104
   5 C :    0.153914
   6 N :   -0.265514
   7 C :    0.023168
   8 N :   -0.229193
   9 H :    0.140898
  10 H :    0.136259
  11 H :    0.166842
  12 H :    0.135401
  13 H :    0.141437
  14 H :    0.150508
  15 H :    0.131575
  16 H :    0.135405
Sum of atomic charges:   -0.0000000

LOEWDIN ATOMIC CHARGES
----------------------
   0 C :   -0.270142
   1 C :   -0.143602
   2 C :   -0.122397
   3 C :   -0.149786
   4 C :   -0.189548
   5 C :   -0.193078
   6 N :    0.117963
   7 C :   -0.299615
   8 N :    0.140003
   9 H :    0.132961
  10 H :    0.131469
  11 H :    0.140896
  12 H :    0.143499
  13 H :    0.145731
  14 H :    0.139665
  15 H :    0.143002
  16 H :    0.132979

  Mayer bond orders larger than 0.1
B(  0-C ,  1-C ) :   0.8941 B(  0-C ,  9-H ) :   0.9322 B(  0-C , 10-H ) :   0.9415
B(  0-C , 11-H ) :   0.9248 B(  1-C ,  2-C ) :   1.6772 B(  1-C ,  5-C ) :   0.8967
B(  2-C ,  3-C ) :   1.0127 B(  2-C , 12-H ) :   0.9196 B(  3-C ,  4-C ) :   0.9395
B(  3-C ,  8-N ) :   0.7418 B(  3-C , 13-H ) :   0.9409 B(  4-C ,  5-C ) :   0.9315
B(  4-C ,  8-N ) :   0.8842 B(  4-C , 14-H ) :   0.8902 B(  5-C ,  6-N ) :   0.8382
B(  5-C , 15-H ) :   0.9235 B(  6-N ,  7-C ) :   1.7584 B(  7-C ,  8-N ) :   1.0683
B(  7-C , 16-H ) :   0.9253

MP2 TOTAL ENERGY:     -380.177001837 Eh
FINAL SINGLE POINT ENERGY      -380.177001836998

DIPOLE MOMENT
-------------
                                X             Y             Z
Electronic contribution:     -1.01189      -5.08995       1.27057
Nuclear contribution   :      1.60845       5.37470      -1.76733
                        -----------------------------------------
Total Dipole Moment    :      0.59656       0.28474      -0.49676
                        -----------------------------------------
Magnitude (a.u.)       :      0.82688
Magnitude (Debye)      :      2.10176

                             ****ORCA TERMINATED NORMALLY****
TOTAL RUN TIME: 0 days 0 hours 19 minutes 10 seconds 604 msec
