                         Program Version 3.0.3 - RELEASE   -
|  1> ! RI-MP2 RIJK def2-TZVP def2-TZVP/C def2-TZVP/JK TIGHTSCF
|  2> % maxcore 2000
|  3> % mp2 density relaxed end
|  4> *xyz 0 1
|  5>  C        0.0011903146     1.4535866435     0.0048831817
|  6>  N        0.0303785369     0.0089492434    -0.1619660294
|  7>  C       -1.2617972399    -0.6788938224    -0.1507201432
|  8>  C       -1.2491347867    -1.9970587349    -0.9279283538
|  9>  C       -0.0276282123    -2.8363630256    -0.5930143077
| 10>  O        1.1055618511    -2.6182839858    -1.4324774030
| 11>  C        1.1693511542    -2.1552178852    -0.0754356795
| 12>  C        1.2071234287    -0.6514953456     0.0817364542
| 13>  O        2.2507775880    -0.0937711187     0.3742528470
| 14>  H        1.0261566872     1.8204260786    -0.0079022133
| 15>  H       -0.5699759034     1.9132106172    -0.8085567141
| 16>  H       -0.4629512796     1.7389627198     0.9590844810
| 17>  H       -1.5827393584    -0.8581809033     0.8878159631
| 18>  H       -1.9989285384    -0.0001692737    -0.5905250200
| 19>  H       -2.1666152251    -2.5489274346    -0.7016714280
| 20>  H       -1.2386546487    -1.8009534603    -2.0048186007
| 21>  H       -0.1887966209    -3.8802708548    -0.3271656728
| 22>  H        1.8941438726    -2.6692792276     0.5511859982
| 23> *
| 24>
| 25>                          ****END OF INPUT****

CARTESIAN COORDINATES (ANGSTROEM)
---------------------------------
  C      0.001190    1.453587    0.004883
  N      0.030379    0.008949   -0.161966
  C     -1.261797   -0.678894   -0.150720
  C     -1.249135   -1.997059   -0.927928
  C     -0.027628   -2.836363   -0.593014
  O      1.105562   -2.618284   -1.432477
  C      1.169351   -2.155218   -0.075436
  C      1.207123   -0.651495    0.081736
  O      2.250778   -0.093771    0.374253
  H      1.026157    1.820426   -0.007902
  H     -0.569976    1.913211   -0.808557
  H     -0.462951    1.738963    0.959084
  H     -1.582739   -0.858181    0.887816
  H     -1.998929   -0.000169   -0.590525
  H     -2.166615   -2.548927   -0.701671
  H     -1.238655   -1.800953   -2.004819
  H     -0.188797   -3.880271   -0.327166
  H      1.894144   -2.669279    0.551186

 Total Charge           Charge          ....    0
 Multiplicity           Mult            ....    1
 Number of Electrons    NEL             ....   68
 Basis Dimension        Dim             ....  333

ORBITAL ENERGIES
----------------

  NO   OCC          E(Eh)            E(eV)
   0   2.0000     -20.584380      -560.1295
   1   2.0000     -20.521766      -558.4256
   2   2.0000     -15.590732      -424.2454
   3   2.0000     -11.352634      -308.9209
   4   2.0000     -11.305542      -307.6394
   5   2.0000     -11.301092      -307.5184
   6   2.0000     -11.284773      -307.0743
   7   2.0000     -11.258279      -306.3534
   8   2.0000     -11.250056      -306.1296
   9   2.0000      -1.431880       -38.9634
  10   2.0000      -1.382896       -37.6305
  11   2.0000      -1.253696       -34.1148
  12   2.0000      -1.066889       -29.0315
  13   2.0000      -0.990106       -26.9421
  14   2.0000      -0.947089       -25.7716
  15   2.0000      -0.898376       -24.4461
  16   2.0000      -0.842199       -22.9174
  17   2.0000      -0.727066       -19.7845
  18   2.0000      -0.721340       -19.6287
  19   2.0000      -0.701135       -19.0788
  20   2.0000      -0.663194       -18.0464
  21   2.0000      -0.640736       -17.4353
  22   2.0000      -0.622883       -16.9495
  23   2.0000      -0.596541       -16.2327
  24   2.0000      -0.590787       -16.0761
  25   2.0000      -0.565076       -15.3765
  26   2.0000      -0.543606       -14.7923
  27   2.0000      -0.541615       -14.7381
  28   2.0000      -0.524546       -14.2736
  29   2.0000      -0.507230       -13.8024
  30   2.0000      -0.468615       -12.7517
  31   2.0000      -0.453571       -12.3423
  32   2.0000      -0.418832       -11.3970
  33   2.0000      -0.378843       -10.3088
  34   0.0000       0.119886         3.2623
  35   0.0000       0.144101         3.9212
  36   0.0000       0.151530         4.1233
  37   0.0000       0.167708         4.5636
  38   0.0000       0.181839         4.9481

MULLIKEN ATOMIC CHARGES
-----------------------
   0 C :   -0.339333
   1 N :   -0.081448
   2 C :   -0.188412
   3 C :   -0.196606
   4 C :    0.024546
   5 O :   -0.315498
   6 C :    0.021329
   7 C :    0.195690
   8 O :   -0.365118
   9 H :    0.182901
  10 H :    0.137923
  11 H :    0.133913
  12 H :    0.124607
  13 H :    0.138857
  14 H :    0.124697
  15 H :    0.130181
  16 H :    0.129874
  17 H :    0.141897
Sum of atomic charges:    0.0000000

LOEWDIN ATOMIC CHARGES
----------------------
   0 C :   -0.288746
   1 N :    0.168986
   2 C :   -0.247126
   3 C :   -0.241127
   4 C :   -0.260342
   5 O :    0.181322
   6 C :   -0.214216
   7 C :   -0.419971
   8 O :    0.093627
   9 H :    0.135954
  10 H :    0.118479
  11 H :    0.116859
  12 H :    0.132998
  13 H :    0.140399
  14 H :    0.145960
  15 H :    0.151902
  16 H :    0.137824
  17 H :    0.147217

  Mayer bond orders larger than 0.1
B(  0-C ,  1-N ) :   0.8708 B(  0-C ,  9-H ) :   0.9226 B(  0-C , 10-H ) :   0.9324
B(  0-C , 11-H ) :   0.9322 B(  1-N ,  2-C ) :   0.8737 B(  1-N ,  7-C ) :   1.1845
B(  2-C ,  3-C ) :   0.9497 B(  2-C , 12-H ) :   0.9190 B(  2-C , 13-H ) :   0.9327
B(  3-C ,  4-C ) :   0.8960 B(  3-C , 14-H ) :   0.9269 B(  3-C , 15-H ) :   0.9194
B(  4-C ,  5-O ) :   0.9234 B(  4-C ,  6-C ) :   0.9353 B(  4-C , 16-H ) :   0.9247
B(  5-O ,  6-C ) :   0.8334 B(  6-C ,  7-C ) :   0.9417 B(  6-C , 17-H ) :   0.9230
B(  7-C ,  8-O ) :   1.8812

MP2 TOTAL ENERGY:     -438.377640013 Eh
FINAL SINGLE POINT ENERGY      -438.377640012888

DIPOLE MOMENT
-------------
                                X             Y             Z
Electronic contribution:      6.20367      -3.03329      -0.50501
Nuclear contribution   :     -8.03655       2.86997       0.81479
                        -----------------------------------------
Total Dipole Moment    :     -1.83288      -0.16332       0.30978
                        -----------------------------------------
Magnitude (a.u.)       :      1.86603
Magnitude (Debye)      :      4.74308

                             ****ORCA TERMINATED NORMALLY****
TOTAL RUN TIME: 0 days 0 hours 18 minutes 32 seconds 68 msec
