                         Program Version 3.0.3 - RELEASE   -
|  1> ! RI-MP2 RIJK def2-TZVP def2-TZVP/C def2-TZVP/JK TIGHTSCF
|  2> % maxcore 2000
|  3> % mp2 density relaxed end
|  4> *xyz 0 1
|  5>  C       -0.0244405633     1.5919944740    -0.1659343495
|  6>  C        0.0134813246     0.0630283481    -0.1145053885
|  7>  C       -1.3660166742    -0.5485013881     0.1480107334
|  8>  O       -2.2912257204    -0.1728333203    -0.8892891631
|  9>  C       -2.8627497608    -1.3189354285    -1.5011467670
| 10>  C       -2.2421219969    -2.4898237878    -0.8061144927
| 11>  C       -1.3980730205    -2.0606031393     0.1375078153
| 12>  C       -0.6477942191    -2.9264526370     1.0498383146
| 13>  O        0.0950906350    -2.5277784593     1.9200025225
| 14>  H        0.9692050057     2.0014018277    -0.3705268708
| 15>  H       -0.7060453150     1.9367487613    -0.9480583856
| 16>  H       -0.3674354275     2.0097344365     0.7872850168
| 17>  H        0.3971787620    -0.3390830347    -1.0604114447
| 18>  H        0.6829522323    -0.2804638058     0.6809377005
| 19>  H       -1.7434640307    -0.1627908161     1.1085224298
| 20>  H       -3.9592935455    -1.3122451355    -1.3852907179
| 21>  H       -2.6579743366    -1.3207876639    -2.5838296564
| 22>  H       -2.4691441924    -3.5227869258    -1.0435431849
| 23>  H       -0.8162379667    -4.0147243455     0.8922438180
| 24> *
| 25>
| 26>                          ****END OF INPUT****

CARTESIAN COORDINATES (ANGSTROEM)
---------------------------------
  C     -0.024441    1.591994   -0.165934
  C      0.013481    0.063028   -0.114505
  C     -1.366017   -0.548501    0.148011
  O     -2.291226   -0.172833   -0.889289
  C     -2.862750   -1.318935   -1.501147
  C     -2.242122   -2.489824   -0.806114
  C     -1.398073   -2.060603    0.137508
  C     -0.647794   -2.926453    1.049838
  O      0.095091   -2.527778    1.920003
  H      0.969205    2.001402   -0.370527
  H     -0.706045    1.936749   -0.948058
  H     -0.367435    2.009734    0.787285
  H      0.397179   -0.339083   -1.060411
  H      0.682952   -0.280464    0.680938
  H     -1.743464   -0.162791    1.108522
  H     -3.959294   -1.312245   -1.385291
  H     -2.657974   -1.320788   -2.583830
  H     -2.469144   -3.522787   -1.043543
  H     -0.816238   -4.014724    0.892244

 Total Charge           Charge          ....    0
 Multiplicity           Mult            ....    1
 Number of Electrons    NEL             ....   68
 Basis Dimension        Dim             ....  339

ORBITAL ENERGIES
----------------

  NO   OCC          E(Eh)            E(eV)
   0   2.0000     -20.560525      -559.4803
   1   2.0000     -20.560371      -559.4761
   2   2.0000     -11.341268      -308.6116
   3   2.0000     -11.297558      -307.4222
   4   2.0000     -11.290536      -307.2311
   5   2.0000     -11.271433      -306.7113
   6   2.0000     -11.251972      -306.1817
   7   2.0000     -11.217742      -305.2503
   8   2.0000     -11.207137      -304.9617
   9   2.0000      -1.397812       -38.0364
  10   2.0000      -1.386821       -37.7373
  11   2.0000      -1.111662       -30.2499
  12   2.0000      -1.060670       -28.8623
  13   2.0000      -0.980538       -26.6818
  14   2.0000      -0.900537       -24.5048
  15   2.0000      -0.851252       -23.1638
  16   2.0000      -0.800159       -21.7734
  17   2.0000      -0.759711       -20.6728
  18   2.0000      -0.710081       -19.3223
  19   2.0000      -0.673780       -18.3345
  20   2.0000      -0.657351       -17.8874
  21   2.0000      -0.622892       -16.9498
  22   2.0000      -0.600025       -16.3275
  23   2.0000      -0.586162       -15.9503
  24   2.0000      -0.574769       -15.6403
  25   2.0000      -0.562172       -15.2975
  26   2.0000      -0.541553       -14.7364
  27   2.0000      -0.516059       -14.0427
  28   2.0000      -0.498628       -13.5684
  29   2.0000      -0.484786       -13.1917
  30   2.0000      -0.478181       -13.0120
  31   2.0000      -0.442421       -12.0389
  32   2.0000      -0.432071       -11.7572
  33   2.0000      -0.370422       -10.0797
  34   0.0000       0.077019         2.0958
  35   0.0000       0.138562         3.7705
  36   0.0000       0.154491         4.2039
  37   0.0000       0.163895         4.4598
  38   0.0000       0.176134         4.7928

MULLIKEN ATOMIC CHARGES
-----------------------
   0 C :   -0.390730
   1 C :   -0.212663
   2 C :    0.111765
   3 O :   -0.330749
   4 C :    0.013860
   5 C :   -0.164550
   6 C :   -0.013132
   7 C :    0.064952
   8 O :   -0.280114
   9 H :    0.132575
  10 H :    0.140561
  11 H :    0.120334
  12 H :    0.102181
  13 H :    0.133935
  14 H :    0.102813
  15 H :    0.115852
  16 H :    0.114711
  17 H :    0.151894
  18 H :    0.086505
Sum of atomic charges:   -0.0000000

LOEWDIN ATOMIC CHARGES
----------------------
   0 C :   -0.316940
   1 C :   -0.267289
   2 C :   -0.248184
   3 O :    0.174681
   4 C :   -0.287506
   5 C :   -0.092104
   6 C :   -0.156796
   7 C :   -0.270009
   8 O :    0.131511
   9 H :    0.120968
  10 H :    0.124725
  11 H :    0.121492
  12 H :    0.138579
  13 H :    0.146185
  14 H :    0.150677
  15 H :    0.131907
  16 H :    0.131511
  17 H :    0.147166
  18 H :    0.119424

  Mayer bond orders larger than 0.1
B(  0-C ,  1-C ) :   0.9165 B(  0-C ,  9-H ) :   0.9409 B(  0-C , 10-H ) :   0.9371
B(  0-C , 11-H ) :   0.9359 B(  1-C ,  2-C ) :   0.9165 B(  1-C , 12-H ) :   0.9259
B(  1-C , 13-H ) :   0.9265 B(  2-C ,  3-O ) :   0.9079 B(  2-C ,  6-C ) :   0.9288
B(  2-C , 14-H ) :   0.8903 B(  3-O ,  4-C ) :   0.9546 B(  4-C ,  5-C ) :   0.9792
B(  4-C , 15-H ) :   0.9161 B(  4-C , 16-H ) :   0.9036 B(  5-C ,  6-C ) :   1.6653
B(  5-C , 17-H ) :   0.9055 B(  6-C ,  7-C ) :   0.8773 B(  7-C ,  8-O ) :   1.9598
B(  7-C , 18-H ) :   0.9752

MP2 TOTAL ENERGY:     -422.329646349 Eh
FINAL SINGLE POINT ENERGY      -422.329646348565

DIPOLE MOMENT
-------------
                                X             Y             Z
Electronic contribution:     -1.63700      -6.37113       2.69857
Nuclear contribution   :      1.02167       5.75406      -3.47799
                        -----------------------------------------
Total Dipole Moment    :     -0.61533      -0.61707      -0.77942
                        -----------------------------------------
Magnitude (a.u.)       :      1.16915
Magnitude (Debye)      :      2.97175

                             ****ORCA TERMINATED NORMALLY****
TOTAL RUN TIME: 0 days 0 hours 17 minutes 42 seconds 67 msec
