                         Program Version 3.0.3 - RELEASE   -
|  1> ! RI-MP2 RIJK def2-TZVP def2-TZVP/C def2-TZVP/JK TIGHTSCF
|  2> % maxcore 2000
|  3> % mp2 density relaxed end
|  4> *xyz 0 1
|  5>  C        0.0112887158     1.5374013898     0.0021514749
|  6>  C        0.0054875580     0.0219617335     0.0335826600
|  7>  C       -0.8639007153    -0.6596688358     1.0601139627
|  8>  C        0.6416847675    -0.6795023251     1.2227781578
|  9>  C        1.4084632427    -1.9933703569     1.0744270486
| 10>  C        1.7360964721    -2.3545714853    -0.3920749827
| 11>  C        0.5471006702    -2.0921769893    -1.2990492619
| 12>  O       -0.0031054340    -2.9565992121    -1.9410099406
| 13>  C        0.1152746687    -0.6328900382    -1.3418971647
| 14>  H        0.9473232704     1.9238794439    -0.4186347316
| 15>  H       -0.8119692953     1.9215315878    -0.6119576156
| 16>  H       -0.1018338715     1.9555566689     1.0073312537
| 17>  H       -1.4516203825    -0.0424685212     1.7316282333
| 18>  H       -1.3465274748    -1.5924356425     0.7805313146
| 19>  H        1.0315571476    -0.0160158778     1.9892333036
| 20>  H        2.3448726199    -1.9382653621     1.6380812443
| 21>  H        0.8313582254    -2.8109472673     1.5214380905
| 22>  H        2.5638142130    -1.7208244241    -0.7372481626
| 23>  H        2.0380279070    -3.3995771901    -0.4883105393
| 24>  H       -0.8239443481    -0.5577603956    -1.8987838713
| 25>  H        0.8829312833    -0.1016360105    -1.9247865238
| 26> *
| 27>
| 28>                          ****END OF INPUT****

CARTESIAN COORDINATES (ANGSTROEM)
---------------------------------
  C      0.011289    1.537401    0.002151
  C      0.005488    0.021962    0.033583
  C     -0.863901   -0.659669    1.060114
  C      0.641685   -0.679502    1.222778
  C      1.408463   -1.993370    1.074427
  C      1.736096   -2.354571   -0.392075
  C      0.547101   -2.092177   -1.299049
  O     -0.003105   -2.956599   -1.941010
  C      0.115275   -0.632890   -1.341897
  H      0.947323    1.923879   -0.418635
  H     -0.811969    1.921532   -0.611958
  H     -0.101834    1.955557    1.007331
  H     -1.451620   -0.042469    1.731628
  H     -1.346527   -1.592436    0.780531
  H      1.031557   -0.016016    1.989233
  H      2.344873   -1.938265    1.638081
  H      0.831358   -2.810947    1.521438
  H      2.563814   -1.720824   -0.737248
  H      2.038028   -3.399577   -0.488311
  H     -0.823944   -0.557760   -1.898784
  H      0.882931   -0.101636   -1.924787

 Total Charge           Charge          ....    0
 Multiplicity           Mult            ....    1
 Number of Electrons    NEL             ....   68
 Basis Dimension        Dim             ....  351

ORBITAL ENERGIES
----------------

  NO   OCC          E(Eh)            E(eV)
   0   2.0000     -20.541113      -558.9521
   1   2.0000     -11.323895      -308.1388
   2   2.0000     -11.250147      -306.1321
   3   2.0000     -11.239135      -305.8324
   4   2.0000     -11.238134      -305.8052
   5   2.0000     -11.235761      -305.7406
   6   2.0000     -11.234788      -305.7141
   7   2.0000     -11.226386      -305.4855
   8   2.0000     -11.225747      -305.4681
   9   2.0000      -1.383699       -37.6524
  10   2.0000      -1.176606       -32.0171
  11   2.0000      -1.057088       -28.7648
  12   2.0000      -1.018196       -27.7065
  13   2.0000      -0.956776       -26.0352
  14   2.0000      -0.895749       -24.3746
  15   2.0000      -0.801842       -21.8192
  16   2.0000      -0.773953       -21.0603
  17   2.0000      -0.711922       -19.3724
  18   2.0000      -0.664832       -18.0910
  19   2.0000      -0.651004       -17.7147
  20   2.0000      -0.629891       -17.1402
  21   2.0000      -0.615763       -16.7558
  22   2.0000      -0.596377       -16.2282
  23   2.0000      -0.578864       -15.7517
  24   2.0000      -0.556011       -15.1298
  25   2.0000      -0.554495       -15.0886
  26   2.0000      -0.539201       -14.6724
  27   2.0000      -0.526328       -14.3221
  28   2.0000      -0.501099       -13.6356
  29   2.0000      -0.493999       -13.4424
  30   2.0000      -0.472256       -12.8507
  31   2.0000      -0.407671       -11.0933
  32   2.0000      -0.405196       -11.0259
  33   2.0000      -0.389225       -10.5914
  34   0.0000       0.118846         3.2340
  35   0.0000       0.148171         4.0319
  36   0.0000       0.159386         4.3371
  37   0.0000       0.164514         4.4767
  38   0.0000       0.174721         4.7544

MULLIKEN ATOMIC CHARGES
-----------------------
   0 C :   -0.418764
   1 C :    0.098417
   2 C :   -0.340580
   3 C :   -0.116044
   4 C :   -0.249465
   5 C :   -0.213421
   6 C :    0.150932
   7 O :   -0.274186
   8 C :   -0.197833
   9 H :    0.130439
  10 H :    0.135960
  11 H :    0.129904
  12 H :    0.132700
  13 H :    0.140347
  14 H :    0.121633
  15 H :    0.126423
  16 H :    0.133446
  17 H :    0.124207
  18 H :    0.131295
  19 H :    0.129493
  20 H :    0.125096
Sum of atomic charges:   -0.0000000

LOEWDIN ATOMIC CHARGES
----------------------
   0 C :   -0.265861
   1 C :   -0.251667
   2 C :   -0.185797
   3 C :   -0.182433
   4 C :   -0.233481
   5 C :   -0.221337
   6 C :   -0.323903
   7 O :    0.148787
   8 C :   -0.183593
   9 H :    0.125779
  10 H :    0.128696
  11 H :    0.128427
  12 H :    0.134002
  13 H :    0.140114
  14 H :    0.149122
  15 H :    0.141863
  16 H :    0.144170
  17 H :    0.151690
  18 H :    0.145078
  19 H :    0.151530
  20 H :    0.158816

  Mayer bond orders larger than 0.1
B(  0-C ,  1-C ) :   0.8990 B(  0-C ,  9-H ) :   0.9406 B(  0-C , 10-H ) :   0.9377
B(  0-C , 11-H ) :   0.9321 B(  1-C ,  2-C ) :   0.8872 B(  1-C ,  3-C ) :   0.8493
B(  1-C ,  8-C ) :   0.9077 B(  2-C ,  3-C ) :   0.8824 B(  2-C , 12-H ) :   0.9292
B(  2-C , 13-H ) :   0.9174 B(  3-C ,  4-C ) :   0.8908 B(  3-C , 14-H ) :   0.9274
B(  4-C ,  5-C ) :   0.9165 B(  4-C , 15-H ) :   0.9308 B(  4-C , 16-H ) :   0.9292
B(  5-C ,  6-C ) :   0.9080 B(  5-C , 17-H ) :   0.9079 B(  5-C , 18-H ) :   0.9209
B(  6-C ,  7-O ) :   2.0537 B(  6-C ,  8-C ) :   0.9216 B(  8-C , 19-H ) :   0.9061
B(  8-C , 20-H ) :   0.9074

MP2 TOTAL ENERGY:     -386.438559465 Eh
FINAL SINGLE POINT ENERGY      -386.438559464869

DIPOLE MOMENT
-------------
                                X             Y             Z
Electronic contribution:     -0.73764      -5.47117      -3.89789
Nuclear contribution   :      1.24578       6.32109       4.58937
                        -----------------------------------------
Total Dipole Moment    :      0.50814       0.84992       0.69148
                        -----------------------------------------
Magnitude (a.u.)       :      1.20778
Magnitude (Debye)      :      3.06992

                             ****ORCA TERMINATED NORMALLY****
TOTAL RUN TIME: 0 days 0 hours 20 minutes 35 seconds 61 msec
