                         Program Version 3.0.3 - RELEASE   -
|  1> ! RI-MP2 RIJK def2-TZVP def2-TZVP/C def2-TZVP/JK TIGHTSCF
|  2> % maxcore 2000
|  3> % mp2 density relaxed end
|  4> *xyz 0 1
|  5>  C       -0.0716194148    -1.2374169343    -0.0851712414
|  6>  C       -0.0524679337    -0.0358359211    -0.0407602013
|  7>  C       -0.0106473835     1.4177211687     0.0298701167
|  8>  C       -0.5288575343     2.0119798400     1.3945545737
|  9>  C        0.7062801616     2.7783667926     1.8432474897
| 10>  C        1.4045642210     3.4286409350     0.6125370459
| 11>  O        2.7299360493     3.2269787632     1.2116832318
| 12>  C        1.9917024724     1.9815721682     1.4701950532
| 13>  C        1.4151866821     1.9880676529     0.0256389532
| 14>  H       -0.0948024733    -2.2979056922    -0.1320635947
| 15>  H       -0.5851182112     1.8291192364    -0.8085259598
| 16>  H       -1.3975379112     2.6605430550     1.2495932645
| 17>  H       -0.8119283629     1.2224782434     2.0945379541
| 18>  H        0.6983331975     3.3314522066     2.7814516108
| 19>  H        1.2052163875     4.3799008718     0.1174046163
| 20>  H        2.5020209830     1.1848178029     2.0107886750
| 21>  H        2.0806388907     1.7611548509    -0.8051953177
| 22> *
| 23>
| 24>                          ****END OF INPUT****

CARTESIAN COORDINATES (ANGSTROEM)
---------------------------------
  C     -0.071619   -1.237417   -0.085171
  C     -0.052468   -0.035836   -0.040760
  C     -0.010647    1.417721    0.029870
  C     -0.528858    2.011980    1.394555
  C      0.706280    2.778367    1.843247
  C      1.404564    3.428641    0.612537
  O      2.729936    3.226979    1.211683
  C      1.991702    1.981572    1.470195
  C      1.415187    1.988068    0.025639
  H     -0.094802   -2.297906   -0.132064
  H     -0.585118    1.829119   -0.808526
  H     -1.397538    2.660543    1.249593
  H     -0.811928    1.222478    2.094538
  H      0.698333    3.331452    2.781452
  H      1.205216    4.379901    0.117405
  H      2.502021    1.184818    2.010789
  H      2.080639    1.761155   -0.805195

 Total Charge           Charge          ....    0
 Multiplicity           Mult            ....    1
 Number of Electrons    NEL             ....   64
 Basis Dimension        Dim             ....  327

ORBITAL ENERGIES
----------------

  NO   OCC          E(Eh)            E(eV)
   0   2.0000     -20.549783      -559.1880
   1   2.0000     -11.301240      -307.5224
   2   2.0000     -11.299797      -307.4831
   3   2.0000     -11.266482      -306.5766
   4   2.0000     -11.250451      -306.1403
   5   2.0000     -11.247187      -306.0515
   6   2.0000     -11.241328      -305.8921
   7   2.0000     -11.237652      -305.7921
   8   2.0000     -11.225597      -305.4640
   9   2.0000      -1.401037       -38.1241
  10   2.0000      -1.159677       -31.5564
  11   2.0000      -1.048230       -28.5238
  12   2.0000      -0.974544       -26.5187
  13   2.0000      -0.964806       -26.2537
  14   2.0000      -0.889149       -24.1950
  15   2.0000      -0.824445       -22.4343
  16   2.0000      -0.732831       -19.9413
  17   2.0000      -0.721407       -19.6305
  18   2.0000      -0.710092       -19.3226
  19   2.0000      -0.665462       -18.1082
  20   2.0000      -0.660680       -17.9780
  21   2.0000      -0.584801       -15.9132
  22   2.0000      -0.567284       -15.4366
  23   2.0000      -0.546687       -14.8761
  24   2.0000      -0.520383       -14.1603
  25   2.0000      -0.511068       -13.9069
  26   2.0000      -0.490127       -13.3370
  27   2.0000      -0.455282       -12.3889
  28   2.0000      -0.441850       -12.0233
  29   2.0000      -0.409556       -11.1446
  30   2.0000      -0.388596       -10.5742
  31   2.0000      -0.381720       -10.3871
  32   0.0000       0.130466         3.5502
  33   0.0000       0.159337         4.3358
  34   0.0000       0.160405         4.3648
  35   0.0000       0.169528         4.6131
  36   0.0000       0.173295         4.7156

MULLIKEN ATOMIC CHARGES
-----------------------
   0 C :   -0.149031
   1 C :   -0.077261
   2 C :   -0.165723
   3 C :   -0.225905
   4 C :   -0.057916
   5 C :   -0.029065
   6 O :   -0.319702
   7 C :   -0.044209
   8 C :   -0.033191
   9 H :    0.190838
  10 H :    0.124280
  11 H :    0.122124
  12 H :    0.134348
  13 H :    0.128381
  14 H :    0.130704
  15 H :    0.135209
  16 H :    0.136122
Sum of atomic charges:   -0.0000000

LOEWDIN ATOMIC CHARGES
----------------------
   0 C :   -0.099848
   1 C :   -0.088890
   2 C :   -0.202121
   3 C :   -0.185425
   4 C :   -0.170239
   5 C :   -0.189971
   6 O :    0.131687
   7 C :   -0.182523
   8 C :   -0.136641
   9 H :    0.126931
  10 H :    0.169064
  11 H :    0.138378
  12 H :    0.144671
  13 H :    0.143461
  14 H :    0.125775
  15 H :    0.128131
  16 H :    0.147561

  Mayer bond orders larger than 0.1
B(  0-C ,  1-C ) :   2.5782 B(  0-C ,  9-H ) :   0.8956 B(  1-C ,  2-C ) :   1.1485
B(  2-C ,  3-C ) :   0.8982 B(  2-C ,  8-C ) :   0.8261 B(  2-C , 10-H ) :   0.9130
B(  3-C ,  4-C ) :   0.9010 B(  3-C , 11-H ) :   0.9130 B(  3-C , 12-H ) :   0.9145
B(  4-C ,  5-C ) :   0.9069 B(  4-C ,  7-C ) :   0.9036 B(  4-C ,  8-C ) :  -0.1023
B(  4-C , 13-H ) :   0.9212 B(  5-C ,  6-O ) :   0.9230 B(  5-C ,  8-C ) :   0.8835
B(  5-C , 14-H ) :   0.8972 B(  6-O ,  7-C ) :   0.9258 B(  7-C ,  8-C ) :   0.9098
B(  7-C , 15-H ) :   0.8879 B(  8-C , 16-H ) :   0.9208

MP2 TOTAL ENERGY:     -383.914247793 Eh
FINAL SINGLE POINT ENERGY      -383.914247793296

DIPOLE MOMENT
-------------
                                X             Y             Z
Electronic contribution:      2.45367      -0.00922      -0.60432
Nuclear contribution   :     -3.19494      -0.14142       0.55279
                        -----------------------------------------
Total Dipole Moment    :     -0.74127      -0.15064      -0.05153
                        -----------------------------------------
Magnitude (a.u.)       :      0.75817
Magnitude (Debye)      :      1.92713

                             ****ORCA TERMINATED NORMALLY****
TOTAL RUN TIME: 0 days 0 hours 16 minutes 38 seconds 869 msec
