                         Program Version 3.0.3 - RELEASE   -
|  1> ! RI-MP2 RIJK def2-TZVP def2-TZVP/C def2-TZVP/JK TIGHTSCF
|  2> % maxcore 2000
|  3> % mp2 density relaxed end
|  4> *xyz 0 1
|  5>  C       -0.3440358007     1.4060241764     0.0620322278
|  6>  C       -0.0020556881    -0.0826987072     0.0210744536
|  7>  C        1.2024115439    -0.4584339158    -0.8924088461
|  8>  O        1.5947041870     0.5484426310    -1.8061835855
|  9>  C        2.1211076288    -0.5934736725     0.3613827757
| 10>  O        2.8606449535     0.5867926296     0.5807985027
| 11>  C        0.8246023041    -0.6520466944     1.2223278554
| 12>  C        0.8651631225     0.0392926525     2.5599443250
| 13>  O       -0.0059279145     0.7414761012     3.0072508406
| 14>  H        0.5267791124     2.0152597749     0.3139504243
| 15>  H       -0.7123183191     1.7306336008    -0.9153050446
| 16>  H       -1.1097083376     1.5954382444     0.8157264989
| 17>  H       -0.9067948892    -0.6544498006    -0.2020340241
| 18>  H        1.0506188695    -1.4183214075    -1.3983056999
| 19>  H        2.1695271445     0.1563088074    -2.4712442924
| 20>  H        2.7847416026    -1.4659986811     0.4082623232
| 21>  H        2.7961154793     1.0937186100    -0.2428065650
| 22>  H        0.5617309902    -1.7000330871     1.4241317527
| 23>  H        1.7854442011    -0.1751706222     3.1487117575
| 24> *
| 25>
| 26>                          ****END OF INPUT****

CARTESIAN COORDINATES (ANGSTROEM)
---------------------------------
  C     -0.344036    1.406024    0.062032
  C     -0.002056   -0.082699    0.021074
  C      1.202412   -0.458434   -0.892409
  O      1.594704    0.548443   -1.806184
  C      2.121108   -0.593474    0.361383
  O      2.860645    0.586793    0.580799
  C      0.824602   -0.652047    1.222328
  C      0.865163    0.039293    2.559944
  O     -0.005928    0.741476    3.007251
  H      0.526779    2.015260    0.313950
  H     -0.712318    1.730634   -0.915305
  H     -1.109708    1.595438    0.815726
  H     -0.906795   -0.654450   -0.202034
  H      1.050619   -1.418321   -1.398306
  H      2.169527    0.156309   -2.471244
  H      2.784742   -1.465999    0.408262
  H      2.796115    1.093719   -0.242807
  H      0.561731   -1.700033    1.424132
  H      1.785444   -0.175171    3.148712

 Total Charge           Charge          ....    0
 Multiplicity           Mult            ....    1
 Number of Electrons    NEL             ....   70
 Basis Dimension        Dim             ....  339

ORBITAL ENERGIES
----------------

  NO   OCC          E(Eh)            E(eV)
   0   2.0000     -20.587419      -560.2121
   1   2.0000     -20.561738      -559.5133
   2   2.0000     -20.549556      -559.1818
   3   2.0000     -11.327247      -308.2301
   4   2.0000     -11.299141      -307.4653
   5   2.0000     -11.293350      -307.3077
   6   2.0000     -11.245599      -306.0083
   7   2.0000     -11.243018      -305.9381
   8   2.0000     -11.206990      -304.9577
   9   2.0000      -1.402107       -38.1533
  10   2.0000      -1.389056       -37.7981
  11   2.0000      -1.364073       -37.1183
  12   2.0000      -1.137404       -30.9503
  13   2.0000      -0.986483       -26.8436
  14   2.0000      -0.950798       -25.8725
  15   2.0000      -0.857559       -23.3354
  16   2.0000      -0.814298       -22.1582
  17   2.0000      -0.745348       -20.2820
  18   2.0000      -0.732275       -19.9262
  19   2.0000      -0.707292       -19.2464
  20   2.0000      -0.677063       -18.4238
  21   2.0000      -0.667948       -18.1758
  22   2.0000      -0.629775       -17.1371
  23   2.0000      -0.597704       -16.2644
  24   2.0000      -0.579810       -15.7774
  25   2.0000      -0.560573       -15.2540
  26   2.0000      -0.552559       -15.0359
  27   2.0000      -0.540822       -14.7165
  28   2.0000      -0.521972       -14.2036
  29   2.0000      -0.513705       -13.9786
  30   2.0000      -0.486693       -13.2436
  31   2.0000      -0.467092       -12.7102
  32   2.0000      -0.446512       -12.1502
  33   2.0000      -0.419414       -11.4128
  34   2.0000      -0.403196       -10.9715
  35   0.0000       0.110607         3.0098
  36   0.0000       0.137574         3.7436
  37   0.0000       0.146149         3.9769
  38   0.0000       0.163794         4.4571
  39   0.0000       0.168114         4.5746

MULLIKEN ATOMIC CHARGES
-----------------------
   0 C :   -0.418190
   1 C :   -0.090554
   2 C :    0.000600
   3 O :   -0.473349
   4 C :    0.014721
   5 O :   -0.487249
   6 C :    0.019705
   7 C :    0.077604
   8 O :   -0.272682
   9 H :    0.123344
  10 H :    0.133548
  11 H :    0.157452
  12 H :    0.111114
  13 H :    0.109952
  14 H :    0.330164
  15 H :    0.111461
  16 H :    0.338687
  17 H :    0.127097
  18 H :    0.086574
Sum of atomic charges:   -0.0000000

LOEWDIN ATOMIC CHARGES
----------------------
   0 C :   -0.289528
   1 C :   -0.202898
   2 C :   -0.294162
   3 O :   -0.009704
   4 C :   -0.291305
   5 O :   -0.009183
   6 C :   -0.199671
   7 C :   -0.270831
   8 O :    0.136681
   9 H :    0.125998
  10 H :    0.126010
  11 H :    0.130706
  12 H :    0.144353
  13 H :    0.134448
  14 H :    0.181469
  15 H :    0.123473
  16 H :    0.178398
  17 H :    0.168415
  18 H :    0.117334

  Mayer bond orders larger than 0.1
B(  0-C ,  1-C ) :   0.9230 B(  0-C ,  9-H ) :   0.9286 B(  0-C , 10-H ) :   0.9278
B(  0-C , 11-H ) :   0.9350 B(  1-C ,  2-C ) :   0.9087 B(  1-C ,  6-C ) :   0.8807
B(  1-C , 12-H ) :   0.9157 B(  2-C ,  3-O ) :   1.0971 B(  2-C ,  4-C ) :   0.9046
B(  2-C , 13-H ) :   0.9506 B(  3-O ,  4-C ) :  -0.1108 B(  3-O , 14-H ) :   0.8369
B(  4-C ,  5-O ) :   1.0390 B(  4-C ,  6-C ) :   0.8560 B(  4-C , 15-H ) :   0.9569
B(  5-O ,  6-C ) :  -0.1335 B(  5-O , 16-H ) :   0.8092 B(  6-C ,  7-C ) :   0.8203
B(  6-C , 17-H ) :   0.8938 B(  7-C ,  8-O ) :   1.9804 B(  7-C , 18-H ) :   0.9399

MP2 TOTAL ENERGY:     -459.422282621 Eh
FINAL SINGLE POINT ENERGY      -459.422282620701

DIPOLE MOMENT
-------------
                                X             Y             Z
Electronic contribution:      1.81598      -0.36316       2.86390
Nuclear contribution   :     -1.41044      -0.83138      -4.17688
                        -----------------------------------------
Total Dipole Moment    :      0.40554      -1.19454      -1.31297
                        -----------------------------------------
Magnitude (a.u.)       :      1.82079
Magnitude (Debye)      :      4.62809

                             ****ORCA TERMINATED NORMALLY****
TOTAL RUN TIME: 0 days 0 hours 19 minutes 39 seconds 668 msec
