                         Program Version 3.0.3 - RELEASE   -
|  1> ! RI-MP2 RIJK def2-TZVP def2-TZVP/C def2-TZVP/JK TIGHTSCF
|  2> % maxcore 2000
|  3> % mp2 density relaxed end
|  4> *xyz 0 1
|  5>  C        0.0488171176     1.4648085854     0.3040561334
|  6>  C       -0.0332342637     0.0300591687    -0.2275441553
|  7>  C       -1.4293626280    -0.5546281691    -0.1202036581
|  8>  C       -1.6596130288    -1.9705810071     0.2316741428
|  9>  O       -1.8584579159    -0.9370474351     1.1921829052
| 10>  C       -2.4516300905     0.1164528091    -0.9115044180
| 11>  N       -3.2350473984     0.6630287771    -1.5621018471
| 12>  H        1.0716509908     1.8430742814     0.2282429183
| 13>  H       -0.6023361690     2.1355702187    -0.2646816860
| 14>  H       -0.2542304035     1.5051582973     1.3541712785
| 15>  H        0.2811091971    -0.0084935890    -1.2771273006
| 16>  H        0.6383320279    -0.6244214302     0.3374537770
| 17>  H       -2.5615394286    -2.4721374680    -0.1123960647
| 18>  H       -0.7918961870    -2.6072867393     0.3957358646
| 19> *
| 20>
| 21>                          ****END OF INPUT****

CARTESIAN COORDINATES (ANGSTROEM)
---------------------------------
  C      0.048817    1.464809    0.304056
  C     -0.033234    0.030059   -0.227544
  C     -1.429363   -0.554628   -0.120204
  C     -1.659613   -1.970581    0.231674
  O     -1.858458   -0.937047    1.192183
  C     -2.451630    0.116453   -0.911504
  N     -3.235047    0.663029   -1.562102
  H      1.071651    1.843074    0.228243
  H     -0.602336    2.135570   -0.264682
  H     -0.254230    1.505158    1.354171
  H      0.281109   -0.008494   -1.277127
  H      0.638332   -0.624421    0.337454
  H     -2.561539   -2.472137   -0.112396
  H     -0.791896   -2.607287    0.395736

 Total Charge           Charge          ....    0
 Multiplicity           Mult            ....    1
 Number of Electrons    NEL             ....   52
 Basis Dimension        Dim             ....  259

ORBITAL ENERGIES
----------------

  NO   OCC          E(Eh)            E(eV)
   0   2.0000     -20.605217      -560.6965
   1   2.0000     -15.583816      -424.0572
   2   2.0000     -11.349126      -308.8254
   3   2.0000     -11.318890      -308.0027
   4   2.0000     -11.282437      -307.0107
   5   2.0000     -11.259200      -306.3784
   6   2.0000     -11.231882      -305.6350
   7   2.0000      -1.451956       -39.5097
   8   2.0000      -1.227915       -33.4133
   9   2.0000      -1.085419       -29.5358
  10   2.0000      -0.978392       -26.6234
  11   2.0000      -0.918741       -25.0002
  12   2.0000      -0.866949       -23.5909
  13   2.0000      -0.744970       -20.2717
  14   2.0000      -0.696423       -18.9506
  15   2.0000      -0.639710       -17.4074
  16   2.0000      -0.619166       -16.8484
  17   2.0000      -0.587046       -15.9743
  18   2.0000      -0.575310       -15.6550
  19   2.0000      -0.559929       -15.2364
  20   2.0000      -0.532639       -14.4938
  21   2.0000      -0.516074       -14.0431
  22   2.0000      -0.508866       -13.8469
  23   2.0000      -0.482347       -13.1253
  24   2.0000      -0.474908       -12.9229
  25   2.0000      -0.440168       -11.9776
  26   0.0000       0.131737         3.5848
  27   0.0000       0.142691         3.8828
  28   0.0000       0.159940         4.3522
  29   0.0000       0.164891         4.4869
  30   0.0000       0.167028         4.5450

MULLIKEN ATOMIC CHARGES
-----------------------
   0 C :   -0.426602
   1 C :   -0.188932
   2 C :    0.276829
   3 C :   -0.064989
   4 O :   -0.313174
   5 C :   -0.196809
   6 N :   -0.047204
   7 H :    0.140890
   8 H :    0.150003
   9 H :    0.148213
  10 H :    0.130306
  11 H :    0.123054
  12 H :    0.139837
  13 H :    0.128578
Sum of atomic charges:   -0.0000000

LOEWDIN ATOMIC CHARGES
----------------------
   0 C :   -0.302228
   1 C :   -0.235471
   2 C :   -0.323310
   3 C :   -0.214418
   4 O :    0.194349
   5 C :   -0.141073
   6 N :    0.080491
   7 H :    0.125503
   8 H :    0.129473
   9 H :    0.129521
  10 H :    0.150984
  11 H :    0.149238
  12 H :    0.130310
  13 H :    0.126631

  Mayer bond orders larger than 0.1
B(  0-C ,  1-C ) :   0.9282 B(  0-C ,  7-H ) :   0.9365 B(  0-C ,  8-H ) :   0.9311
B(  0-C ,  9-H ) :   0.9354 B(  1-C ,  2-C ) :   0.9087 B(  1-C , 10-H ) :   0.9252
B(  1-C , 11-H ) :   0.9236 B(  2-C ,  3-C ) :   0.9534 B(  2-C ,  4-O ) :   0.8501
B(  2-C ,  5-C ) :   0.9187 B(  3-C ,  4-O ) :   0.9048 B(  3-C , 12-H ) :   0.9087
B(  3-C , 13-H ) :   0.9066 B(  5-C ,  6-N ) :   2.8474

MP2 TOTAL ENERGY:     -324.018743427 Eh
FINAL SINGLE POINT ENERGY      -324.018743426977

DIPOLE MOMENT
-------------
                                X             Y             Z
Electronic contribution:     -6.34301      -1.73323      -1.19981
Nuclear contribution   :      7.61650       0.92253       1.36416
                        -----------------------------------------
Total Dipole Moment    :      1.27350      -0.81070       0.16435
                        -----------------------------------------
Magnitude (a.u.)       :      1.51857
Magnitude (Debye)      :      3.85989

                             ****ORCA TERMINATED NORMALLY****
TOTAL RUN TIME: 0 days 0 hours 7 minutes 35 seconds 312 msec
