                         Program Version 3.0.3 - RELEASE   -
|  1> ! RI-MP2 RIJK def2-TZVP def2-TZVP/C def2-TZVP/JK TIGHTSCF
|  2> % maxcore 2000
|  3> % mp2 density relaxed end
|  4> *xyz 0 1
|  5>  N        0.0286044276     1.3964168255     0.2054881127
|  6>  C       -0.0136093057     0.0047672290     0.0625479037
|  7>  C       -1.1076666408    -0.8193339533     0.0439053159
|  8>  N       -0.6410623865    -2.1402180037    -0.0362477899
|  9>  C        0.7056453425    -2.1392637146    -0.0681960236
| 10>  O        1.3776557079    -3.3035964458    -0.1511267317
| 11>  C        1.1644867079    -0.8295975237    -0.0122628219
| 12>  C        2.5167820687    -0.4452007329    -0.0368752817
| 13>  C        3.6838821374    -0.1332364533    -0.0719539606
| 14>  H        0.8823580552     1.7901751221    -0.1694261619
| 15>  H       -0.7713575493     1.8654878167    -0.1976645988
| 16>  H       -2.1615881080    -0.6077066989     0.0917940734
| 17>  H       -1.2083099468    -2.9684653821    -0.0635186418
| 18>  H        2.3195191715    -3.0903183204    -0.1578003676
| 19>  H        4.7074227384     0.1470289954    -0.0812224461
| 20> *
| 21>
| 22>                          ****END OF INPUT****

CARTESIAN COORDINATES (ANGSTROEM)
---------------------------------
  N      0.028604    1.396417    0.205488
  C     -0.013609    0.004767    0.062548
  C     -1.107667   -0.819334    0.043905
  N     -0.641062   -2.140218   -0.036248
  C      0.705645   -2.139264   -0.068196
  O      1.377656   -3.303596   -0.151127
  C      1.164487   -0.829598   -0.012263
  C      2.516782   -0.445201   -0.036875
  C      3.683882   -0.133236   -0.071954
  H      0.882358    1.790175   -0.169426
  H     -0.771358    1.865488   -0.197665
  H     -2.161588   -0.607707    0.091794
  H     -1.208310   -2.968465   -0.063519
  H      2.319519   -3.090318   -0.157800
  H      4.707423    0.147029   -0.081222

 Total Charge           Charge          ....    0
 Multiplicity           Mult            ....    1
 Number of Electrons    NEL             ....   64
 Basis Dimension        Dim             ....  315

ORBITAL ENERGIES
----------------

  NO   OCC          E(Eh)            E(eV)
   0   2.0000     -20.611405      -560.8648
   1   2.0000     -15.606891      -424.6851
   2   2.0000     -15.556054      -423.3018
   3   2.0000     -11.343173      -308.6634
   4   2.0000     -11.266142      -306.5673
   5   2.0000     -11.239722      -305.8484
   6   2.0000     -11.236545      -305.7619
   7   2.0000     -11.226806      -305.4969
   8   2.0000     -11.221988      -305.3658
   9   2.0000      -1.436777       -39.0967
  10   2.0000      -1.292244       -35.1637
  11   2.0000      -1.200771       -32.6746
  12   2.0000      -1.074735       -29.2450
  13   2.0000      -1.005326       -27.3563
  14   2.0000      -0.967798       -26.3351
  15   2.0000      -0.844999       -22.9936
  16   2.0000      -0.791770       -21.5452
  17   2.0000      -0.775932       -21.1142
  18   2.0000      -0.713369       -19.4118
  19   2.0000      -0.693963       -18.8837
  20   2.0000      -0.663779       -18.0623
  21   2.0000      -0.638512       -17.3748
  22   2.0000      -0.632347       -17.2070
  23   2.0000      -0.610273       -16.6064
  24   2.0000      -0.585344       -15.9280
  25   2.0000      -0.546215       -14.8633
  26   2.0000      -0.538656       -14.6576
  27   2.0000      -0.476164       -12.9571
  28   2.0000      -0.440258       -11.9800
  29   2.0000      -0.395322       -10.7573
  30   2.0000      -0.309611        -8.4250
  31   2.0000      -0.275878        -7.5070
  32   0.0000       0.136925         3.7259
  33   0.0000       0.142373         3.8742
  34   0.0000       0.149342         4.0638
  35   0.0000       0.157407         4.2833
  36   0.0000       0.166053         4.5185

MULLIKEN ATOMIC CHARGES
-----------------------
   0 N :   -0.513351
   1 C :    0.070877
   2 C :   -0.161968
   3 N :   -0.273667
   4 C :    0.192128
   5 O :   -0.423539
   6 C :   -0.091552
   7 C :   -0.042844
   8 C :   -0.183507
   9 H :    0.252572
  10 H :    0.241493
  11 H :    0.143549
  12 H :    0.249961
  13 H :    0.351853
  14 H :    0.187995
Sum of atomic charges:    0.0000000

LOEWDIN ATOMIC CHARGES
----------------------
   0 N :   -0.084301
   1 C :   -0.248422
   2 C :   -0.232885
   3 N :    0.195269
   4 C :   -0.331708
   5 O :    0.081447
   6 C :   -0.172454
   7 C :   -0.101585
   8 C :   -0.106644
   9 H :    0.171991
  10 H :    0.166351
  11 H :    0.131255
  12 H :    0.195629
  13 H :    0.210113
  14 H :    0.125944

  Mayer bond orders larger than 0.1
B(  0-N ,  1-C ) :   1.0262 B(  0-N ,  9-H ) :   0.8744 B(  0-N , 10-H ) :   0.8820
B(  1-C ,  2-C ) :   1.5624 B(  1-C ,  6-C ) :   1.1688 B(  2-C ,  3-N ) :   1.0159
B(  2-C , 11-H ) :   0.9150 B(  3-N ,  4-C ) :   1.2397 B(  3-N , 12-H ) :   0.8694
B(  4-C ,  5-O ) :   1.1502 B(  4-C ,  6-C ) :   1.3756 B(  5-O , 13-H ) :   0.8147
B(  6-C ,  7-C ) :   1.1441 B(  7-C ,  8-C ) :   2.6212 B(  8-C , 14-H ) :   0.8784

MP2 TOTAL ENERGY:     -416.092619395 Eh
FINAL SINGLE POINT ENERGY      -416.092619394529

DIPOLE MOMENT
-------------
                                X             Y             Z
Electronic contribution:      0.79626      -2.91170       0.03084
Nuclear contribution   :     -1.11208       2.74952      -0.46819
                        -----------------------------------------
Total Dipole Moment    :     -0.31582      -0.16218      -0.43735
                        -----------------------------------------
Magnitude (a.u.)       :      0.56331
Magnitude (Debye)      :      1.43181

                             ****ORCA TERMINATED NORMALLY****
TOTAL RUN TIME: 0 days 0 hours 15 minutes 4 seconds 454 msec
