                         Program Version 3.0.3 - RELEASE   -
|  1> ! RI-MP2 RIJK def2-TZVP def2-TZVP/C def2-TZVP/JK TIGHTSCF
|  2> % maxcore 2000
|  3> % mp2 density relaxed end
|  4> *xyz 0 1
|  5>  C        0.0430497629     1.5096428925    -0.4241944678
|  6>  N        0.0155099237     0.0537179691    -0.4685160340
|  7>  C       -0.9515818262    -0.5588667866     0.0242918063
|  8>  C       -1.3438352163    -2.0141683197     0.1640599979
|  9>  C       -2.6014778821    -1.4384178005     0.8507061818
| 10>  C       -2.7873464052    -1.7722681769     2.3302401607
| 11>  C       -3.8685844769    -1.0083427181     2.9498501022
| 12>  N       -4.7322704127    -0.4108751832     3.4305032236
| 13>  O       -2.1013380151    -0.0844028470     0.6591143633
| 14>  H        0.9438972447     1.8319642178     0.1088155030
| 15>  H        0.1222102452     1.8941771597    -1.4465580867
| 16>  H       -0.8326232193     1.9603471337     0.0563345866
| 17>  H       -1.5122809843    -2.5403858521    -0.7764311224
| 18>  H       -0.6857145636    -2.6094967676     0.8010139265
| 19>  H       -3.5369507702    -1.5744863478     0.3016532692
| 20>  H       -3.0080752373    -2.8416573931     2.4311264042
| 21>  H       -1.8540450272    -1.5767968302     2.8696758755
| 22> *
| 23>
| 24>                          ****END OF INPUT****

CARTESIAN COORDINATES (ANGSTROEM)
---------------------------------
  C      0.043050    1.509643   -0.424194
  N      0.015510    0.053718   -0.468516
  C     -0.951582   -0.558867    0.024292
  C     -1.343835   -2.014168    0.164060
  C     -2.601478   -1.438418    0.850706
  C     -2.787346   -1.772268    2.330240
  C     -3.868584   -1.008343    2.949850
  N     -4.732270   -0.410875    3.430503
  O     -2.101338   -0.084403    0.659114
  H      0.943897    1.831964    0.108816
  H      0.122210    1.894177   -1.446558
  H     -0.832623    1.960347    0.056335
  H     -1.512281   -2.540386   -0.776431
  H     -0.685715   -2.609497    0.801014
  H     -3.536951   -1.574486    0.301653
  H     -3.008075   -2.841657    2.431126
  H     -1.854045   -1.576797    2.869676

 Total Charge           Charge          ....    0
 Multiplicity           Mult            ....    1
 Number of Electrons    NEL             ....   66
 Basis Dimension        Dim             ....  327

ORBITAL ENERGIES
----------------

  NO   OCC          E(Eh)            E(eV)
   0   2.0000     -20.602895      -560.6333
   1   2.0000     -15.577923      -423.8968
   2   2.0000     -15.553233      -423.2250
   3   2.0000     -11.346331      -308.7494
   4   2.0000     -11.334630      -308.4310
   5   2.0000     -11.301316      -307.5244
   6   2.0000     -11.281741      -306.9918
   7   2.0000     -11.269992      -306.6721
   8   2.0000     -11.248897      -306.0981
   9   2.0000      -1.445880       -39.3444
  10   2.0000      -1.230225       -33.4761
  11   2.0000      -1.225003       -33.3340
  12   2.0000      -1.099695       -29.9242
  13   2.0000      -1.037146       -28.2222
  14   2.0000      -0.948340       -25.8056
  15   2.0000      -0.869725       -23.6664
  16   2.0000      -0.753186       -20.4952
  17   2.0000      -0.738946       -20.1078
  18   2.0000      -0.714113       -19.4320
  19   2.0000      -0.677084       -18.4244
  20   2.0000      -0.656428       -17.8623
  21   2.0000      -0.630205       -17.1487
  22   2.0000      -0.592351       -16.1187
  23   2.0000      -0.583613       -15.8809
  24   2.0000      -0.572100       -15.5676
  25   2.0000      -0.564134       -15.3509
  26   2.0000      -0.536630       -14.6024
  27   2.0000      -0.521911       -14.2019
  28   2.0000      -0.517590       -14.0843
  29   2.0000      -0.467771       -12.7287
  30   2.0000      -0.466138       -12.6843
  31   2.0000      -0.420080       -11.4310
  32   2.0000      -0.396115       -10.7788
  33   0.0000       0.111104         3.0233
  34   0.0000       0.144256         3.9254
  35   0.0000       0.147572         4.0156
  36   0.0000       0.155111         4.2208
  37   0.0000       0.160053         4.3553

MULLIKEN ATOMIC CHARGES
-----------------------
   0 C :   -0.268447
   1 N :   -0.239736
   2 C :    0.129909
   3 C :   -0.204166
   4 C :    0.083180
   5 C :   -0.134688
   6 C :   -0.186381
   7 N :   -0.051432
   8 O :   -0.286034
   9 H :    0.139042
  10 H :    0.139552
  11 H :    0.135916
  12 H :    0.148516
  13 H :    0.139790
  14 H :    0.125898
  15 H :    0.163679
  16 H :    0.165401
Sum of atomic charges:   -0.0000000

LOEWDIN ATOMIC CHARGES
----------------------
   0 C :   -0.321738
   1 N :    0.080788
   2 C :   -0.360958
   3 C :   -0.176174
   4 C :   -0.240988
   5 C :   -0.228032
   6 C :   -0.187349
   7 N :    0.067422
   8 O :    0.228331
   9 H :    0.120396
  10 H :    0.120590
  11 H :    0.112418
  12 H :    0.148040
  13 H :    0.147774
  14 H :    0.146689
  15 H :    0.171661
  16 H :    0.171132

  Mayer bond orders larger than 0.1
B(  0-C ,  1-N ) :   0.8397 B(  0-C ,  9-H ) :   0.9345 B(  0-C , 10-H ) :   0.9346
B(  0-C , 11-H ) :   0.9292 B(  1-N ,  2-C ) :   2.0200 B(  2-C ,  3-C ) :   0.9204
B(  2-C ,  8-O ) :   1.0118 B(  3-C ,  4-C ) :   0.9257 B(  3-C , 12-H ) :   0.9107
B(  3-C , 13-H ) :   0.9092 B(  4-C ,  5-C ) :   0.9056 B(  4-C ,  8-O ) :   0.9122
B(  4-C , 14-H ) :   0.9176 B(  5-C ,  6-C ) :   0.9399 B(  5-C , 15-H ) :   0.9025
B(  5-C , 16-H ) :   0.8990 B(  6-C ,  7-N ) :   2.8623

MP2 TOTAL ENERGY:     -417.303162842 Eh
FINAL SINGLE POINT ENERGY      -417.303162841768

DIPOLE MOMENT
-------------
                                X             Y             Z
Electronic contribution:     -4.64970      -0.64266       3.16098
Nuclear contribution   :      5.28805      -0.55408      -3.61476
                        -----------------------------------------
Total Dipole Moment    :      0.63835      -1.19674      -0.45378
                        -----------------------------------------
Magnitude (a.u.)       :      1.43025
Magnitude (Debye)      :      3.63540

                             ****ORCA TERMINATED NORMALLY****
TOTAL RUN TIME: 0 days 0 hours 15 minutes 50 seconds 691 msec
