                         Program Version 3.0.3 - RELEASE   -
|  1> ! RI-MP2 RIJK def2-TZVP def2-TZVP/C def2-TZVP/JK TIGHTSCF
|  2> % maxcore 2000
|  3> % mp2 density relaxed end
|  4> *xyz 0 1
|  5>  N        0.4253281230     1.3232854499    -0.5188105903
|  6>  C        0.2463558498    -0.0030414555    -0.1715828639
|  7>  N       -0.9585560834    -0.5041798327     0.1072884105
|  8>  N       -0.7029346621    -1.8006358846     0.3134285017
|  9>  N        0.5536966296    -2.1804226096     0.1872848747
| 10>  C        1.2047367543    -1.0523073023    -0.1159197585
| 11>  C        2.6960959308    -1.0590660712    -0.2831715906
| 12>  C        3.2473113594    -0.2490517367    -1.4557749061
| 13>  O        3.2795598151     1.1310149802    -1.0785649053
| 14>  H        1.3864216891     1.6340222289    -0.4528598519
| 15>  H       -0.2478917850     1.9493567160    -0.1024987316
| 16>  H       -1.4358254625    -2.4515239031     0.5366331913
| 17>  H        3.1918926204    -0.6846734048     0.6231633538
| 18>  H        3.0044764265    -2.1025578682    -0.3968734723
| 19>  H        4.2661862787    -0.5925130342    -1.6844485762
| 20>  H        2.6277805422    -0.3982682815    -2.3504447334
| 21>  H        3.4830250940     1.6521192095    -1.8613338721
| 22> *
| 23>
| 24>                          ****END OF INPUT****

CARTESIAN COORDINATES (ANGSTROEM)
---------------------------------
  N      0.425328    1.323285   -0.518811
  C      0.246356   -0.003041   -0.171583
  N     -0.958556   -0.504180    0.107288
  N     -0.702935   -1.800636    0.313429
  N      0.553697   -2.180423    0.187285
  C      1.204737   -1.052307   -0.115920
  C      2.696096   -1.059066   -0.283172
  C      3.247311   -0.249052   -1.455775
  O      3.279560    1.131015   -1.078565
  H      1.386422    1.634022   -0.452860
  H     -0.247892    1.949357   -0.102499
  H     -1.435825   -2.451524    0.536633
  H      3.191893   -0.684673    0.623163
  H      3.004476   -2.102558   -0.396873
  H      4.266186   -0.592513   -1.684449
  H      2.627781   -0.398268   -2.350445
  H      3.483025    1.652119   -1.861334

 Total Charge           Charge          ....    0
 Multiplicity           Mult            ....    1
 Number of Electrons    NEL             ....   68
 Basis Dimension        Dim             ....  327

ORBITAL ENERGIES
----------------

  NO   OCC          E(Eh)            E(eV)
   0   2.0000     -20.573456      -559.8322
   1   2.0000     -15.655405      -426.0052
   2   2.0000     -15.605579      -424.6494
   3   2.0000     -15.584131      -424.0658
   4   2.0000     -15.551427      -423.1758
   5   2.0000     -11.290003      -307.2166
   6   2.0000     -11.289804      -307.2112
   7   2.0000     -11.253605      -306.2262
   8   2.0000     -11.238148      -305.8056
   9   2.0000      -1.428180       -38.8627
  10   2.0000      -1.376156       -37.4471
  11   2.0000      -1.221268       -33.2324
  12   2.0000      -1.165772       -31.7223
  13   2.0000      -1.081133       -29.4191
  14   2.0000      -1.019798       -27.7501
  15   2.0000      -0.878805       -23.9135
  16   2.0000      -0.826772       -22.4976
  17   2.0000      -0.785634       -21.3782
  18   2.0000      -0.739210       -20.1149
  19   2.0000      -0.711648       -19.3649
  20   2.0000      -0.667525       -18.1643
  21   2.0000      -0.655031       -17.8243
  22   2.0000      -0.641026       -17.4432
  23   2.0000      -0.626228       -17.0405
  24   2.0000      -0.587378       -15.9834
  25   2.0000      -0.562529       -15.3072
  26   2.0000      -0.548444       -14.9239
  27   2.0000      -0.509592       -13.8667
  28   2.0000      -0.493162       -13.4196
  29   2.0000      -0.476445       -12.9647
  30   2.0000      -0.463199       -12.6043
  31   2.0000      -0.455871       -12.4049
  32   2.0000      -0.375621       -10.2212
  33   2.0000      -0.311648        -8.4804
  34   0.0000       0.126046         3.4299
  35   0.0000       0.147174         4.0048
  36   0.0000       0.149849         4.0776
  37   0.0000       0.162206         4.4139
  38   0.0000       0.166823         4.5395

MULLIKEN ATOMIC CHARGES
-----------------------
   0 N :   -0.531029
   1 C :    0.141077
   2 N :   -0.206485
   3 N :   -0.007693
   4 N :   -0.203432
   5 C :   -0.025642
   6 C :   -0.218510
   7 C :   -0.058390
   8 O :   -0.507057
   9 H :    0.269654
  10 H :    0.247181
  11 H :    0.262793
  12 H :    0.131783
  13 H :    0.143486
  14 H :    0.110810
  15 H :    0.125197
  16 H :    0.326257
Sum of atomic charges:    0.0000000

LOEWDIN ATOMIC CHARGES
----------------------
   0 N :   -0.077812
   1 C :   -0.368969
   2 N :    0.019907
   3 N :    0.049993
   4 N :    0.031590
   5 C :   -0.276001
   6 C :   -0.238012
   7 C :   -0.332273
   8 O :   -0.056966
   9 H :    0.166225
  10 H :    0.168713
  11 H :    0.183626
  12 H :    0.153534
  13 H :    0.157597
  14 H :    0.119875
  15 H :    0.123790
  16 H :    0.175183

  Mayer bond orders larger than 0.1
B(  0-N ,  1-C ) :   1.0776 B(  0-N ,  9-H ) :   0.8477 B(  0-N , 10-H ) :   0.8730
B(  1-C ,  2-N ) :   1.5300 B(  1-C ,  5-C ) :   1.3189 B(  2-N ,  3-N ) :   1.1015
B(  3-N ,  4-N ) :   1.1443 B(  3-N , 11-H ) :   0.8780 B(  4-N ,  5-C ) :   1.5144
B(  5-C ,  6-C ) :   0.9115 B(  6-C ,  7-C ) :   0.9105 B(  6-C , 12-H ) :   0.9172
B(  6-C , 13-H ) :   0.9364 B(  7-C ,  8-O ) :   0.9279 B(  7-C , 14-H ) :   0.9264
B(  7-C , 15-H ) :   0.9322 B(  8-O , 16-H ) :   0.8423

MP2 TOTAL ENERGY:     -450.603162331 Eh
FINAL SINGLE POINT ENERGY      -450.603162330534

DIPOLE MOMENT
-------------
                                X             Y             Z
Electronic contribution:     -6.03978      -2.06736       2.26397
Nuclear contribution   :      6.59528       2.33849      -2.64006
                        -----------------------------------------
Total Dipole Moment    :      0.55551       0.27113      -0.37608
                        -----------------------------------------
Magnitude (a.u.)       :      0.72356
Magnitude (Debye)      :      1.83915

                             ****ORCA TERMINATED NORMALLY****
TOTAL RUN TIME: 0 days 0 hours 16 minutes 54 seconds 496 msec
