                         Program Version 3.0.3 - RELEASE   -
|  1> ! RI-MP2 RIJK def2-TZVP def2-TZVP/C def2-TZVP/JK TIGHTSCF
|  2> % maxcore 2000
|  3> % mp2 density relaxed end
|  4> *xyz 0 1
|  5>  N       -0.0400343768     1.1711925268     0.3029555788
|  6>  C       -0.0140705925    -0.0642243860     0.0534177438
|  7>  O        1.1126451797    -0.8420864433     0.0250107944
|  8>  C        0.8609880456    -2.0937675108    -0.6378987896
|  9>  C       -0.6556829097    -2.3001184099    -0.6299486684
| 10>  C       -1.2841057228    -2.7910400060     0.6901848037
| 11>  O       -1.7803451251    -1.4710564664     1.0018805806
| 12>  C       -1.2285126108    -0.9261110275    -0.2189386515
| 13>  H        0.9028508707     1.5253599287     0.4773815269
| 14>  H        1.2536201318    -2.0331640269    -1.6599987292
| 15>  H        1.4085903229    -2.8730945022    -0.1002943817
| 16>  H       -1.0288066591    -2.7671012602    -1.5400532543
| 17>  H       -2.1011800514    -3.5133251701     0.5808605884
| 18>  H       -0.5773947691    -3.1580996184     1.4451674248
| 19>  H       -1.9801207334    -0.4171088876    -0.8249256966
| 20> *
| 21>
| 22>                          ****END OF INPUT****

CARTESIAN COORDINATES (ANGSTROEM)
---------------------------------
  N     -0.040034    1.171193    0.302956
  C     -0.014071   -0.064224    0.053418
  O      1.112645   -0.842086    0.025011
  C      0.860988   -2.093768   -0.637899
  C     -0.655683   -2.300118   -0.629949
  C     -1.284106   -2.791040    0.690185
  O     -1.780345   -1.471056    1.001881
  C     -1.228513   -0.926111   -0.218939
  H      0.902851    1.525360    0.477382
  H      1.253620   -2.033164   -1.659999
  H      1.408590   -2.873095   -0.100294
  H     -1.028807   -2.767101   -1.540053
  H     -2.101180   -3.513325    0.580861
  H     -0.577395   -3.158100    1.445167
  H     -1.980121   -0.417109   -0.824926

 Total Charge           Charge          ....    0
 Multiplicity           Mult            ....    1
 Number of Electrons    NEL             ....   60
 Basis Dimension        Dim             ....  290

ORBITAL ENERGIES
----------------

  NO   OCC          E(Eh)            E(eV)
   0   2.0000     -20.598662      -560.5181
   1   2.0000     -20.566256      -559.6363
   2   2.0000     -15.538820      -422.8328
   3   2.0000     -11.336183      -308.4732
   4   2.0000     -11.307120      -307.6824
   5   2.0000     -11.305465      -307.6373
   6   2.0000     -11.296253      -307.3867
   7   2.0000     -11.259632      -306.3902
   8   2.0000      -1.438225       -39.1361
   9   2.0000      -1.390887       -37.8480
  10   2.0000      -1.199242       -32.6330
  11   2.0000      -1.070756       -29.1368
  12   2.0000      -0.981664       -26.7124
  13   2.0000      -0.936951       -25.4957
  14   2.0000      -0.806193       -21.9376
  15   2.0000      -0.776143       -21.1199
  16   2.0000      -0.726834       -19.7781
  17   2.0000      -0.691100       -18.8058
  18   2.0000      -0.667749       -18.1704
  19   2.0000      -0.657414       -17.8891
  20   2.0000      -0.624981       -17.0066
  21   2.0000      -0.603661       -16.4264
  22   2.0000      -0.580164       -15.7871
  23   2.0000      -0.542270       -14.7559
  24   2.0000      -0.516193       -14.0463
  25   2.0000      -0.487018       -13.2524
  26   2.0000      -0.467967       -12.7340
  27   2.0000      -0.452497       -12.3131
  28   2.0000      -0.423236       -11.5168
  29   2.0000      -0.403742       -10.9864
  30   0.0000       0.128591         3.4991
  31   0.0000       0.142679         3.8825
  32   0.0000       0.161330         4.3900
  33   0.0000       0.163318         4.4441
  34   0.0000       0.179686         4.8895

MULLIKEN ATOMIC CHARGES
-----------------------
   0 N :   -0.365092
   1 C :    0.079930
   2 O :   -0.269276
   3 C :   -0.039566
   4 C :   -0.155075
   5 C :   -0.026210
   6 O :   -0.320768
   7 C :    0.167930
   8 H :    0.225075
   9 H :    0.115558
  10 H :    0.122443
  11 H :    0.141310
  12 H :    0.105952
  13 H :    0.098471
  14 H :    0.119318
Sum of atomic charges:   -0.0000000

LOEWDIN ATOMIC CHARGES
----------------------
   0 N :   -0.038477
   1 C :   -0.389214
   2 O :    0.230643
   3 C :   -0.250944
   4 C :   -0.210724
   5 C :   -0.243463
   6 O :    0.149007
   7 C :   -0.211698
   8 H :    0.170160
   9 H :    0.127962
  10 H :    0.130807
  11 H :    0.148748
  12 H :    0.120026
  13 H :    0.121715
  14 H :    0.145453

  Mayer bond orders larger than 0.1
B(  0-N ,  1-C ) :   2.0553 B(  0-N ,  8-H ) :   0.8541 B(  1-C ,  2-O ) :   1.0697
B(  1-C ,  7-C ) :   0.8506 B(  2-O ,  3-C ) :   0.8944 B(  3-C ,  4-C ) :   0.9574
B(  3-C ,  9-H ) :   0.9295 B(  3-C , 10-H ) :   0.9163 B(  4-C ,  5-C ) :   0.9680
B(  4-C ,  7-C ) :   0.9443 B(  4-C , 11-H ) :   0.9186 B(  5-C ,  6-O ) :   0.9505
B(  5-C , 12-H ) :   0.9181 B(  5-C , 13-H ) :   0.8990 B(  6-O ,  7-C ) :   0.9512
B(  7-C , 14-H ) :   0.9250

MP2 TOTAL ENERGY:     -399.135864351 Eh
FINAL SINGLE POINT ENERGY      -399.135864351488

DIPOLE MOMENT
-------------
                                X             Y             Z
Electronic contribution:      0.03447       3.33072       1.20283
Nuclear contribution   :      0.40722      -4.73334      -2.09492
                        -----------------------------------------
Total Dipole Moment    :      0.44169      -1.40262      -0.89210
                        -----------------------------------------
Magnitude (a.u.)       :      1.71996
Magnitude (Debye)      :      4.37179

                             ****ORCA TERMINATED NORMALLY****
TOTAL RUN TIME: 0 days 0 hours 11 minutes 29 seconds 900 msec
