                         Program Version 3.0.3 - RELEASE   -
|  1> ! RI-MP2 RIJK def2-TZVP def2-TZVP/C def2-TZVP/JK TIGHTSCF
|  2> % maxcore 2000
|  3> % mp2 density relaxed end
|  4> *xyz 0 1
|  5>  N       -0.0690858400     1.2014991865     0.6592338678
|  6>  C       -0.0579487128     0.1819873324    -0.2429062358
|  7>  O        0.8832766562    -0.0334488915    -0.9829020694
|  8>  C       -1.3181673799    -0.6790943257    -0.2788594864
|  9>  C       -1.9280048331    -0.7399765599    -1.6939747487
| 10>  O       -2.5967543361    -2.0061581260    -1.7740679251
| 11>  C       -2.0995675754    -2.8709098419    -0.8370463259
| 12>  N       -2.4845595924    -4.0614753816    -0.6787928671
| 13>  C       -1.0286956874    -2.1702309288    -0.0310852149
| 14>  H        0.7570335126     1.7713370735     0.7457457612
| 15>  H       -0.8243782462     1.3418692058     1.3062841004
| 16>  H       -2.0700232746    -0.3179601693     0.4305905255
| 17>  H       -2.6651448508     0.0421136684    -1.8883188571
| 18>  H       -1.1336816401    -0.6922770432    -2.4463442450
| 19>  H       -3.2027736767    -4.2998592739    -1.3650617383
| 20>  H       -0.0443068032    -2.4188507543    -0.4428044793
| 21>  H       -1.0536056900    -2.4748024206     1.0149390581
| 22> *
| 23>
| 24>                          ****END OF INPUT****

CARTESIAN COORDINATES (ANGSTROEM)
---------------------------------
  N     -0.069086    1.201499    0.659234
  C     -0.057949    0.181987   -0.242906
  O      0.883277   -0.033449   -0.982902
  C     -1.318167   -0.679094   -0.278859
  C     -1.928005   -0.739977   -1.693975
  O     -2.596754   -2.006158   -1.774068
  C     -2.099568   -2.870910   -0.837046
  N     -2.484560   -4.061475   -0.678793
  C     -1.028696   -2.170231   -0.031085
  H      0.757034    1.771337    0.745746
  H     -0.824378    1.341869    1.306284
  H     -2.070023   -0.317960    0.430591
  H     -2.665145    0.042114   -1.888319
  H     -1.133682   -0.692277   -2.446344
  H     -3.202774   -4.299859   -1.365062
  H     -0.044307   -2.418851   -0.442804
  H     -1.053606   -2.474802    1.014939

 Total Charge           Charge          ....    0
 Multiplicity           Mult            ....    1
 Number of Electrons    NEL             ....   68
 Basis Dimension        Dim             ....  327

ORBITAL ENERGIES
----------------

  NO   OCC          E(Eh)            E(eV)
   0   2.0000     -20.596861      -560.4691
   1   2.0000     -20.532719      -558.7237
   2   2.0000     -15.602485      -424.5652
   3   2.0000     -15.530797      -422.6145
   4   2.0000     -11.369493      -309.3796
   5   2.0000     -11.338323      -308.5315
   6   2.0000     -11.303615      -307.5870
   7   2.0000     -11.269703      -306.6642
   8   2.0000     -11.252463      -306.1951
   9   2.0000      -1.433751       -39.0144
  10   2.0000      -1.398760       -38.0622
  11   2.0000      -1.229983       -33.4695
  12   2.0000      -1.195333       -32.5267
  13   2.0000      -1.102389       -29.9975
  14   2.0000      -0.979490       -26.6533
  15   2.0000      -0.897651       -24.4263
  16   2.0000      -0.802569       -21.8390
  17   2.0000      -0.776680       -21.1345
  18   2.0000      -0.743019       -20.2186
  19   2.0000      -0.725780       -19.7495
  20   2.0000      -0.689890       -18.7729
  21   2.0000      -0.664231       -18.0746
  22   2.0000      -0.647112       -17.6088
  23   2.0000      -0.608581       -16.5603
  24   2.0000      -0.596957       -16.2440
  25   2.0000      -0.583210       -15.8700
  26   2.0000      -0.563905       -15.3446
  27   2.0000      -0.532931       -14.5018
  28   2.0000      -0.503430       -13.6990
  29   2.0000      -0.491158       -13.3651
  30   2.0000      -0.445893       -12.1334
  31   2.0000      -0.434474       -11.8226
  32   2.0000      -0.430702       -11.7200
  33   2.0000      -0.397693       -10.8218
  34   0.0000       0.109004         2.9662
  35   0.0000       0.146394         3.9836
  36   0.0000       0.153727         4.1831
  37   0.0000       0.159996         4.3537
  38   0.0000       0.176695         4.8081

MULLIKEN ATOMIC CHARGES
-----------------------
   0 N :   -0.471004
   1 C :    0.266212
   2 O :   -0.354266
   3 C :   -0.055138
   4 C :   -0.082860
   5 O :   -0.254956
   6 C :    0.116427
   7 N :   -0.375475
   8 C :   -0.208294
   9 H :    0.264281
  10 H :    0.263360
  11 H :    0.100482
  12 H :    0.125041
  13 H :    0.138928
  14 H :    0.223731
  15 H :    0.160481
  16 H :    0.143051
Sum of atomic charges:   -0.0000000

LOEWDIN ATOMIC CHARGES
----------------------
   0 N :   -0.007002
   1 C :   -0.463840
   2 O :    0.089274
   3 C :   -0.215026
   4 C :   -0.239313
   5 O :    0.232672
   6 C :   -0.405806
   7 N :   -0.061750
   8 C :   -0.183361
   9 H :    0.176407
  10 H :    0.171688
  11 H :    0.152624
  12 H :    0.129218
  13 H :    0.137430
  14 H :    0.168659
  15 H :    0.166289
  16 H :    0.151838

  Mayer bond orders larger than 0.1
B(  0-N ,  1-C ) :   1.1731 B(  0-N ,  9-H ) :   0.8542 B(  0-N , 10-H ) :   0.8697
B(  1-C ,  2-O ) :   1.9699 B(  1-C ,  3-C ) :   0.8504 B(  3-C ,  4-C ) :   0.9249
B(  3-C ,  8-C ) :   0.9339 B(  3-C , 11-H ) :   0.9106 B(  4-C ,  5-O ) :   0.8873
B(  4-C , 12-H ) :   0.9212 B(  4-C , 13-H ) :   0.9215 B(  5-O ,  6-C ) :   1.0793
B(  6-C ,  7-N ) :   2.0677 B(  6-C ,  8-C ) :   0.9132 B(  7-N , 14-H ) :   0.8556
B(  8-C , 15-H ) :   0.9040 B(  8-C , 16-H ) :   0.9142

MP2 TOTAL ENERGY:     -454.467408777 Eh
FINAL SINGLE POINT ENERGY      -454.467408776761

DIPOLE MOMENT
-------------
                                X             Y             Z
Electronic contribution:      0.33896      -0.82519      -1.54338
Nuclear contribution   :     -0.76466       2.48182       2.42993
                        -----------------------------------------
Total Dipole Moment    :     -0.42570       1.65663       0.88655
                        -----------------------------------------
Magnitude (a.u.)       :      1.92655
Magnitude (Debye)      :      4.89691

                             ****ORCA TERMINATED NORMALLY****
TOTAL RUN TIME: 0 days 0 hours 16 minutes 1 seconds 936 msec
