                         Program Version 3.0.3 - RELEASE   -
|  1> ! RI-MP2 RIJK def2-TZVP def2-TZVP/C def2-TZVP/JK TIGHTSCF
|  2> % maxcore 2000
|  3> % mp2 density relaxed end
|  4> *xyz 0 1
|  5>  C       -0.3474136328     1.4055623535     0.0847026091
|  6>  C        0.0143244596    -0.0754229549     0.1971710595
|  7>  C        0.5896070591    -0.6884853455    -1.1173553640
|  8>  C        1.7740470899    -1.5921567030    -0.6924390644
|  9>  C        1.6321546638    -1.7668559399     0.8382365838
| 10>  C        0.6481803509    -2.8902511185     1.1981484260
| 11>  O        2.8673246052    -1.9965405991     1.4990682863
| 12>  C        1.0866587850    -0.3880150792     1.2680177776
| 13>  O        2.1710268539     0.5282174912     1.2137223844
| 14>  H        0.5274240962     2.0013168486    -0.1954881150
| 15>  H       -1.1102580713     1.5617743746    -0.6847195875
| 16>  H       -0.7481620905     1.7999443042     1.0265208017
| 17>  H       -0.8951715673    -0.6193420614     0.4777282147
| 18>  H       -0.1826446886    -1.2490574254    -1.6525646889
| 19>  H        0.9279696290     0.0996537892    -1.7963575430
| 20>  H        1.7905263377    -2.5524238845    -1.2184140521
| 21>  H        2.7269596704    -1.0904099705    -0.8753401216
| 22>  H        1.0630345699    -3.8556696350     0.8839488531
| 23>  H        0.4864729931    -2.9269040380     2.2795665924
| 24>  H       -0.3207035973    -2.7812151590     0.7029095065
| 25>  H        3.1803117554    -2.8669349616     1.2320419974
| 26>  H        0.6632237399    -0.4231611538     2.2826831731
| 27>  H        1.8515403189     1.3778203481     1.5305949110
| 28> *
| 29>
| 30>                          ****END OF INPUT****

CARTESIAN COORDINATES (ANGSTROEM)
---------------------------------
  C     -0.347414    1.405562    0.084703
  C      0.014324   -0.075423    0.197171
  C      0.589607   -0.688485   -1.117355
  C      1.774047   -1.592157   -0.692439
  C      1.632155   -1.766856    0.838237
  C      0.648180   -2.890251    1.198148
  O      2.867325   -1.996541    1.499068
  C      1.086659   -0.388015    1.268018
  O      2.171027    0.528217    1.213722
  H      0.527424    2.001317   -0.195488
  H     -1.110258    1.561774   -0.684720
  H     -0.748162    1.799944    1.026521
  H     -0.895172   -0.619342    0.477728
  H     -0.182645   -1.249057   -1.652565
  H      0.927970    0.099654   -1.796358
  H      1.790526   -2.552424   -1.218414
  H      2.726960   -1.090410   -0.875340
  H      1.063035   -3.855670    0.883949
  H      0.486473   -2.926904    2.279567
  H     -0.320704   -2.781215    0.702910
  H      3.180312   -2.866935    1.232042
  H      0.663224   -0.423161    2.282683
  H      1.851540    1.377820    1.530595

 Total Charge           Charge          ....    0
 Multiplicity           Mult            ....    1
 Number of Electrons    NEL             ....   72
 Basis Dimension        Dim             ....  363

ORBITAL ENERGIES
----------------

  NO   OCC          E(Eh)            E(eV)
   0   2.0000     -20.545991      -559.0848
   1   2.0000     -20.543394      -559.0142
   2   2.0000     -11.278580      -306.9058
   3   2.0000     -11.271003      -306.6996
   4   2.0000     -11.226315      -305.4836
   5   2.0000     -11.218169      -305.2619
   6   2.0000     -11.218126      -305.2607
   7   2.0000     -11.217803      -305.2519
   8   2.0000     -11.211174      -305.0716
   9   2.0000      -1.367338       -37.2071
  10   2.0000      -1.341670       -36.5087
  11   2.0000      -1.113967       -30.3126
  12   2.0000      -1.019530       -27.7428
  13   2.0000      -0.973407       -26.4877
  14   2.0000      -0.923294       -25.1241
  15   2.0000      -0.878183       -23.8966
  16   2.0000      -0.777331       -21.1522
  17   2.0000      -0.748005       -20.3543
  18   2.0000      -0.693161       -18.8619
  19   2.0000      -0.669036       -18.2054
  20   2.0000      -0.644080       -17.5263
  21   2.0000      -0.632739       -17.2177
  22   2.0000      -0.594322       -16.1723
  23   2.0000      -0.581290       -15.8177
  24   2.0000      -0.569795       -15.5049
  25   2.0000      -0.548886       -14.9359
  26   2.0000      -0.542386       -14.7591
  27   2.0000      -0.532962       -14.5026
  28   2.0000      -0.518392       -14.1062
  29   2.0000      -0.505930       -13.7671
  30   2.0000      -0.486879       -13.2486
  31   2.0000      -0.464575       -12.6417
  32   2.0000      -0.458390       -12.4734
  33   2.0000      -0.446081       -12.1385
  34   2.0000      -0.421433       -11.4678
  35   2.0000      -0.412979       -11.2377
  36   0.0000       0.124240         3.3807
  37   0.0000       0.140565         3.8250
  38   0.0000       0.161480         4.3941
  39   0.0000       0.171152         4.6573
  40   0.0000       0.182820         4.9748

MULLIKEN ATOMIC CHARGES
-----------------------
   0 C :   -0.506489
   1 C :   -0.029620
   2 C :   -0.271524
   3 C :   -0.270368
   4 C :    0.302907
   5 C :   -0.480297
   6 O :   -0.444920
   7 C :    0.051527
   8 O :   -0.449627
   9 H :    0.141264
  10 H :    0.139693
  11 H :    0.137247
  12 H :    0.099272
  13 H :    0.119588
  14 H :    0.115408
  15 H :    0.108683
  16 H :    0.125531
  17 H :    0.126563
  18 H :    0.144511
  19 H :    0.131774
  20 H :    0.308341
  21 H :    0.086778
  22 H :    0.313758
Sum of atomic charges:   -0.0000000

LOEWDIN ATOMIC CHARGES
----------------------
   0 C :   -0.308198
   1 C :   -0.257868
   2 C :   -0.224179
   3 C :   -0.222360
   4 C :   -0.383875
   5 C :   -0.274891
   6 O :    0.018300
   7 C :   -0.284345
   8 O :    0.005820
   9 H :    0.122871
  10 H :    0.126864
  11 H :    0.122097
  12 H :    0.150721
  13 H :    0.132639
  14 H :    0.138604
  15 H :    0.131304
  16 H :    0.146350
  17 H :    0.123840
  18 H :    0.128178
  19 H :    0.127272
  20 H :    0.173991
  21 H :    0.134230
  22 H :    0.172636

  Mayer bond orders larger than 0.1
B(  0-C ,  1-C ) :   0.8430 B(  0-C ,  9-H ) :   0.9463 B(  0-C , 10-H ) :   0.9399
B(  0-C , 11-H ) :   0.9429 B(  1-C ,  2-C ) :   0.9065 B(  1-C ,  7-C ) :   0.9242
B(  1-C , 12-H ) :   0.9257 B(  2-C ,  3-C ) :   0.9555 B(  2-C , 13-H ) :   0.9320
B(  2-C , 14-H ) :   0.9195 B(  3-C ,  4-C ) :   0.9333 B(  3-C , 15-H ) :   0.9172
B(  3-C , 16-H ) :   0.9229 B(  4-C ,  5-C ) :   0.8970 B(  4-C ,  6-O ) :   0.9803
B(  4-C ,  7-C ) :   0.8270 B(  5-C , 17-H ) :   0.9265 B(  5-C , 18-H ) :   0.9435
B(  5-C , 19-H ) :   0.9266 B(  6-O , 20-H ) :   0.8449 B(  7-C ,  8-O ) :   1.0753
B(  7-C , 21-H ) :   0.9490 B(  8-O , 22-H ) :   0.8459

MP2 TOTAL ENERGY:     -424.749417291 Eh
FINAL SINGLE POINT ENERGY      -424.749417290850

DIPOLE MOMENT
-------------
                                X             Y             Z
Electronic contribution:      5.48493      -0.20243       2.93210
Nuclear contribution   :     -6.30223      -0.00204      -3.16684
                        -----------------------------------------
Total Dipole Moment    :     -0.81730      -0.20447      -0.23474
                        -----------------------------------------
Magnitude (a.u.)       :      0.87458
Magnitude (Debye)      :      2.22301

                             ****ORCA TERMINATED NORMALLY****
TOTAL RUN TIME: 0 days 0 hours 21 minutes 9 seconds 84 msec
