                         Program Version 3.0.3 - RELEASE   -
|  1> ! RI-MP2 RIJK def2-TZVP def2-TZVP/C def2-TZVP/JK TIGHTSCF
|  2> % maxcore 2000
|  3> % mp2 density relaxed end
|  4> *xyz 0 1
|  5>  C        0.3261262276     1.3572911814     0.1519438619
|  6>  C       -0.0258653761    -0.1048141976    -0.0343279472
|  7>  C       -1.4445001557    -0.4843317900     0.3483217814
|  8>  O       -1.6763634805    -0.2396863624     1.7223584599
|  9>  C        0.7164959874    -0.9024625140    -1.0683311346
| 10>  N        0.9391262201    -1.1316636586     0.3508747093
| 11>  C        2.1061192578    -0.8586689806     1.0721383604
| 12>  N        3.2547269672    -1.3499716573     0.4928965028
| 13>  O        2.0859130551    -0.2720402518     2.1356361437
| 14>  H        1.3722422528     1.5562608638    -0.0925966752
| 15>  H       -0.3040778322     1.9721663469    -0.4991956045
| 16>  H        0.1530225471     1.6600056461     1.1860668427
| 17>  H       -2.1685421375     0.1263396783    -0.2023945345
| 18>  H       -1.6185830764    -1.5395181502     0.0877982089
| 19>  H       -0.9405295757    -0.6360411439     2.2062700939
| 20>  H        0.2260850261    -1.7114990784    -1.6052458525
| 21>  H        1.4908887750    -0.3821487938    -1.6283373779
| 22>  H        3.1720026016    -2.0766562329    -0.1999609487
| 23>  H        4.0439149662    -1.4202893348     1.1161282502
| 24> *
| 25>
| 26>                          ****END OF INPUT****

CARTESIAN COORDINATES (ANGSTROEM)
---------------------------------
  C      0.326126    1.357291    0.151944
  C     -0.025865   -0.104814   -0.034328
  C     -1.444500   -0.484332    0.348322
  O     -1.676363   -0.239686    1.722358
  C      0.716496   -0.902463   -1.068331
  N      0.939126   -1.131664    0.350875
  C      2.106119   -0.858669    1.072138
  N      3.254727   -1.349972    0.492897
  O      2.085913   -0.272040    2.135636
  H      1.372242    1.556261   -0.092597
  H     -0.304078    1.972166   -0.499196
  H      0.153023    1.660006    1.186067
  H     -2.168542    0.126340   -0.202395
  H     -1.618583   -1.539518    0.087798
  H     -0.940530   -0.636041    2.206270
  H      0.226085   -1.711499   -1.605246
  H      1.490889   -0.382149   -1.628337
  H      3.172003   -2.076656   -0.199961
  H      4.043915   -1.420289    1.116128

 Total Charge           Charge          ....    0
 Multiplicity           Mult            ....    1
 Number of Electrons    NEL             ....   70
 Basis Dimension        Dim             ....  339

ORBITAL ENERGIES
----------------

  NO   OCC          E(Eh)            E(eV)
   0   2.0000     -20.551617      -559.2379
   1   2.0000     -20.519875      -558.3742
   2   2.0000     -15.587919      -424.1688
   3   2.0000     -15.586736      -424.1367
   4   2.0000     -11.382013      -309.7203
   5   2.0000     -11.288187      -307.1672
   6   2.0000     -11.283871      -307.0497
   7   2.0000     -11.279875      -306.9410
   8   2.0000     -11.223773      -305.4144
   9   2.0000      -1.402033       -38.1513
  10   2.0000      -1.359861       -37.0037
  11   2.0000      -1.295891       -35.2630
  12   2.0000      -1.214147       -33.0386
  13   2.0000      -1.030044       -28.0289
  14   2.0000      -0.957377       -26.0516
  15   2.0000      -0.929891       -25.3036
  16   2.0000      -0.828007       -22.5312
  17   2.0000      -0.766847       -20.8670
  18   2.0000      -0.718113       -19.5408
  19   2.0000      -0.703679       -19.1481
  20   2.0000      -0.690838       -18.7986
  21   2.0000      -0.656895       -17.8750
  22   2.0000      -0.630946       -17.1689
  23   2.0000      -0.619778       -16.8650
  24   2.0000      -0.591617       -16.0987
  25   2.0000      -0.576864       -15.6973
  26   2.0000      -0.558319       -15.1926
  27   2.0000      -0.542630       -14.7657
  28   2.0000      -0.520720       -14.1695
  29   2.0000      -0.496596       -13.5131
  30   2.0000      -0.477857       -13.0032
  31   2.0000      -0.448666       -12.2088
  32   2.0000      -0.440770       -11.9940
  33   2.0000      -0.425715       -11.5843
  34   2.0000      -0.400947       -10.9103
  35   0.0000       0.122670         3.3380
  36   0.0000       0.149510         4.0684
  37   0.0000       0.165999         4.5171
  38   0.0000       0.173236         4.7140
  39   0.0000       0.181792         4.9468

MULLIKEN ATOMIC CHARGES
-----------------------
   0 C :   -0.360338
   1 C :    0.034562
   2 C :    0.017523
   3 O :   -0.473209
   4 C :   -0.223228
   5 N :   -0.243198
   6 C :    0.342795
   7 N :   -0.504464
   8 O :   -0.366498
   9 H :    0.133960
  10 H :    0.134315
  11 H :    0.161379
  12 H :    0.105298
  13 H :    0.097105
  14 H :    0.328330
  15 H :    0.138560
  16 H :    0.148666
  17 H :    0.263307
  18 H :    0.265135
Sum of atomic charges:   -0.0000000

LOEWDIN ATOMIC CHARGES
----------------------
   0 C :   -0.259951
   1 C :   -0.301788
   2 C :   -0.304214
   3 O :   -0.035974
   4 C :   -0.207649
   5 N :    0.184233
   6 C :   -0.563489
   7 N :   -0.040620
   8 O :    0.075927
   9 H :    0.131926
  10 H :    0.132085
  11 H :    0.139336
  12 H :    0.132457
  13 H :    0.124111
  14 H :    0.182723
  15 H :    0.128476
  16 H :    0.132862
  17 H :    0.172595
  18 H :    0.176952

  Mayer bond orders larger than 0.1
B(  0-C ,  1-C ) :   0.9439 B(  0-C ,  9-H ) :   0.9252 B(  0-C , 10-H ) :   0.9287
B(  0-C , 11-H ) :   0.9263 B(  1-C ,  2-C ) :   0.9529 B(  1-C ,  4-C ) :   0.9226
B(  1-C ,  5-N ) :   0.7937 B(  2-C ,  3-O ) :   0.9396 B(  2-C , 12-H ) :   0.9295
B(  2-C , 13-H ) :   0.9057 B(  3-O , 14-H ) :   0.8306 B(  4-C ,  5-N ) :   0.8793
B(  4-C , 15-H ) :   0.9067 B(  4-C , 16-H ) :   0.9146 B(  5-N ,  6-C ) :   1.0081
B(  6-C ,  7-N ) :   1.1170 B(  6-C ,  8-O ) :   1.9598 B(  7-N , 17-H ) :   0.8646
B(  7-N , 18-H ) :   0.8662

MP2 TOTAL ENERGY:     -455.630661468 Eh
FINAL SINGLE POINT ENERGY      -455.630661467577

DIPOLE MOMENT
-------------
                                X             Y             Z
Electronic contribution:      2.19309      -2.53000       3.81064
Nuclear contribution   :     -1.46264       1.83060      -5.35225
                        -----------------------------------------
Total Dipole Moment    :      0.73045      -0.69940      -1.54161
                        -----------------------------------------
Magnitude (a.u.)       :      1.84372
Magnitude (Debye)      :      4.68635

                             ****ORCA TERMINATED NORMALLY****
TOTAL RUN TIME: 0 days 0 hours 17 minutes 8 seconds 689 msec
