                         Program Version 3.0.3 - RELEASE   -
|  1> ! RI-MP2 RIJK def2-TZVP def2-TZVP/C def2-TZVP/JK TIGHTSCF
|  2> % maxcore 2000
|  3> % mp2 density relaxed end
|  4> *xyz 0 1
|  5>  C        0.0442421063     1.4740925178     0.2792334620
|  6>  C        0.0021739753    -0.0044610067    -0.1355338650
|  7>  C       -1.3908557106    -0.5581093918    -0.1843884554
|  8>  C       -2.4662833294    -0.2586403228    -1.2463492667
|  9>  C       -2.8858239923    -1.7488949706    -1.0996748391
| 10>  O       -3.5599948555    -2.4828144673    -1.7635090058
| 11>  C       -1.8784637672    -1.9845112186     0.0022522265
| 12>  C       -1.2044341417    -3.2676048616     0.3714971518
| 13>  N       -2.1621360294    -0.9056783348     1.0205946687
| 14>  H        1.0739915365     1.8423130080     0.3016134417
| 15>  H       -0.5204039856     2.0955907043    -0.4228419673
| 16>  H       -0.3905424018     1.6174978867     1.2732222263
| 17>  H        0.4681775161    -0.1229813679    -1.1218402320
| 18>  H        0.6019577228    -0.6016404886     0.5639733402
| 19>  H       -3.2069429350     0.4971102088    -0.9773754191
| 20>  H       -2.0768839721    -0.0697340486    -2.2513435228
| 21>  H       -0.9457986796    -3.8388634811    -0.5252093654
| 22>  H       -0.2853788802    -3.0842110553     0.9387658665
| 23>  H       -1.8610195359    -3.8927073637     0.9861627119
| 24>  H       -1.4913975008    -1.0772605660     1.7735381331
| 25> *
| 26>
| 27>                          ****END OF INPUT****

CARTESIAN COORDINATES (ANGSTROEM)
---------------------------------
  C      0.044242    1.474093    0.279233
  C      0.002174   -0.004461   -0.135534
  C     -1.390856   -0.558109   -0.184388
  C     -2.466283   -0.258640   -1.246349
  C     -2.885824   -1.748895   -1.099675
  O     -3.559995   -2.482814   -1.763509
  C     -1.878464   -1.984511    0.002252
  C     -1.204434   -3.267605    0.371497
  N     -2.162136   -0.905678    1.020595
  H      1.073992    1.842313    0.301613
  H     -0.520404    2.095591   -0.422842
  H     -0.390542    1.617498    1.273222
  H      0.468178   -0.122981   -1.121840
  H      0.601958   -0.601640    0.563973
  H     -3.206943    0.497110   -0.977375
  H     -2.076884   -0.069734   -2.251344
  H     -0.945799   -3.838863   -0.525209
  H     -0.285379   -3.084211    0.938766
  H     -1.861020   -3.892707    0.986163
  H     -1.491398   -1.077261    1.773538

 Total Charge           Charge          ....    0
 Multiplicity           Mult            ....    1
 Number of Electrons    NEL             ....   68
 Basis Dimension        Dim             ....  345

ORBITAL ENERGIES
----------------

  NO   OCC          E(Eh)            E(eV)
   0   2.0000     -20.548055      -559.1410
   1   2.0000     -15.577694      -423.8906
   2   2.0000     -11.332214      -308.3652
   3   2.0000     -11.285674      -307.0988
   4   2.0000     -11.278593      -306.9061
   5   2.0000     -11.249060      -306.1025
   6   2.0000     -11.241987      -305.9100
   7   2.0000     -11.239446      -305.8409
   8   2.0000     -11.230668      -305.6020
   9   2.0000      -1.392958       -37.9043
  10   2.0000      -1.296686       -35.2846
  11   2.0000      -1.062521       -28.9127
  12   2.0000      -1.043972       -28.4079
  13   2.0000      -1.008853       -27.4523
  14   2.0000      -0.897139       -24.4124
  15   2.0000      -0.867531       -23.6067
  16   2.0000      -0.775261       -21.0959
  17   2.0000      -0.694245       -18.8914
  18   2.0000      -0.677750       -18.4425
  19   2.0000      -0.660071       -17.9614
  20   2.0000      -0.640652       -17.4330
  21   2.0000      -0.627628       -17.0786
  22   2.0000      -0.595920       -16.2158
  23   2.0000      -0.580475       -15.7955
  24   2.0000      -0.569193       -15.4885
  25   2.0000      -0.555548       -15.1172
  26   2.0000      -0.543674       -14.7941
  27   2.0000      -0.530668       -14.4402
  28   2.0000      -0.517032       -14.0691
  29   2.0000      -0.496778       -13.5180
  30   2.0000      -0.481095       -13.0912
  31   2.0000      -0.462490       -12.5850
  32   2.0000      -0.400043       -10.8857
  33   2.0000      -0.365785        -9.9535
  34   0.0000       0.117036         3.1847
  35   0.0000       0.141562         3.8521
  36   0.0000       0.144173         3.9231
  37   0.0000       0.159910         4.3514
  38   0.0000       0.176329         4.7982

MULLIKEN ATOMIC CHARGES
-----------------------
   0 C :   -0.389225
   1 C :   -0.182669
   2 C :    0.004831
   3 C :   -0.149302
   4 C :    0.083102
   5 O :   -0.257371
   6 C :    0.097162
   7 C :   -0.387618
   8 N :   -0.360114
   9 H :    0.139426
  10 H :    0.134468
  11 H :    0.134251
  12 H :    0.119962
  13 H :    0.106560
  14 H :    0.134419
  15 H :    0.124079
  16 H :    0.149814
  17 H :    0.130094
  18 H :    0.155934
  19 H :    0.212197
Sum of atomic charges:    0.0000000

LOEWDIN ATOMIC CHARGES
----------------------
   0 C :   -0.305280
   1 C :   -0.260247
   2 C :   -0.245621
   3 C :   -0.162824
   4 C :   -0.274771
   5 O :    0.160832
   6 C :   -0.221830
   7 C :   -0.272931
   8 N :    0.051108
   9 H :    0.122732
  10 H :    0.124690
  11 H :    0.124344
  12 H :    0.147585
  13 H :    0.142380
  14 H :    0.141721
  15 H :    0.146940
  16 H :    0.139191
  17 H :    0.129831
  18 H :    0.137182
  19 H :    0.174969

  Mayer bond orders larger than 0.1
B(  0-C ,  1-C ) :   0.9256 B(  0-C ,  9-H ) :   0.9391 B(  0-C , 10-H ) :   0.9359
B(  0-C , 11-H ) :   0.9363 B(  1-C ,  2-C ) :   0.9208 B(  1-C , 12-H ) :   0.9174
B(  1-C , 13-H ) :   0.9244 B(  2-C ,  3-C ) :   0.9221 B(  2-C ,  6-C ) :   0.8372
B(  2-C ,  8-N ) :   0.9743 B(  3-C ,  4-C ) :   0.9506 B(  3-C ,  6-C ) :  -0.1460
B(  3-C , 14-H ) :   0.8784 B(  3-C , 15-H ) :   0.9015 B(  4-C ,  5-O ) :   2.0468
B(  4-C ,  6-C ) :   0.8690 B(  6-C ,  7-C ) :   0.8837 B(  6-C ,  8-N ) :   0.8465
B(  7-C , 16-H ) :   0.9233 B(  7-C , 17-H ) :   0.9341 B(  7-C , 18-H ) :   0.9379
B(  8-N , 19-H ) :   0.8636

MP2 TOTAL ENERGY:     -402.439912823 Eh
FINAL SINGLE POINT ENERGY      -402.439912823311

DIPOLE MOMENT
-------------
                                X             Y             Z
Electronic contribution:     -7.99023      -4.49187      -3.11513
Nuclear contribution   :      9.46420       4.91419       3.58717
                        -----------------------------------------
Total Dipole Moment    :      1.47397       0.42233       0.47204
                        -----------------------------------------
Magnitude (a.u.)       :      1.60430
Magnitude (Debye)      :      4.07780

                             ****ORCA TERMINATED NORMALLY****
TOTAL RUN TIME: 0 days 0 hours 18 minutes 14 seconds 399 msec
