                         Program Version 3.0.3 - RELEASE   -
|  1> ! RI-MP2 RIJK def2-TZVP def2-TZVP/C def2-TZVP/JK TIGHTSCF
|  2> % maxcore 2000
|  3> % mp2 density relaxed end
|  4> *xyz 0 1
|  5>  C        0.9078431254    -0.3230848565    -1.0787212383
|  6>  C        0.0039971372     0.0984633211     0.0884121803
|  7>  C       -0.1647312784     1.6245717978     0.1135592949
|  8>  C       -1.3787123900    -0.5799965536     0.0398711770
|  9>  C       -1.4039200325    -2.1193905143     0.1015934227
| 10>  C       -0.7723459995    -2.6717467978     1.3883734386
| 11>  C       -2.8567427188    -2.6241482441    -0.0497921661
| 12>  C       -2.9309533527    -4.1161568055    -0.2743004005
| 13>  O       -3.5777014232    -4.8911627046     0.3822074621
| 14>  H        1.8674218001     0.2025921734    -1.0372428545
| 15>  H        1.1223024904    -1.3960405855    -1.0719338830
| 16>  H        0.4405842709    -0.0823013543    -2.0415891330
| 17>  H        0.4998231750    -0.1924642033     1.0239492799
| 18>  H       -0.6499900284     1.9800227613    -0.8034914109
| 19>  H       -0.7801900719     1.9454205648     0.9606472925
| 20>  H        0.8039791965     2.1288457450     0.1920703685
| 21>  H       -1.9875480522    -0.1919926819     0.8687138373
| 22>  H       -1.8854648130    -0.2597218105    -0.8819350686
| 23>  H       -0.8355635720    -2.5088851069    -0.7547659582
| 24>  H        0.2873520363    -2.4134057392     1.4638617983
| 25>  H       -1.2797003435    -2.2692588108     2.2731028391
| 26>  H       -0.8491709066    -3.7628042415     1.4356281935
| 27>  H       -3.4645230306    -2.3683347174     0.8243381687
| 28>  H       -3.3100320978    -2.1458221063    -0.9305272947
| 29>  H       -2.3148787806    -4.4744319594    -1.1347408955
| 30> *
| 31>
| 32>                          ****END OF INPUT****

CARTESIAN COORDINATES (ANGSTROEM)
---------------------------------
  C      0.907843   -0.323085   -1.078721
  C      0.003997    0.098463    0.088412
  C     -0.164731    1.624572    0.113559
  C     -1.378712   -0.579997    0.039871
  C     -1.403920   -2.119391    0.101593
  C     -0.772346   -2.671747    1.388373
  C     -2.856743   -2.624148   -0.049792
  C     -2.930953   -4.116157   -0.274300
  O     -3.577701   -4.891163    0.382207
  H      1.867422    0.202592   -1.037243
  H      1.122302   -1.396041   -1.071934
  H      0.440584   -0.082301   -2.041589
  H      0.499823   -0.192464    1.023949
  H     -0.649990    1.980023   -0.803491
  H     -0.780190    1.945421    0.960647
  H      0.803979    2.128846    0.192070
  H     -1.987548   -0.191993    0.868714
  H     -1.885465   -0.259722   -0.881935
  H     -0.835564   -2.508885   -0.754766
  H      0.287352   -2.413406    1.463862
  H     -1.279700   -2.269259    2.273103
  H     -0.849171   -3.762804    1.435628
  H     -3.464523   -2.368335    0.824338
  H     -3.310032   -2.145822   -0.930527
  H     -2.314879   -4.474432   -1.134741

 Total Charge           Charge          ....    0
 Multiplicity           Mult            ....    1
 Number of Electrons    NEL             ....   72
 Basis Dimension        Dim             ....  375

ORBITAL ENERGIES
----------------

  NO   OCC          E(Eh)            E(eV)
   0   2.0000     -20.554040      -559.3039
   1   2.0000     -11.328987      -308.2774
   2   2.0000     -11.244341      -305.9741
   3   2.0000     -11.237518      -305.7884
   4   2.0000     -11.232591      -305.6543
   5   2.0000     -11.226454      -305.4873
   6   2.0000     -11.221020      -305.3395
   7   2.0000     -11.217675      -305.2485
   8   2.0000     -11.216310      -305.2113
   9   2.0000      -1.392797       -37.8999
  10   2.0000      -1.118487       -30.4356
  11   2.0000      -1.067235       -29.0409
  12   2.0000      -0.974524       -26.5181
  13   2.0000      -0.936189       -25.4750
  14   2.0000      -0.930685       -25.3252
  15   2.0000      -0.824347       -22.4316
  16   2.0000      -0.785324       -21.3698
  17   2.0000      -0.760584       -20.6965
  18   2.0000      -0.665076       -18.0976
  19   2.0000      -0.658332       -17.9141
  20   2.0000      -0.632634       -17.2148
  21   2.0000      -0.625937       -17.0326
  22   2.0000      -0.595940       -16.2164
  23   2.0000      -0.590123       -16.0581
  24   2.0000      -0.568334       -15.4652
  25   2.0000      -0.553581       -15.0637
  26   2.0000      -0.539745       -14.6872
  27   2.0000      -0.530194       -14.4273
  28   2.0000      -0.521310       -14.1856
  29   2.0000      -0.503019       -13.6878
  30   2.0000      -0.491270       -13.3681
  31   2.0000      -0.482722       -13.1355
  32   2.0000      -0.465920       -12.6783
  33   2.0000      -0.459488       -12.5033
  34   2.0000      -0.454192       -12.3592
  35   2.0000      -0.411885       -11.2080
  36   0.0000       0.125057         3.4030
  37   0.0000       0.138483         3.7683
  38   0.0000       0.148183         4.0323
  39   0.0000       0.156122         4.2483
  40   0.0000       0.158337         4.3086

MULLIKEN ATOMIC CHARGES
-----------------------
   0 C :   -0.420512
   1 C :   -0.018492
   2 C :   -0.393391
   3 C :   -0.252213
   4 C :   -0.101466
   5 C :   -0.430699
   6 C :   -0.124579
   7 C :    0.076905
   8 O :   -0.262249
   9 H :    0.134588
  10 H :    0.132914
  11 H :    0.122733
  12 H :    0.093969
  13 H :    0.121518
  14 H :    0.129811
  15 H :    0.132563
  16 H :    0.117507
  17 H :    0.111118
  18 H :    0.099183
  19 H :    0.138923
  20 H :    0.129536
  21 H :    0.145782
  22 H :    0.118369
  23 H :    0.129185
  24 H :    0.068999
Sum of atomic charges:   -0.0000000

LOEWDIN ATOMIC CHARGES
----------------------
   0 C :   -0.296251
   1 C :   -0.308979
   2 C :   -0.295402
   3 C :   -0.229607
   4 C :   -0.280142
   5 C :   -0.287848
   6 C :   -0.242154
   7 C :   -0.300659
   8 O :    0.129828
   9 H :    0.124206
  10 H :    0.120276
  11 H :    0.123908
  12 H :    0.149259
  13 H :    0.122926
  14 H :    0.122332
  15 H :    0.122566
  16 H :    0.144036
  17 H :    0.142096
  18 H :    0.151623
  19 H :    0.123166
  20 H :    0.127619
  21 H :    0.127319
  22 H :    0.147331
  23 H :    0.153771
  24 H :    0.108780

  Mayer bond orders larger than 0.1
B(  0-C ,  1-C ) :   0.9078 B(  0-C ,  9-H ) :   0.9385 B(  0-C , 10-H ) :   0.9389
B(  0-C , 11-H ) :   0.9316 B(  1-C ,  2-C ) :   0.9174 B(  1-C ,  3-C ) :   0.9191
B(  1-C , 12-H ) :   0.9325 B(  2-C , 13-H ) :   0.9338 B(  2-C , 14-H ) :   0.9398
B(  2-C , 15-H ) :   0.9424 B(  3-C ,  4-C ) :   0.9115 B(  3-C , 16-H ) :   0.9260
B(  3-C , 17-H ) :   0.9300 B(  4-C ,  5-C ) :   0.9136 B(  4-C ,  6-C ) :   0.8948
B(  4-C , 18-H ) :   0.9358 B(  5-C , 19-H ) :   0.9398 B(  5-C , 20-H ) :   0.9285
B(  5-C , 21-H ) :   0.9340 B(  6-C ,  7-C ) :   0.8705 B(  6-C , 22-H ) :   0.8977
B(  6-C , 23-H ) :   0.9160 B(  7-C ,  8-O ) :   2.0102 B(  7-C , 24-H ) :   0.9419

MP2 TOTAL ENERGY:     -388.835872408 Eh
FINAL SINGLE POINT ENERGY      -388.835872408287

DIPOLE MOMENT
-------------
                                X             Y             Z
Electronic contribution:     -8.00856     -10.33219       0.47587
Nuclear contribution   :      8.63819      11.21173      -0.85744
                        -----------------------------------------
Total Dipole Moment    :      0.62963       0.87955      -0.38157
                        -----------------------------------------
Magnitude (a.u.)       :      1.14701
Magnitude (Debye)      :      2.91547

                             ****ORCA TERMINATED NORMALLY****
TOTAL RUN TIME: 0 days 0 hours 23 minutes 17 seconds 487 msec
