                         Program Version 3.0.3 - RELEASE   -
|  1> ! RI-MP2 RIJK def2-TZVP def2-TZVP/C def2-TZVP/JK TIGHTSCF
|  2> % maxcore 2000
|  3> % mp2 density relaxed end
|  4> *xyz 0 1
|  5>  C        0.1629144677     0.7795983438     1.2870847576
|  6>  C       -0.0308077703    -0.0629527407     0.0372031427
|  7>  C        0.7013508260     0.3509683270    -1.1921630630
|  8>  N        1.1015296379    -0.8600458506    -0.4601470496
|  9>  C       -1.3663841092    -0.7648782114    -0.0417319306
| 10>  C       -2.5602962839    -0.0057184662    -0.5466018294
| 11>  N       -2.0164915043    -1.1097351131    -1.3224105121
| 12>  C       -1.6401689284    -1.8184519858     0.9905697715
| 13>  O       -0.9732042473    -2.0258294381     1.9721485273
| 14>  H        1.1399721539     1.2735796911     1.2685333574
| 15>  H       -0.6044283490     1.5580882230     1.3593357562
| 16>  H        0.1023303609     0.1539675565     2.1797357876
| 17>  H        0.3135118041     0.1742694157    -2.1925808287
| 18>  H        1.3149580462     1.2456817619    -1.1173107591
| 19>  H        1.9305192393    -0.6850501440     0.1022983082
| 20>  H       -3.5449390197    -0.1764100971    -0.1188959179
| 21>  H       -2.3699023071     1.0163806194    -0.8654160101
| 22>  H       -1.4581572624    -0.7742291487    -2.1011681769
| 23>  H       -2.5487908545    -2.4162552825     0.7578749888
| 24> *
| 25>
| 26>                          ****END OF INPUT****

CARTESIAN COORDINATES (ANGSTROEM)
---------------------------------
  C      0.162914    0.779598    1.287085
  C     -0.030808   -0.062953    0.037203
  C      0.701351    0.350968   -1.192163
  N      1.101530   -0.860046   -0.460147
  C     -1.366384   -0.764878   -0.041732
  C     -2.560296   -0.005718   -0.546602
  N     -2.016492   -1.109735   -1.322411
  C     -1.640169   -1.818452    0.990570
  O     -0.973204   -2.025829    1.972149
  H      1.139972    1.273580    1.268533
  H     -0.604428    1.558088    1.359336
  H      0.102330    0.153968    2.179736
  H      0.313512    0.174269   -2.192581
  H      1.314958    1.245682   -1.117311
  H      1.930519   -0.685050    0.102298
  H     -3.544939   -0.176410   -0.118896
  H     -2.369902    1.016381   -0.865416
  H     -1.458157   -0.774229   -2.101168
  H     -2.548791   -2.416255    0.757875

 Total Charge           Charge          ....    0
 Multiplicity           Mult            ....    1
 Number of Electrons    NEL             ....   68
 Basis Dimension        Dim             ....  339

ORBITAL ENERGIES
----------------

  NO   OCC          E(Eh)            E(eV)
   0   2.0000     -20.554575      -559.3184
   1   2.0000     -15.580806      -423.9753
   2   2.0000     -15.564797      -423.5397
   3   2.0000     -11.331005      -308.3323
   4   2.0000     -11.285352      -307.0901
   5   2.0000     -11.284409      -307.0644
   6   2.0000     -11.280083      -306.9467
   7   2.0000     -11.267966      -306.6169
   8   2.0000     -11.227681      -305.5207
   9   2.0000      -1.395791       -37.9814
  10   2.0000      -1.298944       -35.3461
  11   2.0000      -1.263597       -34.3842
  12   2.0000      -1.014441       -27.6044
  13   2.0000      -0.950085       -25.8531
  14   2.0000      -0.899926       -24.4882
  15   2.0000      -0.892654       -24.2903
  16   2.0000      -0.840912       -22.8824
  17   2.0000      -0.746239       -20.3062
  18   2.0000      -0.713673       -19.4200
  19   2.0000      -0.678615       -18.4661
  20   2.0000      -0.676673       -18.4132
  21   2.0000      -0.641377       -17.4528
  22   2.0000      -0.608213       -16.5503
  23   2.0000      -0.580827       -15.8051
  24   2.0000      -0.570401       -15.5214
  25   2.0000      -0.550501       -14.9799
  26   2.0000      -0.541574       -14.7370
  27   2.0000      -0.506031       -13.7698
  28   2.0000      -0.491171       -13.3654
  29   2.0000      -0.480698       -13.0805
  30   2.0000      -0.461990       -12.5714
  31   2.0000      -0.433080       -11.7847
  32   2.0000      -0.411596       -11.2001
  33   2.0000      -0.387943       -10.5565
  34   0.0000       0.126174         3.4334
  35   0.0000       0.134917         3.6713
  36   0.0000       0.144095         3.9210
  37   0.0000       0.160557         4.3690
  38   0.0000       0.178768         4.8645

MULLIKEN ATOMIC CHARGES
-----------------------
   0 C :   -0.403018
   1 C :    0.096710
   2 C :   -0.219900
   3 N :   -0.364930
   4 C :    0.195828
   5 C :   -0.195206
   6 N :   -0.351099
   7 C :    0.041850
   8 O :   -0.278483
   9 H :    0.119507
  10 H :    0.129951
  11 H :    0.178750
  12 H :    0.104105
  13 H :    0.131768
  14 H :    0.221092
  15 H :    0.135333
  16 H :    0.139221
  17 H :    0.216821
  18 H :    0.101700
Sum of atomic charges:   -0.0000000

LOEWDIN ATOMIC CHARGES
----------------------
   0 C :   -0.263795
   1 C :   -0.298886
   2 C :   -0.250070
   3 N :    0.022793
   4 C :   -0.262171
   5 C :   -0.231223
   6 N :    0.036847
   7 C :   -0.250746
   8 O :    0.138986
   9 H :    0.126535
  10 H :    0.129963
  11 H :    0.136443
  12 H :    0.118582
  13 H :    0.124094
  14 H :    0.168927
  15 H :    0.129425
  16 H :    0.130380
  17 H :    0.168438
  18 H :    0.125477

  Mayer bond orders larger than 0.1
B(  0-C ,  1-C ) :   0.9178 B(  0-C ,  9-H ) :   0.9168 B(  0-C , 10-H ) :   0.9261
B(  0-C , 11-H ) :   0.9371 B(  1-C ,  2-C ) :   0.9297 B(  1-C ,  3-N ) :   0.8639
B(  1-C ,  4-C ) :   0.9052 B(  2-C ,  3-N ) :   0.9609 B(  2-C , 12-H ) :   0.9063
B(  2-C , 13-H ) :   0.9199 B(  3-N , 14-H ) :   0.8683 B(  4-C ,  5-C ) :   0.8927
B(  4-C ,  6-N ) :   0.8754 B(  4-C ,  7-C ) :   0.8350 B(  5-C ,  6-N ) :   0.9245
B(  5-C , 15-H ) :   0.9136 B(  5-C , 16-H ) :   0.9074 B(  6-N , 17-H ) :   0.8748
B(  7-C ,  8-O ) :   1.9896 B(  7-C , 18-H ) :   0.9573

MP2 TOTAL ENERGY:     -418.455550224 Eh
FINAL SINGLE POINT ENERGY      -418.455550224225

DIPOLE MOMENT
-------------
                                X             Y             Z
Electronic contribution:     -1.41170      -5.48914       1.10104
Nuclear contribution   :      1.39609       6.97850      -1.57814
                        -----------------------------------------
Total Dipole Moment    :     -0.01561       1.48937      -0.47711
                        -----------------------------------------
Magnitude (a.u.)       :      1.56400
Magnitude (Debye)      :      3.97536

                             ****ORCA TERMINATED NORMALLY****
TOTAL RUN TIME: 0 days 0 hours 18 minutes 2 seconds 35 msec
