                         Program Version 3.0.3 - RELEASE   -
|  1> ! RI-MP2 RIJK def2-TZVP def2-TZVP/C def2-TZVP/JK TIGHTSCF
|  2> % maxcore 2000
|  3> % mp2 density relaxed end
|  4> *xyz 0 1
|  5>  O        0.0467199009     1.2852158555     0.1129390284
|  6>  C       -0.0510630491    -0.1370202130     0.0669277727
|  7>  C        0.7040624507    -0.6903026131    -1.1742443271
|  8>  C        2.1242184835    -0.9885143309    -0.6274242748
|  9>  O        2.1254042463    -0.5675748428     0.7418753508
| 10>  C        0.7911952864    -0.7389333276     1.2014929257
| 11>  C       -1.5192639313    -0.4993268080     0.1188655553
| 12>  C       -2.4652909462     0.2817294319     0.9523666546
| 13>  N       -2.5192625105     0.3655545715    -0.5196299478
| 14>  H        0.9727957772     1.4930147798     0.2847972410
| 15>  H        0.2262033951    -1.5971395598    -1.5535778341
| 16>  H        0.6988955670     0.0537456053    -1.9725883501
| 17>  H        2.3529582628    -2.0621601847    -0.6869438081
| 18>  H        2.9199991857    -0.4422190825    -1.1398255155
| 19>  H        0.6755932292    -0.2017983709     2.1450277283
| 20>  H        0.5522457157    -1.8041885648     1.3555442014
| 21>  H       -1.7045434862    -1.5628478863    -0.0197786462
| 22>  H       -3.3131032646    -0.2141764616     1.4164241897
| 23>  H       -2.0666028509     1.1327838205     1.4948082429
| 24>  H       -2.0541206318     1.2260018714    -0.8027672672
| 25> *
| 26>
| 27>                          ****END OF INPUT****

CARTESIAN COORDINATES (ANGSTROEM)
---------------------------------
  O      0.046720    1.285216    0.112939
  C     -0.051063   -0.137020    0.066928
  C      0.704062   -0.690303   -1.174244
  C      2.124218   -0.988514   -0.627424
  O      2.125404   -0.567575    0.741875
  C      0.791195   -0.738933    1.201493
  C     -1.519264   -0.499327    0.118866
  C     -2.465291    0.281729    0.952367
  N     -2.519263    0.365555   -0.519630
  H      0.972796    1.493015    0.284797
  H      0.226203   -1.597140   -1.553578
  H      0.698896    0.053746   -1.972588
  H      2.352958   -2.062160   -0.686944
  H      2.919999   -0.442219   -1.139826
  H      0.675593   -0.201798    2.145028
  H      0.552246   -1.804189    1.355544
  H     -1.704543   -1.562848   -0.019779
  H     -3.313103   -0.214176    1.416424
  H     -2.066603    1.132784    1.494808
  H     -2.054121    1.226002   -0.802767

 Total Charge           Charge          ....    0
 Multiplicity           Mult            ....    1
 Number of Electrons    NEL             ....   70
 Basis Dimension        Dim             ....  345

ORBITAL ENERGIES
----------------

  NO   OCC          E(Eh)            E(eV)
   0   2.0000     -20.567490      -559.6698
   1   2.0000     -20.565671      -559.6204
   2   2.0000     -15.551220      -423.1702
   3   2.0000     -11.299121      -307.4647
   4   2.0000     -11.285166      -307.0850
   5   2.0000     -11.283034      -307.0270
   6   2.0000     -11.259968      -306.3993
   7   2.0000     -11.248668      -306.0918
   8   2.0000     -11.233029      -305.6663
   9   2.0000      -1.402284       -38.1581
  10   2.0000      -1.366388       -37.1813
  11   2.0000      -1.254321       -34.1318
  12   2.0000      -1.058158       -28.7939
  13   2.0000      -1.005086       -27.3498
  14   2.0000      -0.894435       -24.3388
  15   2.0000      -0.864317       -23.5193
  16   2.0000      -0.830943       -22.6111
  17   2.0000      -0.785769       -21.3819
  18   2.0000      -0.727233       -19.7890
  19   2.0000      -0.693946       -18.8832
  20   2.0000      -0.668793       -18.1988
  21   2.0000      -0.641020       -17.4430
  22   2.0000      -0.625866       -17.0307
  23   2.0000      -0.612168       -16.6580
  24   2.0000      -0.594134       -16.1672
  25   2.0000      -0.553954       -15.0739
  26   2.0000      -0.541201       -14.7268
  27   2.0000      -0.516372       -14.0512
  28   2.0000      -0.502132       -13.6637
  29   2.0000      -0.498461       -13.5638
  30   2.0000      -0.489593       -13.3225
  31   2.0000      -0.463235       -12.6053
  32   2.0000      -0.449569       -12.2334
  33   2.0000      -0.423668       -11.5286
  34   2.0000      -0.381336       -10.3767
  35   0.0000       0.129267         3.5175
  36   0.0000       0.155696         4.2367
  37   0.0000       0.167056         4.5458
  38   0.0000       0.174627         4.7518
  39   0.0000       0.184150         5.0110

MULLIKEN ATOMIC CHARGES
-----------------------
   0 O :   -0.484839
   1 C :    0.144079
   2 C :   -0.285718
   3 C :   -0.043228
   4 O :   -0.324710
   5 C :   -0.090264
   6 C :   -0.032871
   7 C :   -0.183114
   8 N :   -0.371203
   9 H :    0.330258
  10 H :    0.129796
  11 H :    0.132539
  12 H :    0.095490
  13 H :    0.123485
  14 H :    0.135813
  15 H :    0.097568
  16 H :    0.127413
  17 H :    0.121033
  18 H :    0.141332
  19 H :    0.237141
Sum of atomic charges:    0.0000000

LOEWDIN ATOMIC CHARGES
----------------------
   0 O :    0.010144
   1 C :   -0.370989
   2 C :   -0.218109
   3 C :   -0.297484
   4 O :    0.136283
   5 C :   -0.276547
   6 C :   -0.253409
   7 C :   -0.261270
   8 N :   -0.010973
   9 H :    0.183329
  10 H :    0.142392
  11 H :    0.142279
  12 H :    0.120543
  13 H :    0.125168
  14 H :    0.134000
  15 H :    0.128042
  16 H :    0.146857
  17 H :    0.122567
  18 H :    0.126204
  19 H :    0.170971

  Mayer bond orders larger than 0.1
B(  0-O ,  1-C ) :   0.9500 B(  0-O ,  9-H ) :   0.8268 B(  1-C ,  2-C ) :   0.8972
B(  1-C ,  5-C ) :   0.9554 B(  1-C ,  6-C ) :   0.8928 B(  2-C ,  3-C ) :   0.9429
B(  2-C , 10-H ) :   0.9131 B(  2-C , 11-H ) :   0.9290 B(  3-C ,  4-O ) :   0.9228
B(  3-C , 12-H ) :   0.9297 B(  3-C , 13-H ) :   0.9256 B(  4-O ,  5-C ) :   0.9041
B(  5-C , 14-H ) :   0.9240 B(  5-C , 15-H ) :   0.9222 B(  6-C ,  7-C ) :   0.9561
B(  6-C ,  8-N ) :   0.9584 B(  6-C , 16-H ) :   0.9059 B(  7-C ,  8-N ) :   0.9170
B(  7-C , 17-H ) :   0.9230 B(  7-C , 18-H ) :   0.9117 B(  8-N , 19-H ) :   0.8725

MP2 TOTAL ENERGY:     -439.545406163 Eh
FINAL SINGLE POINT ENERGY      -439.545406163252

DIPOLE MOMENT
-------------
                                X             Y             Z
Electronic contribution:      0.76093       1.74717       0.66009
Nuclear contribution   :     -0.17226      -2.06016      -0.57441
                        -----------------------------------------
Total Dipole Moment    :      0.58867      -0.31298       0.08569
                        -----------------------------------------
Magnitude (a.u.)       :      0.67218
Magnitude (Debye)      :      1.70856

                             ****ORCA TERMINATED NORMALLY****
TOTAL RUN TIME: 0 days 0 hours 16 minutes 58 seconds 566 msec
