                         Program Version 3.0.3 - RELEASE   -
|  1> ! RI-MP2 RIJK def2-TZVP def2-TZVP/C def2-TZVP/JK TIGHTSCF
|  2> % maxcore 2000
|  3> % mp2 density relaxed end
|  4> *xyz 0 1
|  5>  O       -0.0684251250     1.3111439396     0.0112563197
|  6>  C       -0.0006071227    -0.0334638085     0.0030753454
|  7>  N        1.1345127315    -0.6244143359    -0.0077166364
|  8>  N        1.1267144551    -1.9897818581    -0.0156994760
|  9>  C        0.0165390376    -2.8098971171    -0.0124915533
| 10>  O        0.0808750108    -4.0191032685    -0.0197988235
| 11>  N       -1.1718968556    -2.0977466866    -0.0010567913
| 12>  C       -1.3116837939    -0.7160330415     0.0075747803
| 13>  N       -2.4647339049    -0.1775946210     0.0179858936
| 14>  H        0.8375259893     1.6496742973     0.0072971012
| 15>  H        2.0305397224    -2.4325084612    -0.0235914658
| 16>  H       -2.0199448215    -2.6475165628     0.0013725125
| 17>  H       -2.3743139531     0.8369106942     0.0231458137
| 18> *
| 19>
| 20>                          ****END OF INPUT****

CARTESIAN COORDINATES (ANGSTROEM)
---------------------------------
  O     -0.068425    1.311144    0.011256
  C     -0.000607   -0.033464    0.003075
  N      1.134513   -0.624414   -0.007717
  N      1.126714   -1.989782   -0.015699
  C      0.016539   -2.809897   -0.012492
  O      0.080875   -4.019103   -0.019799
  N     -1.171897   -2.097747   -0.001057
  C     -1.311684   -0.716033    0.007575
  N     -2.464734   -0.177595    0.017986
  H      0.837526    1.649674    0.007297
  H      2.030540   -2.432508   -0.023591
  H     -2.019945   -2.647517    0.001373
  H     -2.374314    0.836911    0.023146

 Total Charge           Charge          ....    0
 Multiplicity           Mult            ....    1
 Number of Electrons    NEL             ....   66
 Basis Dimension        Dim             ....  303

ORBITAL ENERGIES
----------------

  NO   OCC          E(Eh)            E(eV)
   0   2.0000     -20.633152      -561.4566
   1   2.0000     -20.536233      -558.8193
   2   2.0000     -15.645246      -425.7288
   3   2.0000     -15.644455      -425.7073
   4   2.0000     -15.628013      -425.2598
   5   2.0000     -15.566290      -423.5803
   6   2.0000     -11.410046      -310.4831
   7   2.0000     -11.380147      -309.6695
   8   2.0000     -11.363046      -309.2042
   9   2.0000      -1.471448       -40.0401
  10   2.0000      -1.431245       -38.9461
  11   2.0000      -1.358301       -36.9612
  12   2.0000      -1.302840       -35.4521
  13   2.0000      -1.201770       -32.7018
  14   2.0000      -1.145041       -31.1582
  15   2.0000      -0.957993       -26.0683
  16   2.0000      -0.908139       -24.7117
  17   2.0000      -0.835524       -22.7358
  18   2.0000      -0.808698       -22.0058
  19   2.0000      -0.716213       -19.4892
  20   2.0000      -0.696378       -18.9494
  21   2.0000      -0.687878       -18.7181
  22   2.0000      -0.684461       -18.6251
  23   2.0000      -0.647639       -17.6232
  24   2.0000      -0.626860       -17.0577
  25   2.0000      -0.618460       -16.8291
  26   2.0000      -0.555354       -15.1120
  27   2.0000      -0.546267       -14.8647
  28   2.0000      -0.523509       -14.2454
  29   2.0000      -0.465774       -12.6743
  30   2.0000      -0.455965       -12.4074
  31   2.0000      -0.409386       -11.1400
  32   2.0000      -0.366448        -9.9716
  33   0.0000       0.079615         2.1664
  34   0.0000       0.125884         3.4255
  35   0.0000       0.139678         3.8008
  36   0.0000       0.160326         4.3627
  37   0.0000       0.176280         4.7968

MULLIKEN ATOMIC CHARGES
-----------------------
   0 O :   -0.421101
   1 C :    0.191499
   2 N :   -0.147884
   3 N :   -0.206174
   4 C :    0.306910
   5 O :   -0.349225
   6 N :   -0.269449
   7 C :    0.104631
   8 N :   -0.341993
   9 H :    0.347913
  10 H :    0.273187
  11 H :    0.269354
  12 H :    0.242332
Sum of atomic charges:    0.0000000

LOEWDIN ATOMIC CHARGES
----------------------
   0 O :    0.094756
   1 C :   -0.385447
   2 N :    0.066670
   3 N :    0.085719
   4 C :   -0.534000
   5 O :    0.079291
   6 N :    0.191685
   7 C :   -0.348961
   8 N :   -0.040161
   9 H :    0.205352
  10 H :    0.197516
  11 H :    0.213179
  12 H :    0.174401

  Mayer bond orders larger than 0.1
B(  0-O ,  1-C ) :   1.1193 B(  0-O ,  9-H ) :   0.8096 B(  1-C ,  2-N ) :   1.7351
B(  1-C ,  7-C ) :   0.9759 B(  2-N ,  3-N ) :   0.9139 B(  3-N ,  4-C ) :   1.1007
B(  3-N , 10-H ) :   0.8660 B(  4-C ,  5-O ) :   1.9899 B(  4-C ,  6-N ) :   1.0734
B(  6-N ,  7-C ) :   1.0755 B(  6-N , 11-H ) :   0.8466 B(  7-C ,  8-N ) :   1.9563
B(  8-N , 12-H ) :   0.8579

MP2 TOTAL ENERGY:     -485.345706794 Eh
FINAL SINGLE POINT ENERGY      -485.345706794484

DIPOLE MOMENT
-------------
                                X             Y             Z
Electronic contribution:      1.20304      -1.10251      -0.01376
Nuclear contribution   :     -0.36504       2.16813       0.01472
                        -----------------------------------------
Total Dipole Moment    :      0.83800       1.06562       0.00096
                        -----------------------------------------
Magnitude (a.u.)       :      1.35565
Magnitude (Debye)      :      3.44579

                             ****ORCA TERMINATED NORMALLY****
TOTAL RUN TIME: 0 days 0 hours 13 minutes 57 seconds 859 msec
