                         Program Version 3.0.3 - RELEASE   -
|  1> ! RI-MP2 RIJK def2-TZVP def2-TZVP/C def2-TZVP/JK TIGHTSCF
|  2> % maxcore 2000
|  3> % mp2 density relaxed end
|  4> *xyz 0 1
|  5>  C       -0.2224466284     1.4804956924     1.0330911106
|  6>  O       -0.1497752739     0.0945903905     1.2877398852
|  7>  C        0.6460430678    -0.6015194977     0.3571878819
|  8>  C        0.5900689407    -2.0858321111     0.6764713671
|  9>  C        1.3459058567    -2.9762950202    -0.3058917388
| 10>  C        0.8878617237    -2.8233481880    -1.6884358060
| 11>  N        0.5288098902    -2.6794306031    -2.7773463805
| 12>  C        0.4846960944    -2.5192959222     2.0903399412
| 13>  N       -0.6651213361    -2.6534275496     1.1709605967
| 14>  H       -0.6466516854     1.6871096883     0.0393690291
| 15>  H       -0.8711485542     1.9163626173     1.7959123935
| 16>  H        0.7686903108     1.9547216268     1.0926376985
| 17>  H        0.2783454774    -0.4294402287    -0.6678933409
| 18>  H        1.6913030569    -0.2476883808     0.3931878567
| 19>  H        2.4206996898    -2.7596507890    -0.2712076745
| 20>  H        1.2108457376    -4.0197595124    -0.0074668530
| 21>  H        0.9314053582    -3.4580432390     2.4075486696
| 22>  H        0.4467847718    -1.7419248600     2.8459941996
| 23>  H       -1.3127311880    -1.8886209034     1.3505709640
| 24> *
| 25>
| 26>                          ****END OF INPUT****

CARTESIAN COORDINATES (ANGSTROEM)
---------------------------------
  C     -0.222447    1.480496    1.033091
  O     -0.149775    0.094590    1.287740
  C      0.646043   -0.601519    0.357188
  C      0.590069   -2.085832    0.676471
  C      1.345906   -2.976295   -0.305892
  C      0.887862   -2.823348   -1.688436
  N      0.528810   -2.679431   -2.777346
  C      0.484696   -2.519296    2.090340
  N     -0.665121   -2.653428    1.170961
  H     -0.646652    1.687110    0.039369
  H     -0.871149    1.916363    1.795912
  H      0.768690    1.954722    1.092638
  H      0.278345   -0.429440   -0.667893
  H      1.691303   -0.247688    0.393188
  H      2.420700   -2.759651   -0.271208
  H      1.210846   -4.019760   -0.007467
  H      0.931405   -3.458043    2.407549
  H      0.446785   -1.741925    2.845994
  H     -1.312731   -1.888621    1.350571

 Total Charge           Charge          ....    0
 Multiplicity           Mult            ....    1
 Number of Electrons    NEL             ....   68
 Basis Dimension        Dim             ....  339

ORBITAL ENERGIES
----------------

  NO   OCC          E(Eh)            E(eV)
   0   2.0000     -20.578420      -559.9673
   1   2.0000     -15.568059      -423.6284
   2   2.0000     -15.565292      -423.5531
   3   2.0000     -11.298848      -307.4573
   4   2.0000     -11.290037      -307.2175
   5   2.0000     -11.287606      -307.1514
   6   2.0000     -11.285749      -307.1009
   7   2.0000     -11.273020      -306.7545
   8   2.0000     -11.264463      -306.5216
   9   2.0000      -1.401663       -38.1412
  10   2.0000      -1.279007       -34.8036
  11   2.0000      -1.217182       -33.1212
  12   2.0000      -1.065045       -28.9813
  13   2.0000      -0.998487       -27.1702
  14   2.0000      -0.910386       -24.7729
  15   2.0000      -0.894353       -24.3366
  16   2.0000      -0.795130       -21.6366
  17   2.0000      -0.724503       -19.7147
  18   2.0000      -0.695442       -18.9239
  19   2.0000      -0.684806       -18.6345
  20   2.0000      -0.678338       -18.4585
  21   2.0000      -0.633270       -17.2321
  22   2.0000      -0.619082       -16.8461
  23   2.0000      -0.604802       -16.4575
  24   2.0000      -0.576690       -15.6925
  25   2.0000      -0.555967       -15.1286
  26   2.0000      -0.534499       -14.5445
  27   2.0000      -0.511652       -13.9228
  28   2.0000      -0.488943       -13.3048
  29   2.0000      -0.480177       -13.0663
  30   2.0000      -0.460826       -12.5397
  31   2.0000      -0.456277       -12.4159
  32   2.0000      -0.440293       -11.9810
  33   2.0000      -0.401307       -10.9201
  34   0.0000       0.125175         3.4062
  35   0.0000       0.139847         3.8054
  36   0.0000       0.161576         4.3967
  37   0.0000       0.167487         4.5575
  38   0.0000       0.172400         4.6912

MULLIKEN ATOMIC CHARGES
-----------------------
   0 C :   -0.224494
   1 O :   -0.320185
   2 C :   -0.071482
   3 C :    0.143097
   4 C :   -0.135600
   5 C :   -0.204068
   6 N :   -0.057744
   7 C :   -0.192429
   8 N :   -0.388608
   9 H :    0.123549
  10 H :    0.143514
  11 H :    0.117816
  12 H :    0.135269
  13 H :    0.100656
  14 H :    0.161105
  15 H :    0.165689
  16 H :    0.122055
  17 H :    0.147224
  18 H :    0.234636
Sum of atomic charges:    0.0000000

LOEWDIN ATOMIC CHARGES
----------------------
   0 C :   -0.350703
   1 O :    0.136652
   2 C :   -0.287946
   3 C :   -0.313750
   4 C :   -0.200934
   5 C :   -0.187347
   6 N :    0.057360
   7 C :   -0.236424
   8 N :    0.017995
   9 H :    0.106282
  10 H :    0.115502
  11 H :    0.104654
  12 H :    0.136357
  13 H :    0.129912
  14 H :    0.168302
  15 H :    0.175928
  16 H :    0.125598
  17 H :    0.129688
  18 H :    0.172874

  Mayer bond orders larger than 0.1
B(  0-C ,  1-O ) :   0.9084 B(  0-C ,  9-H ) :   0.9360 B(  0-C , 10-H ) :   0.9379
B(  0-C , 11-H ) :   0.9368 B(  1-O ,  2-C ) :   0.9209 B(  2-C ,  3-C ) :   0.9422
B(  2-C , 12-H ) :   0.9196 B(  2-C , 13-H ) :   0.9125 B(  3-C ,  4-C ) :   0.8680
B(  3-C ,  7-C ) :   0.9438 B(  3-C ,  8-N ) :   0.9214 B(  4-C ,  5-C ) :   0.9419
B(  4-C , 14-H ) :   0.9189 B(  4-C , 15-H ) :   0.8962 B(  5-C ,  6-N ) :   2.8646
B(  7-C ,  8-N ) :   0.9162 B(  7-C , 16-H ) :   0.9135 B(  7-C , 17-H ) :   0.9063
B(  8-N , 18-H ) :   0.8678

MP2 TOTAL ENERGY:     -418.478430757 Eh
FINAL SINGLE POINT ENERGY      -418.478430756828

DIPOLE MOMENT
-------------
                                X             Y             Z
Electronic contribution:     -0.42478      -5.31519      -4.61695
Nuclear contribution   :      1.21931       6.20526       5.96333
                        -----------------------------------------
Total Dipole Moment    :      0.79452       0.89006       1.34638
                        -----------------------------------------
Magnitude (a.u.)       :      1.79895
Magnitude (Debye)      :      4.57257

                             ****ORCA TERMINATED NORMALLY****
TOTAL RUN TIME: 0 days 0 hours 17 minutes 7 seconds 776 msec
