                         Program Version 3.0.3 - RELEASE   -
|  1> ! RI-MP2 RIJK def2-TZVP def2-TZVP/C def2-TZVP/JK TIGHTSCF
|  2> % maxcore 2000
|  3> % mp2 density relaxed end
|  4> *xyz 0 1
|  5>  C       -0.1801004291     1.5549086528     0.0740936291
|  6>  C        0.0563312767     0.0480540349     0.0052561782
|  7>  O        0.7921378167    -0.3151469782    -1.1748183174
|  8>  C        2.2053138995    -0.4216275705    -1.0190377201
|  9>  C        2.5521749800    -0.8942670404     0.3855376536
| 10>  C        1.4556586584    -1.8405906049     0.9168326111
| 11>  C        0.7806754232    -0.4931435215     1.2397849918
| 12>  O        2.0919450799     0.1438932684     1.3029476751
| 13>  H        0.7606703691     2.0809395413     0.2530031097
| 14>  H       -0.6147745896     1.9079515265    -0.8644044006
| 15>  H       -0.8708033940     1.8000163143     0.8886079378
| 16>  H       -0.9054367204    -0.4730930163    -0.0948793320
| 17>  H        2.5453367736    -1.1348405273    -1.7792677852
| 18>  H        2.7018996121     0.5435781332    -1.1992274074
| 19>  H        3.6103713432    -1.1358441874     0.5154101264
| 20>  H        0.9629268632    -2.5121640469     0.2122390129
| 21>  H        1.7706816622    -2.3695030737     1.8166332801
| 22>  H        0.2062779051    -0.3665683643     2.1614436469
| 23> *
| 24>
| 25>                          ****END OF INPUT****

CARTESIAN COORDINATES (ANGSTROEM)
---------------------------------
  C     -0.180100    1.554909    0.074094
  C      0.056331    0.048054    0.005256
  O      0.792138   -0.315147   -1.174818
  C      2.205314   -0.421628   -1.019038
  C      2.552175   -0.894267    0.385538
  C      1.455659   -1.840591    0.916833
  C      0.780675   -0.493144    1.239785
  O      2.091945    0.143893    1.302948
  H      0.760670    2.080940    0.253003
  H     -0.614775    1.907952   -0.864404
  H     -0.870803    1.800016    0.888608
  H     -0.905437   -0.473093   -0.094879
  H      2.545337   -1.134841   -1.779268
  H      2.701900    0.543578   -1.199227
  H      3.610371   -1.135844    0.515410
  H      0.962927   -2.512164    0.212239
  H      1.770682   -2.369503    1.816633
  H      0.206278   -0.366568    2.161444

 Total Charge           Charge          ....    0
 Multiplicity           Mult            ....    1
 Number of Electrons    NEL             ....   62
 Basis Dimension        Dim             ....  308

ORBITAL ENERGIES
----------------

  NO   OCC          E(Eh)            E(eV)
   0   2.0000     -20.550831      -559.2165
   1   2.0000     -20.548973      -559.1660
   2   2.0000     -11.288476      -307.1751
   3   2.0000     -11.287495      -307.1484
   4   2.0000     -11.281114      -306.9747
   5   2.0000     -11.275585      -306.8243
   6   2.0000     -11.232661      -305.6563
   7   2.0000     -11.210124      -305.0430
   8   2.0000      -1.401026       -38.1238
   9   2.0000      -1.349837       -36.7309
  10   2.0000      -1.053518       -28.6677
  11   2.0000      -1.027874       -27.9699
  12   2.0000      -0.956757       -26.0347
  13   2.0000      -0.876798       -23.8589
  14   2.0000      -0.839569       -22.8458
  15   2.0000      -0.724366       -19.7110
  16   2.0000      -0.712990       -19.4014
  17   2.0000      -0.661554       -18.0018
  18   2.0000      -0.651591       -17.7307
  19   2.0000      -0.619405       -16.8549
  20   2.0000      -0.607035       -16.5183
  21   2.0000      -0.565843       -15.3974
  22   2.0000      -0.550237       -14.9727
  23   2.0000      -0.545971       -14.8566
  24   2.0000      -0.528281       -14.3753
  25   2.0000      -0.516545       -14.0559
  26   2.0000      -0.502254       -13.6670
  27   2.0000      -0.464789       -12.6476
  28   2.0000      -0.453761       -12.3475
  29   2.0000      -0.423869       -11.5341
  30   2.0000      -0.393905       -10.7187
  31   0.0000       0.141819         3.8591
  32   0.0000       0.156899         4.2694
  33   0.0000       0.165554         4.5050
  34   0.0000       0.178964         4.8699
  35   0.0000       0.197407         5.3717

MULLIKEN ATOMIC CHARGES
-----------------------
   0 C :   -0.419830
   1 C :    0.073766
   2 O :   -0.334177
   3 C :   -0.047716
   4 C :    0.031319
   5 C :   -0.251743
   6 C :    0.061638
   7 O :   -0.340288
   8 H :    0.148989
   9 H :    0.140029
  10 H :    0.119504
  11 H :    0.094948
  12 H :    0.113621
  13 H :    0.101585
  14 H :    0.121061
  15 H :    0.135198
  16 H :    0.127642
  17 H :    0.124454
Sum of atomic charges:    0.0000000

LOEWDIN ATOMIC CHARGES
----------------------
   0 C :   -0.293853
   1 C :   -0.320806
   2 O :    0.163882
   3 C :   -0.294968
   4 C :   -0.279544
   5 C :   -0.200213
   6 C :   -0.258198
   7 O :    0.149744
   8 H :    0.129122
   9 H :    0.126541
  10 H :    0.125732
  11 H :    0.147090
  12 H :    0.131900
  13 H :    0.127885
  14 H :    0.134893
  15 H :    0.135831
  16 H :    0.137990
  17 H :    0.136973

  Mayer bond orders larger than 0.1
B(  0-C ,  1-C ) :   0.9249 B(  0-C ,  8-H ) :   0.9322 B(  0-C ,  9-H ) :   0.9389
B(  0-C , 10-H ) :   0.9287 B(  1-C ,  2-O ) :   0.8999 B(  1-C ,  6-C ) :   0.9406
B(  1-C , 11-H ) :   0.9095 B(  2-O ,  3-C ) :   0.9299 B(  3-C ,  4-C ) :   0.9511
B(  3-C , 12-H ) :   0.9188 B(  3-C , 13-H ) :   0.9177 B(  4-C ,  5-C ) :   0.9521
B(  4-C ,  7-O ) :   0.9196 B(  4-C , 14-H ) :   0.9097 B(  5-C ,  6-C ) :   0.9241
B(  5-C , 15-H ) :   0.9168 B(  5-C , 16-H ) :   0.9260 B(  6-C ,  7-O ) :   0.9053
B(  6-C , 17-H ) :   0.9073

MP2 TOTAL ENERGY:     -384.291358552 Eh
FINAL SINGLE POINT ENERGY      -384.291358551903

DIPOLE MOMENT
-------------
                                X             Y             Z
Electronic contribution:      1.82603      -1.31559       0.27087
Nuclear contribution   :     -1.87187       0.83123      -0.12129
                        -----------------------------------------
Total Dipole Moment    :     -0.04584      -0.48435       0.14958
                        -----------------------------------------
Magnitude (a.u.)       :      0.50899
Magnitude (Debye)      :      1.29376

                             ****ORCA TERMINATED NORMALLY****
TOTAL RUN TIME: 0 days 0 hours 13 minutes 9 seconds 0 msec
