                         Program Version 3.0.3 - RELEASE   -
|  1> ! RI-MP2 RIJK def2-TZVP def2-TZVP/C def2-TZVP/JK TIGHTSCF
|  2> % maxcore 2000
|  3> % mp2 density relaxed end
|  4> *xyz 0 1
|  5>  C       -0.0100049847     1.5463810818     0.0245689337
|  6>  C        0.1069133291     0.0427634801    -0.0240144104
|  7>  N       -0.7882282236    -0.7997197595     0.8211994306
|  8>  C        0.6376293449    -0.7341133320     1.1476938621
|  9>  C        1.4262668020    -2.0283269792     0.9318998624
| 10>  N        1.7504513992    -2.3440123970    -0.4606955781
| 11>  C        0.6452532311    -2.0532912412    -1.3846428091
| 12>  C        0.3254427078    -0.5619788853    -1.3870008164
| 13>  O        0.3226006389     0.1173560392    -2.3909058539
| 14>  H        0.8810547781     2.0202301001    -0.3969371094
| 15>  H       -0.8654627482     1.8865357194    -0.5662466992
| 16>  H       -0.1317475689     1.8931503507     1.0557035427
| 17>  H       -1.3258278893    -0.1910016215     1.4345995791
| 18>  H        0.9203489190    -0.1410331805     2.0165501217
| 19>  H        2.3647369029    -1.9842463889     1.4931114946
| 20>  H        0.8354335284    -2.8541100296     1.3483391389
| 21>  H        2.5616946762    -1.8040379141    -0.7468541080
| 22>  H        0.9152262937    -2.3527896245    -2.4000196999
| 23>  H       -0.2340895267    -2.6234048879    -1.0657775214
| 24> *
| 25>
| 26>                          ****END OF INPUT****

CARTESIAN COORDINATES (ANGSTROEM)
---------------------------------
  C     -0.010005    1.546381    0.024569
  C      0.106913    0.042763   -0.024014
  N     -0.788228   -0.799720    0.821199
  C      0.637629   -0.734113    1.147694
  C      1.426267   -2.028327    0.931900
  N      1.750451   -2.344012   -0.460696
  C      0.645253   -2.053291   -1.384643
  C      0.325443   -0.561979   -1.387001
  O      0.322601    0.117356   -2.390906
  H      0.881055    2.020230   -0.396937
  H     -0.865463    1.886536   -0.566247
  H     -0.131748    1.893150    1.055704
  H     -1.325828   -0.191002    1.434600
  H      0.920349   -0.141033    2.016550
  H      2.364737   -1.984246    1.493111
  H      0.835434   -2.854110    1.348339
  H      2.561695   -1.804038   -0.746854
  H      0.915226   -2.352790   -2.400020
  H     -0.234090   -2.623405   -1.065778

 Total Charge           Charge          ....    0
 Multiplicity           Mult            ....    1
 Number of Electrons    NEL             ....   68
 Basis Dimension        Dim             ....  339

ORBITAL ENERGIES
----------------

  NO   OCC          E(Eh)            E(eV)
   0   2.0000     -20.547227      -559.1185
   1   2.0000     -15.576613      -423.8612
   2   2.0000     -15.559416      -423.3932
   3   2.0000     -11.326457      -308.2086
   4   2.0000     -11.281833      -306.9943
   5   2.0000     -11.278839      -306.9128
   6   2.0000     -11.264568      -306.5245
   7   2.0000     -11.258810      -306.3678
   8   2.0000     -11.231616      -305.6278
   9   2.0000      -1.389998       -37.8238
  10   2.0000      -1.289022       -35.0761
  11   2.0000      -1.214271       -33.0420
  12   2.0000      -1.018721       -27.7208
  13   2.0000      -0.995219       -27.0813
  14   2.0000      -0.943472       -25.6732
  15   2.0000      -0.863091       -23.4859
  16   2.0000      -0.828269       -22.5384
  17   2.0000      -0.733276       -19.9534
  18   2.0000      -0.690705       -18.7950
  19   2.0000      -0.677099       -18.4248
  20   2.0000      -0.647623       -17.6227
  21   2.0000      -0.636641       -17.3239
  22   2.0000      -0.605415       -16.4742
  23   2.0000      -0.586360       -15.9557
  24   2.0000      -0.571568       -15.5532
  25   2.0000      -0.556585       -15.1454
  26   2.0000      -0.542759       -14.7692
  27   2.0000      -0.522252       -14.2112
  28   2.0000      -0.510237       -13.8843
  29   2.0000      -0.484184       -13.1753
  30   2.0000      -0.471811       -12.8386
  31   2.0000      -0.447797       -12.1852
  32   2.0000      -0.394899       -10.7457
  33   2.0000      -0.369025       -10.0417
  34   0.0000       0.123669         3.3652
  35   0.0000       0.134014         3.6467
  36   0.0000       0.153050         4.1647
  37   0.0000       0.163693         4.4543
  38   0.0000       0.176618         4.8060

MULLIKEN ATOMIC CHARGES
-----------------------
   0 C :   -0.374620
   1 C :    0.172245
   2 N :   -0.393908
   3 C :   -0.144897
   4 C :   -0.115853
   5 N :   -0.339381
   6 C :   -0.104574
   7 C :    0.078562
   8 O :   -0.284624
   9 H :    0.142431
  10 H :    0.150207
  11 H :    0.124830
  12 H :    0.220867
  13 H :    0.129704
  14 H :    0.130278
  15 H :    0.116779
  16 H :    0.205084
  17 H :    0.147948
  18 H :    0.138922
Sum of atomic charges:    0.0000000

LOEWDIN ATOMIC CHARGES
----------------------
   0 C :   -0.268407
   1 C :   -0.267934
   2 N :    0.035710
   3 C :   -0.238131
   4 C :   -0.289305
   5 N :   -0.012981
   6 C :   -0.262533
   7 C :   -0.297725
   8 O :    0.152690
   9 H :    0.136846
  10 H :    0.135723
  11 H :    0.126322
  12 H :    0.170595
  13 H :    0.140425
  14 H :    0.136626
  15 H :    0.140439
  16 H :    0.171172
  17 H :    0.141191
  18 H :    0.149278

  Mayer bond orders larger than 0.1
B(  0-C ,  1-C ) :   0.9301 B(  0-C ,  9-H ) :   0.9213 B(  0-C , 10-H ) :   0.9294
B(  0-C , 11-H ) :   0.9333 B(  1-C ,  2-N ) :   0.8079 B(  1-C ,  3-C ) :   0.8763
B(  1-C ,  6-C ) :  -0.1079 B(  1-C ,  7-C ) :   0.9281 B(  2-N ,  3-C ) :   0.9771
B(  2-N , 12-H ) :   0.8674 B(  3-C ,  4-C ) :   0.9046 B(  3-C , 13-H ) :   0.9169
B(  4-C ,  5-N ) :   0.9926 B(  4-C , 14-H ) :   0.9383 B(  4-C , 15-H ) :   0.9175
B(  5-N ,  6-C ) :   0.9181 B(  5-N , 16-H ) :   0.8857 B(  6-C ,  7-C ) :   0.9422
B(  6-C , 17-H ) :   0.9225 B(  6-C , 18-H ) :   0.9101 B(  7-C ,  8-O ) :   2.0193

MP2 TOTAL ENERGY:     -418.499108571 Eh
FINAL SINGLE POINT ENERGY      -418.499108571043

DIPOLE MOMENT
-------------
                                X             Y             Z
Electronic contribution:     -0.67084      -0.81025      -3.71184
Nuclear contribution   :      0.92564       1.21311       4.93671
                        -----------------------------------------
Total Dipole Moment    :      0.25480       0.40286       1.22487
                        -----------------------------------------
Magnitude (a.u.)       :      1.31435
Magnitude (Debye)      :      3.34082

                             ****ORCA TERMINATED NORMALLY****
TOTAL RUN TIME: 0 days 0 hours 21 minutes 0 seconds 936 msec
