                         Program Version 3.0.3 - RELEASE   -
|  1> ! RI-MP2 RIJK def2-TZVP def2-TZVP/C def2-TZVP/JK TIGHTSCF
|  2> % maxcore 2000
|  3> % mp2 density relaxed end
|  4> *xyz 0 1
|  5>  C       -0.0362470526     1.5261417125    -0.0024339396
|  6>  C       -0.0103848026     0.0247515006    -0.0017051197
|  7>  C       -0.0339022317    -0.7298758388    -1.1766980961
|  8>  N       -0.0116539770    -2.0612068104    -1.1999200430
|  9>  C        0.0356813656    -2.6671836539    -0.0114502639
| 10>  N        0.0625708534    -2.0783009580     1.1806207196
| 11>  C        0.0391821658    -0.7399759782     1.1725265219
| 12>  C        0.0677517188    -0.0797659417     2.4538894827
| 13>  N        0.0893021400     0.4953756154     3.4570120701
| 14>  H        0.8508581828     1.9384738989     0.4892166053
| 15>  H       -0.0733105368     1.9126188365    -1.0236297370
| 16>  H       -0.9062825006     1.9081606804     0.5414592829
| 17>  H       -0.0723905387    -0.2263709547    -2.1410035232
| 18>  H        0.0542706336    -3.7534680085    -0.0152412800
| 19> *
| 20>
| 21>                          ****END OF INPUT****

CARTESIAN COORDINATES (ANGSTROEM)
---------------------------------
  C     -0.036247    1.526142   -0.002434
  C     -0.010385    0.024752   -0.001705
  C     -0.033902   -0.729876   -1.176698
  N     -0.011654   -2.061207   -1.199920
  C      0.035681   -2.667184   -0.011450
  N      0.062571   -2.078301    1.180621
  C      0.039182   -0.739976    1.172527
  C      0.067752   -0.079766    2.453889
  N      0.089302    0.495376    3.457012
  H      0.850858    1.938474    0.489217
  H     -0.073311    1.912619   -1.023630
  H     -0.906283    1.908161    0.541459
  H     -0.072391   -0.226371   -2.141004
  H      0.054271   -3.753468   -0.015241

 Total Charge           Charge          ....    0
 Multiplicity           Mult            ....    1
 Number of Electrons    NEL             ....   62
 Basis Dimension        Dim             ....  309

ORBITAL ENERGIES
----------------

  NO   OCC          E(Eh)            E(eV)
   0   2.0000     -15.604803      -424.6283
   1   2.0000     -15.599616      -424.4871
   2   2.0000     -15.596753      -424.4092
   3   2.0000     -11.349309      -308.8304
   4   2.0000     -11.332934      -308.3848
   5   2.0000     -11.318111      -307.9815
   6   2.0000     -11.292783      -307.2923
   7   2.0000     -11.289717      -307.2088
   8   2.0000     -11.258219      -306.3517
   9   2.0000      -1.342811       -36.5398
  10   2.0000      -1.245066       -33.8800
  11   2.0000      -1.218953       -33.1694
  12   2.0000      -1.132082       -30.8055
  13   2.0000      -0.998441       -27.1690
  14   2.0000      -0.952996       -25.9324
  15   2.0000      -0.889672       -24.2092
  16   2.0000      -0.798633       -21.7319
  17   2.0000      -0.746462       -20.3123
  18   2.0000      -0.664484       -18.0815
  19   2.0000      -0.630999       -17.1703
  20   2.0000      -0.628448       -17.1009
  21   2.0000      -0.613858       -16.7039
  22   2.0000      -0.581818       -15.8321
  23   2.0000      -0.581588       -15.8258
  24   2.0000      -0.576278       -15.6813
  25   2.0000      -0.515776       -14.0350
  26   2.0000      -0.500809       -13.6277
  27   2.0000      -0.487239       -13.2584
  28   2.0000      -0.443818       -12.0769
  29   2.0000      -0.435687       -11.8557
  30   2.0000      -0.383844       -10.4449
  31   0.0000       0.039428         1.0729
  32   0.0000       0.086991         2.3672
  33   0.0000       0.123328         3.3559
  34   0.0000       0.158393         4.3101
  35   0.0000       0.167911         4.5691

MULLIKEN ATOMIC CHARGES
-----------------------
   0 C :   -0.402894
   1 C :    0.011930
   2 C :   -0.043649
   3 N :   -0.228106
   4 C :    0.088349
   5 N :   -0.236144
   6 C :    0.253319
   7 C :   -0.176227
   8 N :   -0.038470
   9 H :    0.168004
  10 H :    0.146897
  11 H :    0.167985
  12 H :    0.142995
  13 H :    0.146011
Sum of atomic charges:    0.0000000

LOEWDIN ATOMIC CHARGES
----------------------
   0 C :   -0.247385
   1 C :   -0.127064
   2 C :   -0.160122
   3 N :    0.139757
   4 C :   -0.268005
   5 N :    0.179645
   6 C :   -0.193740
   7 C :   -0.129107
   8 N :    0.093821
   9 H :    0.144203
  10 H :    0.135867
  11 H :    0.144207
  12 H :    0.147943
  13 H :    0.139979

  Mayer bond orders larger than 0.1
B(  0-C ,  1-C ) :   0.8931 B(  0-C ,  9-H ) :   0.9237 B(  0-C , 10-H ) :   0.9385
B(  0-C , 11-H ) :   0.9237 B(  1-C ,  2-C ) :   1.3057 B(  1-C ,  6-C ) :   1.2582
B(  2-C ,  3-N ) :   1.4071 B(  2-C , 12-H ) :   0.9515 B(  3-N ,  4-C ) :   1.3505
B(  4-C ,  5-N ) :   1.3787 B(  4-C , 13-H ) :   0.9344 B(  5-N ,  6-C ) :   1.3497
B(  6-C ,  7-C ) :   0.9450 B(  7-C ,  8-N ) :   2.8314

MP2 TOTAL ENERGY:     -395.094651205 Eh
FINAL SINGLE POINT ENERGY      -395.094651205418

DIPOLE MOMENT
-------------
                                X             Y             Z
Electronic contribution:      0.18773      -4.37118       3.62357
Nuclear contribution   :     -0.23823       4.86079      -4.96986
                        -----------------------------------------
Total Dipole Moment    :     -0.05050       0.48961      -1.34629
                        -----------------------------------------
Magnitude (a.u.)       :      1.43344
Magnitude (Debye)      :      3.64352

                             ****ORCA TERMINATED NORMALLY****
TOTAL RUN TIME: 0 days 0 hours 15 minutes 2 seconds 681 msec
