                         Program Version 3.0.3 - RELEASE   -
|  1> ! RI-MP2 RIJK def2-TZVP def2-TZVP/C def2-TZVP/JK TIGHTSCF
|  2> % maxcore 2000
|  3> % mp2 density relaxed end
|  4> *xyz 0 1
|  5>  C       -0.2656218763     1.4650950776     0.0323483433
|  6>  C       -0.1202411370    -0.0549125673    -0.0716914415
|  7>  C        0.7950079932    -0.4747823149    -1.2133960328
|  8>  O        0.8690787325    -1.8847095255    -1.2424942302
|  9>  C        1.7107721210    -2.3784553979    -2.2603508629
| 10>  C        1.6908928830    -3.8826721117    -2.1908457838
| 11>  O        0.7131123178    -4.5762795111    -2.9727773576
| 12>  C        2.0939613500    -4.7653148585    -3.2969000079
| 13>  C        2.5680097725    -4.2977027694    -4.6510127961
| 14>  H        0.7014950770     1.9487745545     0.2095696482
| 15>  H       -0.6845980241     1.8902409606    -0.8864617643
| 16>  H       -0.9292306649     1.7405051396     0.8569438761
| 17>  H        0.2794642186    -0.4644895582     0.8630381445
| 18>  H       -1.0998646002    -0.5220282311    -0.2235697933
| 19>  H        0.4094303557    -0.0920864278    -2.1747577592
| 20>  H        1.8022743278    -0.0412277460    -1.0783925425
| 21>  H        1.3698282503    -2.0373837346    -3.2488838634
| 22>  H        2.7438248203    -2.0126258743    -2.1163942836
| 23>  H        1.7956600753    -4.2612720466    -1.1725898333
| 24>  H        2.4742459498    -5.7486360018    -3.0101969985
| 25>  H        2.1714816852    -3.3132297765    -4.9062103723
| 26>  H        3.6622936408    -4.2523055942    -4.6766184423
| 27>  H        2.2460818619    -5.0026332750    -5.4246388765
| 28> *
| 29>
| 30>                          ****END OF INPUT****

CARTESIAN COORDINATES (ANGSTROEM)
---------------------------------
  C     -0.265622    1.465095    0.032348
  C     -0.120241   -0.054913   -0.071691
  C      0.795008   -0.474782   -1.213396
  O      0.869079   -1.884710   -1.242494
  C      1.710772   -2.378455   -2.260351
  C      1.690893   -3.882672   -2.190846
  O      0.713112   -4.576280   -2.972777
  C      2.093961   -4.765315   -3.296900
  C      2.568010   -4.297703   -4.651013
  H      0.701495    1.948775    0.209570
  H     -0.684598    1.890241   -0.886462
  H     -0.929231    1.740505    0.856944
  H      0.279464   -0.464490    0.863038
  H     -1.099865   -0.522028   -0.223570
  H      0.409430   -0.092086   -2.174758
  H      1.802274   -0.041228   -1.078393
  H      1.369828   -2.037384   -3.248884
  H      2.743825   -2.012626   -2.116394
  H      1.795660   -4.261272   -1.172590
  H      2.474246   -5.748636   -3.010197
  H      2.171482   -3.313230   -4.906210
  H      3.662294   -4.252306   -4.676618
  H      2.246082   -5.002633   -5.424639

 Total Charge           Charge          ....    0
 Multiplicity           Mult            ....    1
 Number of Electrons    NEL             ....   72
 Basis Dimension        Dim             ....  363

ORBITAL ENERGIES
----------------

  NO   OCC          E(Eh)            E(eV)
   0   2.0000     -20.559754      -559.4593
   1   2.0000     -20.555864      -559.3535
   2   2.0000     -11.286523      -307.1219
   3   2.0000     -11.281577      -306.9873
   4   2.0000     -11.280819      -306.9667
   5   2.0000     -11.273698      -306.7729
   6   2.0000     -11.227553      -305.5172
   7   2.0000     -11.218974      -305.2838
   8   2.0000     -11.216659      -305.2208
   9   2.0000      -1.407187       -38.2915
  10   2.0000      -1.377417       -37.4814
  11   2.0000      -1.060439       -28.8560
  12   2.0000      -1.014087       -27.5947
  13   2.0000      -0.990416       -26.9506
  14   2.0000      -0.905864       -24.6498
  15   2.0000      -0.857175       -23.3249
  16   2.0000      -0.811006       -22.0686
  17   2.0000      -0.782151       -21.2834
  18   2.0000      -0.706175       -19.2160
  19   2.0000      -0.675585       -18.3836
  20   2.0000      -0.653286       -17.7768
  21   2.0000      -0.639305       -17.3964
  22   2.0000      -0.614049       -16.7091
  23   2.0000      -0.588506       -16.0141
  24   2.0000      -0.583932       -15.8896
  25   2.0000      -0.565248       -15.3812
  26   2.0000      -0.546720       -14.8770
  27   2.0000      -0.538128       -14.6432
  28   2.0000      -0.507461       -13.8087
  29   2.0000      -0.505515       -13.7558
  30   2.0000      -0.490194       -13.3389
  31   2.0000      -0.477656       -12.9977
  32   2.0000      -0.469161       -12.7665
  33   2.0000      -0.441034       -12.0011
  34   2.0000      -0.431973       -11.7546
  35   2.0000      -0.417630       -11.3643
  36   0.0000       0.135304         3.6818
  37   0.0000       0.144242         3.9250
  38   0.0000       0.161363         4.3909
  39   0.0000       0.173278         4.7151
  40   0.0000       0.186951         5.0872

MULLIKEN ATOMIC CHARGES
-----------------------
   0 C :   -0.408777
   1 C :   -0.160365
   2 C :   -0.067249
   3 O :   -0.282017
   4 C :   -0.073927
   5 C :    0.048920
   6 O :   -0.337762
   7 C :    0.049578
   8 C :   -0.381137
   9 H :    0.122458
  10 H :    0.124069
  11 H :    0.138590
  12 H :    0.110789
  13 H :    0.116260
  14 H :    0.087888
  15 H :    0.084378
  16 H :    0.106253
  17 H :    0.093075
  18 H :    0.121592
  19 H :    0.108176
  20 H :    0.128958
  21 H :    0.128799
  22 H :    0.141454
Sum of atomic charges:    0.0000000

LOEWDIN ATOMIC CHARGES
----------------------
   0 C :   -0.319928
   1 C :   -0.294127
   2 C :   -0.331299
   3 O :    0.165447
   4 C :   -0.313815
   5 C :   -0.269886
   6 O :    0.161878
   7 C :   -0.294065
   8 C :   -0.295782
   9 H :    0.120267
  10 H :    0.120762
  11 H :    0.122961
  12 H :    0.137232
  13 H :    0.138829
  14 H :    0.118485
  15 H :    0.117106
  16 H :    0.126232
  17 H :    0.125227
  18 H :    0.141977
  19 H :    0.136249
  20 H :    0.125785
  21 H :    0.130000
  22 H :    0.130464

  Mayer bond orders larger than 0.1
B(  0-C ,  1-C ) :   0.9126 B(  0-C ,  9-H ) :   0.9366 B(  0-C , 10-H ) :   0.9370
B(  0-C , 11-H ) :   0.9401 B(  1-C ,  2-C ) :   0.9542 B(  1-C , 12-H ) :   0.9297
B(  1-C , 13-H ) :   0.9308 B(  2-C ,  3-O ) :   0.9416 B(  2-C , 14-H ) :   0.9212
B(  2-C , 15-H ) :   0.9214 B(  3-O ,  4-C ) :   0.9360 B(  4-C ,  5-C ) :   0.9182
B(  4-C , 16-H ) :   0.9328 B(  4-C , 17-H ) :   0.9073 B(  5-C ,  6-O ) :   0.9038
B(  5-C ,  7-C ) :   0.9640 B(  5-C , 18-H ) :   0.9194 B(  6-O ,  7-C ) :   0.8900
B(  7-C ,  8-C ) :   0.8948 B(  7-C , 19-H ) :   0.9167 B(  8-C , 20-H ) :   0.9409
B(  8-C , 21-H ) :   0.9261 B(  8-C , 22-H ) :   0.9354

MP2 TOTAL ENERGY:     -424.690490553 Eh
FINAL SINGLE POINT ENERGY      -424.690490552918

DIPOLE MOMENT
-------------
                                X             Y             Z
Electronic contribution:     -0.46841      -8.80716      -0.95102
Nuclear contribution   :      1.34160       9.29372       0.76755
                        -----------------------------------------
Total Dipole Moment    :      0.87319       0.48656      -0.18346
                        -----------------------------------------
Magnitude (a.u.)       :      1.01630
Magnitude (Debye)      :      2.58322

                             ****ORCA TERMINATED NORMALLY****
TOTAL RUN TIME: 0 days 0 hours 14 minutes 52 seconds 888 msec
