                         Program Version 3.0.3 - RELEASE   -
|  1> ! RI-MP2 RIJK def2-TZVP def2-TZVP/C def2-TZVP/JK TIGHTSCF
|  2> % maxcore 2000
|  3> % mp2 density relaxed end
|  4> *xyz 0 1
|  5>  N       -0.4248173464     1.3731796741     0.1398413441
|  6>  C       -0.3701729067     0.1189718054     0.2267653393
|  7>  O       -1.2243482879    -0.6380377034    -0.5061765408
|  8>  C       -1.1752999981    -2.0452358418    -0.3414950645
|  9>  C       -2.2124564730    -2.5566985862     0.6736988978
| 10>  C       -1.8750377331    -2.2160859704     2.0478622023
| 11>  C       -1.5701234140    -1.9243391781     3.1732572316
| 12>  C       -1.3973945444    -2.6509996950    -1.7271099627
| 13>  O       -1.8361650945    -3.7546642407    -1.9085650536
| 14>  H        0.2842399175     1.7965542991     0.7344654447
| 15>  H        0.3156368126    -0.4762337046     0.8421873700
| 16>  H       -0.1682853465    -2.3546726154    -0.0182936062
| 17>  H       -3.1892088601    -2.1380589360     0.4050018341
| 18>  H       -2.2862117010    -3.6421027923     0.5441906734
| 19>  H       -1.3218391656    -1.6742194475     4.1751281592
| 20>  H       -1.1025919087    -1.9750273473    -2.5569906788
| 21> *
| 22>
| 23>                          ****END OF INPUT****

CARTESIAN COORDINATES (ANGSTROEM)
---------------------------------
  N     -0.424817    1.373180    0.139841
  C     -0.370173    0.118972    0.226765
  O     -1.224348   -0.638038   -0.506177
  C     -1.175300   -2.045236   -0.341495
  C     -2.212456   -2.556699    0.673699
  C     -1.875038   -2.216086    2.047862
  C     -1.570123   -1.924339    3.173257
  C     -1.397395   -2.651000   -1.727110
  O     -1.836165   -3.754664   -1.908565
  H      0.284240    1.796554    0.734465
  H      0.315637   -0.476234    0.842187
  H     -0.168285   -2.354673   -0.018294
  H     -3.189209   -2.138059    0.405002
  H     -2.286212   -3.642103    0.544191
  H     -1.321839   -1.674219    4.175128
  H     -1.102592   -1.975027   -2.556991

 Total Charge           Charge          ....    0
 Multiplicity           Mult            ....    1
 Number of Electrons    NEL             ....   66
 Basis Dimension        Dim             ....  321

ORBITAL ENERGIES
----------------

  NO   OCC          E(Eh)            E(eV)
   0   2.0000     -20.613388      -560.9188
   1   2.0000     -20.582657      -560.0826
   2   2.0000     -15.550853      -423.1602
   3   2.0000     -11.353924      -308.9560
   4   2.0000     -11.350847      -308.8722
   5   2.0000     -11.334255      -308.4207
   6   2.0000     -11.275914      -306.8332
   7   2.0000     -11.252206      -306.1881
   8   2.0000     -11.240076      -305.8580
   9   2.0000      -1.452242       -39.5175
  10   2.0000      -1.421174       -38.6721
  11   2.0000      -1.214361       -33.0445
  12   2.0000      -1.106395       -30.1065
  13   2.0000      -1.031066       -28.0567
  14   2.0000      -0.951169       -25.8826
  15   2.0000      -0.846912       -23.0456
  16   2.0000      -0.821421       -22.3520
  17   2.0000      -0.757597       -20.6153
  18   2.0000      -0.732307       -19.9271
  19   2.0000      -0.698402       -19.0045
  20   2.0000      -0.683974       -18.6119
  21   2.0000      -0.680466       -18.5164
  22   2.0000      -0.641548       -17.4574
  23   2.0000      -0.608436       -16.5564
  24   2.0000      -0.604585       -16.4516
  25   2.0000      -0.567596       -15.4451
  26   2.0000      -0.560964       -15.2646
  27   2.0000      -0.521254       -14.1841
  28   2.0000      -0.452239       -12.3060
  29   2.0000      -0.449648       -12.2355
  30   2.0000      -0.426686       -11.6107
  31   2.0000      -0.405201       -11.0261
  32   2.0000      -0.395758       -10.7691
  33   0.0000       0.104519         2.8441
  34   0.0000       0.131872         3.5884
  35   0.0000       0.145682         3.9642
  36   0.0000       0.149704         4.0737
  37   0.0000       0.162170         4.4129

MULLIKEN ATOMIC CHARGES
-----------------------
   0 N :   -0.339912
   1 C :    0.068455
   2 O :   -0.225599
   3 C :    0.100548
   4 C :   -0.346305
   5 C :   -0.036329
   6 C :   -0.134067
   7 C :    0.075716
   8 O :   -0.253030
   9 H :    0.229381
  10 H :    0.097097
  11 H :    0.119280
  12 H :    0.155852
  13 H :    0.176374
  14 H :    0.195250
  15 H :    0.117288
Sum of atomic charges:    0.0000000

LOEWDIN ATOMIC CHARGES
----------------------
   0 N :   -0.071620
   1 C :   -0.388873
   2 O :    0.268844
   3 C :   -0.302488
   4 C :   -0.220535
   5 C :   -0.113880
   6 C :   -0.095885
   7 C :   -0.260676
   8 O :    0.153042
   9 H :    0.171000
  10 H :    0.111814
  11 H :    0.157822
  12 H :    0.168402
  13 H :    0.171397
  14 H :    0.128691
  15 H :    0.122945

  Mayer bond orders larger than 0.1
B(  0-N ,  1-C ) :   1.9598 B(  0-N ,  9-H ) :   0.8480 B(  1-C ,  2-O ) :   1.0242
B(  1-C , 10-H ) :   0.9240 B(  2-O ,  3-C ) :   0.8635 B(  3-C ,  4-C ) :   0.9078
B(  3-C ,  7-C ) :   0.8387 B(  3-C , 11-H ) :   0.9054 B(  4-C ,  5-C ) :   1.0833
B(  4-C ,  6-C ) :  -0.1017 B(  4-C , 12-H ) :   0.9045 B(  4-C , 13-H ) :   0.9214
B(  5-C ,  6-C ) :   2.6064 B(  6-C , 14-H ) :   0.8986 B(  7-C ,  8-O ) :   1.9918
B(  7-C , 15-H ) :   0.9410

MP2 TOTAL ENERGY:     -437.113263713 Eh
FINAL SINGLE POINT ENERGY      -437.113263713460

DIPOLE MOMENT
-------------
                                X             Y             Z
Electronic contribution:     -0.79857      -0.77706      -2.21515
Nuclear contribution   :      1.69133       0.52091       2.98277
                        -----------------------------------------
Total Dipole Moment    :      0.89276      -0.25615       0.76762
                        -----------------------------------------
Magnitude (a.u.)       :      1.20494
Magnitude (Debye)      :      3.06271

                             ****ORCA TERMINATED NORMALLY****
TOTAL RUN TIME: 0 days 0 hours 13 minutes 27 seconds 5 msec
