                         Program Version 3.0.3 - RELEASE   -
|  1> ! RI-MP2 RIJK def2-TZVP def2-TZVP/C def2-TZVP/JK TIGHTSCF
|  2> % maxcore 2000
|  3> % mp2 density relaxed end
|  4> *xyz 0 1
|  5>  C        1.2498252566     1.7449140806    -1.5155418455
|  6>  C        0.8092790177     0.2801193475    -1.5733406368
|  7>  C        1.9868025060    -0.7045900274    -1.5300188704
|  8>  C        1.5170636412    -2.1476456815    -1.5099294968
|  9>  C        1.3279694196    -2.9758829043    -2.7441732720
| 10>  C        1.5847037413    -2.4690019411    -4.1509345060
| 11>  C        1.8790832232    -3.6069538725    -5.1378855426
| 12>  N        2.3848724147    -3.2977101287    -1.7767197196
| 13>  C        3.7888405590    -3.1014967820    -2.1023445222
| 14>  H        1.8080764181     1.9540680864    -0.5961118392
| 15>  H        1.9006233596     1.9977562677    -2.3601774994
| 16>  H        0.3904471931     2.4220784445    -1.5442243074
| 17>  H        0.1314261320     0.0675905972    -0.7362246382
| 18>  H        0.2262365440     0.1038490491    -2.4860396331
| 19>  H        2.6516591708    -0.5071167380    -2.3762337948
| 20>  H        2.5812703709    -0.5128182029    -0.6254744312
| 21>  H        0.8252560603    -2.3378637744    -0.6865413248
| 22>  H        0.5183313945    -3.7085461052    -2.7199293869
| 23>  H        0.6905391676    -1.9251116831    -4.4835183917
| 24>  H        2.4025132331    -1.7438463167    -4.1740526716
| 25>  H        2.0078744828    -3.2246739909    -6.1552650770
| 26>  H        2.7911197297    -4.1460764425    -4.8628874605
| 27>  H        1.0594798897    -4.3334433040    -5.1543079089
| 28>  H        4.0201622569    -2.2600948448    -2.7711254146
| 29>  H        4.3460082715    -2.9480824736    -1.1720177149
| 30>  H        4.1716972361    -4.0148908791    -2.5697585442
| 31> *
| 32>
| 33>                          ****END OF INPUT****

CARTESIAN COORDINATES (ANGSTROEM)
---------------------------------
  C      1.249825    1.744914   -1.515542
  C      0.809279    0.280119   -1.573341
  C      1.986803   -0.704590   -1.530019
  C      1.517064   -2.147646   -1.509929
  C      1.327969   -2.975883   -2.744173
  C      1.584704   -2.469002   -4.150935
  C      1.879083   -3.606954   -5.137886
  N      2.384872   -3.297710   -1.776720
  C      3.788841   -3.101497   -2.102345
  H      1.808076    1.954068   -0.596112
  H      1.900623    1.997756   -2.360177
  H      0.390447    2.422078   -1.544224
  H      0.131426    0.067591   -0.736225
  H      0.226237    0.103849   -2.486040
  H      2.651659   -0.507117   -2.376234
  H      2.581270   -0.512818   -0.625474
  H      0.825256   -2.337864   -0.686541
  H      0.518331   -3.708546   -2.719929
  H      0.690539   -1.925112   -4.483518
  H      2.402513   -1.743846   -4.174053
  H      2.007874   -3.224674   -6.155265
  H      2.791120   -4.146076   -4.862887
  H      1.059480   -4.333443   -5.154308
  H      4.020162   -2.260095   -2.771125
  H      4.346008   -2.948082   -1.172018
  H      4.171697   -4.014891   -2.569759

 Total Charge           Charge          ....    0
 Multiplicity           Mult            ....    1
 Number of Electrons    NEL             ....   72
 Basis Dimension        Dim             ....  381

ORBITAL ENERGIES
----------------

  NO   OCC          E(Eh)            E(eV)
   0   2.0000     -15.544566      -422.9891
   1   2.0000     -11.248025      -306.0743
   2   2.0000     -11.247143      -306.0503
   3   2.0000     -11.239704      -305.8479
   4   2.0000     -11.225175      -305.4525
   5   2.0000     -11.222334      -305.3752
   6   2.0000     -11.221701      -305.3580
   7   2.0000     -11.214744      -305.1687
   8   2.0000     -11.214431      -305.1602
   9   2.0000      -1.259333       -34.2682
  10   2.0000      -1.065168       -28.9847
  11   2.0000      -1.041168       -28.3316
  12   2.0000      -0.986527       -26.8448
  13   2.0000      -0.942834       -25.6558
  14   2.0000      -0.873460       -23.7681
  15   2.0000      -0.819032       -22.2870
  16   2.0000      -0.772397       -21.0180
  17   2.0000      -0.754539       -20.5321
  18   2.0000      -0.675750       -18.3881
  19   2.0000      -0.629077       -17.1181
  20   2.0000      -0.627093       -17.0641
  21   2.0000      -0.607074       -16.5193
  22   2.0000      -0.579556       -15.7705
  23   2.0000      -0.570938       -15.5360
  24   2.0000      -0.561931       -15.2909
  25   2.0000      -0.546680       -14.8759
  26   2.0000      -0.531342       -14.4586
  27   2.0000      -0.524313       -14.2673
  28   2.0000      -0.506868       -13.7926
  29   2.0000      -0.497023       -13.5247
  30   2.0000      -0.483086       -13.1454
  31   2.0000      -0.474610       -12.9148
  32   2.0000      -0.464480       -12.6392
  33   2.0000      -0.431837       -11.7509
  34   2.0000      -0.422688       -11.5019
  35   2.0000      -0.347773        -9.4634
  36   0.0000       0.131197         3.5701
  37   0.0000       0.147876         4.0239
  38   0.0000       0.158339         4.3086
  39   0.0000       0.163751         4.4559
  40   0.0000       0.175556         4.7771

MULLIKEN ATOMIC CHARGES
-----------------------
   0 C :   -0.383127
   1 C :   -0.205881
   2 C :   -0.233935
   3 C :   -0.024631
   4 C :   -0.083726
   5 C :   -0.204450
   6 C :   -0.384834
   7 N :   -0.216598
   8 C :   -0.299241
   9 H :    0.122453
  10 H :    0.122115
  11 H :    0.134047
  12 H :    0.109441
  13 H :    0.113393
  14 H :    0.105485
  15 H :    0.119523
  16 H :    0.109941
  17 H :    0.106226
  18 H :    0.116333
  19 H :    0.106015
  20 H :    0.132399
  21 H :    0.128473
  22 H :    0.126349
  23 H :    0.106192
  24 H :    0.138715
  25 H :    0.139323
Sum of atomic charges:    0.0000000

LOEWDIN ATOMIC CHARGES
----------------------
   0 C :   -0.321150
   1 C :   -0.289609
   2 C :   -0.255179
   3 C :   -0.241820
   4 C :   -0.240874
   5 C :   -0.281487
   6 C :   -0.312915
   7 N :    0.102675
   8 C :   -0.335680
   9 H :    0.120463
  10 H :    0.119921
  11 H :    0.120761
  12 H :    0.135908
  13 H :    0.135662
  14 H :    0.136242
  15 H :    0.141777
  16 H :    0.142813
  17 H :    0.142673
  18 H :    0.142195
  19 H :    0.134884
  20 H :    0.120263
  21 H :    0.121150
  22 H :    0.122041
  23 H :    0.102045
  24 H :    0.119577
  25 H :    0.117664

  Mayer bond orders larger than 0.1
B(  0-C ,  1-C ) :   0.9167 B(  0-C ,  9-H ) :   0.9388 B(  0-C , 10-H ) :   0.9406
B(  0-C , 11-H ) :   0.9424 B(  1-C ,  2-C ) :   0.9242 B(  1-C , 12-H ) :   0.9356
B(  1-C , 13-H ) :   0.9354 B(  2-C ,  3-C ) :   0.8960 B(  2-C , 14-H ) :   0.9354
B(  2-C , 15-H ) :   0.9279 B(  3-C ,  4-C ) :   0.9519 B(  3-C ,  7-N ) :   0.9197
B(  3-C , 16-H ) :   0.9148 B(  4-C ,  5-C ) :   0.9181 B(  4-C ,  7-N ) :   0.9298
B(  4-C , 17-H ) :   0.9070 B(  5-C ,  6-C ) :   0.9153 B(  5-C , 18-H ) :   0.9271
B(  5-C , 19-H ) :   0.9396 B(  6-C , 20-H ) :   0.9408 B(  6-C , 21-H ) :   0.9390
B(  6-C , 22-H ) :   0.9383 B(  7-N ,  8-C ) :   0.8904 B(  8-C , 23-H ) :   0.9269
B(  8-C , 24-H ) :   0.9370 B(  8-C , 25-H ) :   0.9375

MP2 TOTAL ENERGY:     -368.923066356 Eh
FINAL SINGLE POINT ENERGY      -368.923066355583

DIPOLE MOMENT
-------------
                                X             Y             Z
Electronic contribution:     -0.90147      -4.44230       2.95573
Nuclear contribution   :      0.92297       4.93526      -3.28267
                        -----------------------------------------
Total Dipole Moment    :      0.02150       0.49296      -0.32695
                        -----------------------------------------
Magnitude (a.u.)       :      0.59192
Magnitude (Debye)      :      1.50453

                             ****ORCA TERMINATED NORMALLY****
TOTAL RUN TIME: 0 days 0 hours 20 minutes 33 seconds 153 msec
