                         Program Version 3.0.3 - RELEASE   -
|  1> ! RI-MP2 RIJK def2-TZVP def2-TZVP/C def2-TZVP/JK TIGHTSCF
|  2> % maxcore 2000
|  3> % mp2 density relaxed end
|  4> *xyz 0 1
|  5>  C       -0.0340344868     1.5537718793     0.0484557528
|  6>  C       -0.2651062484     0.0540883828    -0.1775291464
|  7>  C        0.6465730648    -0.5179734482    -1.2440021082
|  8>  O        0.4442756621     0.0117987803    -2.5332385783
|  9>  C        2.0381254464    -0.9704491712    -0.9190138781
| 10>  C        0.9863817489    -1.9983810097    -1.3111698098
| 11>  C        0.5028353140    -2.9544935982    -0.2664099508
| 12>  N       -0.0523683941    -4.1016546116    -0.7615508133
| 13>  O        0.6055524393    -2.7534902192     0.9327657572
| 14>  H        0.9959887922     1.7549749275     0.3627142492
| 15>  H       -0.2324968717     2.1348705399    -0.8596115282
| 16>  H       -0.7003775817     1.9365777269     0.8266610749
| 17>  H       -0.1082969220    -0.4974804695     0.7519203272
| 18>  H       -1.3044846832    -0.1139381843    -0.4858773897
| 19>  H        0.7684526283     0.9189892040    -2.5296934467
| 20>  H        2.8228020751    -0.7699025343    -1.6392126067
| 21>  H        2.3328317869    -0.9961206917     0.1245731572
| 22>  H        1.0402150819    -2.3771782040    -2.3261456755
| 23>  H       -0.2715945019    -4.2051543593    -1.7368077822
| 24>  H       -0.4803237401    -4.7334301595    -0.1042975345
| 25> *
| 26>
| 27>                          ****END OF INPUT****

CARTESIAN COORDINATES (ANGSTROEM)
---------------------------------
  C     -0.034034    1.553772    0.048456
  C     -0.265106    0.054088   -0.177529
  C      0.646573   -0.517973   -1.244002
  O      0.444276    0.011799   -2.533239
  C      2.038125   -0.970449   -0.919014
  C      0.986382   -1.998381   -1.311170
  C      0.502835   -2.954494   -0.266410
  N     -0.052368   -4.101655   -0.761551
  O      0.605552   -2.753490    0.932766
  H      0.995989    1.754975    0.362714
  H     -0.232497    2.134871   -0.859612
  H     -0.700378    1.936578    0.826661
  H     -0.108297   -0.497480    0.751920
  H     -1.304485   -0.113938   -0.485877
  H      0.768453    0.918989   -2.529693
  H      2.822802   -0.769903   -1.639213
  H      2.332832   -0.996121    0.124573
  H      1.040215   -2.377178   -2.326146
  H     -0.271595   -4.205154   -1.736808
  H     -0.480324   -4.733430   -0.104298

 Total Charge           Charge          ....    0
 Multiplicity           Mult            ....    1
 Number of Electrons    NEL             ....   70
 Basis Dimension        Dim             ....  345

ORBITAL ENERGIES
----------------

  NO   OCC          E(Eh)            E(eV)
   0   2.0000     -20.567017      -559.6570
   1   2.0000     -20.513132      -558.1907
   2   2.0000     -15.581700      -423.9996
   3   2.0000     -11.351823      -308.8988
   4   2.0000     -11.300016      -307.4891
   5   2.0000     -11.242044      -305.9116
   6   2.0000     -11.232854      -305.6615
   7   2.0000     -11.220162      -305.3161
   8   2.0000     -11.218400      -305.2682
   9   2.0000      -1.382157       -37.6104
  10   2.0000      -1.375923       -37.4408
  11   2.0000      -1.209123       -32.9019
  12   2.0000      -1.143138       -31.1064
  13   2.0000      -1.030999       -28.0549
  14   2.0000      -0.901532       -24.5319
  15   2.0000      -0.877293       -23.8724
  16   2.0000      -0.799276       -21.7494
  17   2.0000      -0.767092       -20.8736
  18   2.0000      -0.711131       -19.3508
  19   2.0000      -0.702721       -19.1220
  20   2.0000      -0.666647       -18.1404
  21   2.0000      -0.641404       -17.4535
  22   2.0000      -0.620559       -16.8863
  23   2.0000      -0.604670       -16.4539
  24   2.0000      -0.579954       -15.7814
  25   2.0000      -0.577536       -15.7156
  26   2.0000      -0.540586       -14.7101
  27   2.0000      -0.531986       -14.4761
  28   2.0000      -0.513721       -13.9791
  29   2.0000      -0.500844       -13.6287
  30   2.0000      -0.485537       -13.2121
  31   2.0000      -0.430830       -11.7235
  32   2.0000      -0.415623       -11.3097
  33   2.0000      -0.411928       -11.2091
  34   2.0000      -0.401669       -10.9300
  35   0.0000       0.131065         3.5665
  36   0.0000       0.131748         3.5850
  37   0.0000       0.167934         4.5697
  38   0.0000       0.170603         4.6423
  39   0.0000       0.179582         4.8867

MULLIKEN ATOMIC CHARGES
-----------------------
   0 C :   -0.435327
   1 C :   -0.211888
   2 C :    0.229977
   3 O :   -0.473214
   4 C :   -0.331360
   5 C :   -0.128854
   6 C :    0.287405
   7 N :   -0.475322
   8 O :   -0.377419
   9 H :    0.135401
  10 H :    0.113974
  11 H :    0.141593
  12 H :    0.152245
  13 H :    0.111839
  14 H :    0.323814
  15 H :    0.144895
  16 H :    0.147630
  17 H :    0.125804
  18 H :    0.260284
  19 H :    0.258526
Sum of atomic charges:    0.0000000

LOEWDIN ATOMIC CHARGES
----------------------
   0 C :   -0.317890
   1 C :   -0.253139
   2 C :   -0.335893
   3 O :    0.022671
   4 C :   -0.175599
   5 C :   -0.161020
   6 C :   -0.462944
   7 N :   -0.016180
   8 O :    0.073726
   9 H :    0.122673
  10 H :    0.115343
  11 H :    0.124565
  12 H :    0.154844
  13 H :    0.143399
  14 H :    0.180216
  15 H :    0.137032
  16 H :    0.147900
  17 H :    0.156697
  18 H :    0.170551
  19 H :    0.173049

  Mayer bond orders larger than 0.1
B(  0-C ,  1-C ) :   0.8982 B(  0-C ,  9-H ) :   0.9384 B(  0-C , 10-H ) :   0.9403
B(  0-C , 11-H ) :   0.9410 B(  1-C ,  2-C ) :   0.9337 B(  1-C , 12-H ) :   0.9153
B(  1-C , 13-H ) :   0.9264 B(  2-C ,  3-O ) :   0.9484 B(  2-C ,  4-C ) :   0.9165
B(  2-C ,  5-C ) :   0.8045 B(  3-O , 14-H ) :   0.8391 B(  4-C ,  5-C ) :   0.9032
B(  4-C , 15-H ) :   0.9219 B(  4-C , 16-H ) :   0.9061 B(  5-C ,  6-C ) :   0.9215
B(  5-C , 17-H ) :   0.9043 B(  6-C ,  7-N ) :   1.1549 B(  6-C ,  8-O ) :   1.9321
B(  7-N , 18-H ) :   0.8708 B(  7-N , 19-H ) :   0.8578

MP2 TOTAL ENERGY:     -439.596254886 Eh
FINAL SINGLE POINT ENERGY      -439.596254885761

DIPOLE MOMENT
-------------
                                X             Y             Z
Electronic contribution:      0.68279      -6.76880      -0.84974
Nuclear contribution   :     -0.83467       6.75726       0.07708
                        -----------------------------------------
Total Dipole Moment    :     -0.15188      -0.01154      -0.77267
                        -----------------------------------------
Magnitude (a.u.)       :      0.78754
Magnitude (Debye)      :      2.00176

                             ****ORCA TERMINATED NORMALLY****
TOTAL RUN TIME: 0 days 0 hours 17 minutes 59 seconds 830 msec
