                         Program Version 3.0.3 - RELEASE   -
|  1> ! RI-MP2 RIJK def2-TZVP def2-TZVP/C def2-TZVP/JK TIGHTSCF
|  2> % maxcore 2000
|  3> % mp2 density relaxed end
|  4> *xyz 0 1
|  5>  C       -0.4533726479     1.5939845877     0.5832155717
|  6>  N       -0.0225932636     0.2815510456     0.1087122355
|  7>  C       -1.1411601813    -0.5958654430    -0.1981540945
|  8>  C       -0.8402004180    -1.9946354546    -0.6552189813
|  9>  C       -1.2153321400    -1.7404954180     0.7910835582
| 10>  C       -0.0744330467    -1.5340580555     1.7692308060
| 11>  C        0.8184869529    -0.4375625021     1.0857967768
| 12>  C        2.0012115195    -1.0240175304     0.4324042865
| 13>  N        2.9402747506    -1.4905530935    -0.0539822315
| 14>  H        0.4225642861     2.2237461638     0.7618336180
| 15>  H       -1.0516624253     2.0760229488    -0.1948507922
| 16>  H       -1.0574198556     1.5635872674     1.5076723789
| 17>  H       -2.0171798223    -0.0855785866    -0.5798620485
| 18>  H       -1.5896478221    -2.4715943952    -1.2775287970
| 19>  H        0.1795398738    -2.2662359012    -0.9060392326
| 20>  H       -2.1570155709    -2.1182971943     1.1712980554
| 21>  H       -0.4578693594    -1.1493740988     2.7191245243
| 22>  H        0.5028688890    -2.4369904125     1.9827537845
| 23>  H        1.1967419112     0.2688092123     1.8305578519
| 24> *
| 25>
| 26>                          ****END OF INPUT****

CARTESIAN COORDINATES (ANGSTROEM)
---------------------------------
  C     -0.453373    1.593985    0.583216
  N     -0.022593    0.281551    0.108712
  C     -1.141160   -0.595865   -0.198154
  C     -0.840200   -1.994635   -0.655219
  C     -1.215332   -1.740495    0.791084
  C     -0.074433   -1.534058    1.769231
  C      0.818487   -0.437563    1.085797
  C      2.001212   -1.024018    0.432404
  N      2.940275   -1.490553   -0.053982
  H      0.422564    2.223746    0.761834
  H     -1.051662    2.076023   -0.194851
  H     -1.057420    1.563587    1.507672
  H     -2.017180   -0.085579   -0.579862
  H     -1.589648   -2.471594   -1.277529
  H      0.179540   -2.266236   -0.906039
  H     -2.157016   -2.118297    1.171298
  H     -0.457869   -1.149374    2.719125
  H      0.502869   -2.436990    1.982754
  H      1.196742    0.268809    1.830558

 Total Charge           Charge          ....    0
 Multiplicity           Mult            ....    1
 Number of Electrons    NEL             ....   66
 Basis Dimension        Dim             ....  339

ORBITAL ENERGIES
----------------

  NO   OCC          E(Eh)            E(eV)
   0   2.0000     -15.573287      -423.7707
   1   2.0000     -15.563547      -423.5056
   2   2.0000     -11.311803      -307.8098
   3   2.0000     -11.270133      -306.6759
   4   2.0000     -11.265714      -306.5556
   5   2.0000     -11.262837      -306.4774
   6   2.0000     -11.252393      -306.1932
   7   2.0000     -11.242659      -305.9283
   8   2.0000     -11.232556      -305.6534
   9   2.0000      -1.278396       -34.7869
  10   2.0000      -1.209441       -32.9106
  11   2.0000      -1.130913       -30.7737
  12   2.0000      -1.052268       -28.6337
  13   2.0000      -0.946406       -25.7530
  14   2.0000      -0.899618       -24.4799
  15   2.0000      -0.798978       -21.7413
  16   2.0000      -0.793429       -21.5903
  17   2.0000      -0.721001       -19.6194
  18   2.0000      -0.710028       -19.3208
  19   2.0000      -0.635002       -17.2793
  20   2.0000      -0.611999       -16.6533
  21   2.0000      -0.597136       -16.2489
  22   2.0000      -0.581391       -15.8204
  23   2.0000      -0.574491       -15.6327
  24   2.0000      -0.566255       -15.4086
  25   2.0000      -0.540046       -14.6954
  26   2.0000      -0.531118       -14.4524
  27   2.0000      -0.518482       -14.1086
  28   2.0000      -0.460542       -12.5320
  29   2.0000      -0.455973       -12.4077
  30   2.0000      -0.444227       -12.0880
  31   2.0000      -0.424510       -11.5515
  32   2.0000      -0.358214        -9.7475
  33   0.0000       0.118880         3.2349
  34   0.0000       0.153909         4.1881
  35   0.0000       0.157873         4.2959
  36   0.0000       0.164273         4.4701
  37   0.0000       0.172569         4.6958

MULLIKEN ATOMIC CHARGES
-----------------------
   0 C :   -0.355837
   1 N :   -0.136743
   2 C :   -0.084055
   3 C :   -0.261185
   4 C :   -0.157961
   5 C :   -0.228873
   6 C :    0.093244
   7 C :   -0.204009
   8 N :   -0.052710
   9 H :    0.149080
  10 H :    0.145203
  11 H :    0.118332
  12 H :    0.127897
  13 H :    0.135793
  14 H :    0.162550
  15 H :    0.129731
  16 H :    0.127945
  17 H :    0.146935
  18 H :    0.144664
Sum of atomic charges:   -0.0000000

LOEWDIN ATOMIC CHARGES
----------------------
   0 C :   -0.320306
   1 N :    0.117738
   2 C :   -0.229264
   3 C :   -0.194403
   4 C :   -0.208508
   5 C :   -0.195195
   6 C :   -0.239737
   7 C :   -0.172906
   8 N :    0.058961
   9 H :    0.121013
  10 H :    0.122293
  11 H :    0.105666
  12 H :    0.144657
  13 H :    0.138273
  14 H :    0.144915
  15 H :    0.143931
  16 H :    0.143359
  17 H :    0.148192
  18 H :    0.171321

  Mayer bond orders larger than 0.1
B(  0-C ,  1-N ) :   0.8878 B(  0-C ,  9-H ) :   0.9379 B(  0-C , 10-H ) :   0.9386
B(  0-C , 11-H ) :   0.9261 B(  1-N ,  2-C ) :   0.9520 B(  1-N ,  6-C ) :   0.8587
B(  2-C ,  3-C ) :   0.8837 B(  2-C ,  4-C ) :   0.8955 B(  2-C , 12-H ) :   0.9286
B(  3-C ,  4-C ) :   0.8705 B(  3-C , 13-H ) :   0.9295 B(  3-C , 14-H ) :   0.9115
B(  4-C ,  5-C ) :   0.9685 B(  4-C , 15-H ) :   0.9284 B(  5-C ,  6-C ) :   0.8604
B(  5-C , 16-H ) :   0.9206 B(  5-C , 17-H ) :   0.9269 B(  6-C ,  7-C ) :   0.9537
B(  6-C , 18-H ) :   0.9108 B(  7-C ,  8-N ) :   2.8736

MP2 TOTAL ENERGY:     -381.385447422 Eh
FINAL SINGLE POINT ENERGY      -381.385447421784

DIPOLE MOMENT
-------------
                                X             Y             Z
Electronic contribution:      5.90663      -2.25219      -1.59242
Nuclear contribution   :     -7.47953       2.80555       2.46223
                        -----------------------------------------
Total Dipole Moment    :     -1.57290       0.55336       0.86981
                        -----------------------------------------
Magnitude (a.u.)       :      1.88064
Magnitude (Debye)      :      4.78021

                             ****ORCA TERMINATED NORMALLY****
TOTAL RUN TIME: 0 days 0 hours 18 minutes 43 seconds 0 msec
