                         Program Version 3.0.3 - RELEASE   -
|  1> ! RI-MP2 RIJK def2-TZVP def2-TZVP/C def2-TZVP/JK TIGHTSCF
|  2> % maxcore 2000
|  3> % mp2 density relaxed end
|  4> *xyz 0 1
|  5>  C       -0.0474105000     1.5304460770     0.0110315918
|  6>  C        1.3212857225     0.8524628578    -0.0063092061
|  7>  C        0.0649659908     0.0516810923     0.0018263956
|  8>  C       -0.5340325870    -1.0285743429     0.9151025417
|  9>  O       -1.7179137953    -1.0637523333     0.0134680070
| 10>  C       -0.5522092369    -1.0185785680    -0.9111160716
| 11>  C        0.1161297875    -2.0744476683    -0.0103206741
| 12>  C        1.2943105290    -2.9257017087    -0.0267075371
| 13>  O       -0.0597888370    -3.4528018179    -0.0161137922
| 14>  H       -0.3595858383     2.0194664052     0.9278068450
| 15>  H       -0.3777390439     2.0294325566    -0.8939360419
| 16>  H        1.9001132883     0.9013345349    -0.9230406973
| 17>  H        1.9182676250     0.8913773081     0.8991877193
| 18>  H       -0.7071307089    -1.0331533657     1.9902586508
| 19>  H       -0.7466741514    -1.0114063098    -1.9825993452
| 20>  H        1.8425382068    -3.0861302384    -0.9533045951
| 21>  H        1.8608555385    -3.0962020589     0.8869825593
| 22> *
| 23>
| 24>                          ****END OF INPUT****

CARTESIAN COORDINATES (ANGSTROEM)
---------------------------------
  C     -0.047410    1.530446    0.011032
  C      1.321286    0.852463   -0.006309
  C      0.064966    0.051681    0.001826
  C     -0.534033   -1.028574    0.915103
  O     -1.717914   -1.063752    0.013468
  C     -0.552209   -1.018579   -0.911116
  C      0.116130   -2.074448   -0.010321
  C      1.294311   -2.925702   -0.026708
  O     -0.059789   -3.452802   -0.016114
  H     -0.359586    2.019466    0.927807
  H     -0.377739    2.029433   -0.893936
  H      1.900113    0.901335   -0.923041
  H      1.918268    0.891377    0.899188
  H     -0.707131   -1.033153    1.990259
  H     -0.746674   -1.011406   -1.982599
  H      1.842538   -3.086130   -0.953305
  H      1.860856   -3.096202    0.886983

 Total Charge           Charge          ....    0
 Multiplicity           Mult            ....    1
 Number of Electrons    NEL             ....   66
 Basis Dimension        Dim             ....  327

ORBITAL ENERGIES
----------------

  NO   OCC          E(Eh)            E(eV)
   0   2.0000     -20.576301      -559.9096
   1   2.0000     -20.555726      -559.3497
   2   2.0000     -11.309860      -307.7569
   3   2.0000     -11.308117      -307.7095
   4   2.0000     -11.308064      -307.7081
   5   2.0000     -11.292879      -307.2949
   6   2.0000     -11.260511      -306.4141
   7   2.0000     -11.241213      -305.8890
   8   2.0000     -11.237558      -305.7895
   9   2.0000      -1.433475       -39.0068
  10   2.0000      -1.389982       -37.8233
  11   2.0000      -1.155559       -31.4443
  12   2.0000      -1.040630       -28.3170
  13   2.0000      -0.920672       -25.0527
  14   2.0000      -0.902792       -24.5662
  15   2.0000      -0.844700       -22.9855
  16   2.0000      -0.823778       -22.4161
  17   2.0000      -0.727716       -19.8022
  18   2.0000      -0.716373       -19.4935
  19   2.0000      -0.682165       -18.5627
  20   2.0000      -0.671301       -18.2670
  21   2.0000      -0.657910       -17.9026
  22   2.0000      -0.582265       -15.8442
  23   2.0000      -0.565719       -15.3940
  24   2.0000      -0.548040       -14.9129
  25   2.0000      -0.529050       -14.3962
  26   2.0000      -0.508314       -13.8319
  27   2.0000      -0.486771       -13.2457
  28   2.0000      -0.468135       -12.7386
  29   2.0000      -0.436845       -11.8872
  30   2.0000      -0.428607       -11.6630
  31   2.0000      -0.425467       -11.5775
  32   2.0000      -0.405998       -11.0478
  33   0.0000       0.134842         3.6692
  34   0.0000       0.152557         4.1513
  35   0.0000       0.167180         4.5492
  36   0.0000       0.171270         4.6605
  37   0.0000       0.187058         5.0901

MULLIKEN ATOMIC CHARGES
-----------------------
   0 C :   -0.267220
   1 C :   -0.268718
   2 C :    0.021412
   3 C :   -0.024487
   4 O :   -0.290044
   5 C :   -0.024491
   6 C :    0.199175
   7 C :   -0.110461
   8 O :   -0.315342
   9 H :    0.133047
  10 H :    0.133047
  11 H :    0.130923
  12 H :    0.130923
  13 H :    0.151583
  14 H :    0.151584
  15 H :    0.124534
  16 H :    0.124534
Sum of atomic charges:   -0.0000000

LOEWDIN ATOMIC CHARGES
----------------------
   0 C :   -0.192407
   1 C :   -0.200139
   2 C :   -0.199683
   3 C :   -0.143646
   4 O :    0.144643
   5 C :   -0.143644
   6 C :   -0.294787
   7 C :   -0.218646
   8 O :    0.189933
   9 H :    0.137750
  10 H :    0.137750
  11 H :    0.135690
  12 H :    0.135690
  13 H :    0.131864
  14 H :    0.131864
  15 H :    0.123884
  16 H :    0.123884

  Mayer bond orders larger than 0.1
B(  0-C ,  1-C ) :   0.9395 B(  0-C ,  2-C ) :   0.8768 B(  0-C ,  9-H ) :   0.9180
B(  0-C , 10-H ) :   0.9180 B(  1-C ,  2-C ) :   0.8392 B(  1-C , 11-H ) :   0.9118
B(  1-C , 12-H ) :   0.9118 B(  2-C ,  3-C ) :   0.9149 B(  2-C ,  5-C ) :   0.9149
B(  3-C ,  4-O ) :   0.9210 B(  3-C ,  6-C ) :   0.9233 B(  3-C , 13-H ) :   0.8666
B(  4-O ,  5-C ) :   0.9210 B(  5-C ,  6-C ) :   0.9233 B(  5-C , 14-H ) :   0.8666
B(  6-C ,  7-C ) :   0.9689 B(  6-C ,  8-O ) :   0.9437 B(  7-C ,  8-O ) :   0.8853
B(  7-C , 15-H ) :   0.9103 B(  7-C , 16-H ) :   0.9103

MP2 TOTAL ENERGY:     -420.980691201 Eh
FINAL SINGLE POINT ENERGY      -420.980691201081

DIPOLE MOMENT
-------------
                                X             Y             Z
Electronic contribution:     -3.92219      -4.89894       0.01225
Nuclear contribution   :      5.16256       5.59026      -0.02082
                        -----------------------------------------
Total Dipole Moment    :      1.24037       0.69132      -0.00856
                        -----------------------------------------
Magnitude (a.u.)       :      1.42004
Magnitude (Debye)      :      3.60945

                             ****ORCA TERMINATED NORMALLY****
TOTAL RUN TIME: 0 days 0 hours 15 minutes 15 seconds 178 msec
