                         Program Version 3.0.3 - RELEASE   -
|  1> ! RI-MP2 RIJK def2-TZVP def2-TZVP/C def2-TZVP/JK TIGHTSCF
|  2> % maxcore 2000
|  3> % mp2 density relaxed end
|  4> *xyz 0 1
|  5>  C        0.1717269798     1.5065944495    -0.1233381419
|  6>  O        0.4878266948     0.1298360955    -0.1880293177
|  7>  C        0.6945030727    -0.5274587425     1.0550121870
|  8>  C        2.0198092106    -0.1362704936     1.6952970943
|  9>  C       -0.5165343819    -0.5685304400     2.0374361810
| 10>  C       -0.3511427061    -2.1184088755     2.1215119575
| 11>  O       -1.4912360148    -2.9173130429     2.0246343248
| 12>  C        0.5395296979    -2.0663347746     0.8409215757
| 13>  O       -0.2517119745    -2.3716115653    -0.2890317118
| 14>  H        1.0145854718     2.1045762755     0.2473486041
| 15>  H       -0.0605310037     1.8263798191    -1.1417286573
| 16>  H       -0.7007876492     1.6951999412     0.5165092932
| 17>  H        2.0142238170     0.9051909206     2.0323534477
| 18>  H        2.2216327085    -0.7608810019     2.5712689930
| 19>  H        2.8390021573    -0.2692864116     0.9820159103
| 20>  H       -0.4411000088     0.0064634335     2.9632105919
| 21>  H       -1.4531431307    -0.3203532776     1.5316849179
| 22>  H        0.2077116867    -2.4251382180     3.0105447131
| 23>  H       -1.6848660472    -2.9557023726     1.0755681284
| 24>  H        1.4610613461    -2.6600856573     0.8285216784
| 25>  H       -0.2799924565    -1.5583712117    -0.8156233498
| 26> *
| 27>
| 28>                          ****END OF INPUT****

CARTESIAN COORDINATES (ANGSTROEM)
---------------------------------
  C      0.171727    1.506594   -0.123338
  O      0.487827    0.129836   -0.188029
  C      0.694503   -0.527459    1.055012
  C      2.019809   -0.136270    1.695297
  C     -0.516534   -0.568530    2.037436
  C     -0.351143   -2.118409    2.121512
  O     -1.491236   -2.917313    2.024634
  C      0.539530   -2.066335    0.840922
  O     -0.251712   -2.371612   -0.289032
  H      1.014585    2.104576    0.247349
  H     -0.060531    1.826380   -1.141729
  H     -0.700788    1.695200    0.516509
  H      2.014224    0.905191    2.032353
  H      2.221633   -0.760881    2.571269
  H      2.839002   -0.269286    0.982016
  H     -0.441100    0.006463    2.963211
  H     -1.453143   -0.320353    1.531685
  H      0.207712   -2.425138    3.010545
  H     -1.684866   -2.955702    1.075568
  H      1.461061   -2.660086    0.828522
  H     -0.279992   -1.558371   -0.815623

 Total Charge           Charge          ....    0
 Multiplicity           Mult            ....    1
 Number of Electrons    NEL             ....   72
 Basis Dimension        Dim             ....  351

ORBITAL ENERGIES
----------------

  NO   OCC          E(Eh)            E(eV)
   0   2.0000     -20.574378      -559.8573
   1   2.0000     -20.559190      -559.4440
   2   2.0000     -20.544019      -559.0312
   3   2.0000     -11.298454      -307.4466
   4   2.0000     -11.284919      -307.0782
   5   2.0000     -11.279544      -306.9320
   6   2.0000     -11.278061      -306.8916
   7   2.0000     -11.230202      -305.5893
   8   2.0000     -11.225339      -305.4570
   9   2.0000      -1.403935       -38.2030
  10   2.0000      -1.371705       -37.3260
  11   2.0000      -1.344458       -36.5846
  12   2.0000      -1.119001       -30.4496
  13   2.0000      -0.988245       -26.8915
  14   2.0000      -0.948050       -25.7977
  15   2.0000      -0.903525       -24.5862
  16   2.0000      -0.836632       -22.7659
  17   2.0000      -0.760261       -20.6878
  18   2.0000      -0.714911       -19.4537
  19   2.0000      -0.697235       -18.9727
  20   2.0000      -0.675777       -18.3888
  21   2.0000      -0.654413       -17.8075
  22   2.0000      -0.625893       -17.0314
  23   2.0000      -0.608473       -16.5574
  24   2.0000      -0.596852       -16.2412
  25   2.0000      -0.576973       -15.7002
  26   2.0000      -0.561910       -15.2903
  27   2.0000      -0.560055       -15.2399
  28   2.0000      -0.555776       -15.1234
  29   2.0000      -0.517223       -14.0743
  30   2.0000      -0.510371       -13.8879
  31   2.0000      -0.497123       -13.5274
  32   2.0000      -0.466751       -12.7009
  33   2.0000      -0.439133       -11.9494
  34   2.0000      -0.414999       -11.2927
  35   2.0000      -0.403902       -10.9907
  36   0.0000       0.127416         3.4672
  37   0.0000       0.152363         4.1460
  38   0.0000       0.163268         4.4428
  39   0.0000       0.178204         4.8492
  40   0.0000       0.189585         5.1589

MULLIKEN ATOMIC CHARGES
-----------------------
   0 C :   -0.217828
   1 O :   -0.361463
   2 C :    0.246958
   3 C :   -0.467371
   4 C :   -0.263403
   5 C :    0.067123
   6 O :   -0.473177
   7 C :    0.045088
   8 O :   -0.516548
   9 H :    0.123717
  10 H :    0.146872
  11 H :    0.123165
  12 H :    0.135543
  13 H :    0.141386
  14 H :    0.144645
  15 H :    0.123814
  16 H :    0.115457
  17 H :    0.099869
  18 H :    0.334504
  19 H :    0.107224
  20 H :    0.344424
Sum of atomic charges:    0.0000000

LOEWDIN ATOMIC CHARGES
----------------------
   0 C :   -0.345111
   1 O :    0.159929
   2 C :   -0.352704
   3 C :   -0.269550
   4 C :   -0.197760
   5 C :   -0.319817
   6 O :   -0.011340
   7 C :   -0.270008
   8 O :   -0.017694
   9 H :    0.105811
  10 H :    0.115667
  11 H :    0.106614
  12 H :    0.126511
  13 H :    0.134653
  14 H :    0.131864
  15 H :    0.128542
  16 H :    0.144144
  17 H :    0.137286
  18 H :    0.182105
  19 H :    0.128400
  20 H :    0.182457

  Mayer bond orders larger than 0.1
B(  0-C ,  1-O ) :   0.8929 B(  0-C ,  9-H ) :   0.9351 B(  0-C , 10-H ) :   0.9391
B(  0-C , 11-H ) :   0.9317 B(  1-O ,  2-C ) :   0.8622 B(  2-C ,  3-C ) :   0.9204
B(  2-C ,  4-C ) :   0.9329 B(  2-C ,  7-C ) :   0.8898 B(  3-C , 12-H ) :   0.9283
B(  3-C , 13-H ) :   0.9267 B(  3-C , 14-H ) :   0.9437 B(  4-C ,  5-C ) :   0.8838
B(  4-C , 15-H ) :   0.9174 B(  4-C , 16-H ) :   0.8933 B(  5-C ,  6-O ) :   1.0241
B(  5-C ,  7-C ) :   0.9058 B(  5-C , 17-H ) :   0.9434 B(  6-O , 18-H ) :   0.8121
B(  7-C ,  8-O ) :   0.9849 B(  7-C , 19-H ) :   0.9654 B(  8-O , 20-H ) :   0.8002

MP2 TOTAL ENERGY:     -460.615479399 Eh
FINAL SINGLE POINT ENERGY      -460.615479399082

DIPOLE MOMENT
-------------
                                X             Y             Z
Electronic contribution:     -2.87267      -5.92979      -1.88783
Nuclear contribution   :      3.44855       7.24058       1.82970
                        -----------------------------------------
Total Dipole Moment    :      0.57588       1.31080      -0.05813
                        -----------------------------------------
Magnitude (a.u.)       :      1.43290
Magnitude (Debye)      :      3.64215

                             ****ORCA TERMINATED NORMALLY****
TOTAL RUN TIME: 0 days 0 hours 18 minutes 5 seconds 812 msec
