                         Program Version 3.0.3 - RELEASE   -
|  1> ! RI-MP2 RIJK def2-TZVP def2-TZVP/C def2-TZVP/JK TIGHTSCF
|  2> % maxcore 2000
|  3> % mp2 density relaxed end
|  4> *xyz 0 1
|  5>  O        0.0309817233     0.0021309938     0.0200730135
|  6>  C       -0.0101041512     1.1927384857    -0.0267374391
|  7>  C       -1.0899135362     2.2884827650     0.0515607949
|  8>  C       -0.0460107381     3.0040913669     0.9738221270
|  9>  C        1.0184195578     2.3475932885     0.0352395659
| 10>  C        0.7192085451     3.0412247970    -1.3244806865
| 11>  C       -0.8655515882     3.0087084929    -1.2950847487
| 12>  C        1.2678611380     4.3896671154    -1.4126062017
| 13>  N        1.6955929430     5.4622260197    -1.4726902655
| 14>  H       -2.1132693722     2.0840507810     0.3566760269
| 15>  H       -0.0724323595     4.0957764354     0.9857518010
| 16>  H       -0.0193859486     2.6045530170     1.9881681011
| 17>  H        2.0597140183     2.2048118829     0.3116857280
| 18>  H        1.1158383196     2.4575293963    -2.1599822157
| 19>  H       -1.2714176113     2.4606784365    -2.1477077133
| 20>  H       -1.2882945397     4.0150041660    -1.2957964480
| 21> *
| 22>
| 23>                          ****END OF INPUT****

CARTESIAN COORDINATES (ANGSTROEM)
---------------------------------
  O      0.030982    0.002131    0.020073
  C     -0.010104    1.192738   -0.026737
  C     -1.089914    2.288483    0.051561
  C     -0.046011    3.004091    0.973822
  C      1.018420    2.347593    0.035240
  C      0.719209    3.041225   -1.324481
  C     -0.865552    3.008708   -1.295085
  C      1.267861    4.389667   -1.412606
  N      1.695593    5.462226   -1.472690
  H     -2.113269    2.084051    0.356676
  H     -0.072432    4.095776    0.985752
  H     -0.019386    2.604553    1.988168
  H      2.059714    2.204812    0.311686
  H      1.115838    2.457529   -2.159982
  H     -1.271418    2.460678   -2.147708
  H     -1.288295    4.015004   -1.295796

 Total Charge           Charge          ....    0
 Multiplicity           Mult            ....    1
 Number of Electrons    NEL             ....   64
 Basis Dimension        Dim             ....  321

ORBITAL ENERGIES
----------------

  NO   OCC          E(Eh)            E(eV)
   0   2.0000     -20.572842      -559.8155
   1   2.0000     -15.579538      -423.9408
   2   2.0000     -11.354712      -308.9774
   3   2.0000     -11.307244      -307.6858
   4   2.0000     -11.282234      -307.0052
   5   2.0000     -11.280600      -306.9607
   6   2.0000     -11.274761      -306.8018
   7   2.0000     -11.273096      -306.7565
   8   2.0000     -11.268176      -306.6227
   9   2.0000      -1.418098       -38.5884
  10   2.0000      -1.240314       -33.7507
  11   2.0000      -1.215244       -33.0685
  12   2.0000      -1.045948       -28.4617
  13   2.0000      -0.999062       -27.1859
  14   2.0000      -0.892983       -24.2993
  15   2.0000      -0.844337       -22.9756
  16   2.0000      -0.748425       -20.3657
  17   2.0000      -0.725058       -19.7298
  18   2.0000      -0.708680       -19.2842
  19   2.0000      -0.675205       -18.3733
  20   2.0000      -0.640191       -17.4205
  21   2.0000      -0.600244       -16.3335
  22   2.0000      -0.569975       -15.5098
  23   2.0000      -0.559635       -15.2285
  24   2.0000      -0.555043       -15.1035
  25   2.0000      -0.547804       -14.9065
  26   2.0000      -0.537309       -14.6209
  27   2.0000      -0.511692       -13.9239
  28   2.0000      -0.491393       -13.3715
  29   2.0000      -0.463969       -12.6252
  30   2.0000      -0.458011       -12.4631
  31   2.0000      -0.406894       -11.0721
  32   0.0000       0.116314         3.1651
  33   0.0000       0.130438         3.5494
  34   0.0000       0.143973         3.9177
  35   0.0000       0.148400         4.0382
  36   0.0000       0.163741         4.4556

MULLIKEN ATOMIC CHARGES
-----------------------
   0 O :   -0.229008
   1 C :    0.056983
   2 C :   -0.000066
   3 C :   -0.321505
   4 C :   -0.017909
   5 C :   -0.014444
   6 C :   -0.281033
   7 C :   -0.221010
   8 N :   -0.042978
   9 H :    0.151775
  10 H :    0.154704
  11 H :    0.148775
  12 H :    0.161899
  13 H :    0.155217
  14 H :    0.146600
  15 H :    0.152002
Sum of atomic charges:   -0.0000000

LOEWDIN ATOMIC CHARGES
----------------------
   0 O :    0.178403
   1 C :   -0.275943
   2 C :   -0.169557
   3 C :   -0.171885
   4 C :   -0.135840
   5 C :   -0.193362
   6 C :   -0.169364
   7 C :   -0.174887
   8 N :    0.064931
   9 H :    0.143950
  10 H :    0.143329
  11 H :    0.145925
  12 H :    0.147591
  13 H :    0.176568
  14 H :    0.142803
  15 H :    0.147338

  Mayer bond orders larger than 0.1
B(  0-O ,  1-C ) :   2.0686 B(  1-C ,  2-C ) :   0.8429 B(  1-C ,  4-C ) :   0.8144
B(  2-C ,  3-C ) :   0.8916 B(  2-C ,  4-C ) :  -0.1185 B(  2-C ,  6-C ) :   0.8885
B(  2-C ,  9-H ) :   0.9005 B(  3-C ,  4-C ) :   0.8990 B(  3-C , 10-H ) :   0.9111
B(  3-C , 11-H ) :   0.9223 B(  4-C ,  5-C ) :   0.8602 B(  4-C , 12-H ) :   0.8971
B(  5-C ,  6-C ) :   0.9062 B(  5-C ,  7-C ) :   0.9257 B(  5-C , 13-H ) :   0.9072
B(  6-C , 14-H ) :   0.9271 B(  6-C , 15-H ) :   0.9173 B(  7-C ,  8-N ) :   2.8757

MP2 TOTAL ENERGY:     -400.076469552 Eh
FINAL SINGLE POINT ENERGY      -400.076469551522

DIPOLE MOMENT
-------------
                                X             Y             Z
Electronic contribution:      2.62688      -1.17758      -1.12824
Nuclear contribution   :     -3.36175       0.87838       1.32237
                        -----------------------------------------
Total Dipole Moment    :     -0.73487      -0.29919       0.19413
                        -----------------------------------------
Magnitude (a.u.)       :      0.81685
Magnitude (Debye)      :      2.07626

                             ****ORCA TERMINATED NORMALLY****
TOTAL RUN TIME: 0 days 0 hours 16 minutes 59 seconds 11 msec
