                         Program Version 3.0.3 - RELEASE   -
|  1> ! RI-MP2 RIJK def2-TZVP def2-TZVP/C def2-TZVP/JK TIGHTSCF
|  2> % maxcore 2000
|  3> % mp2 density relaxed end
|  4> *xyz 0 1
|  5>  N       -0.0480829243    -1.1879831626     0.1992417149
|  6>  C       -0.0273589681    -0.0339020273     0.1568288836
|  7>  C       -0.0044792332     1.4267799156     0.0820499839
|  8>  C        1.3973273913     1.9954899951    -0.0155824555
|  9>  C        1.7024663539     3.5278174251    -0.0280340749
| 10>  C        3.0210068890     2.9078356927     0.5240549206
| 11>  O        2.1893732860     1.9141735523     1.2140733185
| 12>  C        3.5199589082     2.1043002435    -0.6932926593
| 13>  C        2.4053045057     1.4767493377    -1.0675757371
| 14>  H       -0.5839095811     1.7419271855    -0.7935663396
| 15>  H       -0.4999878477     1.8390768270     0.9668372556
| 16>  H        1.7248563569     4.0517858855    -0.9852946704
| 17>  H        1.1410005110     4.0745143388     0.7340829587
| 18>  H        3.7216938855     3.4370230688     1.1664416901
| 19>  H        4.5177405376     2.0874681056    -1.1051719567
| 20>  H        2.2067144595     0.7792028268    -1.8675051223
| 21> *
| 22>
| 23>                          ****END OF INPUT****

CARTESIAN COORDINATES (ANGSTROEM)
---------------------------------
  N     -0.048083   -1.187983    0.199242
  C     -0.027359   -0.033902    0.156829
  C     -0.004479    1.426780    0.082050
  C      1.397327    1.995490   -0.015582
  C      1.702466    3.527817   -0.028034
  C      3.021007    2.907836    0.524055
  O      2.189373    1.914174    1.214073
  C      3.519959    2.104300   -0.693293
  C      2.405305    1.476749   -1.067576
  H     -0.583910    1.741927   -0.793566
  H     -0.499988    1.839077    0.966837
  H      1.724856    4.051786   -0.985295
  H      1.141001    4.074514    0.734083
  H      3.721694    3.437023    1.166442
  H      4.517741    2.087468   -1.105172
  H      2.206714    0.779203   -1.867505

 Total Charge           Charge          ....    0
 Multiplicity           Mult            ....    1
 Number of Electrons    NEL             ....   64
 Basis Dimension        Dim             ....  321

ORBITAL ENERGIES
----------------

  NO   OCC          E(Eh)            E(eV)
   0   2.0000     -20.563459      -559.5602
   1   2.0000     -15.570205      -423.6868
   2   2.0000     -11.327696      -308.2423
   3   2.0000     -11.311393      -307.7987
   4   2.0000     -11.292123      -307.2743
   5   2.0000     -11.274948      -306.8069
   6   2.0000     -11.255338      -306.2733
   7   2.0000     -11.249207      -306.1065
   8   2.0000     -11.247444      -306.0585
   9   2.0000      -1.409132       -38.3444
  10   2.0000      -1.219582       -33.1865
  11   2.0000      -1.114517       -30.3275
  12   2.0000      -1.074769       -29.2459
  13   2.0000      -0.989895       -26.9364
  14   2.0000      -0.922332       -25.0979
  15   2.0000      -0.782675       -21.2977
  16   2.0000      -0.761934       -20.7333
  17   2.0000      -0.730490       -19.8777
  18   2.0000      -0.693685       -18.8761
  19   2.0000      -0.672187       -18.2911
  20   2.0000      -0.641231       -17.4488
  21   2.0000      -0.596782       -16.2393
  22   2.0000      -0.577586       -15.7169
  23   2.0000      -0.564822       -15.3696
  24   2.0000      -0.555596       -15.1185
  25   2.0000      -0.529116       -14.3980
  26   2.0000      -0.507478       -13.8092
  27   2.0000      -0.483223       -13.1492
  28   2.0000      -0.459604       -12.5065
  29   2.0000      -0.453545       -12.3416
  30   2.0000      -0.437016       -11.8918
  31   2.0000      -0.367764       -10.0074
  32   0.0000       0.118064         3.2127
  33   0.0000       0.123110         3.3500
  34   0.0000       0.152543         4.1509
  35   0.0000       0.165300         4.4980
  36   0.0000       0.169051         4.6001

MULLIKEN ATOMIC CHARGES
-----------------------
   0 N :   -0.052329
   1 C :   -0.183949
   2 C :   -0.140006
   3 C :    0.170216
   4 C :   -0.128348
   5 C :    0.002293
   6 O :   -0.288298
   7 C :   -0.170720
   8 C :   -0.238244
   9 H :    0.167014
  10 H :    0.167498
  11 H :    0.122778
  12 H :    0.123028
  13 H :    0.149294
  14 H :    0.146524
  15 H :    0.153248
Sum of atomic charges:    0.0000000

LOEWDIN ATOMIC CHARGES
----------------------
   0 N :    0.065348
   1 C :   -0.181855
   2 C :   -0.203958
   3 C :   -0.279726
   4 C :   -0.162886
   5 C :   -0.225878
   6 O :    0.179290
   7 C :   -0.119077
   8 C :   -0.099647
   9 H :    0.174994
  10 H :    0.174492
  11 H :    0.130168
  12 H :    0.136512
  13 H :    0.133083
  14 H :    0.136995
  15 H :    0.142146

  Mayer bond orders larger than 0.1
B(  0-N ,  1-C ) :   2.8626 B(  1-C ,  2-C ) :   0.9493 B(  2-C ,  3-C ) :   0.8535
B(  2-C ,  9-H ) :   0.9109 B(  2-C , 10-H ) :   0.9120 B(  3-C ,  4-C ) :   0.8916
B(  3-C ,  6-O ) :   0.9328 B(  3-C ,  8-C ) :   0.9216 B(  4-C ,  5-C ) :   0.9539
B(  4-C , 11-H ) :   0.9101 B(  4-C , 12-H ) :   0.9240 B(  5-C ,  6-O ) :   0.9216
B(  5-C ,  7-C ) :   0.9466 B(  5-C , 13-H ) :   0.9009 B(  7-C ,  8-C ) :   1.7707
B(  7-C , 14-H ) :   0.9238 B(  8-C , 15-H ) :   0.9208

MP2 TOTAL ENERGY:     -400.020198420 Eh
FINAL SINGLE POINT ENERGY      -400.020198419764

DIPOLE MOMENT
-------------
                                X             Y             Z
Electronic contribution:     -0.95799      -4.50829       1.47930
Nuclear contribution   :      1.11859       6.41588      -2.17310
                        -----------------------------------------
Total Dipole Moment    :      0.16060       1.90758      -0.69379
                        -----------------------------------------
Magnitude (a.u.)       :      2.03618
Magnitude (Debye)      :      5.17555

                             ****ORCA TERMINATED NORMALLY****
TOTAL RUN TIME: 0 days 0 hours 16 minutes 56 seconds 540 msec
