                         Program Version 3.0.3 - RELEASE   -
|  1> ! RI-MP2 RIJK def2-TZVP def2-TZVP/C def2-TZVP/JK TIGHTSCF
|  2> % maxcore 2000
|  3> % mp2 density relaxed end
|  4> *xyz 0 1
|  5>  C       -0.0665249654     1.3826380042     0.1298828059
|  6>  O        0.3825734657     0.0518087347    -0.1262042551
|  7>  C        0.8303076076    -0.6392862649     0.9316511390
|  8>  C        0.8000677244    -1.9806588616     1.1594901436
|  9>  C        0.1676371936    -3.0392232921     0.3146490159
| 10>  C        1.5006200347    -2.1525706102     2.4119041699
| 11>  N        1.6337412622    -3.3830910077     3.0704620217
| 12>  C        1.8824010173    -0.9159781960     2.8306369057
| 13>  O        1.4650683142     0.0349662729     1.9131207657
| 14>  H        0.7544792365     2.0185669921     0.4735604450
| 15>  H       -0.4494454348     1.7572297136    -0.8203474020
| 16>  H       -0.8656104484     1.3900705129     0.8802568070
| 17>  H        0.9085737629    -3.7087034244    -0.1427856283
| 18>  H       -0.5139542688    -3.6660071491     0.9018000993
| 19>  H       -0.4040610268    -2.5848777024    -0.4984733804
| 20>  H        1.8442062730    -4.1420945836     2.4342451615
| 21>  H        2.3288697675    -3.3639595854     3.8054416473
| 22>  H        2.3831198744    -0.5376996631     3.7042623084
| 23> *
| 24>
| 25>                          ****END OF INPUT****

CARTESIAN COORDINATES (ANGSTROEM)
---------------------------------
  C     -0.066525    1.382638    0.129883
  O      0.382573    0.051809   -0.126204
  C      0.830308   -0.639286    0.931651
  C      0.800068   -1.980659    1.159490
  C      0.167637   -3.039223    0.314649
  C      1.500620   -2.152571    2.411904
  N      1.633741   -3.383091    3.070462
  C      1.882401   -0.915978    2.830637
  O      1.465068    0.034966    1.913121
  H      0.754479    2.018567    0.473560
  H     -0.449445    1.757230   -0.820347
  H     -0.865610    1.390071    0.880257
  H      0.908574   -3.708703   -0.142786
  H     -0.513954   -3.666007    0.901800
  H     -0.404061   -2.584878   -0.498473
  H      1.844206   -4.142095    2.434245
  H      2.328870   -3.363960    3.805442
  H      2.383120   -0.537700    3.704262

 Total Charge           Charge          ....    0
 Multiplicity           Mult            ....    1
 Number of Electrons    NEL             ....   68
 Basis Dimension        Dim             ....  333

ORBITAL ENERGIES
----------------

  NO   OCC          E(Eh)            E(eV)
   0   2.0000     -20.607342      -560.7543
   1   2.0000     -20.591019      -560.3101
   2   2.0000     -15.562949      -423.4894
   3   2.0000     -11.338969      -308.5490
   4   2.0000     -11.284515      -307.0673
   5   2.0000     -11.263162      -306.4862
   6   2.0000     -11.252765      -306.2033
   7   2.0000     -11.221217      -305.3448
   8   2.0000     -11.213837      -305.1440
   9   2.0000      -1.467992       -39.9461
  10   2.0000      -1.394212       -37.9384
  11   2.0000      -1.210792       -32.9473
  12   2.0000      -1.075074       -29.2543
  13   2.0000      -0.993382       -27.0313
  14   2.0000      -0.959697       -26.1147
  15   2.0000      -0.913698       -24.8630
  16   2.0000      -0.787761       -21.4361
  17   2.0000      -0.767849       -20.8942
  18   2.0000      -0.720888       -19.6164
  19   2.0000      -0.675880       -18.3916
  20   2.0000      -0.667592       -18.1661
  21   2.0000      -0.643891       -17.5212
  22   2.0000      -0.625708       -17.0264
  23   2.0000      -0.610284       -16.6067
  24   2.0000      -0.585160       -15.9230
  25   2.0000      -0.568841       -15.4790
  26   2.0000      -0.560595       -15.2546
  27   2.0000      -0.537419       -14.6239
  28   2.0000      -0.521753       -14.1976
  29   2.0000      -0.506406       -13.7800
  30   2.0000      -0.487859       -13.2753
  31   2.0000      -0.480901       -13.0860
  32   2.0000      -0.342427        -9.3179
  33   2.0000      -0.280542        -7.6339
  34   0.0000       0.129174         3.5150
  35   0.0000       0.149845         4.0775
  36   0.0000       0.163699         4.4545
  37   0.0000       0.180359         4.9078
  38   0.0000       0.192380         5.2349

MULLIKEN ATOMIC CHARGES
-----------------------
   0 C :   -0.208459
   1 O :   -0.296365
   2 C :    0.317033
   3 C :   -0.084604
   4 C :   -0.476626
   5 C :    0.157616
   6 N :   -0.522462
   7 C :   -0.136269
   8 O :   -0.231982
   9 H :    0.140909
  10 H :    0.143574
  11 H :    0.126922
  12 H :    0.136765
  13 H :    0.154221
  14 H :    0.154269
  15 H :    0.251407
  16 H :    0.239650
  17 H :    0.134401
Sum of atomic charges:    0.0000000

LOEWDIN ATOMIC CHARGES
----------------------
   0 C :   -0.315196
   1 O :    0.226490
   2 C :   -0.371270
   3 C :   -0.179285
   4 C :   -0.275097
   5 C :   -0.268021
   6 N :   -0.088142
   7 C :   -0.253915
   8 O :    0.330900
   9 H :    0.110719
  10 H :    0.114962
  11 H :    0.109659
  12 H :    0.126763
  13 H :    0.132220
  14 H :    0.136859
  15 H :    0.168250
  16 H :    0.166857
  17 H :    0.127249

  Mayer bond orders larger than 0.1
B(  0-C ,  1-O ) :   0.8512 B(  0-C ,  9-H ) :   0.9385 B(  0-C , 10-H ) :   0.9374
B(  0-C , 11-H ) :   0.9307 B(  1-O ,  2-C ) :   1.0992 B(  2-C ,  3-C ) :   1.5061
B(  2-C ,  8-O ) :   1.0626 B(  3-C ,  4-C ) :   0.8416 B(  3-C ,  5-C ) :   1.1623
B(  4-C , 12-H ) :   0.9411 B(  4-C , 13-H ) :   0.9413 B(  4-C , 14-H ) :   0.9430
B(  5-C ,  6-N ) :   0.9716 B(  5-C ,  7-C ) :   1.5605 B(  6-N , 15-H ) :   0.8742
B(  6-N , 16-H ) :   0.8849 B(  7-C ,  8-O ) :   0.9666 B(  7-C , 17-H ) :   0.9491

MP2 TOTAL ENERGY:     -438.370410264 Eh
FINAL SINGLE POINT ENERGY      -438.370410264345

DIPOLE MOMENT
-------------
                                X             Y             Z
Electronic contribution:      2.53668       2.20346       1.69948
Nuclear contribution   :     -2.34383      -2.24760      -1.60897
                        -----------------------------------------
Total Dipole Moment    :      0.19285      -0.04413       0.09050
                        -----------------------------------------
Magnitude (a.u.)       :      0.21756
Magnitude (Debye)      :      0.55299

                             ****ORCA TERMINATED NORMALLY****
TOTAL RUN TIME: 0 days 0 hours 16 minutes 36 seconds 534 msec
