                         Program Version 3.0.3 - RELEASE   -
|  1> ! RI-MP2 RIJK def2-TZVP def2-TZVP/C def2-TZVP/JK TIGHTSCF
|  2> % maxcore 2000
|  3> % mp2 density relaxed end
|  4> *xyz 0 1
|  5>  C        0.1323768996     1.2735174461    -0.3776458115
|  6>  C        0.0837014212    -0.1232816897     0.2421807867
|  7>  O        0.5635760466    -0.1231166782     1.5847880228
|  8>  C       -1.3078535059    -0.7257020547     0.1711278816
|  9>  C       -1.9224169763    -1.2320295523    -1.1189456133
| 10>  O       -1.0260612377    -1.4582231412    -2.1883612404
| 11>  C       -0.5064565966    -2.7586603430    -1.9637375611
| 12>  O       -0.4549799662    -2.9437413940    -0.5605011033
| 13>  C       -1.5448704922    -2.2080952466    -0.0473137754
| 14>  H        1.1347200334     1.6974805852    -0.2703947884
| 15>  H       -0.1226310780     1.2299149266    -1.4403342450
| 16>  H       -0.5802027441     1.9480716003     0.1146023416
| 17>  H        0.7738918399    -0.7795947221    -0.2922005509
| 18>  H        0.0428853981     0.5176277906     2.0815691421
| 19>  H       -2.0283748679    -0.2554857228     0.8407306057
| 20>  H       -2.9374581727    -0.9895148535    -1.4150927470
| 21>  H       -1.1602471775    -3.5166678411    -2.4279895847
| 22>  H        0.5059004022    -2.8173769250    -2.3720238223
| 23>  H       -2.2444830757    -2.7803030647     0.5519470329
| 24> *
| 25>
| 26>                          ****END OF INPUT****

CARTESIAN COORDINATES (ANGSTROEM)
---------------------------------
  C      0.132377    1.273517   -0.377646
  C      0.083701   -0.123282    0.242181
  O      0.563576   -0.123117    1.584788
  C     -1.307854   -0.725702    0.171128
  C     -1.922417   -1.232030   -1.118946
  O     -1.026061   -1.458223   -2.188361
  C     -0.506457   -2.758660   -1.963738
  O     -0.454980   -2.943741   -0.560501
  C     -1.544870   -2.208095   -0.047314
  H      1.134720    1.697481   -0.270395
  H     -0.122631    1.229915   -1.440334
  H     -0.580203    1.948072    0.114602
  H      0.773892   -0.779595   -0.292201
  H      0.042885    0.517628    2.081569
  H     -2.028375   -0.255486    0.840731
  H     -2.937458   -0.989515   -1.415093
  H     -1.160247   -3.516668   -2.427990
  H      0.505900   -2.817377   -2.372024
  H     -2.244483   -2.780303    0.551947

 Total Charge           Charge          ....    0
 Multiplicity           Mult            ....    1
 Number of Electrons    NEL             ....   70
 Basis Dimension        Dim             ....  339

ORBITAL ENERGIES
----------------

  NO   OCC          E(Eh)            E(eV)
   0   2.0000     -20.575616      -559.8910
   1   2.0000     -20.573436      -559.8317
   2   2.0000     -20.550664      -559.2120
   3   2.0000     -11.337155      -308.4997
   4   2.0000     -11.293802      -307.3200
   5   2.0000     -11.291948      -307.2695
   6   2.0000     -11.281017      -306.9721
   7   2.0000     -11.242038      -305.9114
   8   2.0000     -11.215268      -305.1829
   9   2.0000      -1.452386       -39.5214
  10   2.0000      -1.356721       -36.9183
  11   2.0000      -1.342273       -36.5251
  12   2.0000      -1.141939       -31.0737
  13   2.0000      -1.013494       -27.5786
  14   2.0000      -0.918560       -24.9953
  15   2.0000      -0.870845       -23.6969
  16   2.0000      -0.831700       -22.6317
  17   2.0000      -0.785935       -21.3864
  18   2.0000      -0.741642       -20.1811
  19   2.0000      -0.700491       -19.0613
  20   2.0000      -0.652685       -17.7605
  21   2.0000      -0.638369       -17.3709
  22   2.0000      -0.632737       -17.2176
  23   2.0000      -0.606693       -16.5090
  24   2.0000      -0.604371       -16.4458
  25   2.0000      -0.570827       -15.5330
  26   2.0000      -0.557292       -15.1647
  27   2.0000      -0.541269       -14.7287
  28   2.0000      -0.524505       -14.2725
  29   2.0000      -0.521490       -14.1905
  30   2.0000      -0.481904       -13.1133
  31   2.0000      -0.471025       -12.8172
  32   2.0000      -0.449254       -12.2248
  33   2.0000      -0.400657       -10.9024
  34   2.0000      -0.393899       -10.7185
  35   0.0000       0.130982         3.5642
  36   0.0000       0.154445         4.2027
  37   0.0000       0.161033         4.3819
  38   0.0000       0.178894         4.8679
  39   0.0000       0.196600         5.3498

MULLIKEN ATOMIC CHARGES
-----------------------
   0 C :   -0.412598
   1 C :    0.113657
   2 O :   -0.460680
   3 C :   -0.154764
   4 C :    0.020882
   5 O :   -0.336913
   6 C :    0.120864
   7 O :   -0.329828
   8 C :    0.038432
   9 H :    0.146200
  10 H :    0.142672
  11 H :    0.107834
  12 H :    0.101468
  13 H :    0.306074
  14 H :    0.116339
  15 H :    0.132190
  16 H :    0.088002
  17 H :    0.126415
  18 H :    0.133754
Sum of atomic charges:   -0.0000000

LOEWDIN ATOMIC CHARGES
----------------------
   0 C :   -0.298555
   1 C :   -0.348630
   2 O :   -0.018653
   3 C :   -0.181895
   4 C :   -0.256465
   5 O :    0.173838
   6 C :   -0.352851
   7 O :    0.181029
   8 C :   -0.252868
   9 H :    0.125998
  10 H :    0.131227
  11 H :    0.119519
  12 H :    0.153164
  13 H :    0.170920
  14 H :    0.155016
  15 H :    0.135244
  16 H :    0.107623
  17 H :    0.120095
  18 H :    0.136243

  Mayer bond orders larger than 0.1
B(  0-C ,  1-C ) :   0.9374 B(  0-C ,  9-H ) :   0.9435 B(  0-C , 10-H ) :   0.9299
B(  0-C , 11-H ) :   0.9166 B(  1-C ,  2-O ) :   0.9463 B(  1-C ,  3-C ) :   0.9183
B(  1-C , 12-H ) :   0.9135 B(  2-O , 13-H ) :   0.8454 B(  3-C ,  4-C ) :   0.8568
B(  3-C ,  8-C ) :   0.8583 B(  3-C , 14-H ) :   0.8968 B(  4-C ,  5-O ) :   0.9364
B(  4-C ,  8-C ) :   0.8738 B(  4-C , 15-H ) :   0.9341 B(  5-O ,  6-C ) :   0.9497
B(  6-C ,  7-O ) :   0.9531 B(  6-C , 16-H ) :   0.9147 B(  6-C , 17-H ) :   0.9310
B(  7-O ,  8-C ) :   0.9350 B(  8-C , 18-H ) :   0.9341

MP2 TOTAL ENERGY:     -459.397304599 Eh
FINAL SINGLE POINT ENERGY      -459.397304599017

DIPOLE MOMENT
-------------
                                X             Y             Z
Electronic contribution:     -0.65239      -4.93018      -0.15350
Nuclear contribution   :     -0.26764       5.22886       0.01858
                        -----------------------------------------
Total Dipole Moment    :     -0.92004       0.29868      -0.13492
                        -----------------------------------------
Magnitude (a.u.)       :      0.97667
Magnitude (Debye)      :      2.48249

                             ****ORCA TERMINATED NORMALLY****
TOTAL RUN TIME: 0 days 0 hours 16 minutes 58 seconds 131 msec
