                         Program Version 3.0.3 - RELEASE   -
|  1> ! RI-MP2 RIJK def2-TZVP def2-TZVP/C def2-TZVP/JK TIGHTSCF
|  2> % maxcore 2000
|  3> % mp2 density relaxed end
|  4> *xyz 0 1
|  5>  C        0.0166044758     1.5211427855     0.2905688621
|  6>  C        1.2955079802     0.7832726956    -0.0210469737
|  7>  C        2.2957360617     0.4127172972     1.0675437250
|  8>  C        1.6621803427    -0.0918616763     2.3938929114
|  9>  C        0.5850252454    -1.1346734350     2.1648203433
| 10>  C       -0.1810648632    -0.9978529222     1.0889909528
| 11>  C       -1.2031926318    -1.7575863026     0.2588368176
| 12>  C       -0.8523599287    -0.8049249884    -0.9455246746
| 13>  C       -0.0119885318     0.0338233153     0.0343230048
| 14>  H       -0.1765639502     1.8773925211     1.2976034495
| 15>  H       -0.3811888967     2.1613265108    -0.4913706182
| 16>  H        1.7291363061     0.9754313932    -0.9993320555
| 17>  H        2.9420826099    -0.3818134485     0.6724576093
| 18>  H        2.9491006338     1.2653478450     1.2878885036
| 19>  H        2.4586358952    -0.5019289614     3.0242732054
| 20>  H        1.2592611934     0.7630298434     2.9541269934
| 21>  H        0.4927684362    -1.9697029410     2.8532153577
| 22>  H       -1.0184869155    -2.8249982373     0.1092635540
| 23>  H       -2.2343905690    -1.6336680730     0.6057295304
| 24>  H       -0.2649953068    -1.2988941802    -1.7245631574
| 25>  H       -1.7007317570    -0.2973900613    -1.4112806207
| 26> *
| 27>
| 28>                          ****END OF INPUT****

CARTESIAN COORDINATES (ANGSTROEM)
---------------------------------
  C      0.016604    1.521143    0.290569
  C      1.295508    0.783273   -0.021047
  C      2.295736    0.412717    1.067544
  C      1.662180   -0.091862    2.393893
  C      0.585025   -1.134673    2.164820
  C     -0.181065   -0.997853    1.088991
  C     -1.203193   -1.757586    0.258837
  C     -0.852360   -0.804925   -0.945525
  C     -0.011989    0.033823    0.034323
  H     -0.176564    1.877393    1.297603
  H     -0.381189    2.161327   -0.491371
  H      1.729136    0.975431   -0.999332
  H      2.942083   -0.381813    0.672458
  H      2.949101    1.265348    1.287889
  H      2.458636   -0.501929    3.024273
  H      1.259261    0.763030    2.954127
  H      0.492768   -1.969703    2.853215
  H     -1.018487   -2.824998    0.109264
  H     -2.234391   -1.633668    0.605730
  H     -0.264995   -1.298894   -1.724563
  H     -1.700732   -0.297390   -1.411281

 Total Charge           Charge          ....    0
 Multiplicity           Mult            ....    1
 Number of Electrons    NEL             ....   66
 Basis Dimension        Dim             ....  351

ORBITAL ENERGIES
----------------

  NO   OCC          E(Eh)            E(eV)
   0   2.0000     -11.226629      -305.4921
   1   2.0000     -11.225933      -305.4732
   2   2.0000     -11.224887      -305.4447
   3   2.0000     -11.224281      -305.4282
   4   2.0000     -11.221091      -305.3414
   5   2.0000     -11.221021      -305.3395
   6   2.0000     -11.220384      -305.3222
   7   2.0000     -11.219257      -305.2915
   8   2.0000     -11.208510      -304.9991
   9   2.0000      -1.178863       -32.0785
  10   2.0000      -1.077500       -29.3203
  11   2.0000      -1.049632       -28.5619
  12   2.0000      -0.955124       -25.9902
  13   2.0000      -0.878463       -23.9042
  14   2.0000      -0.844878       -22.9903
  15   2.0000      -0.797696       -21.7064
  16   2.0000      -0.765469       -20.8295
  17   2.0000      -0.668581       -18.1930
  18   2.0000      -0.656966       -17.8770
  19   2.0000      -0.621987       -16.9251
  20   2.0000      -0.617627       -16.8065
  21   2.0000      -0.606126       -16.4935
  22   2.0000      -0.558920       -15.2090
  23   2.0000      -0.536006       -14.5855
  24   2.0000      -0.514728       -14.0065
  25   2.0000      -0.509917       -13.8755
  26   2.0000      -0.490727       -13.3534
  27   2.0000      -0.481973       -13.1152
  28   2.0000      -0.463755       -12.6194
  29   2.0000      -0.439501       -11.9594
  30   2.0000      -0.416463       -11.3325
  31   2.0000      -0.383835       -10.4447
  32   2.0000      -0.315954        -8.5976
  33   0.0000       0.138593         3.7713
  34   0.0000       0.151459         4.1214
  35   0.0000       0.157899         4.2966
  36   0.0000       0.165216         4.4958
  37   0.0000       0.170477         4.6389

MULLIKEN ATOMIC CHARGES
-----------------------
   0 C :   -0.332061
   1 C :   -0.119776
   2 C :   -0.221471
   3 C :   -0.210694
   4 C :   -0.165537
   5 C :   -0.074870
   6 C :   -0.224302
   7 C :   -0.170028
   8 C :    0.084754
   9 H :    0.133869
  10 H :    0.127085
  11 H :    0.119503
  12 H :    0.110112
  13 H :    0.117218
  14 H :    0.125939
  15 H :    0.119640
  16 H :    0.119771
  17 H :    0.116879
  18 H :    0.118218
  19 H :    0.112152
  20 H :    0.113600
Sum of atomic charges:    0.0000000

LOEWDIN ATOMIC CHARGES
----------------------
   0 C :   -0.176579
   1 C :   -0.183359
   2 C :   -0.229405
   3 C :   -0.243669
   4 C :   -0.154021
   5 C :   -0.126200
   6 C :   -0.186275
   7 C :   -0.181138
   8 C :   -0.171687
   9 H :    0.136226
  10 H :    0.136288
  11 H :    0.148673
  12 H :    0.142834
  13 H :    0.139214
  14 H :    0.140203
  15 H :    0.140111
  16 H :    0.138259
  17 H :    0.131450
  18 H :    0.138725
  19 H :    0.132658
  20 H :    0.127690

  Mayer bond orders larger than 0.1
B(  0-C ,  1-C ) :   0.9516 B(  0-C ,  8-C ) :   0.8042 B(  0-C ,  9-H ) :   0.9164
B(  0-C , 10-H ) :   0.9212 B(  1-C ,  2-C ) :   0.9328 B(  1-C ,  8-C ) :   0.7873
B(  1-C , 11-H ) :   0.9228 B(  2-C ,  3-C ) :   0.9362 B(  2-C , 12-H ) :   0.9254
B(  2-C , 13-H ) :   0.9288 B(  3-C ,  4-C ) :   0.9327 B(  3-C , 14-H ) :   0.9336
B(  3-C , 15-H ) :   0.9223 B(  4-C ,  5-C ) :   1.7109 B(  4-C , 16-H ) :   0.9253
B(  5-C ,  6-C ) :   0.9740 B(  5-C ,  8-C ) :   0.9507 B(  6-C ,  7-C ) :   1.0046
B(  6-C , 17-H ) :   0.9087 B(  6-C , 18-H ) :   0.8947 B(  7-C ,  8-C ) :   0.9127
B(  7-C , 19-H ) :   0.9033 B(  7-C , 20-H ) :   0.9170

MP2 TOTAL ENERGY:     -349.285214298 Eh
FINAL SINGLE POINT ENERGY      -349.285214298037

DIPOLE MOMENT
-------------
                                X             Y             Z
Electronic contribution:     -0.99491      -0.67666       0.08791
Nuclear contribution   :      1.05135       0.71612      -0.22376
                        -----------------------------------------
Total Dipole Moment    :      0.05645       0.03946      -0.13585
                        -----------------------------------------
Magnitude (a.u.)       :      0.15231
Magnitude (Debye)      :      0.38715

                             ****ORCA TERMINATED NORMALLY****
TOTAL RUN TIME: 0 days 0 hours 21 minutes 28 seconds 506 msec
