                         Program Version 3.0.3 - RELEASE   -
|  1> ! RI-MP2 RIJK def2-TZVP def2-TZVP/C def2-TZVP/JK TIGHTSCF
|  2> % maxcore 2000
|  3> % mp2 density relaxed end
|  4> *xyz 0 1
|  5>  C        0.0526704842    -1.2256481376    -0.0083848622
|  6>  C        0.0836137920    -0.0465266069     0.2221638879
|  7>  C        0.1429123668     1.3864946515     0.4796344550
|  8>  C        1.1625738515     2.0959240937    -0.4316445651
|  9>  C        1.2188115902     3.5616125934    -0.1635196985
| 10>  N        0.5438997703     4.2551998195     0.6983614293
| 11>  C        0.9884921057     5.5617555980     0.5241122931
| 12>  C        1.9233239655     5.5823628300    -0.4509528703
| 13>  O        2.0840630267     4.3015533183    -0.9050963719
| 14>  H        0.0132764156    -2.2691861958    -0.1997903463
| 15>  H       -0.8445344570     1.8387582017     0.3369248173
| 16>  H        0.4038345486     1.5732826467     1.5269834745
| 17>  H        2.1582295852     1.6598436339    -0.2902312286
| 18>  H        0.9063754361     1.9260282243    -1.4837706016
| 19>  H        0.6007758773     6.3779034245     1.1123742930
| 20>  H        2.5294884913     6.3392705149    -0.9173498356
| 21> *
| 22>
| 23>                          ****END OF INPUT****

CARTESIAN COORDINATES (ANGSTROEM)
---------------------------------
  C      0.052670   -1.225648   -0.008385
  C      0.083614   -0.046527    0.222164
  C      0.142912    1.386495    0.479634
  C      1.162574    2.095924   -0.431645
  C      1.218812    3.561613   -0.163520
  N      0.543900    4.255200    0.698361
  C      0.988492    5.561756    0.524112
  C      1.923324    5.582363   -0.450953
  O      2.084063    4.301553   -0.905096
  H      0.013276   -2.269186   -0.199790
  H     -0.844534    1.838758    0.336925
  H      0.403835    1.573283    1.526983
  H      2.158230    1.659844   -0.290231
  H      0.906375    1.926028   -1.483771
  H      0.600776    6.377903    1.112374
  H      2.529488    6.339271   -0.917350

 Total Charge           Charge          ....    0
 Multiplicity           Mult            ....    1
 Number of Electrons    NEL             ....   64
 Basis Dimension        Dim             ....  321

ORBITAL ENERGIES
----------------

  NO   OCC          E(Eh)            E(eV)
   0   2.0000     -20.637468      -561.5741
   1   2.0000     -15.563477      -423.5037
   2   2.0000     -11.340869      -308.6007
   3   2.0000     -11.293414      -307.3094
   4   2.0000     -11.262663      -306.4726
   5   2.0000     -11.259240      -306.3795
   6   2.0000     -11.258589      -306.3618
   7   2.0000     -11.236257      -305.7541
   8   2.0000     -11.222919      -305.3911
   9   2.0000      -1.487293       -40.4713
  10   2.0000      -1.234603       -33.5953
  11   2.0000      -1.108481       -30.1633
  12   2.0000      -1.045989       -28.4628
  13   2.0000      -0.991612       -26.9831
  14   2.0000      -0.908003       -24.7080
  15   2.0000      -0.839093       -22.8329
  16   2.0000      -0.789405       -21.4808
  17   2.0000      -0.730810       -19.8864
  18   2.0000      -0.719661       -19.5830
  19   2.0000      -0.678845       -18.4723
  20   2.0000      -0.651398       -17.7254
  21   2.0000      -0.630196       -17.1485
  22   2.0000      -0.610504       -16.6127
  23   2.0000      -0.579290       -15.7633
  24   2.0000      -0.570418       -15.5219
  25   2.0000      -0.542886       -14.7727
  26   2.0000      -0.532405       -14.4875
  27   2.0000      -0.463706       -12.6181
  28   2.0000      -0.456104       -12.4112
  29   2.0000      -0.390049       -10.6138
  30   2.0000      -0.388283       -10.5657
  31   2.0000      -0.341049        -9.2804
  32   0.0000       0.136818         3.7230
  33   0.0000       0.138414         3.7664
  34   0.0000       0.167155         4.5485
  35   0.0000       0.174953         4.7607
  36   0.0000       0.177679         4.8349

MULLIKEN ATOMIC CHARGES
-----------------------
   0 C :   -0.112317
   1 C :    0.004496
   2 C :   -0.396910
   3 C :   -0.199544
   4 C :    0.273024
   5 N :   -0.291704
   6 C :   -0.129269
   7 C :   -0.028314
   8 O :   -0.212768
   9 H :    0.191177
  10 H :    0.155980
  11 H :    0.155957
  12 H :    0.144196
  13 H :    0.144200
  14 H :    0.144192
  15 H :    0.157604
Sum of atomic charges:    0.0000000

LOEWDIN ATOMIC CHARGES
----------------------
   0 C :   -0.106503
   1 C :   -0.111949
   2 C :   -0.235080
   3 C :   -0.211740
   4 C :   -0.340679
   5 N :    0.118662
   6 C :   -0.251944
   7 C :   -0.248178
   8 O :    0.347829
   9 H :    0.126244
  10 H :    0.162993
  11 H :    0.162985
  12 H :    0.157366
  13 H :    0.157358
  14 H :    0.137719
  15 H :    0.134918

  Mayer bond orders larger than 0.1
B(  0-C ,  1-C ) :   2.6233 B(  0-C ,  2-C ) :  -0.1228 B(  0-C ,  9-H ) :   0.8916
B(  1-C ,  2-C ) :   1.0651 B(  2-C ,  3-C ) :   0.9544 B(  2-C , 10-H ) :   0.9344
B(  2-C , 11-H ) :   0.9344 B(  3-C ,  4-C ) :   0.9152 B(  3-C , 12-H ) :   0.9138
B(  3-C , 13-H ) :   0.9138 B(  4-C ,  5-N ) :   1.5770 B(  4-C ,  8-O ) :   1.0722
B(  5-N ,  6-C ) :   1.1844 B(  6-C ,  7-C ) :   1.6139 B(  6-C , 14-H ) :   0.9326
B(  7-C ,  8-O ) :   1.0288 B(  7-C , 15-H ) :   0.9223

MP2 TOTAL ENERGY:     -400.044637526 Eh
FINAL SINGLE POINT ENERGY      -400.044637526361

DIPOLE MOMENT
-------------
                                X             Y             Z
Electronic contribution:      1.13070       2.90393      -0.53771
Nuclear contribution   :     -0.73857      -2.53435       0.20923
                        -----------------------------------------
Total Dipole Moment    :      0.39213       0.36958      -0.32848
                        -----------------------------------------
Magnitude (a.u.)       :      0.63107
Magnitude (Debye)      :      1.60406

                             ****ORCA TERMINATED NORMALLY****
TOTAL RUN TIME: 0 days 0 hours 13 minutes 6 seconds 44 msec
