                         Program Version 3.0.3 - RELEASE   -
|  1> ! RI-MP2 RIJK def2-TZVP def2-TZVP/C def2-TZVP/JK TIGHTSCF
|  2> % maxcore 2000
|  3> % mp2 density relaxed end
|  4> *xyz 0 1
|  5>  C       -0.0653553563     1.6496765877    -0.0315538173
|  6>  C        0.0645677412     0.1308753030    -0.0135178120
|  7>  C        0.6875153580    -0.6155522721    -1.2111472260
|  8>  C        2.1088229059    -0.2870089677    -1.3848154513
|  9>  C        1.7686789226    -1.2812828728    -0.2639492828
| 10>  C        2.2792150120    -2.6643303033    -0.3055203529
| 11>  O        2.6276084938    -3.2260881178    -1.3188999086
| 12>  C        1.1334852217    -0.5544802377     0.8844865723
| 13>  O        1.2774239418    -0.6180808224     2.0732591917
| 14>  H        0.8652935038     2.1369970877    -0.3359755686
| 15>  H       -0.8538954111     1.9692391996    -0.7198911615
| 16>  H       -0.3201199636     2.0120903622     0.9687655794
| 17>  H       -0.8977369068    -0.3221161104     0.2555222952
| 18>  H        0.1324652664    -1.1811365629    -1.9481744867
| 19>  H        2.6218601483    -0.7775803956    -2.2058156473
| 20>  H        2.5016126611     0.6861620673    -1.1082055962
| 21>  H        2.3040747712    -3.1743486249     0.6798017328
| 22> *
| 23>
| 24>                          ****END OF INPUT****

CARTESIAN COORDINATES (ANGSTROEM)
---------------------------------
  C     -0.065355    1.649677   -0.031554
  C      0.064568    0.130875   -0.013518
  C      0.687515   -0.615552   -1.211147
  C      2.108823   -0.287009   -1.384815
  C      1.768679   -1.281283   -0.263949
  C      2.279215   -2.664330   -0.305520
  O      2.627608   -3.226088   -1.318900
  C      1.133485   -0.554480    0.884487
  O      1.277424   -0.618081    2.073259
  H      0.865294    2.136997   -0.335976
  H     -0.853895    1.969239   -0.719891
  H     -0.320120    2.012090    0.968766
  H     -0.897737   -0.322116    0.255522
  H      0.132465   -1.181137   -1.948174
  H      2.621860   -0.777580   -2.205816
  H      2.501613    0.686162   -1.108206
  H      2.304075   -3.174349    0.679802

 Total Charge           Charge          ....    0
 Multiplicity           Mult            ....    1
 Number of Electrons    NEL             ....   66
 Basis Dimension        Dim             ....  327

ORBITAL ENERGIES
----------------

  NO   OCC          E(Eh)            E(eV)
   0   2.0000     -20.561084      -559.4955
   1   2.0000     -20.560006      -559.4662
   2   2.0000     -11.348358      -308.8045
   3   2.0000     -11.344298      -308.6940
   4   2.0000     -11.283666      -307.0442
   5   2.0000     -11.273803      -306.7758
   6   2.0000     -11.269501      -306.6587
   7   2.0000     -11.268562      -306.6332
   8   2.0000     -11.239947      -305.8545
   9   2.0000      -1.406409       -38.2703
  10   2.0000      -1.398705       -38.0607
  11   2.0000      -1.226939       -33.3867
  12   2.0000      -1.052050       -28.6277
  13   2.0000      -0.958664       -26.0866
  14   2.0000      -0.933158       -25.3925
  15   2.0000      -0.842185       -22.9170
  16   2.0000      -0.795951       -21.6589
  17   2.0000      -0.736136       -20.0313
  18   2.0000      -0.702150       -19.1065
  19   2.0000      -0.677427       -18.4337
  20   2.0000      -0.647570       -17.6213
  21   2.0000      -0.630496       -17.1567
  22   2.0000      -0.625276       -17.0146
  23   2.0000      -0.587525       -15.9874
  24   2.0000      -0.580000       -15.7826
  25   2.0000      -0.558790       -15.2054
  26   2.0000      -0.545590       -14.8463
  27   2.0000      -0.529754       -14.4153
  28   2.0000      -0.514825       -14.0091
  29   2.0000      -0.480707       -13.0807
  30   2.0000      -0.435485       -11.8502
  31   2.0000      -0.411237       -11.1903
  32   2.0000      -0.400482       -10.8977
  33   0.0000       0.100803         2.7430
  34   0.0000       0.117165         3.1882
  35   0.0000       0.148518         4.0414
  36   0.0000       0.153987         4.1902
  37   0.0000       0.168163         4.5760

MULLIKEN ATOMIC CHARGES
-----------------------
   0 C :   -0.395619
   1 C :   -0.050458
   2 C :   -0.120651
   3 C :   -0.260607
   4 C :    0.074598
   5 C :    0.054533
   6 O :   -0.287793
   7 C :    0.097622
   8 O :   -0.254020
   9 H :    0.121475
  10 H :    0.141193
  11 H :    0.151702
  12 H :    0.126392
  13 H :    0.163094
  14 H :    0.169168
  15 H :    0.156609
  16 H :    0.112763
Sum of atomic charges:   -0.0000000

LOEWDIN ATOMIC CHARGES
----------------------
   0 C :   -0.284855
   1 C :   -0.198505
   2 C :   -0.101580
   3 C :   -0.145384
   4 C :   -0.152947
   5 C :   -0.262413
   6 O :    0.126860
   7 C :   -0.270709
   8 O :    0.162462
   9 H :    0.124297
  10 H :    0.127972
  11 H :    0.134010
  12 H :    0.168004
  13 H :    0.149103
  14 H :    0.156990
  15 H :    0.140757
  16 H :    0.125936

  Mayer bond orders larger than 0.1
B(  0-C ,  1-C ) :   0.9027 B(  0-C ,  9-H ) :   0.9304 B(  0-C , 10-H ) :   0.9366
B(  0-C , 11-H ) :   0.9324 B(  1-C ,  2-C ) :   0.9029 B(  1-C ,  4-C ) :  -0.1190
B(  1-C ,  7-C ) :   0.9053 B(  1-C , 12-H ) :   0.9041 B(  2-C ,  3-C ) :   0.9531
B(  2-C ,  4-C ) :   0.7540 B(  2-C , 13-H ) :   0.9026 B(  3-C ,  4-C ) :   0.7899
B(  3-C , 14-H ) :   0.9167 B(  3-C , 15-H ) :   0.9156 B(  4-C ,  5-C ) :   0.8895
B(  4-C ,  7-C ) :   0.8592 B(  5-C ,  6-O ) :   1.9486 B(  5-C , 16-H ) :   0.9556
B(  7-C ,  8-O ) :   2.0526

MP2 TOTAL ENERGY:     -421.115035462 Eh
FINAL SINGLE POINT ENERGY      -421.115035462035

DIPOLE MOMENT
-------------
                                X             Y             Z
Electronic contribution:      3.35043      -6.66749       2.32215
Nuclear contribution   :     -3.97796       7.50025      -2.89666
                        -----------------------------------------
Total Dipole Moment    :     -0.62753       0.83276      -0.57452
                        -----------------------------------------
Magnitude (a.u.)       :      1.19053
Magnitude (Debye)      :      3.02608

                             ****ORCA TERMINATED NORMALLY****
TOTAL RUN TIME: 0 days 0 hours 16 minutes 58 seconds 524 msec
