                         Program Version 3.0.3 - RELEASE   -
|  1> ! RI-MP2 RIJK def2-TZVP def2-TZVP/C def2-TZVP/JK TIGHTSCF
|  2> % maxcore 2000
|  3> % mp2 density relaxed end
|  4> *xyz 0 1
|  5>  C       -0.0339776031    -1.1883003649    -0.0036703642
|  6>  C       -0.0340961967     0.0133886323     0.0030504783
|  7>  C        0.0041871990     1.4239766705     0.0104485627
|  8>  N       -1.0693233901     2.1798853624     0.0279351916
|  9>  O       -0.6161679774     3.4630770832     0.0295110927
| 10>  N        0.7429479399     3.5299440223     0.0130693251
| 11>  C        1.1598304761     2.2848791367     0.0009335694
| 12>  C        2.5222266316     1.9177304950    -0.0179836759
| 13>  C        3.6734684769     1.5735171453    -0.0341128290
| 14>  H       -0.0416384834    -2.2509173720    -0.0095280828
| 15>  H        4.6936976272     1.2765580893    -0.0481019979
| 16> *
| 17>
| 18>                          ****END OF INPUT****

CARTESIAN COORDINATES (ANGSTROEM)
---------------------------------
  C     -0.033978   -1.188300   -0.003670
  C     -0.034096    0.013389    0.003050
  C      0.004187    1.423977    0.010449
  N     -1.069323    2.179885    0.027935
  O     -0.616168    3.463077    0.029511
  N      0.742948    3.529944    0.013069
  C      1.159830    2.284879    0.000934
  C      2.522227    1.917730   -0.017984
  C      3.673468    1.573517   -0.034113
  H     -0.041638   -2.250917   -0.009528
  H      4.693698    1.276558   -0.048102

 Total Charge           Charge          ....    0
 Multiplicity           Mult            ....    1
 Number of Electrons    NEL             ....   60
 Basis Dimension        Dim             ....  291

ORBITAL ENERGIES
----------------

  NO   OCC          E(Eh)            E(eV)
   0   2.0000     -20.703153      -563.3614
   1   2.0000     -15.679404      -426.6583
   2   2.0000     -15.679351      -426.6568
   3   2.0000     -11.338151      -308.5268
   4   2.0000     -11.337207      -308.5011
   5   2.0000     -11.273486      -306.7671
   6   2.0000     -11.273483      -306.7671
   7   2.0000     -11.269640      -306.6625
   8   2.0000     -11.269639      -306.6625
   9   2.0000      -1.569144       -42.6986
  10   2.0000      -1.240982       -33.7688
  11   2.0000      -1.215375       -33.0720
  12   2.0000      -1.070257       -29.1232
  13   2.0000      -1.062483       -28.9116
  14   2.0000      -0.918367       -24.9900
  15   2.0000      -0.915618       -24.9152
  16   2.0000      -0.803054       -21.8522
  17   2.0000      -0.768460       -20.9109
  18   2.0000      -0.735096       -20.0030
  19   2.0000      -0.712320       -19.3832
  20   2.0000      -0.709756       -19.3134
  21   2.0000      -0.623225       -16.9588
  22   2.0000      -0.565316       -15.3830
  23   2.0000      -0.523646       -14.2491
  24   2.0000      -0.513461       -13.9720
  25   2.0000      -0.495272       -13.4770
  26   2.0000      -0.435996       -11.8641
  27   2.0000      -0.432085       -11.7576
  28   2.0000      -0.404288       -11.0012
  29   2.0000      -0.388741       -10.5782
  30   0.0000       0.055559         1.5118
  31   0.0000       0.090667         2.4672
  32   0.0000       0.139121         3.7857
  33   0.0000       0.146478         3.9859
  34   0.0000       0.147296         4.0081

MULLIKEN ATOMIC CHARGES
-----------------------
   0 C :   -0.090275
   1 C :    0.079195
   2 C :   -0.126025
   3 N :   -0.074442
   4 O :    0.004962
   5 N :   -0.074443
   6 C :   -0.126012
   7 C :    0.079207
   8 C :   -0.090280
   9 H :    0.209056
  10 H :    0.209056
Sum of atomic charges:   -0.0000000

LOEWDIN ATOMIC CHARGES
----------------------
   0 C :   -0.026875
   1 C :   -0.058987
   2 C :   -0.241276
   3 N :    0.078681
   4 O :    0.227796
   5 N :    0.078681
   6 C :   -0.241278
   7 C :   -0.058987
   8 C :   -0.026875
   9 H :    0.134560
  10 H :    0.134560

  Mayer bond orders larger than 0.1
B(  0-C ,  1-C ) :   2.6264 B(  0-C ,  2-C ) :  -0.1677 B(  0-C ,  9-H ) :   0.8595
B(  1-C ,  2-C ) :   1.2202 B(  2-C ,  3-N ) :   1.5296 B(  2-C ,  6-C ) :   1.1865
B(  3-N ,  4-O ) :   0.9579 B(  3-N ,  5-N ) :   0.1235 B(  4-O ,  5-N ) :   0.9579
B(  5-N ,  6-C ) :   1.5296 B(  6-C ,  7-C ) :   1.2202 B(  6-C ,  8-C ) :  -0.1677
B(  7-C ,  8-C ) :   2.6264 B(  8-C , 10-H ) :   0.8595

MP2 TOTAL ENERGY:     -413.564623554 Eh
FINAL SINGLE POINT ENERGY      -413.564623554211

DIPOLE MOMENT
-------------
                                X             Y             Z
Electronic contribution:     -2.21290       2.97114       0.04381
Nuclear contribution   :      3.09978      -4.16190      -0.06133
                        -----------------------------------------
Total Dipole Moment    :      0.88688      -1.19077      -0.01752
                        -----------------------------------------
Magnitude (a.u.)       :      1.48485
Magnitude (Debye)      :      3.77420

                             ****ORCA TERMINATED NORMALLY****
TOTAL RUN TIME: 0 days 0 hours 10 minutes 35 seconds 501 msec
