                         Program Version 3.0.3 - RELEASE   -
|  1> ! RI-MP2 RIJK def2-TZVP def2-TZVP/C def2-TZVP/JK TIGHTSCF
|  2> % maxcore 2000
|  3> % mp2 density relaxed end
|  4> *xyz 0 1
|  5>  C       -0.3728931627    -2.8642131132     0.0326177971
|  6>  C       -0.5128488843    -1.4211898941    -0.4673551851
|  7>  C        0.1872298375    -1.2214546297    -1.7975762610
|  8>  C       -0.5360515912    -1.3959759210    -3.0912535925
|  9>  N       -0.0557823536    -0.0801313481    -2.6794640773
| 10>  C       -1.0400628162     0.9314725226    -2.3183088803
| 11>  C       -1.3055864065     1.8187992331    -3.5139722983
| 12>  C       -2.4763378507     1.6267851112    -4.3778847011
| 13>  O       -2.4384992154     2.6814553844    -3.4138179405
| 14>  H       -0.8320112631    -3.5695175877    -0.6677331380
| 15>  H        0.6806899475    -3.1438442674     0.1410683589
| 16>  H       -0.8534918719    -2.9931135166     1.0068880577
| 17>  H       -1.5737451199    -1.1644373285    -0.5506223700
| 18>  H       -0.0833793437    -0.7348964302     0.2744118152
| 19>  H        1.2398999854    -1.5065900598    -1.7741103832
| 20>  H       -0.0503347496    -1.8367378132    -3.9580429498
| 21>  H       -1.6082823035    -1.5849425443    -3.0293939517
| 22>  H       -2.0020359299     0.5283737203    -1.9633276289
| 23>  H       -0.6240018853     1.5427158999    -1.5076397868
| 24>  H       -0.4172712667     2.2784389038    -3.9475313381
| 25>  H       -2.4422105491     1.9431742745    -5.4193254894
| 26>  H       -3.1782648771     0.8221781041    -4.1601288869
| 27> *
| 28>
| 29>                          ****END OF INPUT****

CARTESIAN COORDINATES (ANGSTROEM)
---------------------------------
  C     -0.372893   -2.864213    0.032618
  C     -0.512849   -1.421190   -0.467355
  C      0.187230   -1.221455   -1.797576
  C     -0.536052   -1.395976   -3.091254
  N     -0.055782   -0.080131   -2.679464
  C     -1.040063    0.931473   -2.318309
  C     -1.305586    1.818799   -3.513972
  C     -2.476338    1.626785   -4.377885
  O     -2.438499    2.681455   -3.413818
  H     -0.832011   -3.569518   -0.667733
  H      0.680690   -3.143844    0.141068
  H     -0.853492   -2.993114    1.006888
  H     -1.573745   -1.164437   -0.550622
  H     -0.083379   -0.734896    0.274412
  H      1.239900   -1.506590   -1.774110
  H     -0.050335   -1.836738   -3.958043
  H     -1.608282   -1.584943   -3.029394
  H     -2.002036    0.528374   -1.963328
  H     -0.624002    1.542716   -1.507640
  H     -0.417271    2.278439   -3.947531
  H     -2.442211    1.943174   -5.419325
  H     -3.178265    0.822178   -4.160129

 Total Charge           Charge          ....    0
 Multiplicity           Mult            ....    1
 Number of Electrons    NEL             ....   70
 Basis Dimension        Dim             ....  357

ORBITAL ENERGIES
----------------

  NO   OCC          E(Eh)            E(eV)
   0   2.0000     -20.564230      -559.5812
   1   2.0000     -15.559866      -423.4055
   2   2.0000     -11.281684      -306.9902
   3   2.0000     -11.279093      -306.9197
   4   2.0000     -11.261081      -306.4296
   5   2.0000     -11.257650      -306.3362
   6   2.0000     -11.253853      -306.2329
   7   2.0000     -11.231934      -305.6365
   8   2.0000     -11.221894      -305.3633
   9   2.0000      -1.408036       -38.3146
  10   2.0000      -1.275410       -34.7057
  11   2.0000      -1.056121       -28.7385
  12   2.0000      -1.018880       -27.7251
  13   2.0000      -0.913889       -24.8682
  14   2.0000      -0.884230       -24.0611
  15   2.0000      -0.858004       -23.3475
  16   2.0000      -0.811397       -22.0792
  17   2.0000      -0.771845       -21.0030
  18   2.0000      -0.695495       -18.9254
  19   2.0000      -0.676701       -18.4140
  20   2.0000      -0.649520       -17.6743
  21   2.0000      -0.639970       -17.4145
  22   2.0000      -0.605094       -16.4654
  23   2.0000      -0.586395       -15.9566
  24   2.0000      -0.562951       -15.3187
  25   2.0000      -0.548022       -14.9124
  26   2.0000      -0.533720       -14.5233
  27   2.0000      -0.517797       -14.0900
  28   2.0000      -0.506398       -13.7798
  29   2.0000      -0.494046       -13.4437
  30   2.0000      -0.460146       -12.5212
  31   2.0000      -0.454213       -12.3598
  32   2.0000      -0.436536       -11.8788
  33   2.0000      -0.429663       -11.6917
  34   2.0000      -0.370704       -10.0874
  35   0.0000       0.132969         3.6183
  36   0.0000       0.151117         4.1121
  37   0.0000       0.162677         4.4267
  38   0.0000       0.170884         4.6500
  39   0.0000       0.183220         4.9857

MULLIKEN ATOMIC CHARGES
-----------------------
   0 C :   -0.394909
   1 C :   -0.195027
   2 C :   -0.036807
   3 C :   -0.209061
   4 N :   -0.221426
   5 C :   -0.133924
   6 C :    0.049130
   7 C :   -0.078239
   8 O :   -0.333901
   9 H :    0.129148
  10 H :    0.127009
  11 H :    0.136430
  12 H :    0.107112
  13 H :    0.117016
  14 H :    0.115124
  15 H :    0.127528
  16 H :    0.112503
  17 H :    0.107089
  18 H :    0.128328
  19 H :    0.119852
  20 H :    0.117734
  21 H :    0.109292
Sum of atomic charges:    0.0000000

LOEWDIN ATOMIC CHARGES
----------------------
   0 C :   -0.311610
   1 C :   -0.280545
   2 C :   -0.259982
   3 C :   -0.246777
   4 N :    0.115914
   5 C :   -0.280513
   6 C :   -0.290567
   7 C :   -0.268689
   8 O :    0.143721
   9 H :    0.122384
  10 H :    0.122333
  11 H :    0.121692
  12 H :    0.137823
  13 H :    0.139888
  14 H :    0.143556
  15 H :    0.123161
  16 H :    0.123512
  17 H :    0.128584
  18 H :    0.140785
  19 H :    0.138499
  20 H :    0.118981
  21 H :    0.117851

  Mayer bond orders larger than 0.1
B(  0-C ,  1-C ) :   0.9210 B(  0-C ,  9-H ) :   0.9384 B(  0-C , 10-H ) :   0.9398
B(  0-C , 11-H ) :   0.9395 B(  1-C ,  2-C ) :   0.9117 B(  1-C , 12-H ) :   0.9291
B(  1-C , 13-H ) :   0.9330 B(  2-C ,  3-C ) :   0.9455 B(  2-C ,  4-N ) :   0.9073
B(  2-C , 14-H ) :   0.9194 B(  3-C ,  4-N ) :   0.8989 B(  3-C , 15-H ) :   0.9186
B(  3-C , 16-H ) :   0.9190 B(  4-N ,  5-C ) :   0.8598 B(  5-C ,  6-C ) :   0.9127
B(  5-C , 17-H ) :   0.9182 B(  5-C , 18-H ) :   0.9197 B(  6-C ,  7-C ) :   0.9762
B(  6-C ,  8-O ) :   0.9077 B(  6-C , 19-H ) :   0.9213 B(  7-C ,  8-O ) :   0.9095
B(  7-C , 20-H ) :   0.9177 B(  7-C , 21-H ) :   0.9134

MP2 TOTAL ENERGY:     -403.595924505 Eh
FINAL SINGLE POINT ENERGY      -403.595924505013

DIPOLE MOMENT
-------------
                                X             Y             Z
Electronic contribution:     -0.88419       8.10602      -5.12796
Nuclear contribution   :      0.89210      -8.98462       5.20561
                        -----------------------------------------
Total Dipole Moment    :      0.00791      -0.87861       0.07765
                        -----------------------------------------
Magnitude (a.u.)       :      0.88207
Magnitude (Debye)      :      2.24204

                             ****ORCA TERMINATED NORMALLY****
TOTAL RUN TIME: 0 days 0 hours 28 minutes 57 seconds 79 msec
