                         Program Version 3.0.3 - RELEASE   -
|  1> ! RI-MP2 RIJK def2-TZVP def2-TZVP/C def2-TZVP/JK TIGHTSCF
|  2> % maxcore 2000
|  3> % mp2 density relaxed end
|  4> *xyz 0 1
|  5>  C        0.0208779530     1.5372395212    -0.0197688684
|  6>  C        0.0741118942     0.0336073060     0.0042903564
|  7>  C        0.0621116714    -0.7101384627    -1.1063771436
|  8>  C        0.0356031126    -2.2196942706    -1.1647317158
|  9>  C       -1.3570900314    -2.8369889795    -0.9023064410
| 10>  C       -1.8927112857    -2.7548713624     0.5398805924
| 11>  C       -2.2525918958    -1.3542939372     1.0799004792
| 12>  O       -1.2799519140    -0.7230152641     1.9017921773
| 13>  C        0.0385263514    -0.6102944861     1.3692663898
| 14>  H        0.9073460381     1.9735027285     0.4589869523
| 15>  H       -0.0424620660     1.9280963605    -1.0389939508
| 16>  H       -0.8470437059     1.9004949612     0.5443437293
| 17>  H        0.0223069835    -0.1977506993    -2.0670773736
| 18>  H        0.3686381699    -2.5388750854    -2.1583214934
| 19>  H        0.7514069148    -2.6521698943    -0.4546799056
| 20>  H       -2.0861104160    -2.3671145059    -1.5758458530
| 21>  H       -1.3183432130    -3.8956359648    -1.1883107071
| 22>  H       -2.8090751597    -3.3568988260     0.5729954814
| 23>  H       -1.1987857560    -3.2372159292     1.2400686453
| 24>  H       -2.5367049488    -0.7026964954     0.2398877073
| 25>  H       -3.1234794218    -1.4325101410     1.7380062821
| 26>  H        0.5233129863    -1.5952671774     1.3456499719
| 27>  H        0.5770063588     0.0003865640     2.1016724975
| 28> *
| 29>
| 30>                          ****END OF INPUT****

CARTESIAN COORDINATES (ANGSTROEM)
---------------------------------
  C      0.020878    1.537240   -0.019769
  C      0.074112    0.033607    0.004290
  C      0.062112   -0.710138   -1.106377
  C      0.035603   -2.219694   -1.164732
  C     -1.357090   -2.836989   -0.902306
  C     -1.892711   -2.754871    0.539881
  C     -2.252592   -1.354294    1.079900
  O     -1.279952   -0.723015    1.901792
  C      0.038526   -0.610294    1.369266
  H      0.907346    1.973503    0.458987
  H     -0.042462    1.928096   -1.038994
  H     -0.847044    1.900495    0.544344
  H      0.022307   -0.197751   -2.067077
  H      0.368638   -2.538875   -2.158321
  H      0.751407   -2.652170   -0.454680
  H     -2.086110   -2.367115   -1.575846
  H     -1.318343   -3.895636   -1.188311
  H     -2.809075   -3.356899    0.572995
  H     -1.198786   -3.237216    1.240069
  H     -2.536705   -0.702696    0.239888
  H     -3.123479   -1.432510    1.738006
  H      0.523313   -1.595267    1.345650
  H      0.577006    0.000387    2.101672

 Total Charge           Charge          ....    0
 Multiplicity           Mult            ....    1
 Number of Electrons    NEL             ....   70
 Basis Dimension        Dim             ....  363

ORBITAL ENERGIES
----------------

  NO   OCC          E(Eh)            E(eV)
   0   2.0000     -20.545385      -559.0683
   1   2.0000     -11.269276      -306.6526
   2   2.0000     -11.265625      -306.5532
   3   2.0000     -11.227346      -305.5116
   4   2.0000     -11.225646      -305.4654
   5   2.0000     -11.224536      -305.4351
   6   2.0000     -11.221732      -305.3589
   7   2.0000     -11.220788      -305.3332
   8   2.0000     -11.217378      -305.2404
   9   2.0000      -1.360180       -37.0124
  10   2.0000      -1.102201       -29.9924
  11   2.0000      -1.064747       -28.9732
  12   2.0000      -0.985144       -26.8071
  13   2.0000      -0.942709       -25.6524
  14   2.0000      -0.913808       -24.8660
  15   2.0000      -0.826517       -22.4907
  16   2.0000      -0.791151       -21.5283
  17   2.0000      -0.709694       -19.3118
  18   2.0000      -0.668149       -18.1813
  19   2.0000      -0.661446       -17.9989
  20   2.0000      -0.615303       -16.7433
  21   2.0000      -0.610905       -16.6236
  22   2.0000      -0.593656       -16.1542
  23   2.0000      -0.586123       -15.9492
  24   2.0000      -0.564715       -15.3667
  25   2.0000      -0.545843       -14.8531
  26   2.0000      -0.536722       -14.6050
  27   2.0000      -0.510914       -13.9027
  28   2.0000      -0.499979       -13.6051
  29   2.0000      -0.478770       -13.0280
  30   2.0000      -0.476352       -12.9622
  31   2.0000      -0.472309       -12.8522
  32   2.0000      -0.442214       -12.0333
  33   2.0000      -0.403971       -10.9926
  34   2.0000      -0.342309        -9.3147
  35   0.0000       0.133883         3.6432
  36   0.0000       0.148398         4.0381
  37   0.0000       0.156555         4.2601
  38   0.0000       0.164786         4.4841
  39   0.0000       0.170585         4.6419

MULLIKEN ATOMIC CHARGES
-----------------------
   0 C :   -0.432210
   1 C :   -0.043759
   2 C :   -0.158275
   3 C :   -0.216847
   4 C :   -0.204961
   5 C :   -0.254246
   6 C :   -0.055377
   7 O :   -0.313676
   8 C :   -0.018583
   9 H :    0.137200
  10 H :    0.128280
  11 H :    0.150225
  12 H :    0.117073
  13 H :    0.127850
  14 H :    0.125249
  15 H :    0.110767
  16 H :    0.119873
  17 H :    0.124520
  18 H :    0.120985
  19 H :    0.096373
  20 H :    0.124323
  21 H :    0.094377
  22 H :    0.120839
Sum of atomic charges:   -0.0000000

LOEWDIN ATOMIC CHARGES
----------------------
   0 C :   -0.274093
   1 C :   -0.211104
   2 C :   -0.149323
   3 C :   -0.258108
   4 C :   -0.267076
   5 C :   -0.274323
   6 C :   -0.320881
   7 O :    0.145627
   8 C :   -0.278896
   9 H :    0.129364
  10 H :    0.126704
  11 H :    0.133829
  12 H :    0.143346
  13 H :    0.141779
  14 H :    0.141882
  15 H :    0.137861
  16 H :    0.137689
  17 H :    0.143999
  18 H :    0.141347
  19 H :    0.122088
  20 H :    0.129362
  21 H :    0.123836
  22 H :    0.135091

  Mayer bond orders larger than 0.1
B(  0-C ,  1-C ) :   0.9140 B(  0-C ,  9-H ) :   0.9311 B(  0-C , 10-H ) :   0.9456
B(  0-C , 11-H ) :   0.9276 B(  1-C ,  2-C ) :   1.7527 B(  1-C ,  8-C ) :   0.8937
B(  2-C ,  3-C ) :   0.9142 B(  2-C , 12-H ) :   0.9266 B(  3-C ,  4-C ) :   0.8915
B(  3-C , 13-H ) :   0.9355 B(  3-C , 14-H ) :   0.9404 B(  4-C ,  5-C ) :   0.9326
B(  4-C , 15-H ) :   0.9318 B(  4-C , 16-H ) :   0.9316 B(  5-C ,  6-C ) :   0.8920
B(  5-C , 17-H ) :   0.9221 B(  5-C , 18-H ) :   0.9310 B(  6-C ,  7-O ) :   0.9463
B(  6-C , 19-H ) :   0.9395 B(  6-C , 20-H ) :   0.9294 B(  7-O ,  8-C ) :   0.9372
B(  8-C , 21-H ) :   0.9480 B(  8-C , 22-H ) :   0.9256

MP2 TOTAL ENERGY:     -387.612109844 Eh
FINAL SINGLE POINT ENERGY      -387.612109844478

DIPOLE MOMENT
-------------
                                X             Y             Z
Electronic contribution:      0.33977       0.87484       2.59436
Nuclear contribution   :     -0.29646      -1.12297      -3.09338
                        -----------------------------------------
Total Dipole Moment    :      0.04331      -0.24812      -0.49902
                        -----------------------------------------
Magnitude (a.u.)       :      0.55898
Magnitude (Debye)      :      1.42082

                             ****ORCA TERMINATED NORMALLY****
TOTAL RUN TIME: 0 days 0 hours 23 minutes 27 seconds 104 msec
