                         Program Version 3.0.3 - RELEASE   -
|  1> ! RI-MP2 RIJK def2-TZVP def2-TZVP/C def2-TZVP/JK TIGHTSCF
|  2> % maxcore 2000
|  3> % mp2 density relaxed end
|  4> *xyz 0 1
|  5>  C       -0.0821305497     1.5204433776    -0.0134531842
|  6>  C        0.0690962605     0.0187261172     0.0737880696
|  7>  O        1.0545386980    -0.5251343241    -0.8739304972
|  8>  C        1.8617129379    -0.9928233609     0.1868251501
|  9>  C        2.7865116424    -2.1968657925     0.2393914334
| 10>  C        3.5925361213    -1.4385566066     1.3559061250
| 11>  C        2.8366803398    -0.1158520190     1.0107623920
| 12>  O        1.7977704711     0.2774267231     1.9419600650
| 13>  C        0.8555963906    -0.5854838297     1.2735776916
| 14>  H        0.8471679535     2.0228227834     0.2633602492
| 15>  H       -0.3568888215     1.8108045864    -1.0315966474
| 16>  H       -0.8710839789     1.8600818913     0.6661148368
| 17>  H       -0.8911742245    -0.4871960162    -0.0869226671
| 18>  H        2.3480640934    -3.1679427910     0.4829179686
| 19>  H        3.3718914945    -2.2951961221    -0.6797474419
| 20>  H        3.3808310284    -1.7787562487     2.3710253190
| 21>  H        4.6727149939    -1.4069699876     1.2052988906
| 22>  H        3.4230282014     0.7273418106     0.6411977298
| 23>  H        0.3145429978    -1.2436124612     1.9564266370
| 24> *
| 25>
| 26>                          ****END OF INPUT****

CARTESIAN COORDINATES (ANGSTROEM)
---------------------------------
  C     -0.082131    1.520443   -0.013453
  C      0.069096    0.018726    0.073788
  O      1.054539   -0.525134   -0.873930
  C      1.861713   -0.992823    0.186825
  C      2.786512   -2.196866    0.239391
  C      3.592536   -1.438557    1.355906
  C      2.836680   -0.115852    1.010762
  O      1.797770    0.277427    1.941960
  C      0.855596   -0.585484    1.273578
  H      0.847168    2.022823    0.263360
  H     -0.356889    1.810805   -1.031597
  H     -0.871084    1.860082    0.666115
  H     -0.891174   -0.487196   -0.086923
  H      2.348064   -3.167943    0.482918
  H      3.371891   -2.295196   -0.679747
  H      3.380831   -1.778756    2.371025
  H      4.672715   -1.406970    1.205299
  H      3.423028    0.727342    0.641198
  H      0.314543   -1.243612    1.956427

 Total Charge           Charge          ....    0
 Multiplicity           Mult            ....    1
 Number of Electrons    NEL             ....   68
 Basis Dimension        Dim             ....  339

ORBITAL ENERGIES
----------------

  NO   OCC          E(Eh)            E(eV)
   0   2.0000     -20.555805      -559.3519
   1   2.0000     -20.555325      -559.3388
   2   2.0000     -11.290803      -307.2384
   3   2.0000     -11.288295      -307.1701
   4   2.0000     -11.287108      -307.1378
   5   2.0000     -11.283775      -307.0471
   6   2.0000     -11.235328      -305.7288
   7   2.0000     -11.234671      -305.7109
   8   2.0000     -11.217330      -305.2391
   9   2.0000      -1.413212       -38.4555
  10   2.0000      -1.356840       -36.9215
  11   2.0000      -1.116153       -30.3721
  12   2.0000      -1.025653       -27.9094
  13   2.0000      -0.960465       -26.1356
  14   2.0000      -0.897430       -24.4203
  15   2.0000      -0.875984       -23.8367
  16   2.0000      -0.797034       -21.6884
  17   2.0000      -0.708283       -19.2734
  18   2.0000      -0.705923       -19.2091
  19   2.0000      -0.675779       -18.3889
  20   2.0000      -0.665219       -18.1015
  21   2.0000      -0.604470       -16.4485
  22   2.0000      -0.598258       -16.2794
  23   2.0000      -0.574101       -15.6221
  24   2.0000      -0.566656       -15.4195
  25   2.0000      -0.542540       -14.7633
  26   2.0000      -0.530900       -14.4465
  27   2.0000      -0.520930       -14.1752
  28   2.0000      -0.497619       -13.5409
  29   2.0000      -0.491402       -13.3717
  30   2.0000      -0.465358       -12.6630
  31   2.0000      -0.432955       -11.7813
  32   2.0000      -0.411965       -11.2101
  33   2.0000      -0.375519       -10.2184
  34   0.0000       0.141652         3.8545
  35   0.0000       0.147971         4.0265
  36   0.0000       0.157902         4.2967
  37   0.0000       0.172774         4.7014
  38   0.0000       0.186691         5.0801

MULLIKEN ATOMIC CHARGES
-----------------------
   0 C :   -0.416802
   1 C :    0.106972
   2 O :   -0.331345
   3 C :    0.188333
   4 C :   -0.254624
   5 C :   -0.234890
   6 C :    0.001163
   7 O :   -0.339609
   8 C :    0.041964
   9 H :    0.143852
  10 H :    0.140472
  11 H :    0.129470
  12 H :    0.095581
  13 H :    0.121832
  14 H :    0.125879
  15 H :    0.130139
  16 H :    0.127343
  17 H :    0.107486
  18 H :    0.116783
Sum of atomic charges:    0.0000000

LOEWDIN ATOMIC CHARGES
----------------------
   0 C :   -0.291828
   1 C :   -0.255810
   2 O :    0.179977
   3 C :   -0.301975
   4 C :   -0.200285
   5 C :   -0.204399
   6 C :   -0.206521
   7 O :    0.151175
   8 C :   -0.199887
   9 H :    0.130211
  10 H :    0.130007
  11 H :    0.131046
  12 H :    0.138298
  13 H :    0.128928
  14 H :    0.143158
  15 H :    0.137861
  16 H :    0.130986
  17 H :    0.128718
  18 H :    0.130339

  Mayer bond orders larger than 0.1
B(  0-C ,  1-C ) :   0.9122 B(  0-C ,  9-H ) :   0.9334 B(  0-C , 10-H ) :   0.9335
B(  0-C , 11-H ) :   0.9261 B(  1-C ,  2-O ) :   0.8804 B(  1-C ,  8-C ) :   0.9089
B(  1-C , 12-H ) :   0.9047 B(  2-O ,  3-C ) :   1.0164 B(  3-C ,  4-C ) :   0.9400
B(  3-C ,  6-C ) :   0.9234 B(  3-C ,  8-C ) :   0.9699 B(  4-C ,  5-C ) :   0.9373
B(  4-C , 13-H ) :   0.9199 B(  4-C , 14-H ) :   0.9062 B(  5-C ,  6-C ) :   0.8779
B(  5-C , 15-H ) :   0.9145 B(  5-C , 16-H ) :   0.9216 B(  6-C ,  7-O ) :   0.9547
B(  6-C , 17-H ) :   0.9125 B(  7-O ,  8-C ) :   0.9468 B(  8-C , 18-H ) :   0.8941

MP2 TOTAL ENERGY:     -422.259631146 Eh
FINAL SINGLE POINT ENERGY      -422.259631145914

DIPOLE MOMENT
-------------
                                X             Y             Z
Electronic contribution:      0.02439      -0.61388       0.08456
Nuclear contribution   :     -0.02897       0.27213       0.03827
                        -----------------------------------------
Total Dipole Moment    :     -0.00459      -0.34174       0.12282
                        -----------------------------------------
Magnitude (a.u.)       :      0.36317
Magnitude (Debye)      :      0.92311

                             ****ORCA TERMINATED NORMALLY****
TOTAL RUN TIME: 0 days 0 hours 18 minutes 40 seconds 733 msec
