                         Program Version 3.0.3 - RELEASE   -
|  1> ! RI-MP2 RIJK def2-TZVP def2-TZVP/C def2-TZVP/JK TIGHTSCF
|  2> % maxcore 2000
|  3> % mp2 density relaxed end
|  4> *xyz 0 1
|  5>  C        0.1813849533     1.2095337968    -0.2129154325
|  6>  O       -0.0026743244    -0.0575230372     0.3766511084
|  7>  C       -1.2936722184    -0.5714750163     0.1950030971
|  8>  C       -1.6819262366    -1.1651795525    -1.1920207888
|  9>  C       -2.3482899581    -2.3458465880    -0.4314555261
| 10>  C       -2.1927282707    -3.7556960617    -1.0118626957
| 11>  C       -2.7448510103    -4.7904409269    -0.1443692044
| 12>  C       -3.2096127398    -5.6199908069     0.5912425201
| 13>  C       -1.5173479951    -1.9594256610     0.8234144620
| 14>  H        1.2042673009     1.5257315067     0.0053555086
| 15>  H        0.0460784337     1.1807285986    -1.3047529620
| 16>  H       -0.5169042006     1.9550811081     0.1997585394
| 17>  H       -2.0471228489     0.1578920377     0.5331518290
| 18>  H       -2.3023308206    -0.5710136766    -1.8668885622
| 19>  H       -0.7802077715    -1.4924137307    -1.7208539714
| 20>  H       -3.4103593667    -2.1442270476    -0.2623107057
| 21>  H       -2.6809733962    -3.8023731797    -1.9947367396
| 22>  H       -1.1278289776    -3.9567190933    -1.1902803982
| 23>  H       -3.6148162179    -6.3622825929     1.2330059394
| 24>  H       -0.5684397806    -2.5039127774     0.8544459316
| 25>  H       -1.9940639738    -2.0143022092     1.8033394109
| 26> *
| 27>
| 28>                          ****END OF INPUT****

CARTESIAN COORDINATES (ANGSTROEM)
---------------------------------
  C      0.181385    1.209534   -0.212915
  O     -0.002674   -0.057523    0.376651
  C     -1.293672   -0.571475    0.195003
  C     -1.681926   -1.165180   -1.192021
  C     -2.348290   -2.345847   -0.431456
  C     -2.192728   -3.755696   -1.011863
  C     -2.744851   -4.790441   -0.144369
  C     -3.209613   -5.619991    0.591243
  C     -1.517348   -1.959426    0.823414
  H      1.204267    1.525732    0.005356
  H      0.046078    1.180729   -1.304753
  H     -0.516904    1.955081    0.199759
  H     -2.047123    0.157892    0.533152
  H     -2.302331   -0.571014   -1.866889
  H     -0.780208   -1.492414   -1.720854
  H     -3.410359   -2.144227   -0.262311
  H     -2.680973   -3.802373   -1.994737
  H     -1.127829   -3.956719   -1.190280
  H     -3.614816   -6.362283    1.233006
  H     -0.568440   -2.503913    0.854446
  H     -1.994064   -2.014302    1.803339

 Total Charge           Charge          ....    0
 Multiplicity           Mult            ....    1
 Number of Electrons    NEL             ....   68
 Basis Dimension        Dim             ....  351

ORBITAL ENERGIES
----------------

  NO   OCC          E(Eh)            E(eV)
   0   2.0000     -20.555096      -559.3326
   1   2.0000     -11.279061      -306.9189
   2   2.0000     -11.270925      -306.6975
   3   2.0000     -11.250753      -306.1485
   4   2.0000     -11.238244      -305.8082
   5   2.0000     -11.230998      -305.6110
   6   2.0000     -11.223550      -305.4083
   7   2.0000     -11.218124      -305.2607
   8   2.0000     -11.217165      -305.2346
   9   2.0000      -1.378026       -37.4980
  10   2.0000      -1.139652       -31.0115
  11   2.0000      -1.056912       -28.7600
  12   2.0000      -0.976328       -26.5672
  13   2.0000      -0.932962       -25.3872
  14   2.0000      -0.903277       -24.5794
  15   2.0000      -0.834434       -22.7061
  16   2.0000      -0.761896       -20.7323
  17   2.0000      -0.717872       -19.5343
  18   2.0000      -0.675434       -18.3795
  19   2.0000      -0.663111       -18.0442
  20   2.0000      -0.643382       -17.5073
  21   2.0000      -0.629801       -17.1377
  22   2.0000      -0.616862       -16.7857
  23   2.0000      -0.582608       -15.8536
  24   2.0000      -0.562474       -15.3057
  25   2.0000      -0.543040       -14.7769
  26   2.0000      -0.512449       -13.9444
  27   2.0000      -0.485293       -13.2055
  28   2.0000      -0.471150       -12.8206
  29   2.0000      -0.457457       -12.4480
  30   2.0000      -0.444768       -12.1028
  31   2.0000      -0.409579       -11.1452
  32   2.0000      -0.382769       -10.4157
  33   2.0000      -0.379276       -10.3206
  34   0.0000       0.133256         3.6261
  35   0.0000       0.145610         3.9623
  36   0.0000       0.157721         4.2918
  37   0.0000       0.170211         4.6317
  38   0.0000       0.171889         4.6773

MULLIKEN ATOMIC CHARGES
-----------------------
   0 C :   -0.219107
   1 O :   -0.291699
   2 C :    0.029303
   3 C :   -0.220264
   4 C :   -0.042649
   5 C :   -0.394434
   6 C :   -0.004720
   7 C :   -0.150150
   8 C :   -0.189581
   9 H :    0.142107
  10 H :    0.114334
  11 H :    0.110819
  12 H :    0.068193
  13 H :    0.125664
  14 H :    0.104876
  15 H :    0.105711
  16 H :    0.143455
  17 H :    0.141743
  18 H :    0.188087
  19 H :    0.109583
  20 H :    0.128729
Sum of atomic charges:   -0.0000000

LOEWDIN ATOMIC CHARGES
----------------------
   0 C :   -0.355555
   1 O :    0.156570
   2 C :   -0.316466
   3 C :   -0.207376
   4 C :   -0.217656
   5 C :   -0.237062
   6 C :   -0.107577
   7 C :   -0.108773
   8 C :   -0.191719
   9 H :    0.113620
  10 H :    0.102222
  11 H :    0.101663
  12 H :    0.132089
  13 H :    0.123531
  14 H :    0.141764
  15 H :    0.153804
  16 H :    0.158867
  17 H :    0.158056
  18 H :    0.125615
  19 H :    0.146224
  20 H :    0.128161

  Mayer bond orders larger than 0.1
B(  0-C ,  1-O ) :   0.9070 B(  0-C ,  9-H ) :   0.9414 B(  0-C , 10-H ) :   0.9344
B(  0-C , 11-H ) :   0.9344 B(  1-O ,  2-C ) :   1.0651 B(  2-C ,  3-C ) :   0.9327
B(  2-C ,  8-C ) :   0.9209 B(  2-C , 12-H ) :   0.9516 B(  3-C ,  4-C ) :   0.9491
B(  3-C , 13-H ) :   0.9220 B(  3-C , 14-H ) :   0.8968 B(  4-C ,  5-C ) :   0.8822
B(  4-C ,  8-C ) :   0.9218 B(  4-C , 15-H ) :   0.9239 B(  5-C ,  6-C ) :   1.0910
B(  5-C , 16-H ) :   0.9302 B(  5-C , 17-H ) :   0.9247 B(  6-C ,  7-C ) :   2.6130
B(  7-C , 18-H ) :   0.9029 B(  8-C , 19-H ) :   0.9024 B(  8-C , 20-H ) :   0.9275

MP2 TOTAL ENERGY:     -386.350194293 Eh
FINAL SINGLE POINT ENERGY      -386.350194292916

DIPOLE MOMENT
-------------
                                X             Y             Z
Electronic contribution:     -1.30880      -5.06861       1.82125
Nuclear contribution   :      1.08361       5.53344      -2.17539
                        -----------------------------------------
Total Dipole Moment    :     -0.22519       0.46483      -0.35415
                        -----------------------------------------
Magnitude (a.u.)       :      0.62625
Magnitude (Debye)      :      1.59181

                             ****ORCA TERMINATED NORMALLY****
TOTAL RUN TIME: 0 days 0 hours 27 minutes 38 seconds 45 msec
