                         Program Version 3.0.3 - RELEASE   -
|  1> ! RI-MP2 RIJK def2-TZVP def2-TZVP/C def2-TZVP/JK TIGHTSCF
|  2> % maxcore 2000
|  3> % mp2 density relaxed end
|  4> *xyz 0 1
|  5>  C        0.2404684660     1.2500879460    -0.1519582012
|  6>  C       -0.0429511167    -0.1950746539     0.2766405676
|  7>  C       -1.4941228953    -0.6179023976     0.0957033014
|  8>  C       -2.5097319001     0.1010524251     0.9650711397
|  9>  C       -1.9342179276    -1.0476360847    -1.2950307117
| 10>  C       -1.7862350653    -2.0698073993    -0.2130898195
| 11>  O       -0.7230819122    -2.9913686194    -0.3832486995
| 12>  C       -0.3824939750    -3.7215759631     0.6993682245
| 13>  O        0.4983912212    -4.5270952270     0.6801670484
| 14>  H        1.3028164304     1.4843776147    -0.0355743156
| 15>  H       -0.0245236740     1.4083598045    -1.2026837308
| 16>  H       -0.3227210300     1.9729829511     0.4463931732
| 17>  H        0.6011869653    -0.8729653035    -0.2914482776
| 18>  H        0.2349777279    -0.3222733005     1.3321280100
| 19>  H       -2.5663522414     1.1653591543     0.7146084297
| 20>  H       -3.5134743861    -0.3165284149     0.8364737514
| 21>  H       -2.2465567286     0.0205370504     2.0262849104
| 22>  H       -2.9331511335    -0.8049054823    -1.6411217003
| 23>  H       -1.1773428706    -1.0673161126    -2.0717846408
| 24>  H       -2.6798876134    -2.5227527009     0.2088992632
| 25>  H       -1.0087955110    -3.4958365866     1.5839437474
| 26> *
| 27>
| 28>                          ****END OF INPUT****

CARTESIAN COORDINATES (ANGSTROEM)
---------------------------------
  C      0.240468    1.250088   -0.151958
  C     -0.042951   -0.195075    0.276641
  C     -1.494123   -0.617902    0.095703
  C     -2.509732    0.101052    0.965071
  C     -1.934218   -1.047636   -1.295031
  C     -1.786235   -2.069807   -0.213090
  O     -0.723082   -2.991369   -0.383249
  C     -0.382494   -3.721576    0.699368
  O      0.498391   -4.527095    0.680167
  H      1.302816    1.484378   -0.035574
  H     -0.024524    1.408360   -1.202684
  H     -0.322721    1.972983    0.446393
  H      0.601187   -0.872965   -0.291448
  H      0.234978   -0.322273    1.332128
  H     -2.566352    1.165359    0.714608
  H     -3.513474   -0.316528    0.836474
  H     -2.246557    0.020537    2.026285
  H     -2.933151   -0.804905   -1.641122
  H     -1.177343   -1.067316   -2.071785
  H     -2.679888   -2.522753    0.208899
  H     -1.008796   -3.495837    1.583944

 Total Charge           Charge          ....    0
 Multiplicity           Mult            ....    1
 Number of Electrons    NEL             ....   70
 Basis Dimension        Dim             ....  351

ORBITAL ENERGIES
----------------

  NO   OCC          E(Eh)            E(eV)
   0   2.0000     -20.610108      -560.8295
   1   2.0000     -20.551586      -559.2371
   2   2.0000     -11.382997      -309.7471
   3   2.0000     -11.304628      -307.6146
   4   2.0000     -11.254868      -306.2605
   5   2.0000     -11.238875      -305.8253
   6   2.0000     -11.232774      -305.6593
   7   2.0000     -11.232531      -305.6527
   8   2.0000     -11.220918      -305.3367
   9   2.0000      -1.464331       -39.8465
  10   2.0000      -1.375463       -37.4283
  11   2.0000      -1.171604       -31.8810
  12   2.0000      -1.035410       -28.1749
  13   2.0000      -0.976270       -26.5657
  14   2.0000      -0.878736       -23.9116
  15   2.0000      -0.871267       -23.7084
  16   2.0000      -0.839024       -22.8310
  17   2.0000      -0.767177       -20.8759
  18   2.0000      -0.724898       -19.7255
  19   2.0000      -0.678345       -18.4587
  20   2.0000      -0.663013       -18.0415
  21   2.0000      -0.625971       -17.0335
  22   2.0000      -0.618246       -16.8233
  23   2.0000      -0.604847       -16.4587
  24   2.0000      -0.586640       -15.9633
  25   2.0000      -0.565908       -15.3991
  26   2.0000      -0.551051       -14.9949
  27   2.0000      -0.542603       -14.7650
  28   2.0000      -0.528531       -14.3821
  29   2.0000      -0.501816       -13.6551
  30   2.0000      -0.489405       -13.3174
  31   2.0000      -0.476290       -12.9605
  32   2.0000      -0.464260       -12.6332
  33   2.0000      -0.424538       -11.5523
  34   2.0000      -0.399716       -10.8768
  35   0.0000       0.124709         3.3935
  36   0.0000       0.136356         3.7104
  37   0.0000       0.146705         3.9920
  38   0.0000       0.169188         4.6038
  39   0.0000       0.170317         4.6346

MULLIKEN ATOMIC CHARGES
-----------------------
   0 C :   -0.411294
   1 C :   -0.220342
   2 C :    0.113264
   3 C :   -0.423134
   4 C :   -0.289428
   5 C :   -0.058032
   6 O :   -0.201356
   7 C :    0.197974
   8 O :   -0.266102
   9 H :    0.140693
  10 H :    0.130793
  11 H :    0.127289
  12 H :    0.144433
  13 H :    0.112234
  14 H :    0.142781
  15 H :    0.129613
  16 H :    0.135094
  17 H :    0.138949
  18 H :    0.145812
  19 H :    0.129171
  20 H :    0.081589
Sum of atomic charges:    0.0000000

LOEWDIN ATOMIC CHARGES
----------------------
   0 C :   -0.309229
   1 C :   -0.248070
   2 C :   -0.261259
   3 C :   -0.262743
   4 C :   -0.180840
   5 C :   -0.261096
   6 O :    0.269552
   7 C :   -0.441315
   8 O :    0.123131
   9 H :    0.123396
  10 H :    0.123182
  11 H :    0.119839
  12 H :    0.148471
  13 H :    0.141579
  14 H :    0.128644
  15 H :    0.128630
  16 H :    0.129001
  17 H :    0.137222
  18 H :    0.147020
  19 H :    0.139805
  20 H :    0.105080

  Mayer bond orders larger than 0.1
B(  0-C ,  1-C ) :   0.9147 B(  0-C ,  9-H ) :   0.9418 B(  0-C , 10-H ) :   0.9391
B(  0-C , 11-H ) :   0.9391 B(  1-C ,  2-C ) :   0.9122 B(  1-C , 12-H ) :   0.9286
B(  1-C , 13-H ) :   0.9301 B(  2-C ,  3-C ) :   0.9048 B(  2-C ,  4-C ) :   0.8763
B(  2-C ,  5-C ) :   0.8407 B(  3-C , 14-H ) :   0.9395 B(  3-C , 15-H ) :   0.9267
B(  3-C , 16-H ) :   0.9369 B(  4-C ,  5-C ) :   0.9068 B(  4-C , 17-H ) :   0.9201
B(  4-C , 18-H ) :   0.9188 B(  5-C ,  6-O ) :   0.9086 B(  5-C , 19-H ) :   0.9443
B(  6-O ,  7-C ) :   1.0439 B(  7-C ,  8-O ) :   2.0343 B(  7-C , 20-H ) :   0.9177

MP2 TOTAL ENERGY:     -423.529455301 Eh
FINAL SINGLE POINT ENERGY      -423.529455301494

DIPOLE MOMENT
-------------
                                X             Y             Z
Electronic contribution:      2.43691     -13.11761      -0.56919
Nuclear contribution   :     -3.49568      14.30085       0.80663
                        -----------------------------------------
Total Dipole Moment    :     -1.05877       1.18324       0.23745
                        -----------------------------------------
Magnitude (a.u.)       :      1.60544
Magnitude (Debye)      :      4.08070

                             ****ORCA TERMINATED NORMALLY****
TOTAL RUN TIME: 0 days 0 hours 18 minutes 0 seconds 388 msec
