                         Program Version 3.0.3 - RELEASE   -
|  1> ! RI-MP2 RIJK def2-TZVP def2-TZVP/C def2-TZVP/JK TIGHTSCF
|  2> % maxcore 2000
|  3> % mp2 density relaxed end
|  4> *xyz 0 1
|  5>  O        0.6622363011     0.2918225723    -0.6867804286
|  6>  C       -0.1970660785     0.2918919168     0.4380698689
|  7>  C       -1.4596648872    -0.4969658935     0.2131028003
|  8>  O       -2.4457701796    -0.4328978788     1.2376589242
|  9>  C       -2.7780819440    -1.8362450290     1.0177864472
| 10>  C       -1.7881120088    -1.9242954796    -0.1352102031
| 11>  C       -2.0849613587    -0.8014077878    -1.1381291627
| 12>  C       -3.4100704597    -0.3999691610    -1.5065827855
| 13>  C       -4.5241172123    -0.0641408769    -1.8121433582
| 14>  H        0.2788065911     0.8752173766    -1.3493386101
| 15>  H        0.3703024582    -0.1498762634     1.2639458778
| 16>  H       -0.4817810761     1.3090598985     0.7484391931
| 17>  H       -2.4910556319    -2.4346369332     1.8882433994
| 18>  H       -3.8390398609    -1.9759707902     0.7883054499
| 19>  H       -1.1556480322    -2.7632745527    -0.3910710970
| 20>  H       -1.3492254823    -0.7956640901    -1.9386259777
| 21>  H       -5.5051033283     0.2390234920    -2.0821394479
| 22> *
| 23>
| 24>                          ****END OF INPUT****

CARTESIAN COORDINATES (ANGSTROEM)
---------------------------------
  O      0.662236    0.291823   -0.686780
  C     -0.197066    0.291892    0.438070
  C     -1.459665   -0.496966    0.213103
  O     -2.445770   -0.432898    1.237659
  C     -2.778082   -1.836245    1.017786
  C     -1.788112   -1.924295   -0.135210
  C     -2.084961   -0.801408   -1.138129
  C     -3.410070   -0.399969   -1.506583
  C     -4.524117   -0.064141   -1.812143
  H      0.278807    0.875217   -1.349339
  H      0.370302   -0.149876    1.263946
  H     -0.481781    1.309060    0.748439
  H     -2.491056   -2.434637    1.888243
  H     -3.839040   -1.975971    0.788305
  H     -1.155648   -2.763275   -0.391071
  H     -1.349225   -0.795664   -1.938626
  H     -5.505103    0.239023   -2.082139

 Total Charge           Charge          ....    0
 Multiplicity           Mult            ....    1
 Number of Electrons    NEL             ....   66
 Basis Dimension        Dim             ....  327

ORBITAL ENERGIES
----------------

  NO   OCC          E(Eh)            E(eV)
   0   2.0000     -20.572076      -559.7947
   1   2.0000     -20.565120      -559.6054
   2   2.0000     -11.308349      -307.7158
   3   2.0000     -11.292668      -307.2891
   4   2.0000     -11.292214      -307.2768
   5   2.0000     -11.266754      -306.5840
   6   2.0000     -11.253208      -306.2154
   7   2.0000     -11.236212      -305.7529
   8   2.0000     -11.223213      -305.3991
   9   2.0000      -1.407946       -38.3122
  10   2.0000      -1.375650       -37.4333
  11   2.0000      -1.142005       -31.0755
  12   2.0000      -1.027596       -27.9623
  13   2.0000      -0.996744       -27.1228
  14   2.0000      -0.931818       -25.3561
  15   2.0000      -0.853554       -23.2264
  16   2.0000      -0.754581       -20.5332
  17   2.0000      -0.730107       -19.8672
  18   2.0000      -0.722617       -19.6634
  19   2.0000      -0.693888       -18.8817
  20   2.0000      -0.672395       -18.2968
  21   2.0000      -0.646284       -17.5863
  22   2.0000      -0.614569       -16.7233
  23   2.0000      -0.594999       -16.1908
  24   2.0000      -0.578305       -15.7365
  25   2.0000      -0.532195       -14.4818
  26   2.0000      -0.513557       -13.9746
  27   2.0000      -0.505591       -13.7578
  28   2.0000      -0.476693       -12.9715
  29   2.0000      -0.438782       -11.9399
  30   2.0000      -0.413991       -11.2653
  31   2.0000      -0.381869       -10.3912
  32   2.0000      -0.359019        -9.7694
  33   0.0000       0.130949         3.5633
  34   0.0000       0.156260         4.2521
  35   0.0000       0.163235         4.4418
  36   0.0000       0.169309         4.6071
  37   0.0000       0.169857         4.6220

MULLIKEN ATOMIC CHARGES
-----------------------
   0 O :   -0.475478
   1 C :   -0.029456
   2 C :    0.234191
   3 O :   -0.333407
   4 C :   -0.022984
   5 C :   -0.170009
   6 C :   -0.460377
   7 C :    0.094504
   8 C :   -0.144360
   9 H :    0.325641
  10 H :    0.121779
  11 H :    0.131101
  12 H :    0.116241
  13 H :    0.123026
  14 H :    0.148120
  15 H :    0.151694
  16 H :    0.189775
Sum of atomic charges:   -0.0000000

LOEWDIN ATOMIC CHARGES
----------------------
   0 O :   -0.032388
   1 C :   -0.302942
   2 C :   -0.271096
   3 O :    0.181413
   4 C :   -0.223142
   5 C :   -0.140632
   6 C :   -0.171058
   7 C :   -0.090668
   8 C :   -0.093373
   9 H :    0.177124
  10 H :    0.138869
  11 H :    0.132167
  12 H :    0.127183
  13 H :    0.126128
  14 H :    0.142258
  15 H :    0.173361
  16 H :    0.126796

  Mayer bond orders larger than 0.1
B(  0-O ,  1-C ) :   0.9395 B(  0-O ,  9-H ) :   0.8427 B(  1-C ,  2-C ) :   0.8534
B(  1-C , 10-H ) :   0.9230 B(  1-C , 11-H ) :   0.9455 B(  2-C ,  3-O ) :   0.9944
B(  2-C ,  5-C ) :   0.8583 B(  2-C ,  6-C ) :   0.8607 B(  3-O ,  4-C ) :   0.9039
B(  4-C ,  5-C ) :   0.9848 B(  4-C , 12-H ) :   0.9145 B(  4-C , 13-H ) :   0.9122
B(  5-C ,  6-C ) :   0.8539 B(  5-C , 14-H ) :   0.8956 B(  6-C ,  7-C ) :   1.0637
B(  6-C ,  8-C ) :  -0.1218 B(  6-C , 15-H ) :   0.9591 B(  7-C ,  8-C ) :   2.5913
B(  8-C , 16-H ) :   0.9033

MP2 TOTAL ENERGY:     -421.025236449 Eh
FINAL SINGLE POINT ENERGY      -421.025236449335

DIPOLE MOMENT
-------------
                                X             Y             Z
Electronic contribution:     -1.15545       0.81497      -0.82592
Nuclear contribution   :      1.11741      -1.04682       0.66391
                        -----------------------------------------
Total Dipole Moment    :     -0.03803      -0.23185      -0.16201
                        -----------------------------------------
Magnitude (a.u.)       :      0.28539
Magnitude (Debye)      :      0.72540

                             ****ORCA TERMINATED NORMALLY****
TOTAL RUN TIME: 0 days 0 hours 17 minutes 20 seconds 22 msec
