                         Program Version 3.0.3 - RELEASE   -
|  1> ! RI-MP2 RIJK def2-TZVP def2-TZVP/C def2-TZVP/JK TIGHTSCF
|  2> % maxcore 2000
|  3> % mp2 density relaxed end
|  4> *xyz 0 1
|  5>  O       -0.6196297871     0.8619427418    -0.6953942010
|  6>  C        0.2309017512     0.9185121850     0.1572230103
|  7>  C        1.4184717237     1.8766463680     0.1180267258
|  8>  C        1.4376598229     2.7611650452    -1.1572290431
|  9>  N        1.4691456919     4.1375143359    -0.6322636023
| 10>  C        1.3297700231     4.1402559679     0.7140781512
| 11>  C        1.3376476931     2.8939141583     1.2580301717
| 12>  C        1.3223168745     2.5709816720     2.6549120740
| 13>  O        1.3362295869     1.4366672320     3.1085176032
| 14>  H        0.2030078547     0.2804262593     1.0603233542
| 15>  H        2.3230719153     1.2637164588     0.2239843424
| 16>  H        2.3085975487     2.5751215586    -1.7912468306
| 17>  H        0.5299265183     2.5773229781    -1.7421680303
| 18>  H        1.2062961142     4.9241795560    -1.2019707764
| 19>  H        1.2587322904     5.0811187874     1.2472530701
| 20>  H        1.2967999982     3.4548286354     3.3324749108
| 21> *
| 22>
| 23>                          ****END OF INPUT****

CARTESIAN COORDINATES (ANGSTROEM)
---------------------------------
  O     -0.619630    0.861943   -0.695394
  C      0.230902    0.918512    0.157223
  C      1.418472    1.876646    0.118027
  C      1.437660    2.761165   -1.157229
  N      1.469146    4.137514   -0.632264
  C      1.329770    4.140256    0.714078
  C      1.337648    2.893914    1.258030
  C      1.322317    2.570982    2.654912
  O      1.336230    1.436667    3.108518
  H      0.203008    0.280426    1.060323
  H      2.323072    1.263716    0.223984
  H      2.308598    2.575122   -1.791247
  H      0.529927    2.577323   -1.742168
  H      1.206296    4.924180   -1.201971
  H      1.258732    5.081119    1.247253
  H      1.296800    3.454829    3.332475

 Total Charge           Charge          ....    0
 Multiplicity           Mult            ....    1
 Number of Electrons    NEL             ....   66
 Basis Dimension        Dim             ....  321

ORBITAL ENERGIES
----------------

  NO   OCC          E(Eh)            E(eV)
   0   2.0000     -20.555299      -559.3381
   1   2.0000     -20.533487      -558.7446
   2   2.0000     -15.604291      -424.6143
   3   2.0000     -11.327689      -308.2421
   4   2.0000     -11.325726      -308.1887
   5   2.0000     -11.321288      -308.0679
   6   2.0000     -11.280562      -306.9597
   7   2.0000     -11.260574      -306.4158
   8   2.0000     -11.233470      -305.6783
   9   2.0000      -1.395176       -37.9647
  10   2.0000      -1.370819       -37.3019
  11   2.0000      -1.293518       -35.1984
  12   2.0000      -1.088614       -29.6227
  13   2.0000      -1.033783       -28.1307
  14   2.0000      -0.908319       -24.7166
  15   2.0000      -0.876201       -23.8426
  16   2.0000      -0.790816       -21.5192
  17   2.0000      -0.759322       -20.6622
  18   2.0000      -0.732041       -19.9198
  19   2.0000      -0.695520       -18.9261
  20   2.0000      -0.668394       -18.1879
  21   2.0000      -0.643637       -17.5143
  22   2.0000      -0.617263       -16.7966
  23   2.0000      -0.596136       -16.2217
  24   2.0000      -0.586955       -15.9718
  25   2.0000      -0.572421       -15.5764
  26   2.0000      -0.539223       -14.6730
  27   2.0000      -0.523149       -14.2356
  28   2.0000      -0.501725       -13.6526
  29   2.0000      -0.488048       -13.2805
  30   2.0000      -0.429208       -11.6793
  31   2.0000      -0.415933       -11.3181
  32   2.0000      -0.323178        -8.7941
  33   0.0000       0.094753         2.5784
  34   0.0000       0.116881         3.1805
  35   0.0000       0.137204         3.7335
  36   0.0000       0.148846         4.0503
  37   0.0000       0.155246         4.2245

MULLIKEN ATOMIC CHARGES
-----------------------
   0 O :   -0.284387
   1 C :    0.080294
   2 C :    0.024583
   3 C :   -0.158999
   4 N :   -0.304490
   5 C :   -0.024591
   6 C :   -0.079734
   7 C :    0.052713
   8 O :   -0.336135
   9 H :    0.131076
  10 H :    0.128743
  11 H :    0.128735
  12 H :    0.165494
  13 H :    0.249315
  14 H :    0.156458
  15 H :    0.070924
Sum of atomic charges:   -0.0000000

LOEWDIN ATOMIC CHARGES
----------------------
   0 O :    0.129069
   1 C :   -0.255636
   2 C :   -0.190744
   3 C :   -0.209560
   4 N :    0.104393
   5 C :   -0.166919
   6 C :   -0.194840
   7 C :   -0.313279
   8 O :    0.081152
   9 H :    0.127436
  10 H :    0.169506
  11 H :    0.131454
  12 H :    0.140563
  13 H :    0.182966
  14 H :    0.147819
  15 H :    0.116621

  Mayer bond orders larger than 0.1
B(  0-O ,  1-C ) :   1.9533 B(  1-C ,  2-C ) :   0.8479 B(  1-C ,  9-H ) :   0.9265
B(  2-C ,  3-C ) :   0.9508 B(  2-C ,  6-C ) :   0.8708 B(  2-C , 10-H ) :   0.8904
B(  3-C ,  4-N ) :   0.8469 B(  3-C , 11-H ) :   0.9241 B(  3-C , 12-H ) :   0.9282
B(  4-N ,  5-C ) :   1.2248 B(  4-N , 13-H ) :   0.8716 B(  5-C ,  6-C ) :   1.5242
B(  5-C , 14-H ) :   0.8997 B(  6-C ,  7-C ) :   0.9627 B(  6-C , 15-H ) :  -0.1172
B(  7-C ,  8-O ) :   1.9053 B(  7-C , 15-H ) :   0.9919

MP2 TOTAL ENERGY:     -437.184550107 Eh
FINAL SINGLE POINT ENERGY      -437.184550106648

DIPOLE MOMENT
-------------
                                X             Y             Z
Electronic contribution:     -1.32295      -1.63651       1.89263
Nuclear contribution   :      1.91975       3.28812      -2.91224
                        -----------------------------------------
Total Dipole Moment    :      0.59681       1.65161      -1.01961
                        -----------------------------------------
Magnitude (a.u.)       :      2.03066
Magnitude (Debye)      :      5.16153

                             ****ORCA TERMINATED NORMALLY****
TOTAL RUN TIME: 0 days 0 hours 15 minutes 28 seconds 629 msec
