                         Program Version 3.0.3 - RELEASE   -
|  1> ! RI-MP2 RIJK def2-TZVP def2-TZVP/C def2-TZVP/JK TIGHTSCF
|  2> % maxcore 2000
|  3> % mp2 density relaxed end
|  4> *xyz 0 1
|  5>  C        0.0884995817     1.4711381621    -0.1545178510
|  6>  C       -0.0375664635     0.0142832174     0.1813047939
|  7>  C       -1.1721838648    -0.6787701742     0.1883946178
|  8>  C       -2.5570387968    -0.5891750678    -0.4256341908
|  9>  C       -2.3611876707    -2.0937843794    -0.8248194249
| 10>  C       -1.2555435171    -2.1767178281     0.2842323692
| 11>  O       -0.0653907144    -2.9166789111     0.1390967847
| 12>  C        1.0580912017    -2.1677772857    -0.3090033684
| 13>  C        1.2114453053    -0.8181151976     0.4169006442
| 14>  H        0.7416966627     1.6254328333    -1.0237167676
| 15>  H       -0.8836255086     1.9224649020    -0.3708179882
| 16>  H        0.5402090959     2.0299222667     0.6756068241
| 17>  H       -3.3596717460    -0.4649024986     0.3092284785
| 18>  H       -2.7070411438     0.1322903112    -1.2320751665
| 19>  H       -3.2175972034    -2.7653794658    -0.7315122705
| 20>  H       -1.9256938882    -2.1829583476    -1.8226102358
| 21>  H       -1.7180277669    -2.5144011885     1.2218152870
| 22>  H        1.9230589247    -2.8136303022    -0.1300885727
| 23>  H        0.9952128652    -1.9795041194    -1.3925277327
| 24>  H        2.0962228621    -0.3037294691     0.0229618010
| 25>  H        1.3967226149    -0.9940400176     1.4844537687
| 26> *
| 27>
| 28>                          ****END OF INPUT****

CARTESIAN COORDINATES (ANGSTROEM)
---------------------------------
  C      0.088500    1.471138   -0.154518
  C     -0.037566    0.014283    0.181305
  C     -1.172184   -0.678770    0.188395
  C     -2.557039   -0.589175   -0.425634
  C     -2.361188   -2.093784   -0.824819
  C     -1.255544   -2.176718    0.284232
  O     -0.065391   -2.916679    0.139097
  C      1.058091   -2.167777   -0.309003
  C      1.211445   -0.818115    0.416901
  H      0.741697    1.625433   -1.023717
  H     -0.883626    1.922465   -0.370818
  H      0.540209    2.029922    0.675607
  H     -3.359672   -0.464902    0.309228
  H     -2.707041    0.132290   -1.232075
  H     -3.217597   -2.765379   -0.731512
  H     -1.925694   -2.182958   -1.822610
  H     -1.718028   -2.514401    1.221815
  H      1.923059   -2.813630   -0.130089
  H      0.995213   -1.979504   -1.392528
  H      2.096223   -0.303729    0.022962
  H      1.396723   -0.994040    1.484454

 Total Charge           Charge          ....    0
 Multiplicity           Mult            ....    1
 Number of Electrons    NEL             ....   68
 Basis Dimension        Dim             ....  351

ORBITAL ENERGIES
----------------

  NO   OCC          E(Eh)            E(eV)
   0   2.0000     -20.548038      -559.1405
   1   2.0000     -11.273371      -306.7640
   2   2.0000     -11.271867      -306.7231
   3   2.0000     -11.231353      -305.6207
   4   2.0000     -11.228706      -305.5486
   5   2.0000     -11.225644      -305.4653
   6   2.0000     -11.224849      -305.4437
   7   2.0000     -11.222837      -305.3889
   8   2.0000     -11.219887      -305.3087
   9   2.0000      -1.368987       -37.2520
  10   2.0000      -1.140198       -31.0264
  11   2.0000      -1.076593       -29.2956
  12   2.0000      -0.981902       -26.7189
  13   2.0000      -0.923937       -25.1416
  14   2.0000      -0.895427       -24.3658
  15   2.0000      -0.826147       -22.4806
  16   2.0000      -0.803053       -21.8522
  17   2.0000      -0.688159       -18.7257
  18   2.0000      -0.675397       -18.3785
  19   2.0000      -0.651427       -17.7262
  20   2.0000      -0.639676       -17.4065
  21   2.0000      -0.590568       -16.0702
  22   2.0000      -0.577289       -15.7088
  23   2.0000      -0.559821       -15.2335
  24   2.0000      -0.551062       -14.9951
  25   2.0000      -0.540294       -14.7021
  26   2.0000      -0.526953       -14.3391
  27   2.0000      -0.510304       -13.8861
  28   2.0000      -0.503017       -13.6878
  29   2.0000      -0.491516       -13.3748
  30   2.0000      -0.460777       -12.5384
  31   2.0000      -0.418827       -11.3969
  32   2.0000      -0.400885       -10.9086
  33   2.0000      -0.329390        -8.9631
  34   0.0000       0.132417         3.6033
  35   0.0000       0.145931         3.9710
  36   0.0000       0.161810         4.4031
  37   0.0000       0.162448         4.4204
  38   0.0000       0.172474         4.6933

MULLIKEN ATOMIC CHARGES
-----------------------
   0 C :   -0.431545
   1 C :   -0.042723
   2 C :   -0.070228
   3 C :   -0.223275
   4 C :   -0.213463
   5 C :    0.111092
   6 O :   -0.307990
   7 C :   -0.049898
   8 C :   -0.215121
   9 H :    0.134694
  10 H :    0.135612
  11 H :    0.143223
  12 H :    0.124779
  13 H :    0.123261
  14 H :    0.118386
  15 H :    0.115368
  16 H :    0.097709
  17 H :    0.119792
  18 H :    0.087810
  19 H :    0.121002
  20 H :    0.121516
Sum of atomic charges:    0.0000000

LOEWDIN ATOMIC CHARGES
----------------------
   0 C :   -0.272999
   1 C :   -0.178507
   2 C :   -0.139916
   3 C :   -0.199213
   4 C :   -0.203099
   5 C :   -0.262642
   6 O :    0.173610
   7 C :   -0.301243
   8 C :   -0.223192
   9 H :    0.128765
  10 H :    0.129754
  11 H :    0.132340
  12 H :    0.139175
  13 H :    0.130249
  14 H :    0.122094
  15 H :    0.136928
  16 H :    0.148762
  17 H :    0.127583
  18 H :    0.120823
  19 H :    0.145253
  20 H :    0.145472

  Mayer bond orders larger than 0.1
B(  0-C ,  1-C ) :   0.8973 B(  0-C ,  9-H ) :   0.9301 B(  0-C , 10-H ) :   0.9487
B(  0-C , 11-H ) :   0.9331 B(  1-C ,  2-C ) :   1.7576 B(  1-C ,  8-C ) :   0.9322
B(  2-C ,  3-C ) :   0.9117 B(  2-C ,  5-C ) :   0.9215 B(  3-C ,  4-C ) :   0.9312
B(  3-C , 12-H ) :   0.9127 B(  3-C , 13-H ) :   0.9153 B(  4-C ,  5-C ) :   0.8971
B(  4-C , 14-H ) :   0.9272 B(  4-C , 15-H ) :   0.9146 B(  5-C ,  6-O ) :   0.9730
B(  5-C , 16-H ) :   0.9344 B(  6-O ,  7-C ) :   0.9367 B(  7-C ,  8-C ) :   0.9383
B(  7-C , 17-H ) :   0.9269 B(  7-C , 18-H ) :   0.9307 B(  8-C , 19-H ) :   0.9220
B(  8-C , 20-H ) :   0.9082

MP2 TOTAL ENERGY:     -386.399997304 Eh
FINAL SINGLE POINT ENERGY      -386.399997304241

DIPOLE MOMENT
-------------
                                X             Y             Z
Electronic contribution:     -0.34375      -4.25576       1.83626
Nuclear contribution   :      0.39297       4.83298      -2.02968
                        -----------------------------------------
Total Dipole Moment    :      0.04922       0.57722      -0.19342
                        -----------------------------------------
Magnitude (a.u.)       :      0.61075
Magnitude (Debye)      :      1.55240

                             ****ORCA TERMINATED NORMALLY****
TOTAL RUN TIME: 0 days 0 hours 20 minutes 22 seconds 228 msec
