                         Program Version 3.0.3 - RELEASE   -
|  1> ! RI-MP2 RIJK def2-TZVP def2-TZVP/C def2-TZVP/JK TIGHTSCF
|  2> % maxcore 2000
|  3> % mp2 density relaxed end
|  4> *xyz 0 1
|  5>  C        0.9337193874     1.1124237087     0.0248998319
|  6>  N        0.9602462242    -0.1814502714    -0.6257593260
|  7>  C       -0.1065503254    -0.6776849003    -1.3149676407
|  8>  O       -1.1543662014    -0.0709549913    -1.4538037439
|  9>  C        0.0793837597    -2.0848162088    -1.8946118712
| 10>  C        1.4993876922    -2.5508177168    -2.1367139380
| 11>  C        2.3006798454    -3.2149890170    -1.0327154047
| 12>  C        1.8093032061    -4.0225659452    -2.2072675583
| 13>  H        1.7364399090     1.7606995804    -0.3441485024
| 14>  H       -0.0295470824     1.5701209778    -0.2034734533
| 15>  H        1.0346619176     1.0187946502     1.1126198070
| 16>  H        1.7808502470    -0.7584366350    -0.5452412867
| 17>  H       -0.4260356817    -2.7782344094    -1.2092308217
| 18>  H       -0.5015217956    -2.1037340220    -2.8218540456
| 19>  H        2.0686578907    -1.9211777412    -2.8159215853
| 20>  H        3.3633018878    -3.0084115896    -0.9613104694
| 21>  H        1.8128330831    -3.3707664188    -0.0755331372
| 22>  H        0.9948324651    -4.7185144069    -2.0357764949
| 23>  H        2.5361391813    -4.3608093035    -2.9370136597
| 24> *
| 25>
| 26>                          ****END OF INPUT****

CARTESIAN COORDINATES (ANGSTROEM)
---------------------------------
  C      0.933719    1.112424    0.024900
  N      0.960246   -0.181450   -0.625759
  C     -0.106550   -0.677685   -1.314968
  O     -1.154366   -0.070955   -1.453804
  C      0.079384   -2.084816   -1.894612
  C      1.499388   -2.550818   -2.136714
  C      2.300680   -3.214989   -1.032715
  C      1.809303   -4.022566   -2.207268
  H      1.736440    1.760700   -0.344149
  H     -0.029547    1.570121   -0.203473
  H      1.034662    1.018795    1.112620
  H      1.780850   -0.758437   -0.545241
  H     -0.426036   -2.778234   -1.209231
  H     -0.501522   -2.103734   -2.821854
  H      2.068658   -1.921178   -2.815922
  H      3.363302   -3.008412   -0.961310
  H      1.812833   -3.370766   -0.075533
  H      0.994832   -4.718514   -2.035776
  H      2.536139   -4.360809   -2.937014

 Total Charge           Charge          ....    0
 Multiplicity           Mult            ....    1
 Number of Electrons    NEL             ....   62
 Basis Dimension        Dim             ....  314

ORBITAL ENERGIES
----------------

  NO   OCC          E(Eh)            E(eV)
   0   2.0000     -20.504677      -557.9606
   1   2.0000     -15.577176      -423.8765
   2   2.0000     -11.340439      -308.5890
   3   2.0000     -11.254118      -306.2401
   4   2.0000     -11.248857      -306.0970
   5   2.0000     -11.240637      -305.8733
   6   2.0000     -11.240079      -305.8581
   7   2.0000     -11.238452      -305.8138
   8   2.0000      -1.371283       -37.3145
   9   2.0000      -1.223465       -33.2922
  10   2.0000      -1.158783       -31.5321
  11   2.0000      -1.013767       -27.5860
  12   2.0000      -0.932203       -25.3665
  13   2.0000      -0.837729       -22.7958
  14   2.0000      -0.812231       -22.1019
  15   2.0000      -0.776019       -21.1166
  16   2.0000      -0.704359       -19.1666
  17   2.0000      -0.665988       -18.1225
  18   2.0000      -0.649950       -17.6860
  19   2.0000      -0.628394       -17.0995
  20   2.0000      -0.613074       -16.6826
  21   2.0000      -0.577313       -15.7095
  22   2.0000      -0.565255       -15.3814
  23   2.0000      -0.541863       -14.7448
  24   2.0000      -0.528607       -14.3841
  25   2.0000      -0.524772       -14.2798
  26   2.0000      -0.495955       -13.4956
  27   2.0000      -0.450424       -12.2567
  28   2.0000      -0.426652       -11.6098
  29   2.0000      -0.401598       -10.9280
  30   2.0000      -0.385393       -10.4871
  31   0.0000       0.129033         3.5112
  32   0.0000       0.148854         4.0505
  33   0.0000       0.155123         4.2211
  34   0.0000       0.165455         4.5023
  35   0.0000       0.176040         4.7903

MULLIKEN ATOMIC CHARGES
-----------------------
   0 C :   -0.291550
   1 N :   -0.302905
   2 C :    0.222457
   3 O :   -0.380623
   4 C :   -0.193495
   5 C :   -0.141691
   6 C :   -0.313389
   7 C :   -0.250304
   8 H :    0.131849
   9 H :    0.177332
  10 H :    0.131329
  11 H :    0.248184
  12 H :    0.126659
  13 H :    0.145690
  14 H :    0.139748
  15 H :    0.137990
  16 H :    0.142466
  17 H :    0.133925
  18 H :    0.136327
Sum of atomic charges:   -0.0000000

LOEWDIN ATOMIC CHARGES
----------------------
   0 C :   -0.314211
   1 N :    0.084332
   2 C :   -0.456668
   3 O :    0.068072
   4 C :   -0.214061
   5 C :   -0.242870
   6 C :   -0.245854
   7 C :   -0.225553
   8 H :    0.114173
   9 H :    0.134685
  10 H :    0.113967
  11 H :    0.186732
  12 H :    0.157666
  13 H :    0.157673
  14 H :    0.149864
  15 H :    0.130466
  16 H :    0.133477
  17 H :    0.134999
  18 H :    0.133112

  Mayer bond orders larger than 0.1
B(  0-C ,  1-N ) :   0.8573 B(  0-C ,  8-H ) :   0.9372 B(  0-C ,  9-H ) :   0.9255
B(  0-C , 10-H ) :   0.9342 B(  1-N ,  2-C ) :   1.1780 B(  1-N , 11-H ) :   0.8669
B(  2-C ,  3-O ) :   1.9300 B(  2-C ,  4-C ) :   0.9290 B(  4-C ,  5-C ) :   0.8768
B(  4-C , 12-H ) :   0.9024 B(  4-C , 13-H ) :   0.9274 B(  5-C ,  6-C ) :   0.8863
B(  5-C ,  7-C ) :   0.8742 B(  5-C , 14-H ) :   0.9296 B(  6-C ,  7-C ) :   0.8991
B(  6-C , 15-H ) :   0.9291 B(  6-C , 16-H ) :   0.9262 B(  7-C , 17-H ) :   0.9313
B(  7-C , 18-H ) :   0.9328

MP2 TOTAL ENERGY:     -364.459538742 Eh
FINAL SINGLE POINT ENERGY      -364.459538742258

DIPOLE MOMENT
-------------
                                X             Y             Z
Electronic contribution:     -4.06931       2.38665      -1.11805
Nuclear contribution   :      5.45389      -2.90852       1.43685
                        -----------------------------------------
Total Dipole Moment    :      1.38458      -0.52187       0.31879
                        -----------------------------------------
Magnitude (a.u.)       :      1.51361
Magnitude (Debye)      :      3.84730

                             ****ORCA TERMINATED NORMALLY****
TOTAL RUN TIME: 0 days 0 hours 12 minutes 28 seconds 151 msec
