                         Program Version 3.0.3 - RELEASE   -
|  1> ! RI-MP2 RIJK def2-TZVP def2-TZVP/C def2-TZVP/JK TIGHTSCF
|  2> % maxcore 2000
|  3> % mp2 density relaxed end
|  4> *xyz 0 1
|  5>  C        0.0522257229     1.5939348689     0.0032758221
|  6>  C        0.0195276760     0.0649163888     0.0315355416
|  7>  C        0.6599791256    -0.6182129034    -1.1982631574
|  8>  C        1.2198606088    -1.9544163128    -0.6822348700
|  9>  O        1.3762885004    -2.9536822284    -1.3392696621
| 10>  C        1.4591138919    -1.8173368551     0.7869933314
| 11>  C        2.2345464553    -0.5725572601     1.2085431964
| 12>  C        0.7421203373    -0.5530047583     1.2358626009
| 13>  H        1.0825106615     1.9642384776    -0.0358181653
| 14>  H       -0.4782509060     1.9845619806    -0.8712468642
| 15>  H       -0.4200321521     2.0159879685     0.8967670890
| 16>  H       -1.0278460883    -0.2586271071     0.0864099599
| 17>  H       -0.0358613964    -0.7941424176    -2.0205862717
| 18>  H        1.4872421061    -0.0222477998    -1.6053392846
| 19>  H        1.5375814499    -2.7164148714     1.3846013699
| 20>  H        2.7560463462    -0.6482332572     2.1559090726
| 21>  H        2.7729879374    -0.0101487792     0.4528057632
| 22>  H        0.2447766137    -0.5229362638     2.1991986085
| 23> *
| 24>
| 25>                          ****END OF INPUT****

CARTESIAN COORDINATES (ANGSTROEM)
---------------------------------
  C      0.052226    1.593935    0.003276
  C      0.019528    0.064916    0.031536
  C      0.659979   -0.618213   -1.198263
  C      1.219861   -1.954416   -0.682235
  O      1.376289   -2.953682   -1.339270
  C      1.459114   -1.817337    0.786993
  C      2.234546   -0.572557    1.208543
  C      0.742120   -0.553005    1.235863
  H      1.082511    1.964238   -0.035818
  H     -0.478251    1.984562   -0.871247
  H     -0.420032    2.015988    0.896767
  H     -1.027846   -0.258627    0.086410
  H     -0.035861   -0.794142   -2.020586
  H      1.487242   -0.022248   -1.605339
  H      1.537581   -2.716415    1.384601
  H      2.756046   -0.648233    2.155909
  H      2.772988   -0.010149    0.452806
  H      0.244777   -0.522936    2.199199

 Total Charge           Charge          ....    0
 Multiplicity           Mult            ....    1
 Number of Electrons    NEL             ....   60
 Basis Dimension        Dim             ....  308

ORBITAL ENERGIES
----------------

  NO   OCC          E(Eh)            E(eV)
   0   2.0000     -20.537095      -558.8428
   1   2.0000     -11.325397      -308.1797
   2   2.0000     -11.250402      -306.1390
   3   2.0000     -11.247941      -306.0720
   4   2.0000     -11.247586      -306.0624
   5   2.0000     -11.242676      -305.9288
   6   2.0000     -11.235013      -305.7202
   7   2.0000     -11.225332      -305.4568
   8   2.0000      -1.381425       -37.5905
   9   2.0000      -1.191432       -32.4205
  10   2.0000      -1.060753       -28.8646
  11   2.0000      -0.980866       -26.6907
  12   2.0000      -0.887466       -24.1492
  13   2.0000      -0.867061       -23.5939
  14   2.0000      -0.766362       -20.8538
  15   2.0000      -0.739235       -20.1156
  16   2.0000      -0.694541       -18.8994
  17   2.0000      -0.648164       -17.6374
  18   2.0000      -0.622441       -16.9375
  19   2.0000      -0.592657       -16.1270
  20   2.0000      -0.590717       -16.0742
  21   2.0000      -0.577797       -15.7226
  22   2.0000      -0.556632       -15.1467
  23   2.0000      -0.523670       -14.2498
  24   2.0000      -0.522581       -14.2202
  25   2.0000      -0.487269       -13.2593
  26   2.0000      -0.478354       -13.0167
  27   2.0000      -0.438330       -11.9276
  28   2.0000      -0.417939       -11.3727
  29   2.0000      -0.392120       -10.6701
  30   0.0000       0.129225         3.5164
  31   0.0000       0.140027         3.8103
  32   0.0000       0.146549         3.9878
  33   0.0000       0.165040         4.4910
  34   0.0000       0.169590         4.6148

MULLIKEN ATOMIC CHARGES
-----------------------
   0 C :   -0.403600
   1 C :   -0.077756
   2 C :   -0.240340
   3 C :    0.127820
   4 O :   -0.274528
   5 C :   -0.100621
   6 C :   -0.301234
   7 C :   -0.059813
   8 H :    0.122048
   9 H :    0.137649
  10 H :    0.132073
  11 H :    0.101405
  12 H :    0.141835
  13 H :    0.135882
  14 H :    0.141945
  15 H :    0.142639
  16 H :    0.141359
  17 H :    0.133237
Sum of atomic charges:   -0.0000000

LOEWDIN ATOMIC CHARGES
----------------------
   0 C :   -0.290446
   1 C :   -0.248182
   2 C :   -0.194490
   3 C :   -0.307415
   4 O :    0.146385
   5 C :   -0.156139
   6 C :   -0.186283
   7 C :   -0.170345
   8 H :    0.123466
   9 H :    0.124963
  10 H :    0.124796
  11 H :    0.157643
  12 H :    0.147719
  13 H :    0.152326
  14 H :    0.150995
  15 H :    0.140242
  16 H :    0.137298
  17 H :    0.147467

  Mayer bond orders larger than 0.1
B(  0-C ,  1-C ) :   0.9094 B(  0-C ,  8-H ) :   0.9319 B(  0-C ,  9-H ) :   0.9397
B(  0-C , 10-H ) :   0.9393 B(  1-C ,  2-C ) :   0.9107 B(  1-C ,  7-C ) :   0.9187
B(  1-C , 11-H ) :   0.9257 B(  2-C ,  3-C ) :   0.8977 B(  2-C ,  5-C ) :  -0.1346
B(  2-C , 12-H ) :   0.9095 B(  2-C , 13-H ) :   0.9097 B(  3-C ,  4-O ) :   2.0395
B(  3-C ,  5-C ) :   0.9384 B(  5-C ,  6-C ) :   0.8346 B(  5-C ,  7-C ) :   0.7990
B(  5-C , 14-H ) :   0.9216 B(  6-C ,  7-C ) :   0.8972 B(  6-C , 15-H ) :   0.9301
B(  6-C , 16-H ) :   0.9192 B(  7-C , 17-H ) :   0.9209

MP2 TOTAL ENERGY:     -347.222739154 Eh
FINAL SINGLE POINT ENERGY      -347.222739153967

DIPOLE MOMENT
-------------
                                X             Y             Z
Electronic contribution:      1.43999      -7.73587      -1.88835
Nuclear contribution   :     -1.65358       8.78418       2.64030
                        -----------------------------------------
Total Dipole Moment    :     -0.21359       1.04831       0.75194
                        -----------------------------------------
Magnitude (a.u.)       :      1.30767
Magnitude (Debye)      :      3.32383

                             ****ORCA TERMINATED NORMALLY****
TOTAL RUN TIME: 0 days 0 hours 13 minutes 52 seconds 710 msec
