                         Program Version 3.0.3 - RELEASE   -
|  1> ! RI-MP2 RIJK def2-TZVP def2-TZVP/C def2-TZVP/JK TIGHTSCF
|  2> % maxcore 2000
|  3> % mp2 density relaxed end
|  4> *xyz 0 1
|  5>  C        0.0350318585     1.3992027775     0.0452229012
|  6>  O       -0.0806129521    -0.0033162778    -0.0394892030
|  7>  C        0.6246283846    -0.5796832492    -1.1335544912
|  8>  C        2.1290594851    -0.7138542543    -0.8460033427
|  9>  C        0.0246151721    -1.8844858396    -1.4158817388
| 10>  C       -0.4365871230    -2.9651383156    -1.6647894355
| 11>  H        1.0599475792     1.7309793495     0.2669110496
| 12>  H       -0.2935122924     1.8909555834    -0.8839907891
| 13>  H       -0.6156179988     1.7207710071     0.8618237165
| 14>  H        0.4900213975     0.0595637138    -2.0232579005
| 15>  H        2.6371392248    -1.1770302047    -1.6961307142
| 16>  H        2.5783612424     0.2674681072    -0.6710990781
| 17>  H        2.2826840143    -1.3372790113     0.0380896869
| 18>  H       -0.8572622121    -3.9157601660    -1.8818960410
| 19> *
| 20>
| 21>                          ****END OF INPUT****

CARTESIAN COORDINATES (ANGSTROEM)
---------------------------------
  C      0.035032    1.399203    0.045223
  O     -0.080613   -0.003316   -0.039489
  C      0.624628   -0.579683   -1.133554
  C      2.129059   -0.713854   -0.846003
  C      0.024615   -1.884486   -1.415882
  C     -0.436587   -2.965138   -1.664789
  H      1.059948    1.730979    0.266911
  H     -0.293512    1.890956   -0.883991
  H     -0.615618    1.720771    0.861824
  H      0.490021    0.059564   -2.023258
  H      2.637139   -1.177030   -1.696131
  H      2.578361    0.267468   -0.671099
  H      2.282684   -1.337279    0.038090
  H     -0.857262   -3.915760   -1.881896

 Total Charge           Charge          ....    0
 Multiplicity           Mult            ....    1
 Number of Electrons    NEL             ....   46
 Basis Dimension        Dim             ....  234

ORBITAL ENERGIES
----------------

  NO   OCC          E(Eh)            E(eV)
   0   2.0000     -20.562110      -559.5235
   1   2.0000     -11.311855      -307.8112
   2   2.0000     -11.275821      -306.8307
   3   2.0000     -11.231033      -305.6119
   4   2.0000     -11.226178      -305.4798
   5   2.0000     -11.223555      -305.4085
   6   2.0000      -1.382732       -37.6260
   7   2.0000      -1.072870       -29.1943
   8   2.0000      -0.996327       -27.1114
   9   2.0000      -0.936199       -25.4753
  10   2.0000      -0.854930       -23.2638
  11   2.0000      -0.729470       -19.8499
  12   2.0000      -0.680087       -18.5061
  13   2.0000      -0.674944       -18.3662
  14   2.0000      -0.641058       -17.4441
  15   2.0000      -0.582875       -15.8608
  16   2.0000      -0.566189       -15.4068
  17   2.0000      -0.549634       -14.9563
  18   2.0000      -0.524161       -14.2631
  19   2.0000      -0.485511       -13.2114
  20   2.0000      -0.436357       -11.8739
  21   2.0000      -0.395248       -10.7553
  22   2.0000      -0.385516       -10.4904
  23   0.0000       0.137495         3.7414
  24   0.0000       0.164845         4.4857
  25   0.0000       0.166683         4.5357
  26   0.0000       0.172838         4.7032
  27   0.0000       0.189066         5.1447

MULLIKEN ATOMIC CHARGES
-----------------------
   0 C :   -0.221047
   1 O :   -0.292145
   2 C :   -0.069819
   3 C :   -0.380639
   4 C :    0.008733
   5 C :   -0.106053
   6 H :    0.110787
   7 H :    0.114524
   8 H :    0.144381
   9 H :    0.097100
  10 H :    0.135595
  11 H :    0.128765
  12 H :    0.138071
  13 H :    0.191747
Sum of atomic charges:   -0.0000000

LOEWDIN ATOMIC CHARGES
----------------------
   0 C :   -0.357508
   1 O :    0.161753
   2 C :   -0.339494
   3 C :   -0.277436
   4 C :   -0.080082
   5 C :   -0.087399
   6 H :    0.100125
   7 H :    0.102536
   8 H :    0.116170
   9 H :    0.151018
  10 H :    0.130718
  11 H :    0.121313
  12 H :    0.130914
  13 H :    0.127371

  Mayer bond orders larger than 0.1
B(  0-C ,  1-O ) :   0.9185 B(  0-C ,  6-H ) :   0.9325 B(  0-C ,  7-H ) :   0.9370
B(  0-C ,  8-H ) :   0.9390 B(  1-O ,  2-C ) :   1.0090 B(  2-C ,  3-C ) :   0.9243
B(  2-C ,  4-C ) :   1.0924 B(  2-C ,  5-C ) :  -0.1012 B(  2-C ,  9-H ) :   0.9554
B(  3-C , 10-H ) :   0.9278 B(  3-C , 11-H ) :   0.9324 B(  3-C , 12-H ) :   0.9311
B(  4-C ,  5-C ) :   2.6135 B(  5-C , 13-H ) :   0.8981

MP2 TOTAL ENERGY:     -269.911374406 Eh
FINAL SINGLE POINT ENERGY      -269.911374405884

DIPOLE MOMENT
-------------
                                X             Y             Z
Electronic contribution:     -3.37233      -4.04680      -0.63642
Nuclear contribution   :      3.73735       4.45391       0.36146
                        -----------------------------------------
Total Dipole Moment    :      0.36503       0.40711      -0.27495
                        -----------------------------------------
Magnitude (a.u.)       :      0.61203
Magnitude (Debye)      :      1.55565

                             ****ORCA TERMINATED NORMALLY****
TOTAL RUN TIME: 0 days 0 hours 5 minutes 13 seconds 284 msec
