                         Program Version 3.0.3 - RELEASE   -
|  1> ! RI-MP2 RIJK def2-TZVP def2-TZVP/C def2-TZVP/JK TIGHTSCF
|  2> % maxcore 2000
|  3> % mp2 density relaxed end
|  4> *xyz 0 1
|  5>  C       -0.1810019692     1.5370575344     0.0692806302
|  6>  C        1.3419505361     1.5447005903    -0.2202653427
|  7>  N        1.4220649353     0.1866771111     0.3414829148
|  8>  C       -0.0423122444     0.0092593120     0.2989422246
|  9>  C        2.3179829261    -0.7621533591    -0.1115774871
| 10>  C        3.5218031280    -0.6026375055    -0.7369332593
| 11>  O        4.0894969012    -1.8086114477    -0.9662191101
| 12>  N        3.2528526066    -2.8001142858    -0.4990356208
| 13>  C        2.2133661050    -2.1820289147     0.0062825524
| 14>  H       -0.4495433820     2.0853665872     0.9732589861
| 15>  H       -0.8318236946     1.8463395525    -0.7479710209
| 16>  H        1.5803921519     1.5761523528    -1.2945677044
| 17>  H        1.9538166161     2.2893937205     0.2992963547
| 18>  H       -0.4769706357    -0.4042574898     1.2146515237
| 19>  H       -0.3807152260    -0.5904133161    -0.5584114477
| 20>  H        4.0884321851     0.2570417334    -1.0534732013
| 21>  H        1.4125448504    -2.7612680455     0.4433713079
| 22> *
| 23>
| 24>                          ****END OF INPUT****

CARTESIAN COORDINATES (ANGSTROEM)
---------------------------------
  C     -0.181002    1.537058    0.069281
  C      1.341951    1.544701   -0.220265
  N      1.422065    0.186677    0.341483
  C     -0.042312    0.009259    0.298942
  C      2.317983   -0.762153   -0.111577
  C      3.521803   -0.602638   -0.736933
  O      4.089497   -1.808611   -0.966219
  N      3.252853   -2.800114   -0.499036
  C      2.213366   -2.182029    0.006283
  H     -0.449543    2.085367    0.973259
  H     -0.831824    1.846340   -0.747971
  H      1.580392    1.576152   -1.294568
  H      1.953817    2.289394    0.299296
  H     -0.476971   -0.404257    1.214652
  H     -0.380715   -0.590413   -0.558411
  H      4.088432    0.257042   -1.053473
  H      1.412545   -2.761268    0.443371

 Total Charge           Charge          ....    0
 Multiplicity           Mult            ....    1
 Number of Electrons    NEL             ....   66
 Basis Dimension        Dim             ....  327

ORBITAL ENERGIES
----------------

  NO   OCC          E(Eh)            E(eV)
   0   2.0000     -20.635337      -561.5161
   1   2.0000     -15.622321      -425.1050
   2   2.0000     -15.573246      -423.7696
   3   2.0000     -11.292115      -307.2741
   4   2.0000     -11.274524      -306.7954
   5   2.0000     -11.273657      -306.7718
   6   2.0000     -11.273324      -306.7627
   7   2.0000     -11.272516      -306.7407
   8   2.0000     -11.243288      -305.9454
   9   2.0000      -1.486853       -40.4593
  10   2.0000      -1.279790       -34.8249
  11   2.0000      -1.155605       -31.4456
  12   2.0000      -1.085893       -29.5487
  13   2.0000      -0.982895       -26.7459
  14   2.0000      -0.941990       -25.6328
  15   2.0000      -0.830441       -22.5974
  16   2.0000      -0.816416       -22.2158
  17   2.0000      -0.775891       -21.1131
  18   2.0000      -0.736133       -20.0312
  19   2.0000      -0.684855       -18.6358
  20   2.0000      -0.670098       -18.2343
  21   2.0000      -0.649430       -17.6719
  22   2.0000      -0.611172       -16.6308
  23   2.0000      -0.572069       -15.5668
  24   2.0000      -0.570561       -15.5257
  25   2.0000      -0.547425       -14.8962
  26   2.0000      -0.539422       -14.6784
  27   2.0000      -0.513395       -13.9702
  28   2.0000      -0.481430       -13.1004
  29   2.0000      -0.470287       -12.7972
  30   2.0000      -0.450719       -12.2647
  31   2.0000      -0.400686       -10.9032
  32   2.0000      -0.312064        -8.4917
  33   0.0000       0.122615         3.3365
  34   0.0000       0.129476         3.5232
  35   0.0000       0.147752         4.0205
  36   0.0000       0.154683         4.2092
  37   0.0000       0.175224         4.7681

MULLIKEN ATOMIC CHARGES
-----------------------
   0 C :   -0.226078
   1 C :   -0.153647
   2 N :   -0.113331
   3 C :   -0.154687
   4 C :    0.067985
   5 C :   -0.083784
   6 O :   -0.105523
   7 N :   -0.107256
   8 C :   -0.142123
   9 H :    0.126541
  10 H :    0.130013
  11 H :    0.100782
  12 H :    0.123160
  13 H :    0.122192
  14 H :    0.108357
  15 H :    0.159412
  16 H :    0.147987
Sum of atomic charges:    0.0000000

LOEWDIN ATOMIC CHARGES
----------------------
   0 C :   -0.234161
   1 C :   -0.234796
   2 N :    0.157315
   3 C :   -0.232708
   4 C :   -0.271750
   5 C :   -0.257827
   6 O :    0.267133
   7 N :    0.022929
   8 C :   -0.248987
   9 H :    0.134401
  10 H :    0.128635
  11 H :    0.122336
  12 H :    0.122442
  13 H :    0.121938
  14 H :    0.123738
  15 H :    0.136477
  16 H :    0.142886

  Mayer bond orders larger than 0.1
B(  0-C ,  1-C ) :   0.9517 B(  0-C ,  3-C ) :   0.9496 B(  0-C ,  9-H ) :   0.9238
B(  0-C , 10-H ) :   0.9325 B(  1-C ,  2-N ) :   0.9047 B(  1-C , 11-H ) :   0.9073
B(  1-C , 12-H ) :   0.9243 B(  2-N ,  3-C ) :   0.8996 B(  2-N ,  4-C ) :   1.0850
B(  3-C , 13-H ) :   0.9258 B(  3-C , 14-H ) :   0.9080 B(  4-C ,  5-C ) :   1.4623
B(  4-C ,  8-C ) :   1.1971 B(  5-C ,  6-O ) :   1.0811 B(  5-C ,  7-N ) :   0.1135
B(  5-C , 15-H ) :   0.9180 B(  6-O ,  7-N ) :   0.9113 B(  7-N ,  8-C ) :   1.5725
B(  8-C , 16-H ) :   0.9252

MP2 TOTAL ENERGY:     -417.251538455 Eh
FINAL SINGLE POINT ENERGY      -417.251538454656

DIPOLE MOMENT
-------------
                                X             Y             Z
Electronic contribution:      7.38879      -6.72460      -0.83309
Nuclear contribution   :     -8.49046       8.03692       0.92758
                        -----------------------------------------
Total Dipole Moment    :     -1.10167       1.31232       0.09448
                        -----------------------------------------
Magnitude (a.u.)       :      1.71604
Magnitude (Debye)      :      4.36182

                             ****ORCA TERMINATED NORMALLY****
TOTAL RUN TIME: 0 days 0 hours 15 minutes 46 seconds 914 msec
