                         Program Version 3.0.3 - RELEASE   -
|  1> ! RI-MP2 RIJK def2-TZVP def2-TZVP/C def2-TZVP/JK TIGHTSCF
|  2> % maxcore 2000
|  3> % mp2 density relaxed end
|  4> *xyz 0 1
|  5>  C        0.0023964343     1.4923240001     0.0363371419
|  6>  C       -0.0156232730    -0.0112597306    -0.0137567195
|  7>  C       -0.0963707027    -0.7127003414    -1.2179500338
|  8>  C       -0.0937032953    -2.1000936122    -1.1332166638
|  9>  N       -0.0293134854    -2.7613690157     0.0183723743
| 10>  C        0.0315374992    -1.9886467094     1.1185705344
| 11>  N        0.0469798849    -2.6388117523     2.3192433601
| 12>  N        0.0509683957    -0.6478954659     1.1586391266
| 13>  H        0.8980007773     1.8412291396     0.5597133866
| 14>  H       -0.0187568894     1.9316216874    -0.9634267013
| 15>  H       -0.8598065884     1.8601780559     0.6019627807
| 16>  H       -0.1482771990    -0.2030190370    -2.1715048342
| 17>  H       -0.1425903828    -2.7109792333    -2.0329922141
| 18>  H        0.2715176303    -3.6191223531     2.3004394784
| 19>  H        0.3284182442    -2.1025771419     3.1223181038
| 20> *
| 21>
| 22>                          ****END OF INPUT****

CARTESIAN COORDINATES (ANGSTROEM)
---------------------------------
  C      0.002396    1.492324    0.036337
  C     -0.015623   -0.011260   -0.013757
  C     -0.096371   -0.712700   -1.217950
  C     -0.093703   -2.100094   -1.133217
  N     -0.029313   -2.761369    0.018372
  C      0.031537   -1.988647    1.118571
  N      0.046980   -2.638812    2.319243
  N      0.050968   -0.647895    1.158639
  H      0.898001    1.841229    0.559713
  H     -0.018757    1.931622   -0.963427
  H     -0.859807    1.860178    0.601963
  H     -0.148277   -0.203019   -2.171505
  H     -0.142590   -2.710979   -2.032992
  H      0.271518   -3.619122    2.300439
  H      0.328418   -2.102577    3.122318

 Total Charge           Charge          ....    0
 Multiplicity           Mult            ....    1
 Number of Electrons    NEL             ....   58
 Basis Dimension        Dim             ....  290

ORBITAL ENERGIES
----------------

  NO   OCC          E(Eh)            E(eV)
   0   2.0000     -15.567451      -423.6119
   1   2.0000     -15.549643      -423.1273
   2   2.0000     -15.547347      -423.0648
   3   2.0000     -11.344051      -308.6873
   4   2.0000     -11.297141      -307.4108
   5   2.0000     -11.289045      -307.1905
   6   2.0000     -11.229691      -305.5754
   7   2.0000     -11.219800      -305.3063
   8   2.0000      -1.320781       -35.9403
   9   2.0000      -1.200229       -32.6599
  10   2.0000      -1.188096       -32.3297
  11   2.0000      -1.051462       -28.6117
  12   2.0000      -0.980289       -26.6750
  13   2.0000      -0.870648       -23.6915
  14   2.0000      -0.841674       -22.9031
  15   2.0000      -0.730386       -19.8748
  16   2.0000      -0.705210       -19.1897
  17   2.0000      -0.654021       -17.7968
  18   2.0000      -0.647462       -17.6183
  19   2.0000      -0.605285       -16.4706
  20   2.0000      -0.589213       -16.0333
  21   2.0000      -0.562601       -15.3091
  22   2.0000      -0.555466       -15.1150
  23   2.0000      -0.544038       -14.8040
  24   2.0000      -0.475827       -12.9479
  25   2.0000      -0.457920       -12.4606
  26   2.0000      -0.410487       -11.1699
  27   2.0000      -0.399716       -10.8768
  28   2.0000      -0.325371        -8.8538
  29   0.0000       0.104973         2.8565
  30   0.0000       0.143246         3.8979
  31   0.0000       0.148499         4.0409
  32   0.0000       0.157164         4.2766
  33   0.0000       0.170930         4.6512

MULLIKEN ATOMIC CHARGES
-----------------------
   0 C :   -0.422006
   1 C :    0.168594
   2 C :   -0.188306
   3 C :   -0.039243
   4 N :   -0.287025
   5 C :    0.331694
   6 N :   -0.482219
   7 N :   -0.291847
   8 H :    0.146254
   9 H :    0.131623
  10 H :    0.147481
  11 H :    0.130756
  12 H :    0.130707
  13 H :    0.262261
  14 H :    0.261276
Sum of atomic charges:    0.0000000

LOEWDIN ATOMIC CHARGES
----------------------
   0 C :   -0.263662
   1 C :   -0.241907
   2 C :   -0.156452
   3 C :   -0.207550
   4 N :    0.121875
   5 C :   -0.408433
   6 N :   -0.028488
   7 N :    0.151077
   8 H :    0.135952
   9 H :    0.126702
  10 H :    0.136682
  11 H :    0.149435
  12 H :    0.139853
  13 H :    0.172762
  14 H :    0.172154

  Mayer bond orders larger than 0.1
B(  0-C ,  1-C ) :   0.8912 B(  0-C ,  8-H ) :   0.9300 B(  0-C ,  9-H ) :   0.9534
B(  0-C , 10-H ) :   0.9270 B(  1-C ,  2-C ) :   1.3400 B(  1-C ,  7-N ) :   1.3826
B(  2-C ,  3-C ) :   1.3358 B(  2-C , 11-H ) :   0.9146 B(  3-C ,  4-N ) :   1.4499
B(  3-C , 12-H ) :   0.9465 B(  4-N ,  5-C ) :   1.3514 B(  5-C ,  6-N ) :   1.1445
B(  5-C ,  7-N ) :   1.3877 B(  6-N , 13-H ) :   0.8652 B(  6-N , 14-H ) :   0.8653

MP2 TOTAL ENERGY:     -358.290608671 Eh
FINAL SINGLE POINT ENERGY      -358.290608671480

DIPOLE MOMENT
-------------
                                X             Y             Z
Electronic contribution:     -0.09551      -4.57974       0.71755
Nuclear contribution   :      0.35506       4.84896      -0.81557
                        -----------------------------------------
Total Dipole Moment    :      0.25955       0.26922      -0.09802
                        -----------------------------------------
Magnitude (a.u.)       :      0.38659
Magnitude (Debye)      :      0.98263

                             ****ORCA TERMINATED NORMALLY****
TOTAL RUN TIME: 0 days 0 hours 11 minutes 18 seconds 239 msec
