                         Program Version 3.0.3 - RELEASE   -
|  1> ! RI-MP2 RIJK def2-TZVP def2-TZVP/C def2-TZVP/JK TIGHTSCF
|  2> % maxcore 2000
|  3> % mp2 density relaxed end
|  4> *xyz 0 1
|  5>  O        0.3289391722    -0.0209846097    -0.0008888847
|  6>  C        0.1451693169     1.1668263988     0.0100642210
|  7>  C       -1.0823837106     2.1091722717     0.0372197569
|  8>  C       -0.0598076230     3.2824077209     0.0210615785
|  9>  C       -0.0282552148     4.2280553947    -1.1861218910
| 10>  C        1.0189550242     5.2781087513    -0.7812023684
| 11>  C        0.7976073884     5.4848117171     0.7430228503
| 12>  C       -0.0076532476     4.2434892316     1.2241810835
| 13>  N        0.9962361330     2.2432144050     0.0042833365
| 14>  H       -1.7249006019     2.0359209811    -0.8425103466
| 15>  H       -1.6866037557     2.0270943299     0.9429401243
| 16>  H        0.2009897704     3.7070113028    -2.1194237308
| 17>  H       -1.0142586514     4.6972983262    -1.2948366806
| 18>  H        2.0243317180     4.8820211322    -0.9675409106
| 19>  H        0.9368326942     6.2067765045    -1.3514305355
| 20>  H        1.7483583810     5.5864112801     1.2729445265
| 21>  H        0.2360953133     6.4034483205     0.9344911194
| 22>  H       -1.0299353755     4.5328270426     1.4887472377
| 23>  H        0.4260852435     3.7575070727     2.1016838252
| 24>  H        2.0047057154     2.2934937561    -0.0106737116
| 25> *
| 26>
| 27>                          ****END OF INPUT****

CARTESIAN COORDINATES (ANGSTROEM)
---------------------------------
  O      0.328939   -0.020985   -0.000889
  C      0.145169    1.166826    0.010064
  C     -1.082384    2.109172    0.037220
  C     -0.059808    3.282408    0.021062
  C     -0.028255    4.228055   -1.186122
  C      1.018955    5.278109   -0.781202
  C      0.797607    5.484812    0.743023
  C     -0.007653    4.243489    1.224181
  N      0.996236    2.243214    0.004283
  H     -1.724901    2.035921   -0.842510
  H     -1.686604    2.027094    0.942940
  H      0.200990    3.707011   -2.119424
  H     -1.014259    4.697298   -1.294837
  H      2.024332    4.882021   -0.967541
  H      0.936833    6.206777   -1.351431
  H      1.748358    5.586411    1.272945
  H      0.236095    6.403448    0.934491
  H     -1.029935    4.532827    1.488747
  H      0.426085    3.757507    2.101684
  H      2.004706    2.293494   -0.010674

 Total Charge           Charge          ....    0
 Multiplicity           Mult            ....    1
 Number of Electrons    NEL             ....   68
 Basis Dimension        Dim             ....  345

ORBITAL ENERGIES
----------------

  NO   OCC          E(Eh)            E(eV)
   0   2.0000     -20.518644      -558.3407
   1   2.0000     -15.576901      -423.8690
   2   2.0000     -11.345842      -308.7360
   3   2.0000     -11.286458      -307.1201
   4   2.0000     -11.242853      -305.9336
   5   2.0000     -11.232437      -305.6501
   6   2.0000     -11.231691      -305.6299
   7   2.0000     -11.231128      -305.6145
   8   2.0000     -11.231065      -305.6128
   9   2.0000      -1.380971       -37.5781
  10   2.0000      -1.267055       -34.4783
  11   2.0000      -1.117274       -30.4026
  12   2.0000      -1.006323       -27.3834
  13   2.0000      -0.978718       -26.6323
  14   2.0000      -0.938140       -25.5281
  15   2.0000      -0.797412       -21.6987
  16   2.0000      -0.788030       -21.4434
  17   2.0000      -0.777098       -21.1459
  18   2.0000      -0.676555       -18.4100
  19   2.0000      -0.666322       -18.1315
  20   2.0000      -0.639996       -17.4152
  21   2.0000      -0.627091       -17.0640
  22   2.0000      -0.619233       -16.8502
  23   2.0000      -0.586458       -15.9583
  24   2.0000      -0.564314       -15.3558
  25   2.0000      -0.527913       -14.3652
  26   2.0000      -0.502388       -13.6707
  27   2.0000      -0.497660       -13.5420
  28   2.0000      -0.489064       -13.3081
  29   2.0000      -0.486644       -13.2422
  30   2.0000      -0.479692       -13.0531
  31   2.0000      -0.470400       -12.8002
  32   2.0000      -0.410281       -11.1643
  33   2.0000      -0.387524       -10.5451
  34   0.0000       0.115737         3.1494
  35   0.0000       0.144053         3.9199
  36   0.0000       0.152640         4.1535
  37   0.0000       0.162823         4.4306
  38   0.0000       0.177810         4.8385

MULLIKEN ATOMIC CHARGES
-----------------------
   0 O :   -0.315670
   1 C :    0.189573
   2 C :   -0.204420
   3 C :    0.266141
   4 C :   -0.248015
   5 C :   -0.263987
   6 C :   -0.229880
   7 C :   -0.302898
   8 N :   -0.374007
   9 H :    0.131878
  10 H :    0.132889
  11 H :    0.129778
  12 H :    0.116882
  13 H :    0.110903
  14 H :    0.132101
  15 H :    0.121612
  16 H :    0.120511
  17 H :    0.124478
  18 H :    0.131445
  19 H :    0.230686
Sum of atomic charges:   -0.0000000

LOEWDIN ATOMIC CHARGES
----------------------
   0 O :    0.096120
   1 C :   -0.440344
   2 C :   -0.163289
   3 C :   -0.266459
   4 C :   -0.222586
   5 C :   -0.256150
   6 C :   -0.248947
   7 C :   -0.215827
   8 N :    0.159825
   9 H :    0.143168
  10 H :    0.143207
  11 H :    0.139523
  12 H :    0.144939
  13 H :    0.133590
  14 H :    0.133300
  15 H :    0.132944
  16 H :    0.134482
  17 H :    0.142518
  18 H :    0.139229
  19 H :    0.170756

  Mayer bond orders larger than 0.1
B(  0-O ,  1-C ) :   2.0374 B(  1-C ,  2-C ) :   0.8973 B(  1-C ,  8-N ) :   1.1629
B(  2-C ,  3-C ) :   0.8455 B(  2-C ,  9-H ) :   0.8982 B(  2-C , 10-H ) :   0.9044
B(  3-C ,  4-C ) :   0.9106 B(  3-C ,  7-C ) :   0.9054 B(  3-C ,  8-N ) :   0.8284
B(  4-C ,  5-C ) :   0.9380 B(  4-C , 11-H ) :   0.9211 B(  4-C , 12-H ) :   0.9270
B(  5-C ,  6-C ) :   0.9298 B(  5-C , 13-H ) :   0.9371 B(  5-C , 14-H ) :   0.9316
B(  6-C ,  7-C ) :   0.9373 B(  6-C , 15-H ) :   0.9349 B(  6-C , 16-H ) :   0.9360
B(  7-C , 17-H ) :   0.9281 B(  7-C , 18-H ) :   0.9248 B(  8-N , 19-H ) :   0.8570

MP2 TOTAL ENERGY:     -402.500145423 Eh
FINAL SINGLE POINT ENERGY      -402.500145423356

DIPOLE MOMENT
-------------
                                X             Y             Z
Electronic contribution:      0.54831      -9.59087      -0.05503
Nuclear contribution   :     -0.54082      11.28875       0.06052
                        -----------------------------------------
Total Dipole Moment    :      0.00749       1.69787       0.00549
                        -----------------------------------------
Magnitude (a.u.)       :      1.69790
Magnitude (Debye)      :      4.31572

                             ****ORCA TERMINATED NORMALLY****
TOTAL RUN TIME: 0 days 0 hours 18 minutes 58 seconds 801 msec
