                         Program Version 3.0.3 - RELEASE   -
|  1> ! RI-MP2 RIJK def2-TZVP def2-TZVP/C def2-TZVP/JK TIGHTSCF
|  2> % maxcore 2000
|  3> % mp2 density relaxed end
|  4> *xyz 0 1
|  5>  C        0.0350401340     1.5017283830     0.0028832183
|  6>  O        1.1944594030     0.6609439199     0.0051154404
|  7>  C       -0.0932208862     0.0432182562     0.0116547438
|  8>  C       -0.4737718638    -0.8078212529     1.2256584693
|  9>  C       -0.7098162398    -2.1754921561     0.6003543252
| 10>  C       -1.6985537843    -2.3495076287    -0.4953784646
| 11>  C       -2.0166510153    -1.0452685819    -1.2116547360
| 12>  C       -0.4859872976    -0.7827471648    -1.1887830399
| 13>  N       -0.2173634601    -2.2403504345    -0.8006451400
| 14>  H       -0.1379974857     2.0640260385     0.9200015574
| 15>  H       -0.1363620858     2.0599778526    -0.9173947052
| 16>  H        0.3576672280    -0.8313222682     1.9350015511
| 17>  H       -1.3552540223    -0.4225785222     1.7481246194
| 18>  H       -0.4766498613    -3.0605238489     1.1834259576
| 19>  H       -2.2342285604    -3.2846992812    -0.6294879791
| 20>  H       -2.3753850303    -1.2266398746    -2.2266466112
| 21>  H       -2.6773854794    -0.3205602333    -0.7235101368
| 22>  H       -0.0029873025    -0.4811135229    -2.1166115697
| 23> *
| 24>
| 25>                          ****END OF INPUT****

CARTESIAN COORDINATES (ANGSTROEM)
---------------------------------
  C      0.035040    1.501728    0.002883
  O      1.194459    0.660944    0.005115
  C     -0.093221    0.043218    0.011655
  C     -0.473772   -0.807821    1.225658
  C     -0.709816   -2.175492    0.600354
  C     -1.698554   -2.349508   -0.495378
  C     -2.016651   -1.045269   -1.211655
  C     -0.485987   -0.782747   -1.188783
  N     -0.217363   -2.240350   -0.800645
  H     -0.137997    2.064026    0.920002
  H     -0.136362    2.059978   -0.917395
  H      0.357667   -0.831322    1.935002
  H     -1.355254   -0.422579    1.748125
  H     -0.476650   -3.060524    1.183426
  H     -2.234229   -3.284699   -0.629488
  H     -2.375385   -1.226640   -2.226647
  H     -2.677385   -0.320560   -0.723510
  H     -0.002987   -0.481114   -2.116612

 Total Charge           Charge          ....    0
 Multiplicity           Mult            ....    1
 Number of Electrons    NEL             ....   66
 Basis Dimension        Dim             ....  333

ORBITAL ENERGIES
----------------

  NO   OCC          E(Eh)            E(eV)
   0   2.0000     -20.567427      -559.6681
   1   2.0000     -15.560858      -423.4325
   2   2.0000     -11.294378      -307.3356
   3   2.0000     -11.285790      -307.1020
   4   2.0000     -11.265593      -306.5524
   5   2.0000     -11.265333      -306.5453
   6   2.0000     -11.264539      -306.5237
   7   2.0000     -11.239761      -305.8494
   8   2.0000     -11.237396      -305.7851
   9   2.0000      -1.413897       -38.4741
  10   2.0000      -1.302958       -35.4553
  11   2.0000      -1.036056       -28.1925
  12   2.0000      -1.023940       -27.8628
  13   2.0000      -0.947211       -25.7749
  14   2.0000      -0.912703       -24.8359
  15   2.0000      -0.807607       -21.9761
  16   2.0000      -0.792989       -21.5783
  17   2.0000      -0.736782       -20.0489
  18   2.0000      -0.711252       -19.3542
  19   2.0000      -0.659094       -17.9348
  20   2.0000      -0.652945       -17.7675
  21   2.0000      -0.619852       -16.8670
  22   2.0000      -0.585931       -15.9440
  23   2.0000      -0.565694       -15.3933
  24   2.0000      -0.563017       -15.3205
  25   2.0000      -0.550860       -14.9897
  26   2.0000      -0.504213       -13.7203
  27   2.0000      -0.474108       -12.9011
  28   2.0000      -0.466986       -12.7073
  29   2.0000      -0.444815       -12.1040
  30   2.0000      -0.427389       -11.6298
  31   2.0000      -0.420942       -11.4544
  32   2.0000      -0.373206       -10.1555
  33   0.0000       0.134831         3.6689
  34   0.0000       0.160426         4.3654
  35   0.0000       0.164104         4.4655
  36   0.0000       0.166456         4.5295
  37   0.0000       0.186433         5.0731

MULLIKEN ATOMIC CHARGES
-----------------------
   0 C :   -0.088011
   1 O :   -0.325975
   2 C :    0.004448
   3 C :   -0.153036
   4 C :   -0.138741
   5 C :   -0.061341
   6 C :   -0.270088
   7 C :    0.138191
   8 N :   -0.242744
   9 H :    0.117218
  10 H :    0.117303
  11 H :    0.136910
  12 H :    0.126680
  13 H :    0.129913
  14 H :    0.127370
  15 H :    0.127965
  16 H :    0.115971
  17 H :    0.137967
Sum of atomic charges:    0.0000000

LOEWDIN ATOMIC CHARGES
----------------------
   0 C :   -0.240129
   1 O :    0.169603
   2 C :   -0.304347
   3 C :   -0.188964
   4 C :   -0.227876
   5 C :   -0.206548
   6 C :   -0.203352
   7 C :   -0.183000
   8 N :    0.141812
   9 H :    0.122532
  10 H :    0.122673
  11 H :    0.152976
  12 H :    0.146212
  13 H :    0.147492
  14 H :    0.132008
  15 H :    0.142217
  16 H :    0.129976
  17 H :    0.146715

  Mayer bond orders larger than 0.1
B(  0-C ,  1-O ) :   0.8982 B(  0-C ,  2-C ) :   0.9677 B(  0-C ,  9-H ) :   0.9131
B(  0-C , 10-H ) :   0.9057 B(  1-O ,  2-C ) :   0.8843 B(  2-C ,  3-C ) :   0.9313
B(  2-C ,  7-C ) :   0.9077 B(  3-C ,  4-C ) :   0.9376 B(  3-C , 11-H ) :   0.9098
B(  3-C , 12-H ) :   0.9079 B(  4-C ,  5-C ) :   0.9365 B(  4-C ,  8-N ) :   0.9508
B(  4-C , 13-H ) :   0.9176 B(  5-C ,  6-C ) :   0.9620 B(  5-C ,  8-N ) :   0.8569
B(  5-C , 14-H ) :   0.9116 B(  6-C ,  7-C ) :   0.9192 B(  6-C , 15-H ) :   0.9250
B(  6-C , 16-H ) :   0.9046 B(  7-C ,  8-N ) :   0.9070 B(  7-C , 17-H ) :   0.9083

MP2 TOTAL ENERGY:     -401.203176664 Eh
FINAL SINGLE POINT ENERGY      -401.203176663989

DIPOLE MOMENT
-------------
                                X             Y             Z
Electronic contribution:      3.26496      -0.83405      -0.62561
Nuclear contribution   :     -4.44832       1.28111       0.91319
                        -----------------------------------------
Total Dipole Moment    :     -1.18336       0.44706       0.28758
                        -----------------------------------------
Magnitude (a.u.)       :      1.29727
Magnitude (Debye)      :      3.29740

                             ****ORCA TERMINATED NORMALLY****
TOTAL RUN TIME: 0 days 0 hours 19 minutes 18 seconds 265 msec
