                         Program Version 3.0.3 - RELEASE   -
|  1> ! RI-MP2 RIJK def2-TZVP def2-TZVP/C def2-TZVP/JK TIGHTSCF
|  2> % maxcore 2000
|  3> % mp2 density relaxed end
|  4> *xyz 0 1
|  5>  O       -0.0769491492     1.5181744532    -0.1987064893
|  6>  C        0.0124656482     0.1142731757    -0.1034015711
|  7>  C       -1.3572100731    -0.5597861531     0.0439453077
|  8>  C       -1.3306747137    -2.1027953650     0.0638752177
|  9>  C       -2.6276749465    -2.4982190201     0.7957951825
| 10>  C       -2.7722221353    -1.4385780392     1.9068847061
| 11>  C       -2.0696309426    -0.2237354539     1.3448430026
| 12>  N       -2.0069678143     0.9446018166     1.8485471201
| 13>  O       -2.7033634101     1.0270115024     3.0662919563
| 14>  H       -0.5847923498     1.8055673883     0.5743162023
| 15>  H        0.4941860429    -0.2355622885    -1.0236602914
| 16>  H        0.6524804033    -0.1985310685     0.7398889397
| 17>  H       -1.9872696889    -0.2185527085    -0.7900798544
| 18>  H       -1.2531015350    -2.5341396918    -0.9372251609
| 19>  H       -0.4591068588    -2.4459864179     0.6370354920
| 20>  H       -3.4762623720    -2.4305033897     0.1054262953
| 21>  H       -2.6061561918    -3.5196905243     1.1833543197
| 22>  H       -3.8047249645    -1.2141977991     2.1880665581
| 23>  H       -2.2645794498    -1.7460619490     2.8302844206
| 24>  H       -2.5907790090     1.9524155626     3.3085553763
| 25> *
| 26>
| 27>                          ****END OF INPUT****

CARTESIAN COORDINATES (ANGSTROEM)
---------------------------------
  O     -0.076949    1.518174   -0.198706
  C      0.012466    0.114273   -0.103402
  C     -1.357210   -0.559786    0.043945
  C     -1.330675   -2.102795    0.063875
  C     -2.627675   -2.498219    0.795795
  C     -2.772222   -1.438578    1.906885
  C     -2.069631   -0.223735    1.344843
  N     -2.006968    0.944602    1.848547
  O     -2.703363    1.027012    3.066292
  H     -0.584792    1.805567    0.574316
  H      0.494186   -0.235562   -1.023660
  H      0.652480   -0.198531    0.739889
  H     -1.987270   -0.218553   -0.790080
  H     -1.253102   -2.534140   -0.937225
  H     -0.459107   -2.445986    0.637035
  H     -3.476262   -2.430503    0.105426
  H     -2.606156   -3.519691    1.183354
  H     -3.804725   -1.214198    2.188067
  H     -2.264579   -1.746062    2.830284
  H     -2.590779    1.952416    3.308555

 Total Charge           Charge          ....    0
 Multiplicity           Mult            ....    1
 Number of Electrons    NEL             ....   70
 Basis Dimension        Dim             ....  345

ORBITAL ENERGIES
----------------

  NO   OCC          E(Eh)            E(eV)
   0   2.0000     -20.595908      -560.4432
   1   2.0000     -20.536998      -558.8401
   2   2.0000     -15.617543      -424.9749
   3   2.0000     -11.283593      -307.0422
   4   2.0000     -11.272891      -306.7509
   5   2.0000     -11.241452      -305.8955
   6   2.0000     -11.239863      -305.8522
   7   2.0000     -11.236203      -305.7526
   8   2.0000     -11.235480      -305.7330
   9   2.0000      -1.422408       -38.7057
  10   2.0000      -1.347445       -36.6658
  11   2.0000      -1.186391       -32.2833
  12   2.0000      -1.101075       -29.9618
  13   2.0000      -1.013807       -27.5871
  14   2.0000      -0.933289       -25.3961
  15   2.0000      -0.872248       -23.7351
  16   2.0000      -0.809120       -22.0173
  17   2.0000      -0.732587       -19.9347
  18   2.0000      -0.708738       -19.2857
  19   2.0000      -0.682313       -18.5667
  20   2.0000      -0.676654       -18.4127
  21   2.0000      -0.644316       -17.5327
  22   2.0000      -0.599987       -16.3265
  23   2.0000      -0.597217       -16.2511
  24   2.0000      -0.574884       -15.6434
  25   2.0000      -0.573324       -15.6009
  26   2.0000      -0.555738       -15.1224
  27   2.0000      -0.532596       -14.4927
  28   2.0000      -0.511225       -13.9111
  29   2.0000      -0.494435       -13.4543
  30   2.0000      -0.480645       -13.0790
  31   2.0000      -0.477282       -12.9875
  32   2.0000      -0.431538       -11.7428
  33   2.0000      -0.424872       -11.5614
  34   2.0000      -0.386052       -10.5050
  35   0.0000       0.126271         3.4360
  36   0.0000       0.136181         3.7057
  37   0.0000       0.145685         3.9643
  38   0.0000       0.158229         4.3056
  39   0.0000       0.176477         4.8022

MULLIKEN ATOMIC CHARGES
-----------------------
   0 O :   -0.481887
   1 C :   -0.005952
   2 C :   -0.086365
   3 C :   -0.247563
   4 C :   -0.197726
   5 C :   -0.239913
   6 C :    0.048691
   7 N :   -0.162312
   8 O :   -0.373424
   9 H :    0.330676
  10 H :    0.109034
  11 H :    0.087606
  12 H :    0.107078
  13 H :    0.132435
  14 H :    0.114491
  15 H :    0.116641
  16 H :    0.128986
  17 H :    0.148062
  18 H :    0.136172
  19 H :    0.335270
Sum of atomic charges:    0.0000000

LOEWDIN ATOMIC CHARGES
----------------------
   0 O :   -0.046295
   1 C :   -0.330505
   2 C :   -0.224711
   3 C :   -0.224965
   4 C :   -0.247172
   5 C :   -0.223152
   6 C :   -0.245526
   7 N :    0.007782
   8 O :   -0.068969
   9 H :    0.165335
  10 H :    0.129281
  11 H :    0.118398
  12 H :    0.166520
  13 H :    0.136279
  14 H :    0.141628
  15 H :    0.139191
  16 H :    0.133782
  17 H :    0.148617
  18 H :    0.154411
  19 H :    0.170070

  Mayer bond orders larger than 0.1
B(  0-O ,  1-C ) :   0.9546 B(  0-O ,  9-H ) :   0.8145 B(  1-C ,  2-C ) :   0.9270
B(  1-C , 10-H ) :   0.9286 B(  1-C , 11-H ) :   0.9211 B(  2-C ,  3-C ) :   0.9227
B(  2-C ,  6-C ) :   0.9284 B(  2-C , 12-H ) :   0.9059 B(  3-C ,  4-C ) :   0.9124
B(  3-C , 13-H ) :   0.9307 B(  3-C , 14-H ) :   0.9218 B(  4-C ,  5-C ) :   0.9361
B(  4-C , 15-H ) :   0.9308 B(  4-C , 16-H ) :   0.9328 B(  5-C ,  6-C ) :   0.9553
B(  5-C , 17-H ) :   0.9173 B(  5-C , 18-H ) :   0.9102 B(  6-C ,  7-N ) :   1.7452
B(  7-N ,  8-O ) :   0.8132 B(  8-O , 19-H ) :   0.8442

MP2 TOTAL ENERGY:     -439.545677439 Eh
FINAL SINGLE POINT ENERGY      -439.545677438566

DIPOLE MOMENT
-------------
                                X             Y             Z
Electronic contribution:     -0.65904       6.32892       2.45559
Nuclear contribution   :      0.20726      -7.06915      -2.04485
                        -----------------------------------------
Total Dipole Moment    :     -0.45178      -0.74022       0.41074
                        -----------------------------------------
Magnitude (a.u.)       :      0.95955
Magnitude (Debye)      :      2.43899

                             ****ORCA TERMINATED NORMALLY****
TOTAL RUN TIME: 0 days 0 hours 17 minutes 47 seconds 442 msec
