                         Program Version 3.0.3 - RELEASE   -
|  1> ! RI-MP2 RIJK def2-TZVP def2-TZVP/C def2-TZVP/JK TIGHTSCF
|  2> % maxcore 2000
|  3> % mp2 density relaxed end
|  4> *xyz 0 1
|  5>  C       -0.4459443735     1.4566100478    -0.2463988659
|  6>  O       -0.3615161032     0.0508163097    -0.2680597982
|  7>  C        0.7253456923    -0.4249638049    -1.0353857569
|  8>  C        0.7724379847    -1.9251126173    -0.9141432687
|  9>  C       -0.1767881332    -2.7710050500    -1.7529883858
| 10>  C        1.2723336193    -2.7583867803    -2.0912468070
| 11>  C        1.0934345276    -2.4579771990     0.4396308340
| 12>  O        1.1484734753    -3.6332804517     0.7155305302
| 13>  H        0.4590954979     1.9145197817     0.1833103695
| 14>  H       -0.5927577717     1.8722544678    -1.2559145622
| 15>  H       -1.3053138833     1.7226584270     0.3732903300
| 16>  H        0.6179623485    -0.1281842261    -2.0920122214
| 17>  H        1.6688081361     0.0203311090    -0.6714292401
| 18>  H       -0.5719613814    -3.6542836990    -1.2650698723
| 19>  H       -0.8711304719    -2.2322599183    -2.3877349258
| 20>  H        1.6036644025    -2.2173998315    -2.9709081181
| 21>  H        1.8595965873    -3.6306577012    -1.8288140476
| 22>  H        1.2900660167    -1.6792439938     1.2084302362
| 23> *
| 24>
| 25>                          ****END OF INPUT****

CARTESIAN COORDINATES (ANGSTROEM)
---------------------------------
  C     -0.445944    1.456610   -0.246399
  O     -0.361516    0.050816   -0.268060
  C      0.725346   -0.424964   -1.035386
  C      0.772438   -1.925113   -0.914143
  C     -0.176788   -2.771005   -1.752988
  C      1.272334   -2.758387   -2.091247
  C      1.093435   -2.457977    0.439631
  O      1.148473   -3.633280    0.715531
  H      0.459095    1.914520    0.183310
  H     -0.592758    1.872254   -1.255915
  H     -1.305314    1.722658    0.373290
  H      0.617962   -0.128184   -2.092012
  H      1.668808    0.020331   -0.671429
  H     -0.571961   -3.654284   -1.265070
  H     -0.871130   -2.232260   -2.387735
  H      1.603664   -2.217400   -2.970908
  H      1.859597   -3.630658   -1.828814
  H      1.290066   -1.679244    1.208430

 Total Charge           Charge          ....    0
 Multiplicity           Mult            ....    1
 Number of Electrons    NEL             ....   62
 Basis Dimension        Dim             ....  308

ORBITAL ENERGIES
----------------

  NO   OCC          E(Eh)            E(eV)
   0   2.0000     -20.567537      -559.6711
   1   2.0000     -20.545466      -559.0705
   2   2.0000     -11.326688      -308.2149
   3   2.0000     -11.293345      -307.3075
   4   2.0000     -11.280345      -306.9538
   5   2.0000     -11.249475      -306.1138
   6   2.0000     -11.244224      -305.9709
   7   2.0000     -11.240436      -305.8678
   8   2.0000      -1.390365       -37.8338
   9   2.0000      -1.385202       -37.6933
  10   2.0000      -1.165674       -31.7196
  11   2.0000      -0.998756       -27.1775
  12   2.0000      -0.915817       -24.9206
  13   2.0000      -0.876356       -23.8468
  14   2.0000      -0.835335       -22.7306
  15   2.0000      -0.747940       -20.3525
  16   2.0000      -0.705647       -19.2016
  17   2.0000      -0.678452       -18.4616
  18   2.0000      -0.663916       -18.0661
  19   2.0000      -0.647042       -17.6069
  20   2.0000      -0.629357       -17.1257
  21   2.0000      -0.608149       -16.5486
  22   2.0000      -0.562330       -15.3018
  23   2.0000      -0.548494       -14.9253
  24   2.0000      -0.539091       -14.6694
  25   2.0000      -0.515395       -14.0246
  26   2.0000      -0.498488       -13.5645
  27   2.0000      -0.453141       -12.3306
  28   2.0000      -0.441379       -12.0105
  29   2.0000      -0.414911       -11.2903
  30   2.0000      -0.407328       -11.0840
  31   0.0000       0.124718         3.3937
  32   0.0000       0.135544         3.6883
  33   0.0000       0.160248         4.3606
  34   0.0000       0.178045         4.8448
  35   0.0000       0.179325         4.8797

MULLIKEN ATOMIC CHARGES
-----------------------
   0 C :   -0.224778
   1 O :   -0.301062
   2 C :   -0.102678
   3 C :    0.169558
   4 C :   -0.272308
   5 C :   -0.295980
   6 C :    0.068380
   7 O :   -0.293570
   8 H :    0.113302
   9 H :    0.112470
  10 H :    0.144054
  11 H :    0.103461
  12 H :    0.108091
  13 H :    0.153261
  14 H :    0.139820
  15 H :    0.138491
  16 H :    0.153574
  17 H :    0.085915
Sum of atomic charges:    0.0000000

LOEWDIN ATOMIC CHARGES
----------------------
   0 C :   -0.359893
   1 O :    0.141211
   2 C :   -0.291940
   3 C :   -0.251858
   4 C :   -0.181116
   5 C :   -0.184857
   6 C :   -0.255122
   7 O :    0.124816
   8 H :    0.101893
   9 H :    0.102193
  10 H :    0.115151
  11 H :    0.128713
  12 H :    0.127442
  13 H :    0.144415
  14 H :    0.139082
  15 H :    0.135896
  16 H :    0.143581
  17 H :    0.120393

  Mayer bond orders larger than 0.1
B(  0-C ,  1-O ) :   0.9182 B(  0-C ,  8-H ) :   0.9372 B(  0-C ,  9-H ) :   0.9369
B(  0-C , 10-H ) :   0.9384 B(  1-O ,  2-C ) :   0.9551 B(  2-C ,  3-C ) :   0.9433
B(  2-C , 11-H ) :   0.9131 B(  2-C , 12-H ) :   0.9189 B(  3-C ,  4-C ) :   0.8092
B(  3-C ,  5-C ) :   0.8189 B(  3-C ,  6-C ) :   0.8976 B(  4-C ,  5-C ) :   0.9548
B(  4-C , 13-H ) :   0.9188 B(  4-C , 14-H ) :   0.9270 B(  5-C , 15-H ) :   0.9231
B(  5-C , 16-H ) :   0.9137 B(  6-C ,  7-O ) :   1.9528 B(  6-C , 17-H ) :   0.9501

MP2 TOTAL ENERGY:     -384.286266959 Eh
FINAL SINGLE POINT ENERGY      -384.286266959369

DIPOLE MOMENT
-------------
                                X             Y             Z
Electronic contribution:      0.79766      -5.41068       3.42149
Nuclear contribution   :     -0.68055       6.61670      -4.19237
                        -----------------------------------------
Total Dipole Moment    :      0.11711       1.20601      -0.77088
                        -----------------------------------------
Magnitude (a.u.)       :      1.43612
Magnitude (Debye)      :      3.65033

                             ****ORCA TERMINATED NORMALLY****
TOTAL RUN TIME: 0 days 0 hours 11 minutes 46 seconds 102 msec
