                         Program Version 3.0.3 - RELEASE   -
|  1> ! RI-MP2 RIJK def2-TZVP def2-TZVP/C def2-TZVP/JK TIGHTSCF
|  2> % maxcore 2000
|  3> % mp2 density relaxed end
|  4> *xyz 0 1
|  5>  C       -0.2378019562     1.6068646068     0.3149256203
|  6>  C       -0.1035097872     0.1145715116     0.6100867662
|  7>  N       -1.3371071135    -0.5787380810     0.2496716886
|  8>  C       -1.4636830735    -1.0630018453    -1.1201302354
|  9>  C       -1.3484807368    -2.0249345260     0.0127279730
| 10>  C       -0.1342882710    -2.9199693652     0.1579996535
| 11>  C        0.0930480401    -3.3431199481     1.6269069432
| 12>  C        1.2188737950    -4.2619414535     1.7763172160
| 13>  N        2.1137732906    -4.9867333644     1.8724806741
| 14>  H        0.6649257865     2.1435253983     0.6218142670
| 15>  H       -0.3873830599     1.7795536133    -0.7558014101
| 16>  H       -1.0948119864     2.0273499954     0.8479010746
| 17>  H        0.7832714401    -0.2800004575     0.0864959324
| 18>  H        0.0636358133    -0.0345722257     1.6841517334
| 19>  H       -2.4171955809    -0.8884359677    -1.6116540199
| 20>  H       -0.5946749395    -0.9710396718    -1.7728618935
| 21>  H       -2.2676311001    -2.4928033142     0.3682824375
| 22>  H       -0.2854587191    -3.8192631473    -0.4495687537
| 23>  H        0.7679997374    -2.4363948196    -0.2247965100
| 24>  H        0.2749521009    -2.4624712623     2.2522086186
| 25>  H       -0.8075774698    -3.8269956759     2.0226801843
| 26> *
| 27>
| 28>                          ****END OF INPUT****

CARTESIAN COORDINATES (ANGSTROEM)
---------------------------------
  C     -0.237802    1.606865    0.314926
  C     -0.103510    0.114572    0.610087
  N     -1.337107   -0.578738    0.249672
  C     -1.463683   -1.063002   -1.120130
  C     -1.348481   -2.024935    0.012728
  C     -0.134288   -2.919969    0.158000
  C      0.093048   -3.343120    1.626907
  C      1.218874   -4.261941    1.776317
  N      2.113773   -4.986733    1.872481
  H      0.664926    2.143525    0.621814
  H     -0.387383    1.779554   -0.755801
  H     -1.094812    2.027350    0.847901
  H      0.783271   -0.280000    0.086496
  H      0.063636   -0.034572    1.684152
  H     -2.417196   -0.888436   -1.611654
  H     -0.594675   -0.971040   -1.772862
  H     -2.267631   -2.492803    0.368282
  H     -0.285459   -3.819263   -0.449569
  H      0.768000   -2.436395   -0.224797
  H      0.274952   -2.462471    2.252209
  H     -0.807577   -3.826996    2.022680

 Total Charge           Charge          ....    0
 Multiplicity           Mult            ....    1
 Number of Electrons    NEL             ....   68
 Basis Dimension        Dim             ....  351

ORBITAL ENERGIES
----------------

  NO   OCC          E(Eh)            E(eV)
   0   2.0000     -15.569329      -423.6630
   1   2.0000     -15.567634      -423.6168
   2   2.0000     -11.285910      -307.1052
   3   2.0000     -11.274941      -306.8068
   4   2.0000     -11.273851      -306.7771
   5   2.0000     -11.263303      -306.4901
   6   2.0000     -11.262844      -306.4776
   7   2.0000     -11.259588      -306.3890
   8   2.0000     -11.220098      -305.3144
   9   2.0000      -1.284603       -34.9558
  10   2.0000      -1.219401       -33.1816
  11   2.0000      -1.094746       -29.7895
  12   2.0000      -1.047348       -28.4998
  13   2.0000      -0.948083       -25.7986
  14   2.0000      -0.904076       -24.6012
  15   2.0000      -0.830472       -22.5983
  16   2.0000      -0.782820       -21.3016
  17   2.0000      -0.705256       -19.1910
  18   2.0000      -0.694220       -18.8907
  19   2.0000      -0.660696       -17.9784
  20   2.0000      -0.645354       -17.5610
  21   2.0000      -0.617555       -16.8045
  22   2.0000      -0.584038       -15.8925
  23   2.0000      -0.562149       -15.2969
  24   2.0000      -0.555747       -15.1226
  25   2.0000      -0.549908       -14.9637
  26   2.0000      -0.530864       -14.4455
  27   2.0000      -0.522817       -14.2266
  28   2.0000      -0.509571       -13.8661
  29   2.0000      -0.475239       -12.9319
  30   2.0000      -0.459103       -12.4928
  31   2.0000      -0.451873       -12.2961
  32   2.0000      -0.448320       -12.1994
  33   2.0000      -0.379227       -10.3193
  34   0.0000       0.121645         3.3101
  35   0.0000       0.137390         3.7386
  36   0.0000       0.150569         4.0972
  37   0.0000       0.156619         4.2618
  38   0.0000       0.173076         4.7096

MULLIKEN ATOMIC CHARGES
-----------------------
   0 C :   -0.379718
   1 C :   -0.118046
   2 N :   -0.217448
   3 C :   -0.196100
   4 C :   -0.038083
   5 C :   -0.255279
   6 C :   -0.131742
   7 C :   -0.183651
   8 N :   -0.057564
   9 H :    0.130219
  10 H :    0.125313
  11 H :    0.134466
  12 H :    0.091744
  13 H :    0.109394
  14 H :    0.133352
  15 H :    0.122411
  16 H :    0.121305
  17 H :    0.147779
  18 H :    0.141199
  19 H :    0.160575
  20 H :    0.159873
Sum of atomic charges:   -0.0000000

LOEWDIN ATOMIC CHARGES
----------------------
   0 C :   -0.313257
   1 C :   -0.323257
   2 N :    0.110635
   3 C :   -0.243148
   4 C :   -0.258966
   5 C :   -0.235671
   6 C :   -0.240402
   7 C :   -0.193987
   8 N :    0.055376
   9 H :    0.122927
  10 H :    0.121826
  11 H :    0.124953
  12 H :    0.119696
  13 H :    0.129480
  14 H :    0.125302
  15 H :    0.126652
  16 H :    0.145115
  17 H :    0.152808
  18 H :    0.145827
  19 H :    0.163137
  20 H :    0.164954

  Mayer bond orders larger than 0.1
B(  0-C ,  1-C ) :   0.9386 B(  0-C ,  9-H ) :   0.9380 B(  0-C , 10-H ) :   0.9365
B(  0-C , 11-H ) :   0.9373 B(  1-C ,  2-N ) :   0.8789 B(  1-C , 12-H ) :   0.9207
B(  1-C , 13-H ) :   0.9248 B(  2-N ,  3-C ) :   0.8913 B(  2-N ,  4-C ) :   0.9204
B(  3-C ,  4-C ) :   0.9411 B(  3-C , 14-H ) :   0.9204 B(  3-C , 15-H ) :   0.9184
B(  4-C ,  5-C ) :   0.9072 B(  4-C , 16-H ) :   0.9139 B(  5-C ,  6-C ) :   0.8996
B(  5-C , 17-H ) :   0.9244 B(  5-C , 18-H ) :   0.9400 B(  6-C ,  7-C ) :   0.9342
B(  6-C , 19-H ) :   0.9118 B(  6-C , 20-H ) :   0.9058 B(  7-C ,  8-N ) :   2.8821

MP2 TOTAL ENERGY:     -382.578691431 Eh
FINAL SINGLE POINT ENERGY      -382.578691431232

DIPOLE MOMENT
-------------
                                X             Y             Z
Electronic contribution:      2.50179      -9.59847       3.27965
Nuclear contribution   :     -3.31690      10.46884      -3.76989
                        -----------------------------------------
Total Dipole Moment    :     -0.81511       0.87037      -0.49024
                        -----------------------------------------
Magnitude (a.u.)       :      1.28929
Magnitude (Debye)      :      3.27712

                             ****ORCA TERMINATED NORMALLY****
TOTAL RUN TIME: 0 days 0 hours 27 minutes 35 seconds 454 msec
