                         Program Version 3.0.3 - RELEASE   -
|  1> ! RI-MP2 RIJK def2-TZVP def2-TZVP/C def2-TZVP/JK TIGHTSCF
|  2> % maxcore 2000
|  3> % mp2 density relaxed end
|  4> *xyz 0 1
|  5>  C       -0.0381786363     1.5357444333    -0.1160869130
|  6>  C       -0.0009082571     0.0248222232     0.1640826102
|  7>  O        0.5606552327    -0.2380625037     1.4215840355
|  8>  C       -1.4131746911    -0.5761384424     0.1239443290
|  9>  O       -1.9538589794    -0.9572333536     1.1496060762
| 10>  N       -2.0075728654    -0.6509579298    -1.0998281020
| 11>  C       -3.3697863164    -1.1233594248    -1.2544443717
| 12>  C       -4.2530626209    -0.1027245681    -1.8324112468
| 13>  N       -4.9327038162     0.6982535930    -2.3125139817
| 14>  H        0.9710927945     1.9401678914    -0.0091019664
| 15>  H       -0.3960049174     1.7606954777    -1.1264105447
| 16>  H       -0.6892707746     2.0376628347     0.6054441985
| 17>  H        0.6068960263    -0.4690592311    -0.6103295096
| 18>  H       -0.1734893444    -0.5656315129     1.9663308261
| 19>  H       -1.5198876794    -0.3055551963    -1.9108236655
| 20>  H       -3.4119281466    -2.0206562739    -1.8830325805
| 21>  H       -3.7202501882    -1.3971858968    -0.2549358837
| 22> *
| 23>
| 24>                          ****END OF INPUT****

CARTESIAN COORDINATES (ANGSTROEM)
---------------------------------
  C     -0.038179    1.535744   -0.116087
  C     -0.000908    0.024822    0.164083
  O      0.560655   -0.238063    1.421584
  C     -1.413175   -0.576138    0.123944
  O     -1.953859   -0.957233    1.149606
  N     -2.007573   -0.650958   -1.099828
  C     -3.369786   -1.123359   -1.254444
  C     -4.253063   -0.102725   -1.832411
  N     -4.932704    0.698254   -2.312514
  H      0.971093    1.940168   -0.009102
  H     -0.396005    1.760695   -1.126411
  H     -0.689271    2.037663    0.605444
  H      0.606896   -0.469059   -0.610330
  H     -0.173489   -0.565632    1.966331
  H     -1.519888   -0.305555   -1.910824
  H     -3.411928   -2.020656   -1.883033
  H     -3.720250   -1.397186   -0.254936

 Total Charge           Charge          ....    0
 Multiplicity           Mult            ....    1
 Number of Electrons    NEL             ....   68
 Basis Dimension        Dim             ....  327

ORBITAL ENERGIES
----------------

  NO   OCC          E(Eh)            E(eV)
   0   2.0000     -20.561528      -559.5076
   1   2.0000     -20.556119      -559.3604
   2   2.0000     -15.628515      -425.2735
   3   2.0000     -15.590171      -424.2301
   4   2.0000     -11.381648      -309.7104
   5   2.0000     -11.338946      -308.5484
   6   2.0000     -11.313886      -307.8665
   7   2.0000     -11.290713      -307.2359
   8   2.0000     -11.240612      -305.8726
   9   2.0000      -1.429277       -38.8926
  10   2.0000      -1.369893       -37.2767
  11   2.0000      -1.281778       -34.8789
  12   2.0000      -1.232587       -33.5404
  13   2.0000      -1.067057       -29.0361
  14   2.0000      -1.017373       -27.6841
  15   2.0000      -0.897758       -24.4292
  16   2.0000      -0.826814       -22.4988
  17   2.0000      -0.779926       -21.2229
  18   2.0000      -0.731561       -19.9068
  19   2.0000      -0.704329       -19.1658
  20   2.0000      -0.677462       -18.4347
  21   2.0000      -0.659821       -17.9546
  22   2.0000      -0.625041       -17.0082
  23   2.0000      -0.612870       -16.6770
  24   2.0000      -0.587040       -15.9742
  25   2.0000      -0.575146       -15.6505
  26   2.0000      -0.559195       -15.2165
  27   2.0000      -0.548191       -14.9170
  28   2.0000      -0.536847       -14.6084
  29   2.0000      -0.492002       -13.3881
  30   2.0000      -0.480065       -13.0632
  31   2.0000      -0.460908       -12.5419
  32   2.0000      -0.454865       -12.3775
  33   2.0000      -0.438494       -11.9320
  34   0.0000       0.102021         2.7761
  35   0.0000       0.133217         3.6250
  36   0.0000       0.143340         3.9005
  37   0.0000       0.159592         4.3427
  38   0.0000       0.163618         4.4523

MULLIKEN ATOMIC CHARGES
-----------------------
   0 C :   -0.356380
   1 C :    0.044730
   2 O :   -0.476660
   3 C :    0.319575
   4 O :   -0.398978
   5 N :   -0.340652
   6 C :   -0.038467
   7 C :   -0.171487
   8 N :   -0.054994
   9 H :    0.148803
  10 H :    0.109424
  11 H :    0.133418
  12 H :    0.106147
  13 H :    0.340942
  14 H :    0.255063
  15 H :    0.174681
  16 H :    0.204836
Sum of atomic charges:    0.0000000

LOEWDIN ATOMIC CHARGES
----------------------
   0 C :   -0.288556
   1 C :   -0.358028
   2 O :   -0.004451
   3 C :   -0.427609
   4 O :    0.081753
   5 N :    0.124977
   6 C :   -0.252758
   7 C :   -0.189683
   8 N :    0.071879
   9 H :    0.131629
  10 H :    0.119553
  11 H :    0.130355
  12 H :    0.144901
  13 H :    0.185659
  14 H :    0.195260
  15 H :    0.159410
  16 H :    0.175706

  Mayer bond orders larger than 0.1
B(  0-C ,  1-C ) :   0.8727 B(  0-C ,  9-H ) :   0.9324 B(  0-C , 10-H ) :   0.9214
B(  0-C , 11-H ) :   0.9265 B(  1-C ,  2-O ) :   1.0739 B(  1-C ,  3-C ) :   0.9304
B(  1-C , 12-H ) :   0.9307 B(  2-O , 13-H ) :   0.7992 B(  3-C ,  4-O ) :   1.8143
B(  3-C ,  5-N ) :   1.1593 B(  5-N ,  6-C ) :   0.8505 B(  5-N , 14-H ) :   0.8694
B(  6-C ,  7-C ) :   0.9084 B(  6-C , 15-H ) :   0.9173 B(  6-C , 16-H ) :   0.8999
B(  7-C ,  8-N ) :   2.8427

MP2 TOTAL ENERGY:     -454.452813778 Eh
FINAL SINGLE POINT ENERGY      -454.452813778234

DIPOLE MOMENT
-------------
                                X             Y             Z
Electronic contribution:     -5.56101      -2.71296      -0.49687
Nuclear contribution   :      6.07540       2.10237      -0.35891
                        -----------------------------------------
Total Dipole Moment    :      0.51439      -0.61059      -0.85578
                        -----------------------------------------
Magnitude (a.u.)       :      1.17037
Magnitude (Debye)      :      2.97485

                             ****ORCA TERMINATED NORMALLY****
TOTAL RUN TIME: 0 days 0 hours 16 minutes 32 seconds 200 msec
