                         Program Version 3.0.3 - RELEASE   -
|  1> ! RI-MP2 RIJK def2-TZVP def2-TZVP/C def2-TZVP/JK TIGHTSCF
|  2> % maxcore 2000
|  3> % mp2 density relaxed end
|  4> *xyz 0 1
|  5>  C       -0.3620854743     1.4469347143    -0.5740246272
|  6>  C       -0.6517332416    -0.0486020139    -0.4810417432
|  7>  C       -1.0011602032    -0.4986693789     0.9257977996
|  8>  O       -0.9544013257     0.2332274873     1.8891347803
|  9>  C       -1.4008047361    -1.9392039822     1.1191658880
| 10>  C       -2.5147328123    -2.5375778108     0.3542836575
| 11>  O       -1.1653028906    -2.8566556518     0.0495070745
| 12>  H       -0.0822016637     1.7226246706    -1.5943464022
| 13>  H       -1.2369493189     2.0356538694    -0.2849502611
| 14>  H        0.4524155986     1.7277108512     0.0981005361
| 15>  H       -1.4587126676    -0.3456958172    -1.1631531861
| 16>  H        0.2093455238    -0.6490241843    -0.8040119283
| 17>  H       -1.2066601040    -2.3169191270     2.1219531784
| 18>  H       -3.0971092415    -3.3312614617     0.8188574419
| 19>  H       -3.0408269030    -1.9441671151    -0.3913697481
| 20> *
| 21>
| 22>                          ****END OF INPUT****

CARTESIAN COORDINATES (ANGSTROEM)
---------------------------------
  C     -0.362085    1.446935   -0.574025
  C     -0.651733   -0.048602   -0.481042
  C     -1.001160   -0.498669    0.925798
  O     -0.954401    0.233227    1.889135
  C     -1.400805   -1.939204    1.119166
  C     -2.514733   -2.537578    0.354284
  O     -1.165303   -2.856656    0.049507
  H     -0.082202    1.722625   -1.594346
  H     -1.236949    2.035654   -0.284950
  H      0.452416    1.727711    0.098101
  H     -1.458713   -0.345696   -1.163153
  H      0.209346   -0.649024   -0.804012
  H     -1.206660   -2.316919    2.121953
  H     -3.097109   -3.331261    0.818857
  H     -3.040827   -1.944167   -0.391370

 Total Charge           Charge          ....    0
 Multiplicity           Mult            ....    1
 Number of Electrons    NEL             ....   54
 Basis Dimension        Dim             ....  265

ORBITAL ENERGIES
----------------

  NO   OCC          E(Eh)            E(eV)
   0   2.0000     -20.594353      -560.4008
   1   2.0000     -20.553876      -559.2994
   2   2.0000     -11.338883      -308.5467
   3   2.0000     -11.308837      -307.7291
   4   2.0000     -11.306033      -307.6528
   5   2.0000     -11.242716      -305.9298
   6   2.0000     -11.220017      -305.3122
   7   2.0000      -1.439894       -39.1815
   8   2.0000      -1.396070       -37.9890
   9   2.0000      -1.060079       -28.8462
  10   2.0000      -0.977575       -26.6012
  11   2.0000      -0.918875       -25.0039
  12   2.0000      -0.870408       -23.6850
  13   2.0000      -0.754171       -20.5220
  14   2.0000      -0.710791       -19.3416
  15   2.0000      -0.694730       -18.9046
  16   2.0000      -0.637986       -17.3605
  17   2.0000      -0.628308       -17.0971
  18   2.0000      -0.596926       -16.2432
  19   2.0000      -0.573343       -15.6015
  20   2.0000      -0.541312       -14.7298
  21   2.0000      -0.531613       -14.4659
  22   2.0000      -0.518450       -14.1077
  23   2.0000      -0.496922       -13.5219
  24   2.0000      -0.484995       -13.1974
  25   2.0000      -0.454622       -12.3709
  26   2.0000      -0.418482       -11.3875
  27   0.0000       0.126761         3.4494
  28   0.0000       0.135227         3.6797
  29   0.0000       0.162746         4.4286
  30   0.0000       0.172490         4.6937
  31   0.0000       0.179048         4.8721

MULLIKEN ATOMIC CHARGES
-----------------------
   0 C :   -0.363287
   1 C :   -0.230610
   2 C :    0.174383
   3 O :   -0.289966
   4 C :    0.021364
   5 C :   -0.076959
   6 O :   -0.319237
   7 H :    0.133983
   8 H :    0.129372
   9 H :    0.137254
  10 H :    0.126752
  11 H :    0.147275
  12 H :    0.150798
  13 H :    0.133222
  14 H :    0.125657
Sum of atomic charges:   -0.0000000

LOEWDIN ATOMIC CHARGES
----------------------
   0 C :   -0.309577
   1 C :   -0.263851
   2 C :   -0.319508
   3 O :    0.160599
   4 C :   -0.254092
   5 C :   -0.256105
   6 O :    0.163369
   7 H :    0.121986
   8 H :    0.126002
   9 H :    0.128144
  10 H :    0.150440
  11 H :    0.158923
  12 H :    0.148142
  13 H :    0.124418
  14 H :    0.121108

  Mayer bond orders larger than 0.1
B(  0-C ,  1-C ) :   0.9274 B(  0-C ,  7-H ) :   0.9409 B(  0-C ,  8-H ) :   0.9356
B(  0-C ,  9-H ) :   0.9338 B(  1-C ,  2-C ) :   0.9287 B(  1-C , 10-H ) :   0.9150
B(  1-C , 11-H ) :   0.8952 B(  2-C ,  3-O ) :   1.9468 B(  2-C ,  4-C ) :   0.9229
B(  4-C ,  5-C ) :   0.9418 B(  4-C ,  6-O ) :   0.9030 B(  4-C , 12-H ) :   0.9238
B(  5-C ,  6-O ) :   0.9042 B(  5-C , 13-H ) :   0.9241 B(  5-C , 14-H ) :   0.9095

MP2 TOTAL ENERGY:     -345.079536990 Eh
FINAL SINGLE POINT ENERGY      -345.079536989700

DIPOLE MOMENT
-------------
                                X             Y             Z
Electronic contribution:     -0.23779      -3.96708       4.02650
Nuclear contribution   :     -0.27605       3.67962      -4.55462
                        -----------------------------------------
Total Dipole Moment    :     -0.51384      -0.28746      -0.52812
                        -----------------------------------------
Magnitude (a.u.)       :      0.79093
Magnitude (Debye)      :      2.01039

                             ****ORCA TERMINATED NORMALLY****
TOTAL RUN TIME: 0 days 0 hours 7 minutes 14 seconds 869 msec
