                         Program Version 3.0.3 - RELEASE   -
|  1> ! RI-MP2 RIJK def2-TZVP def2-TZVP/C def2-TZVP/JK TIGHTSCF
|  2> % maxcore 2000
|  3> % mp2 density relaxed end
|  4> *xyz 0 1
|  5>  N       -0.0186213942     1.2298280936     0.3792399919
|  6>  C       -0.0123832707     0.0284338387     0.0191355102
|  7>  O        1.1487437883    -0.6192642129    -0.3712545015
|  8>  C        1.0696931996    -1.9139121087    -0.7453391231
|  9>  N        0.0493720876    -2.6666487406    -0.7977620885
| 10>  O       -1.1800686115    -2.0886289336    -0.4162457872
| 11>  C       -1.2842452913    -0.7859456649    -0.0084685409
| 12>  O       -2.3499582555    -0.3548322372     0.3007367033
| 13>  H        0.9190855031     1.6345546150     0.3411858944
| 14>  H        2.0273633045    -2.3300055195    -1.0322418286
| 15> *
| 16>
| 17>                          ****END OF INPUT****

CARTESIAN COORDINATES (ANGSTROEM)
---------------------------------
  N     -0.018621    1.229828    0.379240
  C     -0.012383    0.028434    0.019136
  O      1.148744   -0.619264   -0.371255
  C      1.069693   -1.913912   -0.745339
  N      0.049372   -2.666649   -0.797762
  O     -1.180069   -2.088629   -0.416246
  C     -1.284245   -0.785946   -0.008469
  O     -2.349958   -0.354832    0.300737
  H      0.919086    1.634555    0.341186
  H      2.027363   -2.330006   -1.032242

 Total Charge           Charge          ....    0
 Multiplicity           Mult            ....    1
 Number of Electrons    NEL             ....   58
 Basis Dimension        Dim             ....  260

ORBITAL ENERGIES
----------------

  NO   OCC          E(Eh)            E(eV)
   0   2.0000     -20.682549      -562.8008
   1   2.0000     -20.665502      -562.3369
   2   2.0000     -20.582856      -560.0880
   3   2.0000     -15.671388      -426.4402
   4   2.0000     -15.605340      -424.6429
   5   2.0000     -11.426051      -310.9186
   6   2.0000     -11.402051      -310.2656
   7   2.0000     -11.394442      -310.0585
   8   2.0000      -1.542899       -41.9844
   9   2.0000      -1.493590       -40.6426
  10   2.0000      -1.421838       -38.6902
  11   2.0000      -1.270117       -34.5616
  12   2.0000      -1.211770       -32.9739
  13   2.0000      -0.981181       -26.6993
  14   2.0000      -0.950131       -25.8544
  15   2.0000      -0.838802       -22.8250
  16   2.0000      -0.775611       -21.1054
  17   2.0000      -0.727889       -19.8069
  18   2.0000      -0.715702       -19.4752
  19   2.0000      -0.697332       -18.9754
  20   2.0000      -0.667714       -18.1694
  21   2.0000      -0.658726       -17.9248
  22   2.0000      -0.593875       -16.1602
  23   2.0000      -0.573398       -15.6030
  24   2.0000      -0.556664       -15.1476
  25   2.0000      -0.502154       -13.6643
  26   2.0000      -0.477192       -12.9851
  27   2.0000      -0.473232       -12.8773
  28   2.0000      -0.430750       -11.7213
  29   0.0000       0.060256         1.6397
  30   0.0000       0.116251         3.1634
  31   0.0000       0.132107         3.5948
  32   0.0000       0.152550         4.1511
  33   0.0000       0.164306         4.4710

MULLIKEN ATOMIC CHARGES
-----------------------
   0 N :   -0.273516
   1 C :    0.117573
   2 O :   -0.216864
   3 C :    0.095033
   4 N :   -0.098608
   5 O :   -0.113174
   6 C :    0.283834
   7 O :   -0.212638
   8 H :    0.241898
   9 H :    0.176462
Sum of atomic charges:    0.0000000

LOEWDIN ATOMIC CHARGES
----------------------
   0 N :    0.031087
   1 C :   -0.346473
   2 O :    0.300020
   3 C :   -0.352583
   4 N :    0.040629
   5 O :    0.231422
   6 C :   -0.447694
   7 O :    0.211423
   8 H :    0.180776
   9 H :    0.151393

  Mayer bond orders larger than 0.1
B(  0-N ,  1-C ) :   2.0511 B(  0-N ,  8-H ) :   0.8437 B(  1-C ,  2-O ) :   0.9566
B(  1-C ,  6-C ) :   0.8923 B(  2-O ,  3-C ) :   1.0360 B(  3-C ,  4-N ) :   1.7823
B(  3-C ,  9-H ) :   0.9157 B(  4-N ,  5-O ) :   0.7712 B(  5-O ,  6-C ) :   1.1135
B(  6-C ,  7-O ) :   2.0437

MP2 TOTAL ENERGY:     -449.867020037 Eh
FINAL SINGLE POINT ENERGY      -449.867020036974

DIPOLE MOMENT
-------------
                                X             Y             Z
Electronic contribution:     -1.52310      -0.98761      -0.03638
Nuclear contribution   :      3.36304       1.02036      -0.26541
                        -----------------------------------------
Total Dipole Moment    :      1.83995       0.03274      -0.30180
                        -----------------------------------------
Magnitude (a.u.)       :      1.86482
Magnitude (Debye)      :      4.73999

                             ****ORCA TERMINATED NORMALLY****
TOTAL RUN TIME: 0 days 0 hours 7 minutes 42 seconds 763 msec
