                         Program Version 3.0.3 - RELEASE   -
|  1> ! RI-MP2 RIJK def2-TZVP def2-TZVP/C def2-TZVP/JK TIGHTSCF
|  2> % maxcore 2000
|  3> % mp2 density relaxed end
|  4> *xyz 0 1
|  5>  C        0.1329712022     1.4124857769    -0.0908847256
|  6>  N        0.1500633312    -0.0300322631    -0.0212602087
|  7>  N        0.1965325429    -0.8153243973    -1.1287851317
|  8>  N        0.2006596138    -2.0327407599    -0.7569026396
|  9>  N        0.1570252625    -2.0653867105     0.6004794101
| 10>  C        0.1490981467    -3.3006566216     1.3488401242
| 11>  C        0.1225534398    -0.7889952028     1.1368946852
| 12>  O        0.0800600503    -0.4346233702     2.2974586718
| 13>  H        1.0362930140     1.7856095440    -0.5799337161
| 14>  H       -0.7462868563     1.7616551789    -0.6380224330
| 15>  H        0.0945812688     1.7737176565     0.9382387822
| 16>  H        1.0556235811    -3.8777507531     1.1499576983
| 17>  H        0.1111109181    -3.0253911042     2.4042268932
| 18>  H       -0.7269637351    -3.9014142737     1.0919720998
| 19> *
| 20>
| 21>                          ****END OF INPUT****

CARTESIAN COORDINATES (ANGSTROEM)
---------------------------------
  C      0.132971    1.412486   -0.090885
  N      0.150063   -0.030032   -0.021260
  N      0.196533   -0.815324   -1.128785
  N      0.200660   -2.032741   -0.756903
  N      0.157025   -2.065387    0.600479
  C      0.149098   -3.300657    1.348840
  C      0.122553   -0.788995    1.136895
  O      0.080060   -0.434623    2.297459
  H      1.036293    1.785610   -0.579934
  H     -0.746287    1.761655   -0.638022
  H      0.094581    1.773718    0.938239
  H      1.055624   -3.877751    1.149958
  H      0.111111   -3.025391    2.404227
  H     -0.726964   -3.901414    1.091972

 Total Charge           Charge          ....    0
 Multiplicity           Mult            ....    1
 Number of Electrons    NEL             ....   60
 Basis Dimension        Dim             ....  284

ORBITAL ENERGIES
----------------

  NO   OCC          E(Eh)            E(eV)
   0   2.0000     -20.528994      -558.6223
   1   2.0000     -15.674751      -426.5317
   2   2.0000     -15.673580      -426.4998
   3   2.0000     -15.652274      -425.9200
   4   2.0000     -15.652245      -425.9192
   5   2.0000     -11.394170      -310.0511
   6   2.0000     -11.284625      -307.0703
   7   2.0000     -11.284624      -307.0702
   8   2.0000      -1.506887       -41.0045
   9   2.0000      -1.386941       -37.7406
  10   2.0000      -1.290725       -35.1224
  11   2.0000      -1.202941       -32.7337
  12   2.0000      -1.020235       -27.7620
  13   2.0000      -0.997102       -27.1325
  14   2.0000      -0.876721       -23.8568
  15   2.0000      -0.846950       -23.0467
  16   2.0000      -0.723079       -19.6760
  17   2.0000      -0.720985       -19.6190
  18   2.0000      -0.655322       -17.8322
  19   2.0000      -0.651007       -17.7148
  20   2.0000      -0.636938       -17.3320
  21   2.0000      -0.586929       -15.9712
  22   2.0000      -0.586732       -15.9658
  23   2.0000      -0.583258       -15.8712
  24   2.0000      -0.561175       -15.2704
  25   2.0000      -0.544236       -14.8094
  26   2.0000      -0.520993       -14.1769
  27   2.0000      -0.451668       -12.2905
  28   2.0000      -0.438955       -11.9446
  29   2.0000      -0.366591        -9.9754
  30   0.0000       0.120012         3.2657
  31   0.0000       0.140618         3.8264
  32   0.0000       0.152056         4.1376
  33   0.0000       0.192235         5.2310
  34   0.0000       0.194369         5.2890

MULLIKEN ATOMIC CHARGES
-----------------------
   0 C :   -0.315354
   1 N :    0.025444
   2 N :   -0.122906
   3 N :   -0.122906
   4 N :    0.025443
   5 C :   -0.315353
   6 C :    0.232284
   7 O :   -0.399123
   8 H :    0.157062
   9 H :    0.157064
  10 H :    0.182110
  11 H :    0.157063
  12 H :    0.182110
  13 H :    0.157062
Sum of atomic charges:    0.0000000

LOEWDIN ATOMIC CHARGES
----------------------
   0 C :   -0.273619
   1 N :    0.139049
   2 N :   -0.025414
   3 N :   -0.025415
   4 N :    0.139049
   5 C :   -0.273619
   6 C :   -0.520215
   7 O :    0.049657
   8 H :    0.127171
   9 H :    0.127172
  10 H :    0.140921
  11 H :    0.127171
  12 H :    0.140920
  13 H :    0.127171

  Mayer bond orders larger than 0.1
B(  0-C ,  1-N ) :   0.8575 B(  0-C ,  8-H ) :   0.9299 B(  0-C ,  9-H ) :   0.9299
B(  0-C , 10-H ) :   0.9201 B(  1-N ,  2-N ) :   0.9479 B(  1-N ,  6-C ) :   1.0969
B(  2-N ,  3-N ) :   1.3909 B(  3-N ,  4-N ) :   0.9479 B(  4-N ,  5-C ) :   0.8575
B(  4-N ,  6-C ) :   1.0969 B(  5-C , 11-H ) :   0.9299 B(  5-C , 12-H ) :   0.9201
B(  5-C , 13-H ) :   0.9299 B(  6-C ,  7-O ) :   1.9095

MP2 TOTAL ENERGY:     -411.379213068 Eh
FINAL SINGLE POINT ENERGY      -411.379213068466

DIPOLE MOMENT
-------------
                                X             Y             Z
Electronic contribution:      0.05792      -0.47999      -1.57198
Nuclear contribution   :     -0.05754       0.47633       1.55999
                        -----------------------------------------
Total Dipole Moment    :      0.00038      -0.00366      -0.01198
                        -----------------------------------------
Magnitude (a.u.)       :      0.01254
Magnitude (Debye)      :      0.03186

                             ****ORCA TERMINATED NORMALLY****
TOTAL RUN TIME: 0 days 0 hours 10 minutes 57 seconds 450 msec
