                         Program Version 3.0.3 - RELEASE   -
|  1> ! RI-MP2 RIJK def2-TZVP def2-TZVP/C def2-TZVP/JK TIGHTSCF
|  2> % maxcore 2000
|  3> % mp2 density relaxed end
|  4> *xyz 0 1
|  5>  O        0.0006698882     1.4468439557    -0.1051017387
|  6>  C        0.0245365898     0.0469696057    -0.0087078144
|  7>  C       -0.0554744406    -0.6206122181     1.3772592416
|  8>  C       -1.5439091268    -0.1238515604     1.5450636640
|  9>  C       -2.2645988878    -1.2225092432     2.3126341390
| 10>  C       -3.0803102889    -2.2024205994     1.4922141572
| 11>  C       -1.6013504089    -2.4139821557     1.6699696173
| 12>  N       -0.6653022651    -1.8474113536     0.6762066615
| 13>  C       -1.3536225740    -0.6150440885     0.0772225092
| 14>  H        0.9041317953     1.7682114222    -0.0303391387
| 15>  H        0.7189350518    -0.4222719588    -0.7136594921
| 16>  H        0.7110063367    -0.7342094522     2.1475589923
| 17>  H       -1.7680376842     0.9218822424     1.7504596626
| 18>  H       -2.4264419733    -1.1259534752     3.3795084756
| 19>  H       -3.7247316341    -2.8783368629     2.0461177472
| 20>  H       -3.4854734884    -1.9070631887     0.5311962228
| 21>  H       -1.2253447474    -3.2725752367     2.2125705237
| 22>  H       -2.0931009122    -0.7028651128    -0.7193068801
| 23> *
| 24>
| 25>                          ****END OF INPUT****

CARTESIAN COORDINATES (ANGSTROEM)
---------------------------------
  O      0.000670    1.446844   -0.105102
  C      0.024537    0.046970   -0.008708
  C     -0.055474   -0.620612    1.377259
  C     -1.543909   -0.123852    1.545064
  C     -2.264599   -1.222509    2.312634
  C     -3.080310   -2.202421    1.492214
  C     -1.601350   -2.413982    1.669970
  N     -0.665302   -1.847411    0.676207
  C     -1.353623   -0.615044    0.077223
  H      0.904132    1.768211   -0.030339
  H      0.718935   -0.422272   -0.713659
  H      0.711006   -0.734209    2.147559
  H     -1.768038    0.921882    1.750460
  H     -2.426442   -1.125953    3.379508
  H     -3.724732   -2.878337    2.046118
  H     -3.485473   -1.907063    0.531196
  H     -1.225345   -3.272575    2.212571
  H     -2.093101   -0.702865   -0.719307

 Total Charge           Charge          ....    0
 Multiplicity           Mult            ....    1
 Number of Electrons    NEL             ....   66
 Basis Dimension        Dim             ....  333

ORBITAL ENERGIES
----------------

  NO   OCC          E(Eh)            E(eV)
   0   2.0000     -20.563949      -559.5735
   1   2.0000     -15.560989      -423.4360
   2   2.0000     -11.286162      -307.1121
   3   2.0000     -11.268000      -306.6179
   4   2.0000     -11.267746      -306.6110
   5   2.0000     -11.249407      -306.1119
   6   2.0000     -11.240954      -305.8819
   7   2.0000     -11.230296      -305.5919
   8   2.0000     -11.226151      -305.4791
   9   2.0000      -1.377329       -37.4790
  10   2.0000      -1.301405       -35.4130
  11   2.0000      -1.130490       -30.7622
  12   2.0000      -1.009293       -27.4643
  13   2.0000      -0.924784       -25.1646
  14   2.0000      -0.878602       -23.9080
  15   2.0000      -0.811354       -22.0781
  16   2.0000      -0.775245       -21.0955
  17   2.0000      -0.723815       -19.6960
  18   2.0000      -0.695463       -18.9245
  19   2.0000      -0.685481       -18.6529
  20   2.0000      -0.683400       -18.5963
  21   2.0000      -0.608415       -16.5558
  22   2.0000      -0.595497       -16.2043
  23   2.0000      -0.567659       -15.4468
  24   2.0000      -0.516671       -14.0593
  25   2.0000      -0.508580       -13.8392
  26   2.0000      -0.503339       -13.6966
  27   2.0000      -0.481370       -13.0988
  28   2.0000      -0.460066       -12.5190
  29   2.0000      -0.427968       -11.6456
  30   2.0000      -0.408537       -11.1169
  31   2.0000      -0.398378       -10.8404
  32   2.0000      -0.361671        -9.8416
  33   0.0000       0.136543         3.7155
  34   0.0000       0.157789         4.2937
  35   0.0000       0.160615         4.3706
  36   0.0000       0.178073         4.8456
  37   0.0000       0.187419         5.0999

MULLIKEN ATOMIC CHARGES
-----------------------
   0 O :   -0.463115
   1 C :   -0.021272
   2 C :   -0.011558
   3 C :   -0.088298
   4 C :   -0.179154
   5 C :   -0.256581
   6 C :   -0.069896
   7 N :   -0.236014
   8 C :   -0.022362
   9 H :    0.323599
  10 H :    0.103392
  11 H :    0.140777
  12 H :    0.130011
  13 H :    0.128986
  14 H :    0.130062
  15 H :    0.134583
  16 H :    0.125858
  17 H :    0.130982
Sum of atomic charges:    0.0000000

LOEWDIN ATOMIC CHARGES
----------------------
   0 O :   -0.006293
   1 C :   -0.302889
   2 C :   -0.157116
   3 C :   -0.149951
   4 C :   -0.194529
   5 C :   -0.199603
   6 C :   -0.235546
   7 N :    0.152549
   8 C :   -0.162568
   9 H :    0.179324
  10 H :    0.132049
  11 H :    0.122659
  12 H :    0.143291
  13 H :    0.141806
  14 H :    0.137659
  15 H :    0.134421
  16 H :    0.138473
  17 H :    0.126265

  Mayer bond orders larger than 0.1
B(  0-O ,  1-C ) :   1.1938 B(  0-O ,  2-C ) :  -0.1441 B(  0-O ,  8-C ) :  -0.1313
B(  0-O ,  9-H ) :   0.8422 B(  1-C ,  2-C ) :   0.8528 B(  1-C ,  8-C ) :   0.8813
B(  1-C , 10-H ) :   0.9698 B(  2-C ,  3-C ) :   0.8918 B(  2-C ,  7-N ) :   0.8290
B(  2-C , 11-H ) :   0.8774 B(  3-C ,  4-C ) :   0.9351 B(  3-C ,  8-C ) :   0.8970
B(  3-C , 12-H ) :   0.8969 B(  4-C ,  5-C ) :   0.8956 B(  4-C ,  6-C ) :   0.8793
B(  4-C , 13-H ) :   0.9277 B(  5-C ,  6-C ) :   0.9020 B(  5-C , 14-H ) :   0.9293
B(  5-C , 15-H ) :   0.9075 B(  6-C ,  7-N ) :   0.9546 B(  6-C , 16-H ) :   0.9457
B(  7-N ,  8-C ) :   0.8401 B(  8-C , 17-H ) :   0.8883

MP2 TOTAL ENERGY:     -401.170437922 Eh
FINAL SINGLE POINT ENERGY      -401.170437922064

DIPOLE MOMENT
-------------
                                X             Y             Z
Electronic contribution:      2.20738       1.35003      -1.23942
Nuclear contribution   :     -1.97760      -1.15609       1.69264
                        -----------------------------------------
Total Dipole Moment    :      0.22977       0.19394       0.45322
                        -----------------------------------------
Magnitude (a.u.)       :      0.54389
Magnitude (Debye)      :      1.38246

                             ****ORCA TERMINATED NORMALLY****
TOTAL RUN TIME: 0 days 0 hours 17 minutes 8 seconds 531 msec
