                         Program Version 3.0.3 - RELEASE   -
|  1> ! RI-MP2 RIJK def2-TZVP def2-TZVP/C def2-TZVP/JK TIGHTSCF
|  2> % maxcore 2000
|  3> % mp2 density relaxed end
|  4> *xyz 0 1
|  5>  O       -0.0269355611     0.0507309344     0.3990919572
|  6>  C       -0.0788920067     1.2126029083     0.1097552777
|  7>  C       -1.1926151979     2.2379539307    -0.1899505557
|  8>  C       -0.0581765518     3.2957064172    -0.0532447817
|  9>  C        0.1531127417     4.0106389723     1.2564982742
| 10>  C        1.2193401620     3.5264333210     1.8959135755
| 11>  C        1.8795870495     2.3938788687     1.1281042193
| 12>  N        0.9333746913     2.1832733529     0.0260942983
| 13>  H       -1.6570778367     2.1579512525    -1.1748981915
| 14>  H       -1.9659385129     2.2674346913     0.5798165121
| 15>  H        0.0660893663     3.9539254865    -0.9206947394
| 16>  H       -0.4618554964     4.8389349706     1.5863877270
| 17>  H        1.6128180671     3.8919147839     2.8371579314
| 18>  H        2.8795442111     2.6696764190     0.7679652750
| 19>  H        1.9798098045     1.4686380905     1.7058905706
| 20> *
| 21>
| 22>                          ****END OF INPUT****

CARTESIAN COORDINATES (ANGSTROEM)
---------------------------------
  O     -0.026936    0.050731    0.399092
  C     -0.078892    1.212603    0.109755
  C     -1.192615    2.237954   -0.189951
  C     -0.058177    3.295706   -0.053245
  C      0.153113    4.010639    1.256498
  C      1.219340    3.526433    1.895914
  C      1.879587    2.393879    1.128104
  N      0.933375    2.183273    0.026094
  H     -1.657078    2.157951   -1.174898
  H     -1.965939    2.267435    0.579817
  H      0.066089    3.953925   -0.920695
  H     -0.461855    4.838935    1.586388
  H      1.612818    3.891915    2.837158
  H      2.879544    2.669676    0.767965
  H      1.979810    1.468638    1.705891

 Total Charge           Charge          ....    0
 Multiplicity           Mult            ....    1
 Number of Electrons    NEL             ....   58
 Basis Dimension        Dim             ....  290

ORBITAL ENERGIES
----------------

  NO   OCC          E(Eh)            E(eV)
   0   2.0000     -20.536851      -558.8361
   1   2.0000     -15.577162      -423.8761
   2   2.0000     -11.351781      -308.8977
   3   2.0000     -11.283674      -307.0444
   4   2.0000     -11.275233      -306.8147
   5   2.0000     -11.250709      -306.1474
   6   2.0000     -11.249875      -306.1247
   7   2.0000     -11.245465      -306.0046
   8   2.0000      -1.396483       -38.0002
   9   2.0000      -1.287797       -35.0427
  10   2.0000      -1.086940       -29.5771
  11   2.0000      -1.042508       -28.3681
  12   2.0000      -0.923358       -25.1259
  13   2.0000      -0.870056       -23.6754
  14   2.0000      -0.765271       -20.8241
  15   2.0000      -0.725156       -19.7325
  16   2.0000      -0.702198       -19.1078
  17   2.0000      -0.670576       -18.2473
  18   2.0000      -0.650852       -17.7106
  19   2.0000      -0.616209       -16.7679
  20   2.0000      -0.586446       -15.9580
  21   2.0000      -0.557686       -15.1754
  22   2.0000      -0.539045       -14.6682
  23   2.0000      -0.531599       -14.4655
  24   2.0000      -0.511467       -13.9177
  25   2.0000      -0.506063       -13.7707
  26   2.0000      -0.429342       -11.6830
  27   2.0000      -0.393048       -10.6954
  28   2.0000      -0.369949       -10.0668
  29   0.0000       0.130423         3.5490
  30   0.0000       0.145255         3.9526
  31   0.0000       0.154387         4.2011
  32   0.0000       0.162408         4.4193
  33   0.0000       0.177420         4.8279

MULLIKEN ATOMIC CHARGES
-----------------------
   0 O :   -0.294660
   1 C :    0.165861
   2 C :   -0.234457
   3 C :    0.031378
   4 C :   -0.220523
   5 C :   -0.183931
   6 C :   -0.115823
   7 N :   -0.103092
   8 H :    0.142023
   9 H :    0.135463
  10 H :    0.119629
  11 H :    0.139499
  12 H :    0.138343
  13 H :    0.129913
  14 H :    0.150377
Sum of atomic charges:    0.0000000

LOEWDIN ATOMIC CHARGES
----------------------
   0 O :    0.129061
   1 C :   -0.404273
   2 C :   -0.183457
   3 C :   -0.206280
   4 C :   -0.145705
   5 C :   -0.148280
   6 C :   -0.238193
   7 N :    0.203001
   8 H :    0.141555
   9 H :    0.145763
  10 H :    0.142771
  11 H :    0.142156
  12 H :    0.140631
  13 H :    0.135937
  14 H :    0.145314

  Mayer bond orders larger than 0.1
B(  0-O ,  1-C ) :   2.0193 B(  1-C ,  2-C ) :   0.9132 B(  1-C ,  7-N ) :   1.0593
B(  2-C ,  3-C ) :   0.9162 B(  2-C ,  8-H ) :   0.9042 B(  2-C ,  9-H ) :   0.8991
B(  3-C ,  4-C ) :   0.9611 B(  3-C ,  7-N ) :   0.9425 B(  3-C , 10-H ) :   0.9018
B(  4-C ,  5-C ) :   1.7868 B(  4-C , 11-H ) :   0.9190 B(  5-C ,  6-C ) :   0.9546
B(  5-C , 12-H ) :   0.9197 B(  6-C ,  7-N ) :   0.9108 B(  6-C , 13-H ) :   0.9149
B(  6-C , 14-H ) :   0.9185

MP2 TOTAL ENERGY:     -362.057492063 Eh
FINAL SINGLE POINT ENERGY      -362.057492063222

DIPOLE MOMENT
-------------
                                X             Y             Z
Electronic contribution:     -0.03515      -3.25359      -1.09025
Nuclear contribution   :      0.00019       4.66788       1.31318
                        -----------------------------------------
Total Dipole Moment    :     -0.03497       1.41429       0.22292
                        -----------------------------------------
Magnitude (a.u.)       :      1.43218
Magnitude (Debye)      :      3.64032

                             ****ORCA TERMINATED NORMALLY****
TOTAL RUN TIME: 0 days 0 hours 12 minutes 33 seconds 570 msec
