                         Program Version 3.0.3 - RELEASE   -
|  1> ! RI-MP2 RIJK def2-TZVP def2-TZVP/C def2-TZVP/JK TIGHTSCF
|  2> % maxcore 2000
|  3> % mp2 density relaxed end
|  4> *xyz 0 1
|  5>  O        0.0671108485     1.2404661409    -0.3916072576
|  6>  C        0.0725699099    -0.0793861689     0.0860753722
|  7>  C        0.0398290759    -0.3055717372     1.6158024840
|  8>  O       -1.1949518846    -1.0521316754     1.4976273055
|  9>  C       -1.3169204892    -0.7465685947     0.1130119254
| 10>  C       -2.5883206481    -0.0139319894    -0.4032174474
| 11>  N       -2.7684250764    -1.1443997326    -1.3246393224
| 12>  C       -1.6850269117    -1.8723518306    -0.9007559281
| 13>  O       -1.2104934238    -2.9259351649    -1.2293766020
| 14>  H        0.9671310282     1.4947867304    -0.6145612896
| 15>  H        0.8139368832    -0.7016645002    -0.4273270173
| 16>  H        0.8410607526    -0.9092639517     2.0541876740
| 17>  H       -0.0929150367     0.6216359982     2.1859534202
| 18>  H       -3.3689722169     0.0761082750     0.3574728930
| 19>  H       -2.4017768835     0.9473482550    -0.8876569442
| 20>  H       -3.4075781174    -1.2892938039    -2.0915176458
| 21> *
| 22>
| 23>                          ****END OF INPUT****

CARTESIAN COORDINATES (ANGSTROEM)
---------------------------------
  O      0.067111    1.240466   -0.391607
  C      0.072570   -0.079386    0.086075
  C      0.039829   -0.305572    1.615802
  O     -1.194952   -1.052132    1.497627
  C     -1.316920   -0.746569    0.113012
  C     -2.588321   -0.013932   -0.403217
  N     -2.768425   -1.144400   -1.324639
  C     -1.685027   -1.872352   -0.900756
  O     -1.210493   -2.925935   -1.229377
  H      0.967131    1.494787   -0.614561
  H      0.813937   -0.701665   -0.427327
  H      0.841061   -0.909264    2.054188
  H     -0.092915    0.621636    2.185953
  H     -3.368972    0.076108    0.357473
  H     -2.401777    0.947348   -0.887657
  H     -3.407578   -1.289294   -2.091518

 Total Charge           Charge          ....    0
 Multiplicity           Mult            ....    1
 Number of Electrons    NEL             ....   68
 Basis Dimension        Dim             ....  321

ORBITAL ENERGIES
----------------

  NO   OCC          E(Eh)            E(eV)
   0   2.0000     -20.586363      -560.1834
   1   2.0000     -20.571025      -559.7661
   2   2.0000     -20.529027      -558.6232
   3   2.0000     -15.588905      -424.1957
   4   2.0000     -11.350716      -308.8687
   5   2.0000     -11.310117      -307.7639
   6   2.0000     -11.308485      -307.7195
   7   2.0000     -11.291997      -307.2709
   8   2.0000     -11.277316      -306.8714
   9   2.0000      -1.418097       -38.5884
  10   2.0000      -1.389341       -37.8059
  11   2.0000      -1.380072       -37.5537
  12   2.0000      -1.267265       -34.4840
  13   2.0000      -1.018706       -27.7204
  14   2.0000      -0.986208       -26.8361
  15   2.0000      -0.907678       -24.6992
  16   2.0000      -0.852471       -23.1969
  17   2.0000      -0.745106       -20.2754
  18   2.0000      -0.740753       -20.1569
  19   2.0000      -0.685602       -18.6562
  20   2.0000      -0.679544       -18.4913
  21   2.0000      -0.674189       -18.3456
  22   2.0000      -0.638899       -17.3853
  23   2.0000      -0.624935       -17.0054
  24   2.0000      -0.602751       -16.4017
  25   2.0000      -0.562094       -15.2953
  26   2.0000      -0.558003       -15.1840
  27   2.0000      -0.547411       -14.8958
  28   2.0000      -0.537061       -14.6142
  29   2.0000      -0.492275       -13.3955
  30   2.0000      -0.461786       -12.5658
  31   2.0000      -0.442621       -12.0443
  32   2.0000      -0.402324       -10.9478
  33   2.0000      -0.397383       -10.8133
  34   0.0000       0.118317         3.2196
  35   0.0000       0.141581         3.8526
  36   0.0000       0.155897         4.2422
  37   0.0000       0.170429         4.6376
  38   0.0000       0.175599         4.7783

MULLIKEN ATOMIC CHARGES
-----------------------
   0 O :   -0.462240
   1 C :   -0.023418
   2 C :   -0.025719
   3 O :   -0.319966
   4 C :    0.240115
   5 C :   -0.123740
   6 N :   -0.323247
   7 C :    0.184249
   8 O :   -0.311414
   9 H :    0.330295
  10 H :    0.120160
  11 H :    0.110458
  12 H :    0.094963
  13 H :    0.124252
  14 H :    0.146563
  15 H :    0.238688
Sum of atomic charges:   -0.0000000

LOEWDIN ATOMIC CHARGES
----------------------
   0 O :   -0.003289
   1 C :   -0.295890
   2 C :   -0.242398
   3 O :    0.177825
   4 C :   -0.250475
   5 C :   -0.201040
   6 N :    0.129929
   7 C :   -0.415406
   8 O :    0.108659
   9 H :    0.181409
  10 H :    0.140403
  11 H :    0.119360
  12 H :    0.121618
  13 H :    0.128840
  14 H :    0.129817
  15 H :    0.170637

  Mayer bond orders larger than 0.1
B(  0-O ,  1-C ) :   1.0716 B(  0-O ,  9-H ) :   0.8384 B(  1-C ,  2-C ) :   0.9754
B(  1-C ,  4-C ) :   0.8880 B(  1-C , 10-H ) :   0.9259 B(  2-C ,  3-O ) :   0.9426
B(  2-C , 11-H ) :   0.9120 B(  2-C , 12-H ) :   0.8981 B(  3-O ,  4-C ) :   0.9729
B(  4-C ,  5-C ) :   0.8769 B(  4-C ,  7-C ) :   0.7980 B(  5-C ,  6-N ) :   0.9068
B(  5-C , 13-H ) :   0.9244 B(  5-C , 14-H ) :   0.9128 B(  6-N ,  7-C ) :   1.1777
B(  6-N , 15-H ) :   0.8580 B(  7-C ,  8-O ) :   2.0282

MP2 TOTAL ENERGY:     -474.259489435 Eh
FINAL SINGLE POINT ENERGY      -474.259489434565

DIPOLE MOMENT
-------------
                                X             Y             Z
Electronic contribution:     -1.02156      -3.63661      -1.45286
Nuclear contribution   :      1.33222       5.08951       1.23955
                        -----------------------------------------
Total Dipole Moment    :      0.31065       1.45290      -0.21331
                        -----------------------------------------
Magnitude (a.u.)       :      1.50097
Magnitude (Debye)      :      3.81517

                             ****ORCA TERMINATED NORMALLY****
TOTAL RUN TIME: 0 days 0 hours 15 minutes 56 seconds 762 msec
