                         Program Version 3.0.3 - RELEASE   -
|  1> ! RI-MP2 RIJK def2-TZVP def2-TZVP/C def2-TZVP/JK TIGHTSCF
|  2> % maxcore 2000
|  3> % mp2 density relaxed end
|  4> *xyz 0 1
|  5>  C        0.9308870828    -0.3366630071     1.2994921970
|  6>  C        0.1282000449     0.0974681370     0.0696602854
|  7>  C        0.7392745588    -0.3876807006    -1.2581823614
|  8>  C        0.8101787187    -1.9113171905    -1.4174502300
|  9>  C       -0.4730747507    -2.7039189757    -1.4898535904
| 10>  C        0.2172636448    -2.2664393629    -2.7680254325
| 11>  C       -0.2548936843    -0.9692975179    -3.3291879007
| 12>  C       -0.0178528258     0.0605060500    -2.5084667459
| 13>  C       -0.4088801416     1.4885431903    -2.7282751747
| 14>  H        0.9687483162    -1.4273507955     1.3841132147
| 15>  H        1.9629136981     0.0292532613     1.2475895267
| 16>  H        0.4863242206     0.0535419565     2.2204376528
| 17>  H       -0.9006764016    -0.2745546582     0.1508625598
| 18>  H        0.0585064128     1.1921677231     0.0528146760
| 19>  H        1.7627848047     0.0202676262    -1.3053982783
| 20>  H        1.6898106855    -2.4276328688    -1.0518485414
| 21>  H       -0.4109657280    -3.7522704213    -1.2150891217
| 22>  H       -1.4148286960    -2.2268217517    -1.2391745044
| 23>  H        0.6531641050    -3.0192115310    -3.4160138718
| 24>  H       -0.7636818812    -0.8919621427    -4.2847126293
| 25>  H       -0.8662445713     1.6287691457    -3.7116778060
| 26>  H       -1.1254144358     1.8371770941    -1.9739351224
| 27>  H        0.4614695033     2.1546473595    -2.6595299112
| 28> *
| 29>
| 30>                          ****END OF INPUT****

CARTESIAN COORDINATES (ANGSTROEM)
---------------------------------
  C      0.930887   -0.336663    1.299492
  C      0.128200    0.097468    0.069660
  C      0.739275   -0.387681   -1.258182
  C      0.810179   -1.911317   -1.417450
  C     -0.473075   -2.703919   -1.489854
  C      0.217264   -2.266439   -2.768025
  C     -0.254894   -0.969298   -3.329188
  C     -0.017853    0.060506   -2.508467
  C     -0.408880    1.488543   -2.728275
  H      0.968748   -1.427351    1.384113
  H      1.962914    0.029253    1.247590
  H      0.486324    0.053542    2.220438
  H     -0.900676   -0.274555    0.150863
  H      0.058506    1.192168    0.052815
  H      1.762785    0.020268   -1.305398
  H      1.689811   -2.427633   -1.051849
  H     -0.410966   -3.752270   -1.215089
  H     -1.414829   -2.226822   -1.239175
  H      0.653164   -3.019212   -3.416014
  H     -0.763682   -0.891962   -4.284713
  H     -0.866245    1.628769   -3.711678
  H     -1.125414    1.837177   -1.973935
  H      0.461470    2.154647   -2.659530

 Total Charge           Charge          ....    0
 Multiplicity           Mult            ....    1
 Number of Electrons    NEL             ....   68
 Basis Dimension        Dim             ....  363

ORBITAL ENERGIES
----------------

  NO   OCC          E(Eh)            E(eV)
   0   2.0000     -11.227006      -305.5024
   1   2.0000     -11.224087      -305.4229
   2   2.0000     -11.222882      -305.3902
   3   2.0000     -11.222137      -305.3699
   4   2.0000     -11.219791      -305.3060
   5   2.0000     -11.218523      -305.2715
   6   2.0000     -11.217042      -305.2312
   7   2.0000     -11.212297      -305.1021
   8   2.0000     -11.209941      -305.0380
   9   2.0000      -1.176941       -32.0262
  10   2.0000      -1.063875       -28.9495
  11   2.0000      -1.033305       -28.1177
  12   2.0000      -0.938205       -25.5299
  13   2.0000      -0.933924       -25.4134
  14   2.0000      -0.831754       -22.6332
  15   2.0000      -0.806040       -21.9335
  16   2.0000      -0.744811       -20.2673
  17   2.0000      -0.706958       -19.2373
  18   2.0000      -0.679243       -18.4831
  19   2.0000      -0.615700       -16.7541
  20   2.0000      -0.599938       -16.3251
  21   2.0000      -0.586346       -15.9553
  22   2.0000      -0.569050       -15.4847
  23   2.0000      -0.555646       -15.1199
  24   2.0000      -0.553678       -15.0663
  25   2.0000      -0.529971       -14.4212
  26   2.0000      -0.509436       -13.8625
  27   2.0000      -0.490148       -13.3376
  28   2.0000      -0.481265       -13.0959
  29   2.0000      -0.468849       -12.7580
  30   2.0000      -0.447068       -12.1653
  31   2.0000      -0.432260       -11.7624
  32   2.0000      -0.393921       -10.7191
  33   2.0000      -0.317306        -8.6343
  34   0.0000       0.136118         3.7039
  35   0.0000       0.152153         4.1403
  36   0.0000       0.154903         4.2151
  37   0.0000       0.166658         4.5350
  38   0.0000       0.180939         4.9236

MULLIKEN ATOMIC CHARGES
-----------------------
   0 C :   -0.413336
   1 C :   -0.204280
   2 C :    0.000549
   3 C :   -0.131295
   4 C :   -0.295807
   5 C :   -0.036514
   6 C :   -0.210983
   7 C :   -0.005304
   8 C :   -0.458034
   9 H :    0.135866
  10 H :    0.121934
  11 H :    0.133554
  12 H :    0.104054
  13 H :    0.112640
  14 H :    0.091554
  15 H :    0.130218
  16 H :    0.125858
  17 H :    0.133965
  18 H :    0.125650
  19 H :    0.119305
  20 H :    0.138290
  21 H :    0.145072
  22 H :    0.137043
Sum of atomic charges:   -0.0000000

LOEWDIN ATOMIC CHARGES
----------------------
   0 C :   -0.316371
   1 C :   -0.264177
   2 C :   -0.188885
   3 C :   -0.165092
   4 C :   -0.199462
   5 C :   -0.185696
   6 C :   -0.122052
   7 C :   -0.159691
   8 C :   -0.276695
   9 H :    0.122643
  10 H :    0.120414
  11 H :    0.120290
  12 H :    0.137363
  13 H :    0.136202
  14 H :    0.160455
  15 H :    0.143105
  16 H :    0.132302
  17 H :    0.133762
  18 H :    0.142139
  19 H :    0.138792
  20 H :    0.130508
  21 H :    0.129649
  22 H :    0.130496

  Mayer bond orders larger than 0.1
B(  0-C ,  1-C ) :   0.9172 B(  0-C ,  9-H ) :   0.9413 B(  0-C , 10-H ) :   0.9380
B(  0-C , 11-H ) :   0.9418 B(  1-C ,  2-C ) :   0.8692 B(  1-C , 12-H ) :   0.9254
B(  1-C , 13-H ) :   0.9347 B(  2-C ,  3-C ) :   0.9175 B(  2-C ,  7-C ) :   0.9652
B(  2-C , 14-H ) :   0.8982 B(  3-C ,  4-C ) :   0.8860 B(  3-C ,  5-C ) :   0.8765
B(  3-C , 15-H ) :   0.9296 B(  4-C ,  5-C ) :   0.8655 B(  4-C , 16-H ) :   0.9266
B(  4-C , 17-H ) :   0.9274 B(  5-C ,  6-C ) :   0.9358 B(  5-C , 18-H ) :   0.9264
B(  6-C ,  7-C ) :   1.7624 B(  6-C , 19-H ) :   0.9284 B(  7-C ,  8-C ) :   0.8882
B(  8-C , 20-H ) :   0.9445 B(  8-C , 21-H ) :   0.9323 B(  8-C , 22-H ) :   0.9346

MP2 TOTAL ENERGY:     -350.511482072 Eh
FINAL SINGLE POINT ENERGY      -350.511482071956

DIPOLE MOMENT
-------------
                                X             Y             Z
Electronic contribution:      0.07683      -2.97520      -5.06090
Nuclear contribution   :     -0.03119       3.04897       5.12751
                        -----------------------------------------
Total Dipole Moment    :      0.04564       0.07377       0.06661
                        -----------------------------------------
Magnitude (a.u.)       :      0.10937
Magnitude (Debye)      :      0.27799

                             ****ORCA TERMINATED NORMALLY****
TOTAL RUN TIME: 0 days 0 hours 37 minutes 4 seconds 306 msec
