                         Program Version 3.0.3 - RELEASE   -
|  1> ! RI-MP2 RIJK def2-TZVP def2-TZVP/C def2-TZVP/JK TIGHTSCF
|  2> % maxcore 2000
|  3> % mp2 density relaxed end
|  4> *xyz 0 1
|  5>  O       -0.0443537416     0.0754281995    -0.0101702924
|  6>  C        0.0411446199     1.2520903817     0.0496192618
|  7>  O       -0.9906884965     2.1821874438     0.2112111308
|  8>  C       -0.0615588400     3.2631262980    -0.0070628979
|  9>  C        0.9498492121     3.3080854771     1.0962657242
| 10>  C        0.6610630877     2.8910993031     2.4439928273
| 11>  N        0.4441801326     2.5744645991     3.5338409280
| 12>  C        1.1067225533     2.3208683288    -0.0827497091
| 13>  H       -0.3776507590     4.0878516548    -0.6291579543
| 14>  H        1.6516366074     4.1358984328     1.0290014273
| 15>  H        1.9958873440     2.2938838012    -0.6946689557
| 16> *
| 17>
| 18>                          ****END OF INPUT****

CARTESIAN COORDINATES (ANGSTROEM)
---------------------------------
  O     -0.044354    0.075428   -0.010170
  C      0.041145    1.252090    0.049619
  O     -0.990688    2.182187    0.211211
  C     -0.061559    3.263126   -0.007063
  C      0.949849    3.308085    1.096266
  C      0.661063    2.891099    2.443993
  N      0.444180    2.574465    3.533841
  C      1.106723    2.320868   -0.082750
  H     -0.377651    4.087852   -0.629158
  H      1.651637    4.135898    1.029001
  H      1.995887    2.293884   -0.694669

 Total Charge           Charge          ....    0
 Multiplicity           Mult            ....    1
 Number of Electrons    NEL             ....   56
 Basis Dimension        Dim             ....  266

ORBITAL ENERGIES
----------------

  NO   OCC          E(Eh)            E(eV)
   0   2.0000     -20.632001      -561.4253
   1   2.0000     -20.584858      -560.1425
   2   2.0000     -15.591930      -424.2780
   3   2.0000     -11.418924      -310.7247
   4   2.0000     -11.364502      -309.2438
   5   2.0000     -11.337383      -308.5059
   6   2.0000     -11.314021      -307.8702
   7   2.0000     -11.294426      -307.3370
   8   2.0000      -1.500376       -40.8273
   9   2.0000      -1.417562       -38.5738
  10   2.0000      -1.242031       -33.7974
  11   2.0000      -1.195677       -32.5360
  12   2.0000      -0.981491       -26.7077
  13   2.0000      -0.924549       -25.1582
  14   2.0000      -0.796390       -21.6709
  15   2.0000      -0.772907       -21.0319
  16   2.0000      -0.755865       -20.5681
  17   2.0000      -0.701005       -19.0753
  18   2.0000      -0.668760       -18.1979
  19   2.0000      -0.633451       -17.2371
  20   2.0000      -0.595915       -16.2157
  21   2.0000      -0.581079       -15.8120
  22   2.0000      -0.577426       -15.7125
  23   2.0000      -0.516828       -14.0636
  24   2.0000      -0.497083       -13.5263
  25   2.0000      -0.480267       -13.0687
  26   2.0000      -0.464487       -12.6393
  27   2.0000      -0.447238       -12.1700
  28   0.0000       0.106115         2.8875
  29   0.0000       0.121432         3.3043
  30   0.0000       0.138637         3.7725
  31   0.0000       0.150486         4.0949
  32   0.0000       0.170072         4.6279

MULLIKEN ATOMIC CHARGES
-----------------------
   0 O :   -0.220941
   1 C :    0.298067
   2 O :   -0.248573
   3 C :    0.107860
   4 C :   -0.068082
   5 C :   -0.151037
   6 N :   -0.040551
   7 C :   -0.203185
   8 H :    0.175170
   9 H :    0.171678
  10 H :    0.179595
Sum of atomic charges:   -0.0000000

LOEWDIN ATOMIC CHARGES
----------------------
   0 O :    0.198087
   1 C :   -0.410134
   2 O :    0.254638
   3 C :   -0.180095
   4 C :   -0.162477
   5 C :   -0.165864
   6 N :    0.089296
   7 C :   -0.106758
   8 H :    0.145978
   9 H :    0.183428
  10 H :    0.153901

  Mayer bond orders larger than 0.1
B(  0-O ,  1-C ) :   2.0718 B(  1-C ,  2-O ) :   1.0162 B(  1-C ,  7-C ) :   0.9353
B(  2-O ,  3-C ) :   0.9271 B(  3-C ,  4-C ) :   0.8743 B(  3-C ,  7-C ) :   0.8404
B(  3-C ,  8-H ) :   0.9129 B(  4-C ,  5-C ) :   0.9698 B(  4-C ,  7-C ) :   0.8237
B(  4-C ,  9-H ) :   0.9012 B(  5-C ,  6-N ) :   2.8174 B(  7-C , 10-H ) :   0.8983

MP2 TOTAL ENERGY:     -396.740811932 Eh
FINAL SINGLE POINT ENERGY      -396.740811931567

DIPOLE MOMENT
-------------
                                X             Y             Z
Electronic contribution:     -1.40428      -2.05634       1.22322
Nuclear contribution   :      2.39252       3.66243      -2.72168
                        -----------------------------------------
Total Dipole Moment    :      0.98824       1.60609      -1.49846
                        -----------------------------------------
Magnitude (a.u.)       :      2.40863
Magnitude (Debye)      :      6.12226

                             ****ORCA TERMINATED NORMALLY****
TOTAL RUN TIME: 0 days 0 hours 9 minutes 17 seconds 358 msec
