                         Program Version 3.0.3 - RELEASE   -
|  1> ! RI-MP2 RIJK def2-TZVP def2-TZVP/C def2-TZVP/JK TIGHTSCF
|  2> % maxcore 2000
|  3> % mp2 density relaxed end
|  4> *xyz 0 1
|  5>  C        0.2944435632     1.0670470211    -0.4099103752
|  6>  C        0.3702329177    -0.4221366398    -0.0604131019
|  7>  C        0.7678747210    -0.7129400468     1.3991800848
|  8>  C       -0.1794915590    -0.0995774310     2.4522225722
|  9>  C       -1.6463185280    -0.5407513327     2.3734272788
| 10>  C        0.9326329355    -2.2445027657     1.5780563916
| 11>  C        1.4395977241    -2.6233334686     2.8950926817
| 12>  N        1.8439154123    -2.9052805855     3.9406799543
| 13>  H        1.2369185640     1.5765547790    -0.1802469571
| 14>  H        0.0950215906     1.2037473914    -1.4770088157
| 15>  H       -0.5015663904     1.5772408298     0.1405098980
| 16>  H       -0.5912423274    -0.9020621446    -0.2841274509
| 17>  H        1.1040300235    -0.9044325489    -0.7190310252
| 18>  H        1.7579421022    -0.2681310139     1.5666433944
| 19>  H        0.2146169257    -0.3378940092     3.4467933070
| 20>  H       -0.1280316097     0.9912419707     2.3660097136
| 21>  H       -2.2297497240    -0.0544194410     3.1607436100
| 22>  H       -2.1060041978    -0.2766121323     1.4157107185
| 23>  H       -1.7611291241    -1.6209508953     2.5115396830
| 24>  H       -0.0233594445    -2.7552581362     1.4149858730
| 25>  H        1.6241511551    -2.6328116505     0.8216738651
| 26> *
| 27>
| 28>                          ****END OF INPUT****

CARTESIAN COORDINATES (ANGSTROEM)
---------------------------------
  C      0.294444    1.067047   -0.409910
  C      0.370233   -0.422137   -0.060413
  C      0.767875   -0.712940    1.399180
  C     -0.179492   -0.099577    2.452223
  C     -1.646319   -0.540751    2.373427
  C      0.932633   -2.244503    1.578056
  C      1.439598   -2.623333    2.895093
  N      1.843915   -2.905281    3.940680
  H      1.236919    1.576555   -0.180247
  H      0.095022    1.203747   -1.477009
  H     -0.501566    1.577241    0.140510
  H     -0.591242   -0.902062   -0.284127
  H      1.104030   -0.904433   -0.719031
  H      1.757942   -0.268131    1.566643
  H      0.214617   -0.337894    3.446793
  H     -0.128032    0.991242    2.366010
  H     -2.229750   -0.054419    3.160744
  H     -2.106004   -0.276612    1.415711
  H     -1.761129   -1.620951    2.511540
  H     -0.023359   -2.755258    1.414986
  H      1.624151   -2.632812    0.821674

 Total Charge           Charge          ....    0
 Multiplicity           Mult            ....    1
 Number of Electrons    NEL             ....   62
 Basis Dimension        Dim             ....  326

ORBITAL ENERGIES
----------------

  NO   OCC          E(Eh)            E(eV)
   0   2.0000     -15.564154      -423.5222
   1   2.0000     -11.276730      -306.8554
   2   2.0000     -11.269215      -306.6509
   3   2.0000     -11.252939      -306.2080
   4   2.0000     -11.236843      -305.7700
   5   2.0000     -11.230287      -305.5916
   6   2.0000     -11.225878      -305.4717
   7   2.0000     -11.223115      -305.3965
   8   2.0000      -1.215058       -33.0634
   9   2.0000      -1.123998       -30.5855
  10   2.0000      -1.026554       -27.9340
  11   2.0000      -1.019610       -27.7450
  12   2.0000      -0.915974       -24.9249
  13   2.0000      -0.862636       -23.4735
  14   2.0000      -0.769815       -20.9477
  15   2.0000      -0.692692       -18.8491
  16   2.0000      -0.669600       -18.2208
  17   2.0000      -0.647805       -17.6277
  18   2.0000      -0.610944       -16.6246
  19   2.0000      -0.576496       -15.6873
  20   2.0000      -0.572385       -15.5754
  21   2.0000      -0.567905       -15.4535
  22   2.0000      -0.552201       -15.0261
  23   2.0000      -0.528556       -14.3827
  24   2.0000      -0.515318       -14.0225
  25   2.0000      -0.509481       -13.8637
  26   2.0000      -0.487612       -13.2686
  27   2.0000      -0.470947       -12.8151
  28   2.0000      -0.466518       -12.6946
  29   2.0000      -0.450688       -12.2638
  30   2.0000      -0.443961       -12.0808
  31   0.0000       0.118838         3.2337
  32   0.0000       0.140702         3.8287
  33   0.0000       0.148728         4.0471
  34   0.0000       0.158450         4.3117
  35   0.0000       0.179388         4.8814

MULLIKEN ATOMIC CHARGES
-----------------------
   0 C :   -0.408653
   1 C :   -0.221125
   2 C :   -0.042787
   3 C :   -0.241603
   4 C :   -0.437873
   5 C :   -0.158045
   6 C :   -0.189756
   7 N :   -0.056749
   8 H :    0.130122
   9 H :    0.140873
  10 H :    0.134252
  11 H :    0.121197
  12 H :    0.116462
  13 H :    0.107618
  14 H :    0.148984
  15 H :    0.129729
  16 H :    0.144113
  17 H :    0.130234
  18 H :    0.130497
  19 H :    0.163117
  20 H :    0.159393
Sum of atomic charges:    0.0000000

LOEWDIN ATOMIC CHARGES
----------------------
   0 C :   -0.314571
   1 C :   -0.272550
   2 C :   -0.247552
   3 C :   -0.269031
   4 C :   -0.315484
   5 C :   -0.226623
   6 C :   -0.194986
   7 N :    0.052647
   8 H :    0.123533
   9 H :    0.123668
  10 H :    0.121237
  11 H :    0.137756
  12 H :    0.139031
  13 H :    0.160249
  14 H :    0.146744
  15 H :    0.140050
  16 H :    0.125933
  17 H :    0.120130
  18 H :    0.120773
  19 H :    0.163858
  20 H :    0.165188

  Mayer bond orders larger than 0.1
B(  0-C ,  1-C ) :   0.9185 B(  0-C ,  8-H ) :   0.9379 B(  0-C ,  9-H ) :   0.9407
B(  0-C , 10-H ) :   0.9400 B(  1-C ,  2-C ) :   0.9139 B(  1-C , 11-H ) :   0.9287
B(  1-C , 12-H ) :   0.9327 B(  2-C ,  3-C ) :   0.8998 B(  2-C ,  5-C ) :   0.8941
B(  2-C , 13-H ) :   0.9255 B(  3-C ,  4-C ) :   0.9106 B(  3-C , 14-H ) :   0.9292
B(  3-C , 15-H ) :   0.9355 B(  4-C , 16-H ) :   0.9390 B(  4-C , 17-H ) :   0.9370
B(  4-C , 18-H ) :   0.9364 B(  5-C ,  6-C ) :   0.9390 B(  5-C , 19-H ) :   0.9110
B(  5-C , 20-H ) :   0.9049 B(  6-C ,  7-N ) :   2.8835

MP2 TOTAL ENERGY:     -328.566248425 Eh
FINAL SINGLE POINT ENERGY      -328.566248424613

DIPOLE MOMENT
-------------
                                X             Y             Z
Electronic contribution:      5.92670      -7.53931       6.40129
Nuclear contribution   :     -6.51543       8.15534      -7.77837
                        -----------------------------------------
Total Dipole Moment    :     -0.58873       0.61603      -1.37708
                        -----------------------------------------
Magnitude (a.u.)       :      1.61940
Magnitude (Debye)      :      4.11618

                             ****ORCA TERMINATED NORMALLY****
TOTAL RUN TIME: 0 days 0 hours 14 minutes 53 seconds 25 msec
