                         Program Version 3.0.3 - RELEASE   -
|  1> ! RI-MP2 RIJK def2-TZVP def2-TZVP/C def2-TZVP/JK TIGHTSCF
|  2> % maxcore 2000
|  3> % mp2 density relaxed end
|  4> *xyz 0 1
|  5>  C        0.7604981802     1.4088909224    -1.0874528670
|  6>  C        0.3917157936    -0.0460433296    -0.8112972183
|  7>  C       -0.9198770043    -0.3992987368    -1.5199931432
|  8>  C        1.5030622501    -1.1116305449    -1.1019457716
|  9>  C        1.3239347194    -1.7175901515     0.3220234040
| 10>  C        0.9520895734    -3.1822659531     0.4112854935
| 11>  C        2.3468558806    -1.1701546745     1.3562783485
| 12>  C        1.4073299212     0.0346417964     1.6584194844
| 13>  C        0.3458721653    -0.5289594350     0.6745811233
| 14>  H        1.7246983506     1.6830282149    -0.6495481925
| 15>  H        0.8317456494     1.5881775475    -2.1669306681
| 16>  H        0.0035566461     2.0945348290    -0.6881483452
| 17>  H       -0.8232759424    -0.2821946775    -2.6058447647
| 18>  H       -1.2158288283    -1.4349008028    -1.3215780038
| 19>  H       -1.7360751615     0.2499098919    -1.1814608970
| 20>  H        1.2661047807    -1.7938659924    -1.9244968131
| 21>  H        2.4974898296    -0.6926464931    -1.2867021997
| 22>  H        1.7974688178    -3.8186713682     0.1190171637
| 23>  H        0.6674376489    -3.4604153194     1.4326689048
| 24>  H        0.1128144933    -3.4296420422    -0.2485899774
| 25>  H        2.4770994513    -1.8341520375     2.2161334496
| 26>  H        3.3391235553    -0.9313299715     0.9608979194
| 27>  H        1.0593258651     0.0656303538     2.6937404498
| 28>  H        1.8060061081     1.0225899809     1.4163976818
| 29>  H       -0.6534695034    -0.6844922969     1.0897834887
| 30> *
| 31>
| 32>                          ****END OF INPUT****

CARTESIAN COORDINATES (ANGSTROEM)
---------------------------------
  C      0.760498    1.408891   -1.087453
  C      0.391716   -0.046043   -0.811297
  C     -0.919877   -0.399299   -1.519993
  C      1.503062   -1.111631   -1.101946
  C      1.323935   -1.717590    0.322023
  C      0.952090   -3.182266    0.411285
  C      2.346856   -1.170155    1.356278
  C      1.407330    0.034642    1.658419
  C      0.345872   -0.528959    0.674581
  H      1.724698    1.683028   -0.649548
  H      0.831746    1.588178   -2.166931
  H      0.003557    2.094535   -0.688148
  H     -0.823276   -0.282195   -2.605845
  H     -1.215829   -1.434901   -1.321578
  H     -1.736075    0.249910   -1.181461
  H      1.266105   -1.793866   -1.924497
  H      2.497490   -0.692646   -1.286702
  H      1.797469   -3.818671    0.119017
  H      0.667438   -3.460415    1.432669
  H      0.112814   -3.429642   -0.248590
  H      2.477099   -1.834152    2.216133
  H      3.339124   -0.931330    0.960898
  H      1.059326    0.065630    2.693740
  H      1.806006    1.022590    1.416398
  H     -0.653470   -0.684492    1.089783

 Total Charge           Charge          ....    0
 Multiplicity           Mult            ....    1
 Number of Electrons    NEL             ....   70
 Basis Dimension        Dim             ....  375

ORBITAL ENERGIES
----------------

  NO   OCC          E(Eh)            E(eV)
   0   2.0000     -11.227846      -305.5252
   1   2.0000     -11.223777      -305.4145
   2   2.0000     -11.213201      -305.1267
   3   2.0000     -11.212639      -305.1114
   4   2.0000     -11.211710      -305.0861
   5   2.0000     -11.209576      -305.0281
   6   2.0000     -11.209131      -305.0160
   7   2.0000     -11.208927      -305.0104
   8   2.0000     -11.206900      -304.9553
   9   2.0000      -1.163753       -31.6673
  10   2.0000      -1.050623       -28.5889
  11   2.0000      -0.987042       -26.8588
  12   2.0000      -0.931258       -25.3408
  13   2.0000      -0.924929       -25.1686
  14   2.0000      -0.886757       -24.1299
  15   2.0000      -0.818039       -22.2600
  16   2.0000      -0.746898       -20.3241
  17   2.0000      -0.678304       -18.4576
  18   2.0000      -0.639612       -17.4047
  19   2.0000      -0.629465       -17.1286
  20   2.0000      -0.610043       -16.6001
  21   2.0000      -0.578419       -15.7396
  22   2.0000      -0.566310       -15.4101
  23   2.0000      -0.554433       -15.0869
  24   2.0000      -0.551571       -15.0090
  25   2.0000      -0.541954       -14.7473
  26   2.0000      -0.529294       -14.4028
  27   2.0000      -0.515981       -14.0406
  28   2.0000      -0.489910       -13.3311
  29   2.0000      -0.474510       -12.9121
  30   2.0000      -0.453553       -12.3418
  31   2.0000      -0.426729       -11.6119
  32   2.0000      -0.421203       -11.4615
  33   2.0000      -0.392620       -10.6837
  34   2.0000      -0.378178       -10.2908
  35   0.0000       0.131984         3.5915
  36   0.0000       0.153122         4.1667
  37   0.0000       0.163761         4.4561
  38   0.0000       0.169059         4.6003
  39   0.0000       0.193131         5.2554

MULLIKEN ATOMIC CHARGES
-----------------------
   0 C :   -0.423248
   1 C :    0.138234
   2 C :   -0.451728
   3 C :   -0.294203
   4 C :    0.144650
   5 C :   -0.421362
   6 C :   -0.281325
   7 C :   -0.266179
   8 C :   -0.067793
   9 H :    0.125638
  10 H :    0.130079
  11 H :    0.129364
  12 H :    0.129061
  13 H :    0.132047
  14 H :    0.126149
  15 H :    0.117772
  16 H :    0.105295
  17 H :    0.130457
  18 H :    0.125788
  19 H :    0.124373
  20 H :    0.110536
  21 H :    0.104531
  22 H :    0.111343
  23 H :    0.118688
  24 H :    0.101832
Sum of atomic charges:   -0.0000000

LOEWDIN ATOMIC CHARGES
----------------------
   0 C :   -0.277482
   1 C :   -0.280420
   2 C :   -0.271925
   3 C :   -0.153427
   4 C :   -0.229304
   5 C :   -0.281901
   6 C :   -0.200578
   7 C :   -0.216118
   8 C :   -0.128204
   9 H :    0.121367
  10 H :    0.126743
  11 H :    0.126161
  12 H :    0.124239
  13 H :    0.125406
  14 H :    0.124701
  15 H :    0.133198
  16 H :    0.132691
  17 H :    0.127825
  18 H :    0.124963
  19 H :    0.123435
  20 H :    0.131529
  21 H :    0.125387
  22 H :    0.130034
  23 H :    0.126838
  24 H :    0.134843

  Mayer bond orders larger than 0.1
B(  0-C ,  1-C ) :   0.8852 B(  0-C ,  9-H ) :   0.9359 B(  0-C , 10-H ) :   0.9384
B(  0-C , 11-H ) :   0.9404 B(  1-C ,  2-C ) :   0.8832 B(  1-C ,  3-C ) :   0.9236
B(  1-C ,  8-C ) :   0.8940 B(  2-C , 12-H ) :   0.9407 B(  2-C , 13-H ) :   0.9364
B(  2-C , 14-H ) :   0.9387 B(  3-C ,  4-C ) :   0.9076 B(  3-C , 15-H ) :   0.9193
B(  3-C , 16-H ) :   0.8938 B(  4-C ,  5-C ) :   0.8759 B(  4-C ,  6-C ) :   0.9017
B(  4-C ,  8-C ) :   0.9112 B(  5-C , 17-H ) :   0.9384 B(  5-C , 18-H ) :   0.9412
B(  5-C , 19-H ) :   0.9398 B(  6-C ,  7-C ) :   0.9834 B(  6-C , 20-H ) :   0.9170
B(  6-C , 21-H ) :   0.9153 B(  7-C ,  8-C ) :   0.8984 B(  7-C , 22-H ) :   0.9180
B(  7-C , 23-H ) :   0.9298 B(  8-C , 24-H ) :   0.9136

MP2 TOTAL ENERGY:     -351.696151776 Eh
FINAL SINGLE POINT ENERGY      -351.696151775751

DIPOLE MOMENT
-------------
                                X             Y             Z
Electronic contribution:      1.00646      -0.24705       1.61865
Nuclear contribution   :     -1.03369       0.22429      -1.60847
                        -----------------------------------------
Total Dipole Moment    :     -0.02723      -0.02277       0.01018
                        -----------------------------------------
Magnitude (a.u.)       :      0.03692
Magnitude (Debye)      :      0.09385

                             ****ORCA TERMINATED NORMALLY****
TOTAL RUN TIME: 0 days 0 hours 26 minutes 29 seconds 770 msec
