                         Program Version 3.0.3 - RELEASE   -
|  1> ! RI-MP2 RIJK def2-TZVP def2-TZVP/C def2-TZVP/JK TIGHTSCF
|  2> % maxcore 2000
|  3> % mp2 density relaxed end
|  4> *xyz 0 1
|  5>  N       -0.0024690429     1.3682800337     0.0893380770
|  6>  C       -0.0321425748     0.0174136647    -0.0011396448
|  7>  N       -1.1419160341    -0.6344603615     0.0138178790
|  8>  C       -1.1335947580    -1.9953097147    -0.0204206326
|  9>  C       -2.1930222744    -2.8680876938    -0.0616863417
| 10>  N       -3.5546507118    -2.6102452124    -0.1584521048
| 11>  N       -1.6772267766    -4.1318533451    -0.0677979591
| 12>  N       -0.4085580100    -4.1019073870    -0.0346959646
| 13>  O       -0.0058044554    -2.7414980709    -0.0103827594
| 14>  H        0.8431010885     1.8673019502    -0.1220425707
| 15>  H       -0.8739295170     1.8707423713     0.0271648642
| 16>  H        0.9502341296    -0.4573958111    -0.0585851885
| 17>  H       -3.7885599346    -1.6830595018     0.1713806264
| 18>  H       -4.1152338983    -3.3151988915     0.3021787796
| 19> *
| 20>
| 21>                          ****END OF INPUT****

CARTESIAN COORDINATES (ANGSTROEM)
---------------------------------
  N     -0.002469    1.368280    0.089338
  C     -0.032143    0.017414   -0.001140
  N     -1.141916   -0.634460    0.013818
  C     -1.133595   -1.995310   -0.020421
  C     -2.193022   -2.868088   -0.061686
  N     -3.554651   -2.610245   -0.158452
  N     -1.677227   -4.131853   -0.067798
  N     -0.408558   -4.101907   -0.034696
  O     -0.005804   -2.741498   -0.010383
  H      0.843101    1.867302   -0.122043
  H     -0.873930    1.870742    0.027165
  H      0.950234   -0.457396   -0.058585
  H     -3.788560   -1.683060    0.171381
  H     -4.115234   -3.315199    0.302179

 Total Charge           Charge          ....    0
 Multiplicity           Mult            ....    1
 Number of Electrons    NEL             ....   66
 Basis Dimension        Dim             ....  309

ORBITAL ENERGIES
----------------

  NO   OCC          E(Eh)            E(eV)
   0   2.0000     -20.639994      -561.6428
   1   2.0000     -15.667539      -426.3354
   2   2.0000     -15.618624      -425.0044
   3   2.0000     -15.609418      -424.7539
   4   2.0000     -15.566983      -423.5992
   5   2.0000     -15.562289      -423.4714
   6   2.0000     -11.353582      -308.9467
   7   2.0000     -11.328858      -308.2739
   8   2.0000     -11.284711      -307.0726
   9   2.0000      -1.509289       -41.0698
  10   2.0000      -1.313249       -35.7353
  11   2.0000      -1.288586       -35.0642
  12   2.0000      -1.224323       -33.3155
  13   2.0000      -1.189576       -32.3700
  14   2.0000      -1.039839       -28.2955
  15   2.0000      -0.912395       -24.8275
  16   2.0000      -0.842359       -22.9217
  17   2.0000      -0.822132       -22.3714
  18   2.0000      -0.773265       -21.0416
  19   2.0000      -0.710029       -19.3209
  20   2.0000      -0.690382       -18.7863
  21   2.0000      -0.673746       -18.3336
  22   2.0000      -0.663937       -18.0666
  23   2.0000      -0.652154       -17.7460
  24   2.0000      -0.581445       -15.8219
  25   2.0000      -0.569197       -15.4886
  26   2.0000      -0.537465       -14.6252
  27   2.0000      -0.512232       -13.9386
  28   2.0000      -0.478786       -13.0284
  29   2.0000      -0.470529       -12.8037
  30   2.0000      -0.436305       -11.8725
  31   2.0000      -0.419754       -11.4221
  32   2.0000      -0.286554        -7.7975
  33   0.0000       0.090046         2.4503
  34   0.0000       0.116043         3.1577
  35   0.0000       0.143042         3.8924
  36   0.0000       0.156178         4.2498
  37   0.0000       0.174464         4.7474

MULLIKEN ATOMIC CHARGES
-----------------------
   0 N :   -0.451423
   1 C :    0.135083
   2 N :   -0.353842
   3 C :    0.260571
   4 C :    0.069121
   5 N :   -0.525652
   6 N :   -0.124379
   7 N :   -0.057215
   8 O :   -0.133807
   9 H :    0.269082
  10 H :    0.266051
  11 H :    0.129501
  12 H :    0.256013
  13 H :    0.260896
Sum of atomic charges:   -0.0000000

LOEWDIN ATOMIC CHARGES
----------------------
   0 N :   -0.026057
   1 C :   -0.307496
   2 N :    0.091701
   3 C :   -0.383160
   4 C :   -0.357089
   5 N :   -0.075717
   6 N :    0.019552
   7 N :   -0.037010
   8 O :    0.245192
   9 H :    0.173604
  10 H :    0.176158
  11 H :    0.130753
  12 H :    0.174357
  13 H :    0.175211

  Mayer bond orders larger than 0.1
B(  0-N ,  1-C ) :   1.1696 B(  0-N ,  9-H ) :   0.8702 B(  0-N , 10-H ) :   0.8585
B(  1-C ,  2-N ) :   1.6414 B(  1-C , 11-H ) :   0.9161 B(  2-N ,  3-C ) :   1.1404
B(  3-C ,  4-C ) :   1.3895 B(  3-C ,  8-O ) :   1.0776 B(  4-C ,  5-N ) :   1.0783
B(  4-C ,  6-N ) :   1.3272 B(  4-C ,  7-N ) :   0.1127 B(  5-N , 12-H ) :   0.8707
B(  5-N , 13-H ) :   0.8691 B(  6-N ,  7-N ) :   1.3497 B(  7-N ,  8-O ) :   0.8743

MP2 TOTAL ENERGY:     -465.414413276 Eh
FINAL SINGLE POINT ENERGY      -465.414413275953

DIPOLE MOMENT
-------------
                                X             Y             Z
Electronic contribution:      1.36402      -5.03624      -0.13424
Nuclear contribution   :     -1.28325       7.43097       0.41299
                        -----------------------------------------
Total Dipole Moment    :      0.08077       2.39472       0.27875
                        -----------------------------------------
Magnitude (a.u.)       :      2.41225
Magnitude (Debye)      :      6.13144

                             ****ORCA TERMINATED NORMALLY****
TOTAL RUN TIME: 0 days 0 hours 14 minutes 1 seconds 535 msec
