                         Program Version 3.0.3 - RELEASE   -
|  1> ! RI-MP2 RIJK def2-TZVP def2-TZVP/C def2-TZVP/JK TIGHTSCF
|  2> % maxcore 2000
|  3> % mp2 density relaxed end
|  4> *xyz 0 1
|  5>  C       -0.6085948491     1.3582884907    -0.5603433110
|  6>  N       -0.9543773300    -0.0479051391    -0.4732984781
|  7>  C       -0.9227434582    -0.7304518061     0.7018386883
|  8>  O       -0.6114355824    -0.2371810377     1.7707593453
|  9>  C       -1.2879303895    -2.2216033864     0.6184899378
| 10>  C       -2.3774170123    -2.6000917520    -0.4027817779
| 11>  O       -1.9819473855    -2.3989587754    -1.7583291774
| 12>  C       -2.8109761244    -3.9952042505    -0.2009855284
| 13>  N       -3.1143064821    -5.1004276652    -0.0545114580
| 14>  H        0.2973471300     1.5110190189    -1.1579355383
| 15>  H       -1.4234950043     1.9355002908    -1.0097425887
| 16>  H       -0.4285976370     1.7178627367     0.4530092391
| 17>  H       -1.1982773775    -0.5577043044    -1.3102122274
| 18>  H       -0.3797847685    -2.7978246938     0.3997642348
| 19>  H       -1.6086252718    -2.5115446955     1.6213458932
| 20>  H       -3.2489265422    -1.9515143065    -0.2644023573
| 21>  H       -1.2939500852    -3.0414543241    -1.9714755960
| 22> *
| 23>
| 24>                          ****END OF INPUT****

CARTESIAN COORDINATES (ANGSTROEM)
---------------------------------
  C     -0.608595    1.358288   -0.560343
  N     -0.954377   -0.047905   -0.473298
  C     -0.922743   -0.730452    0.701839
  O     -0.611436   -0.237181    1.770759
  C     -1.287930   -2.221603    0.618490
  C     -2.377417   -2.600092   -0.402782
  O     -1.981947   -2.398959   -1.758329
  C     -2.810976   -3.995204   -0.200986
  N     -3.114306   -5.100428   -0.054511
  H      0.297347    1.511019   -1.157936
  H     -1.423495    1.935500   -1.009743
  H     -0.428598    1.717863    0.453009
  H     -1.198277   -0.557704   -1.310212
  H     -0.379785   -2.797825    0.399764
  H     -1.608625   -2.511545    1.621346
  H     -3.248927   -1.951514   -0.264402
  H     -1.293950   -3.041454   -1.971476

 Total Charge           Charge          ....    0
 Multiplicity           Mult            ....    1
 Number of Electrons    NEL             ....   68
 Basis Dimension        Dim             ....  327

ORBITAL ENERGIES
----------------

  NO   OCC          E(Eh)            E(eV)
   0   2.0000     -20.618992      -561.0713
   1   2.0000     -20.525462      -558.5262
   2   2.0000     -15.597175      -424.4207
   3   2.0000     -15.591603      -424.2691
   4   2.0000     -11.368272      -309.3464
   5   2.0000     -11.363439      -309.2149
   6   2.0000     -11.293398      -307.3090
   7   2.0000     -11.275233      -306.8147
   8   2.0000     -11.265258      -306.5433
   9   2.0000      -1.427494       -38.8441
  10   2.0000      -1.391593       -37.8672
  11   2.0000      -1.240851       -33.7653
  12   2.0000      -1.239161       -33.7193
  13   2.0000      -1.093845       -29.7650
  14   2.0000      -0.980771       -26.6881
  15   2.0000      -0.928217       -25.2581
  16   2.0000      -0.799608       -21.7584
  17   2.0000      -0.797384       -21.6979
  18   2.0000      -0.714945       -19.4546
  19   2.0000      -0.696095       -18.9417
  20   2.0000      -0.681293       -18.5389
  21   2.0000      -0.645812       -17.5734
  22   2.0000      -0.630055       -17.1447
  23   2.0000      -0.615216       -16.7409
  24   2.0000      -0.590660       -16.0727
  25   2.0000      -0.585624       -15.9356
  26   2.0000      -0.557164       -15.1612
  27   2.0000      -0.554410       -15.0863
  28   2.0000      -0.529823       -14.4172
  29   2.0000      -0.520192       -14.1552
  30   2.0000      -0.490995       -13.3606
  31   2.0000      -0.481551       -13.1037
  32   2.0000      -0.433693       -11.8014
  33   2.0000      -0.401040       -10.9128
  34   0.0000       0.098368         2.6767
  35   0.0000       0.138572         3.7707
  36   0.0000       0.142614         3.8807
  37   0.0000       0.150991         4.1087
  38   0.0000       0.162730         4.4281

MULLIKEN ATOMIC CHARGES
-----------------------
   0 C :   -0.292714
   1 N :   -0.305295
   2 C :    0.234620
   3 O :   -0.364383
   4 C :   -0.220560
   5 C :    0.133766
   6 O :   -0.475734
   7 C :   -0.170204
   8 N :   -0.043987
   9 H :    0.135683
  10 H :    0.137372
  11 H :    0.177864
  12 H :    0.258520
  13 H :    0.140405
  14 H :    0.163850
  15 H :    0.151986
  16 H :    0.338809
Sum of atomic charges:    0.0000000

LOEWDIN ATOMIC CHARGES
----------------------
   0 C :   -0.308822
   1 N :    0.084294
   2 C :   -0.465981
   3 O :    0.079205
   4 C :   -0.198627
   5 C :   -0.330775
   6 O :   -0.002146
   7 C :   -0.171900
   8 N :    0.079504
   9 H :    0.115916
  10 H :    0.116593
  11 H :    0.134587
  12 H :    0.184210
  13 H :    0.156368
  14 H :    0.167174
  15 H :    0.173020
  16 H :    0.187382

  Mayer bond orders larger than 0.1
B(  0-C ,  1-N ) :   0.8571 B(  0-C ,  9-H ) :   0.9343 B(  0-C , 10-H ) :   0.9354
B(  0-C , 11-H ) :   0.9275 B(  1-N ,  2-C ) :   1.1921 B(  1-N , 12-H ) :   0.8470
B(  2-C ,  3-O ) :   1.9598 B(  2-C ,  4-C ) :   0.9107 B(  4-C ,  5-C ) :   0.9083
B(  4-C , 13-H ) :   0.8847 B(  4-C , 14-H ) :   0.9228 B(  5-C ,  6-O ) :   0.8638
B(  5-C ,  7-C ) :   0.9167 B(  5-C , 15-H ) :   0.9100 B(  6-O , 16-H ) :   0.8266
B(  7-C ,  8-N ) :   2.8485

MP2 TOTAL ENERGY:     -454.449400769 Eh
FINAL SINGLE POINT ENERGY      -454.449400769304

DIPOLE MOMENT
-------------
                                X             Y             Z
Electronic contribution:     -2.83418      -6.77096       1.30616
Nuclear contribution   :      3.24426       7.45065      -2.53658
                        -----------------------------------------
Total Dipole Moment    :      0.41008       0.67969      -1.23043
                        -----------------------------------------
Magnitude (a.u.)       :      1.46427
Magnitude (Debye)      :      3.72188

                             ****ORCA TERMINATED NORMALLY****
TOTAL RUN TIME: 0 days 0 hours 15 minutes 19 seconds 48 msec
