                         Program Version 3.0.3 - RELEASE   -
|  1> ! RI-MP2 RIJK def2-TZVP def2-TZVP/C def2-TZVP/JK TIGHTSCF
|  2> % maxcore 2000
|  3> % mp2 density relaxed end
|  4> *xyz 0 1
|  5>  C       -0.1026425147     1.4619968130     0.1447339522
|  6>  C        0.0582501529    -0.0221693657    -0.0429046456
|  7>  C        0.1127859008    -0.9224564673     1.1685706775
|  8>  C        1.3264126552    -0.6720878898     2.0500221295
|  9>  C        1.2891876601     0.3457191079     3.1643100445
| 10>  C        1.3234695052    -1.1277631457     3.4864499155
| 11>  N        0.1678839068    -0.6135366321    -1.1718651199
| 12>  O        0.1398517668     0.2792079637    -2.2580748219
| 13>  H       -0.4619962587     1.9344841069    -0.7690434114
| 14>  H       -0.7973734474     1.6706852070     0.9639283640
| 15>  H        0.8557641824     1.9211640630     0.4128252295
| 16>  H       -0.7968247845    -0.7765815291     1.7685070031
| 17>  H        0.1117304158    -1.9596042713     0.8190861747
| 18>  H        2.2737016772    -0.7667542121     1.5254778953
| 19>  H        2.1774110938     0.9374803641     3.3562513139
| 20>  H        0.3587677168     0.8767974294     3.3365997166
| 21>  H        0.4159659131    -1.5829420102     3.8701981402
| 22>  H        2.2357307085    -1.5464202752     3.8964933565
| 23>  H        0.1813680599    -0.3225215463    -3.0082387341
| 24> *
| 25>
| 26>                          ****END OF INPUT****

CARTESIAN COORDINATES (ANGSTROEM)
---------------------------------
  C     -0.102643    1.461997    0.144734
  C      0.058250   -0.022169   -0.042905
  C      0.112786   -0.922456    1.168571
  C      1.326413   -0.672088    2.050022
  C      1.289188    0.345719    3.164310
  C      1.323470   -1.127763    3.486450
  N      0.167884   -0.613537   -1.171865
  O      0.139852    0.279208   -2.258075
  H     -0.461996    1.934484   -0.769043
  H     -0.797373    1.670685    0.963928
  H      0.855764    1.921164    0.412825
  H     -0.796825   -0.776582    1.768507
  H      0.111730   -1.959604    0.819086
  H      2.273702   -0.766754    1.525478
  H      2.177411    0.937480    3.356251
  H      0.358768    0.876797    3.336600
  H      0.415966   -1.582942    3.870198
  H      2.235731   -1.546420    3.896493
  H      0.181368   -0.322522   -3.008239

 Total Charge           Charge          ....    0
 Multiplicity           Mult            ....    1
 Number of Electrons    NEL             ....   62
 Basis Dimension        Dim             ....  314

ORBITAL ENERGIES
----------------

  NO   OCC          E(Eh)            E(eV)
   0   2.0000     -20.583227      -560.0981
   1   2.0000     -15.606313      -424.6694
   2   2.0000     -11.274080      -306.7833
   3   2.0000     -11.236840      -305.7700
   4   2.0000     -11.233622      -305.6824
   5   2.0000     -11.228425      -305.5410
   6   2.0000     -11.227326      -305.5111
   7   2.0000     -11.225140      -305.4516
   8   2.0000      -1.409969       -38.3672
   9   2.0000      -1.170599       -31.8536
  10   2.0000      -1.140122       -31.0243
  11   2.0000      -0.992242       -27.0003
  12   2.0000      -0.962222       -26.1834
  13   2.0000      -0.826165       -22.4811
  14   2.0000      -0.796030       -21.6611
  15   2.0000      -0.732357       -19.9285
  16   2.0000      -0.691230       -18.8093
  17   2.0000      -0.663692       -18.0600
  18   2.0000      -0.647524       -17.6200
  19   2.0000      -0.632354       -17.2072
  20   2.0000      -0.595312       -16.1993
  21   2.0000      -0.567305       -15.4372
  22   2.0000      -0.551720       -15.0131
  23   2.0000      -0.544616       -14.8197
  24   2.0000      -0.525874       -14.3098
  25   2.0000      -0.516590       -14.0571
  26   2.0000      -0.503246       -13.6940
  27   2.0000      -0.434450       -11.8220
  28   2.0000      -0.418628       -11.3915
  29   2.0000      -0.409191       -11.1347
  30   2.0000      -0.374138       -10.1808
  31   0.0000       0.137059         3.7296
  32   0.0000       0.150211         4.0874
  33   0.0000       0.159042         4.3278
  34   0.0000       0.164071         4.4646
  35   0.0000       0.174831         4.7574

MULLIKEN ATOMIC CHARGES
-----------------------
   0 C :   -0.423928
   1 C :    0.068479
   2 C :   -0.234802
   3 C :   -0.079157
   4 C :   -0.280341
   5 C :   -0.260419
   6 N :   -0.102811
   7 O :   -0.377283
   8 H :    0.170132
   9 H :    0.131399
  10 H :    0.151198
  11 H :    0.131308
  12 H :    0.128133
  13 H :    0.127055
  14 H :    0.131229
  15 H :    0.124492
  16 H :    0.127514
  17 H :    0.132068
  18 H :    0.335734
Sum of atomic charges:   -0.0000000

LOEWDIN ATOMIC CHARGES
----------------------
   0 C :   -0.280794
   1 C :   -0.301578
   2 C :   -0.216735
   3 C :   -0.225518
   4 C :   -0.234226
   5 C :   -0.229583
   6 N :    0.019231
   7 O :   -0.082811
   8 H :    0.134992
   9 H :    0.131703
  10 H :    0.140316
  11 H :    0.149289
  12 H :    0.152030
  13 H :    0.150187
  14 H :    0.130546
  15 H :    0.130793
  16 H :    0.132586
  17 H :    0.131396
  18 H :    0.168175

  Mayer bond orders larger than 0.1
B(  0-C ,  1-C ) :   0.9247 B(  0-C ,  8-H ) :   0.9254 B(  0-C ,  9-H ) :   0.9304
B(  0-C , 10-H ) :   0.9156 B(  1-C ,  2-C ) :   0.9376 B(  1-C ,  6-N ) :   1.8549
B(  2-C ,  3-C ) :   0.8814 B(  2-C , 11-H ) :   0.9297 B(  2-C , 12-H ) :   0.9227
B(  3-C ,  4-C ) :   0.8863 B(  3-C ,  5-C ) :   0.8743 B(  3-C , 13-H ) :   0.9283
B(  4-C ,  5-C ) :   0.9068 B(  4-C , 14-H ) :   0.9296 B(  4-C , 15-H ) :   0.9287
B(  5-C , 16-H ) :   0.9274 B(  5-C , 17-H ) :   0.9317 B(  6-N ,  7-O ) :   0.8091
B(  7-O , 18-H ) :   0.8451

MP2 TOTAL ENERGY:     -364.387668376 Eh
FINAL SINGLE POINT ENERGY      -364.387668376421

DIPOLE MOMENT
-------------
                                X             Y             Z
Electronic contribution:     -0.71502      -1.63608      -7.23946
Nuclear contribution   :      0.73068       1.73237       7.50023
                        -----------------------------------------
Total Dipole Moment    :      0.01567       0.09629       0.26077
                        -----------------------------------------
Magnitude (a.u.)       :      0.27842
Magnitude (Debye)      :      0.70770

                             ****ORCA TERMINATED NORMALLY****
TOTAL RUN TIME: 0 days 0 hours 11 minutes 59 seconds 236 msec
