                         Program Version 3.0.3 - RELEASE   -
|  1> ! RI-MP2 RIJK def2-TZVP def2-TZVP/C def2-TZVP/JK TIGHTSCF
|  2> % maxcore 2000
|  3> % mp2 density relaxed end
|  4> *xyz 0 1
|  5>  C       -0.1039533862     1.3049541357    -0.0710818236
|  6>  O       -0.4188973550    -0.0079481648    -0.5531465264
|  7>  C        0.5076822706    -0.5792995013    -1.3030363629
|  8>  N        1.6590538859    -0.0308738687    -1.6146999632
|  9>  O        2.2602273736    -1.0315732253    -2.4150849326
| 10>  C        1.3919600291    -2.0395202196    -2.4720651716
| 11>  C        1.7398500265    -3.2911152236    -3.2166636770
| 12>  O        0.6102333144    -4.0968574903    -3.4241305418
| 13>  N        0.2926214372    -1.8364919315    -1.8141731208
| 14>  H        0.7953517058     1.2793863989     0.5510727644
| 15>  H        0.0592537248     1.9911511064    -0.9070830640
| 16>  H       -0.9663946742     1.6171789235     0.5167634298
| 17>  H        2.1748494807    -3.0273087489    -4.1879555117
| 18>  H        2.5267236159    -3.8168715178    -2.6488536293
| 19>  H       -0.0234911891    -3.8908122527    -2.7248699893
| 20> *
| 21>
| 22>                          ****END OF INPUT****

CARTESIAN COORDINATES (ANGSTROEM)
---------------------------------
  C     -0.103953    1.304954   -0.071082
  O     -0.418897   -0.007948   -0.553147
  C      0.507682   -0.579300   -1.303036
  N      1.659054   -0.030874   -1.614700
  O      2.260227   -1.031573   -2.415085
  C      1.391960   -2.039520   -2.472065
  C      1.739850   -3.291115   -3.216664
  O      0.610233   -4.096857   -3.424131
  N      0.292621   -1.836492   -1.814173
  H      0.795352    1.279386    0.551073
  H      0.059254    1.991151   -0.907083
  H     -0.966395    1.617179    0.516763
  H      2.174849   -3.027309   -4.187956
  H      2.526724   -3.816872   -2.648854
  H     -0.023491   -3.890812   -2.724870

 Total Charge           Charge          ....    0
 Multiplicity           Mult            ....    1
 Number of Electrons    NEL             ....   68
 Basis Dimension        Dim             ....  315

ORBITAL ENERGIES
----------------

  NO   OCC          E(Eh)            E(eV)
   0   2.0000     -20.664363      -562.3059
   1   2.0000     -20.621879      -561.1499
   2   2.0000     -20.576706      -559.9206
   3   2.0000     -15.621311      -425.0775
   4   2.0000     -15.585804      -424.1113
   5   2.0000     -11.382641      -309.7374
   6   2.0000     -11.377509      -309.5978
   7   2.0000     -11.319673      -308.0240
   8   2.0000     -11.299629      -307.4785
   9   2.0000      -1.531102       -41.6634
  10   2.0000      -1.456231       -39.6261
  11   2.0000      -1.389640       -37.8140
  12   2.0000      -1.262705       -34.3599
  13   2.0000      -1.167788       -31.7771
  14   2.0000      -0.999415       -27.1955
  15   2.0000      -0.986464       -26.8430
  16   2.0000      -0.840701       -22.8766
  17   2.0000      -0.835441       -22.7335
  18   2.0000      -0.766165       -20.8484
  19   2.0000      -0.720289       -19.6001
  20   2.0000      -0.703026       -19.1303
  21   2.0000      -0.675150       -18.3718
  22   2.0000      -0.656796       -17.8723
  23   2.0000      -0.646185       -17.5836
  24   2.0000      -0.628968       -17.1151
  25   2.0000      -0.603987       -16.4353
  26   2.0000      -0.564350       -15.3567
  27   2.0000      -0.540190       -14.6993
  28   2.0000      -0.537809       -14.6345
  29   2.0000      -0.527169       -14.3450
  30   2.0000      -0.483138       -13.1468
  31   2.0000      -0.475929       -12.9507
  32   2.0000      -0.455601       -12.3975
  33   2.0000      -0.400975       -10.9111
  34   0.0000       0.120995         3.2924
  35   0.0000       0.141900         3.8613
  36   0.0000       0.150610         4.0983
  37   0.0000       0.178197         4.8490
  38   0.0000       0.191149         5.2014

MULLIKEN ATOMIC CHARGES
-----------------------
   0 C :   -0.220153
   1 O :   -0.252801
   2 C :    0.300643
   3 N :   -0.195525
   4 O :   -0.103823
   5 C :    0.237440
   6 C :   -0.010312
   7 O :   -0.468813
   8 N :   -0.336747
   9 H :    0.144101
  10 H :    0.144636
  11 H :    0.154304
  12 H :    0.139952
  13 H :    0.126875
  14 H :    0.340225
Sum of atomic charges:    0.0000000

LOEWDIN ATOMIC CHARGES
----------------------
   0 C :   -0.298274
   1 O :    0.258224
   2 C :   -0.495712
   3 N :    0.015833
   4 O :    0.287134
   5 C :   -0.373759
   6 C :   -0.309183
   7 O :   -0.022665
   8 N :    0.123117
   9 H :    0.115474
  10 H :    0.115702
  11 H :    0.118209
  12 H :    0.143780
  13 H :    0.137825
  14 H :    0.184295

  Mayer bond orders larger than 0.1
B(  0-C ,  1-O ) :   0.8372 B(  0-C ,  9-H ) :   0.9338 B(  0-C , 10-H ) :   0.9335
B(  0-C , 11-H ) :   0.9338 B(  1-O ,  2-C ) :   1.1612 B(  2-C ,  3-N ) :   1.5476
B(  2-C ,  8-N ) :   1.2316 B(  3-N ,  4-O ) :   0.8306 B(  4-O ,  5-C ) :   1.1827
B(  5-C ,  6-C ) :   0.9018 B(  5-C ,  8-N ) :   1.5355 B(  6-C ,  7-O ) :   0.9958
B(  6-C , 12-H ) :   0.9251 B(  6-C , 13-H ) :   0.9170 B(  7-O , 14-H ) :   0.8198

MP2 TOTAL ENERGY:     -490.302204094 Eh
FINAL SINGLE POINT ENERGY      -490.302204094422

DIPOLE MOMENT
-------------
                                X             Y             Z
Electronic contribution:      0.77284      -1.31504      -1.26839
Nuclear contribution   :     -0.63362       1.83539       1.75421
                        -----------------------------------------
Total Dipole Moment    :      0.13923       0.52035       0.48582
                        -----------------------------------------
Magnitude (a.u.)       :      0.72538
Magnitude (Debye)      :      1.84376

                             ****ORCA TERMINATED NORMALLY****
TOTAL RUN TIME: 0 days 0 hours 13 minutes 15 seconds 900 msec
