                         Program Version 3.0.3 - RELEASE   -
|  1> ! RI-MP2 RIJK def2-TZVP def2-TZVP/C def2-TZVP/JK TIGHTSCF
|  2> % maxcore 2000
|  3> % mp2 density relaxed end
|  4> *xyz 0 1
|  5>  N        0.3497326857     1.1888083253     0.7156295831
|  6>  C        0.2373393362    -0.0733227184     0.1837461281
|  7>  N        1.1482961706    -0.8272980352    -0.3040306081
|  8>  C        2.5108568279    -0.3116298701    -0.3480319625
|  9>  C        3.2193919359    -0.3361234052     0.9895140856
| 10>  C        4.2778731519     0.6296133779     1.3065086689
| 11>  O        2.9688941077     0.7753604018     1.8725519986
| 12>  C       -1.1273058425    -0.5752582309     0.1330584722
| 13>  N       -2.2226928590    -0.9429552256     0.1120199583
| 14>  H        1.2418759160     1.4325330735     1.1320609561
| 15>  H       -0.4648336628     1.5750103202     1.1651164946
| 16>  H        3.0778895424    -0.9425785654    -1.0418120443
| 17>  H        2.5413101280     0.7188774832    -0.7365099417
| 18>  H        3.2247912560    -1.2990582569     1.4984488184
| 19>  H        5.0569057265     0.3674818582     2.0191578292
| 20>  H        4.5531820794     1.3830677475     0.5706954532
| 21> *
| 22>
| 23>                          ****END OF INPUT****

CARTESIAN COORDINATES (ANGSTROEM)
---------------------------------
  N      0.349733    1.188808    0.715630
  C      0.237339   -0.073323    0.183746
  N      1.148296   -0.827298   -0.304031
  C      2.510857   -0.311630   -0.348032
  C      3.219392   -0.336123    0.989514
  C      4.277873    0.629613    1.306509
  O      2.968894    0.775360    1.872552
  C     -1.127306   -0.575258    0.133058
  N     -2.222693   -0.942955    0.112020
  H      1.241876    1.432533    1.132061
  H     -0.464834    1.575010    1.165116
  H      3.077890   -0.942579   -1.041812
  H      2.541310    0.718877   -0.736510
  H      3.224791   -1.299058    1.498449
  H      5.056906    0.367482    2.019158
  H      4.553182    1.383068    0.570695

 Total Charge           Charge          ....    0
 Multiplicity           Mult            ....    1
 Number of Electrons    NEL             ....   66
 Basis Dimension        Dim             ....  321

ORBITAL ENERGIES
----------------

  NO   OCC          E(Eh)            E(eV)
   0   2.0000     -20.594790      -560.4127
   1   2.0000     -15.595928      -424.3868
   2   2.0000     -15.589531      -424.2127
   3   2.0000     -15.566080      -423.5746
   4   2.0000     -11.367779      -309.3330
   5   2.0000     -11.310788      -307.7822
   6   2.0000     -11.307151      -307.6832
   7   2.0000     -11.285486      -307.0937
   8   2.0000     -11.278597      -306.9062
   9   2.0000      -1.435206       -39.0539
  10   2.0000      -1.304402       -35.4946
  11   2.0000      -1.225804       -33.3558
  12   2.0000      -1.192155       -32.4402
  13   2.0000      -1.029717       -28.0200
  14   2.0000      -0.949773       -25.8446
  15   2.0000      -0.890869       -24.2418
  16   2.0000      -0.830774       -22.6065
  17   2.0000      -0.762226       -20.7412
  18   2.0000      -0.737751       -20.0752
  19   2.0000      -0.703192       -19.1348
  20   2.0000      -0.669036       -18.2054
  21   2.0000      -0.639189       -17.3932
  22   2.0000      -0.611580       -16.6419
  23   2.0000      -0.588650       -16.0180
  24   2.0000      -0.573334       -15.6012
  25   2.0000      -0.553668       -15.0661
  26   2.0000      -0.541292       -14.7293
  27   2.0000      -0.490715       -13.3530
  28   2.0000      -0.482526       -13.1302
  29   2.0000      -0.471941       -12.8422
  30   2.0000      -0.469537       -12.7768
  31   2.0000      -0.434604       -11.8262
  32   2.0000      -0.382049       -10.3961
  33   0.0000       0.098348         2.6762
  34   0.0000       0.130372         3.5476
  35   0.0000       0.146551         3.9879
  36   0.0000       0.159451         4.3389
  37   0.0000       0.168495         4.5850

MULLIKEN ATOMIC CHARGES
-----------------------
   0 N :   -0.513179
   1 C :    0.337492
   2 N :   -0.276079
   3 C :   -0.178065
   4 C :    0.030717
   5 C :   -0.078119
   6 O :   -0.364600
   7 C :   -0.142223
   8 N :   -0.051809
   9 H :    0.283431
  10 H :    0.264525
  11 H :    0.140151
  12 H :    0.143641
  13 H :    0.142446
  14 H :    0.132727
  15 H :    0.128947
Sum of atomic charges:    0.0000000

LOEWDIN ATOMIC CHARGES
----------------------
   0 N :   -0.011184
   1 C :   -0.376950
   2 N :    0.107795
   3 C :   -0.284025
   4 C :   -0.282427
   5 C :   -0.255957
   6 O :    0.121188
   7 C :   -0.134786
   8 N :    0.083343
   9 H :    0.174499
  10 H :    0.180596
  11 H :    0.145800
  12 H :    0.139955
  13 H :    0.143714
  14 H :    0.124871
  15 H :    0.123569

  Mayer bond orders larger than 0.1
B(  0-N ,  1-C ) :   1.1261 B(  0-N ,  9-H ) :   0.8312 B(  0-N , 10-H ) :   0.8679
B(  1-C ,  2-N ) :   1.8302 B(  1-C ,  7-C ) :   0.8908 B(  2-N ,  3-C ) :   0.8990
B(  3-C ,  4-C ) :   0.9160 B(  3-C , 11-H ) :   0.9270 B(  3-C , 12-H ) :   0.9323
B(  4-C ,  5-C ) :   0.9581 B(  4-C ,  6-O ) :   0.8132 B(  4-C , 13-H ) :   0.9154
B(  5-C ,  6-O ) :   0.8901 B(  5-C , 14-H ) :   0.9248 B(  5-C , 15-H ) :   0.9112
B(  7-C ,  8-N ) :   2.8418

MP2 TOTAL ENERGY:     -433.328881875 Eh
FINAL SINGLE POINT ENERGY      -433.328881875280

DIPOLE MOMENT
-------------
                                X             Y             Z
Electronic contribution:     -7.42848      -2.06177      -0.30793
Nuclear contribution   :      9.31511       3.06921       0.70695
                        -----------------------------------------
Total Dipole Moment    :      1.88664       1.00744       0.39902
                        -----------------------------------------
Magnitude (a.u.)       :      2.17568
Magnitude (Debye)      :      5.53013

                             ****ORCA TERMINATED NORMALLY****
TOTAL RUN TIME: 0 days 0 hours 16 minutes 29 seconds 897 msec
