                         Program Version 3.0.3 - RELEASE   -
|  1> ! RI-MP2 RIJK def2-TZVP def2-TZVP/C def2-TZVP/JK TIGHTSCF
|  2> % maxcore 2000
|  3> % mp2 density relaxed end
|  4> *xyz 0 1
|  5>  C       -0.1455873679     1.5689097341    -0.1718566609
|  6>  C        0.0624196539     0.0611190331    -0.1253846048
|  7>  C        1.2525191644    -0.5937083936    -0.9152301608
|  8>  C        1.7318766705    -1.2693458680     0.3753616227
|  9>  C        2.0427656493    -0.2206116904     1.4063435119
| 10>  C        0.6089365491    -0.5799012978     1.1645470625
| 11>  N       -0.2018056953    -1.0944247578     2.2115590695
| 12>  C       -0.3667047391    -0.5038601337     3.4345073487
| 13>  O        0.1928783043     0.4963096620     3.8213052412
| 14>  H        0.7679580551     2.1096367749     0.0941141206
| 15>  H       -0.4456848654     1.8936204039    -1.1742927087
| 16>  H       -0.9280805449     1.8773228424     0.5294989469
| 17>  H       -0.8685926118    -0.4454826484    -0.4053580282
| 18>  H        0.9182016014    -1.2887242051    -1.6883490779
| 19>  H        1.9658357592     0.1074265351    -1.3609883379
| 20>  H        2.0965614249    -2.2855480172     0.4647439628
| 21>  H        2.4376014823    -0.5870508288     2.3465824158
| 22>  H        2.4275682239     0.7523319310     1.1131755081
| 23>  H       -0.7950247426    -1.8851162385     2.0064034270
| 24>  H       -1.0860410912    -1.0752246571     4.0573841615
| 25> *
| 26>
| 27>                          ****END OF INPUT****

CARTESIAN COORDINATES (ANGSTROEM)
---------------------------------
  C     -0.145587    1.568910   -0.171857
  C      0.062420    0.061119   -0.125385
  C      1.252519   -0.593708   -0.915230
  C      1.731877   -1.269346    0.375362
  C      2.042766   -0.220612    1.406344
  C      0.608937   -0.579901    1.164547
  N     -0.201806   -1.094425    2.211559
  C     -0.366705   -0.503860    3.434507
  O      0.192878    0.496310    3.821305
  H      0.767958    2.109637    0.094114
  H     -0.445685    1.893620   -1.174293
  H     -0.928081    1.877323    0.529499
  H     -0.868593   -0.445483   -0.405358
  H      0.918202   -1.288724   -1.688349
  H      1.965836    0.107427   -1.360988
  H      2.096561   -2.285548    0.464744
  H      2.437601   -0.587051    2.346582
  H      2.427568    0.752332    1.113176
  H     -0.795025   -1.885116    2.006403
  H     -1.086041   -1.075225    4.057384

 Total Charge           Charge          ....    0
 Multiplicity           Mult            ....    1
 Number of Electrons    NEL             ....   68
 Basis Dimension        Dim             ....  345

ORBITAL ENERGIES
----------------

  NO   OCC          E(Eh)            E(eV)
   0   2.0000     -20.522927      -558.4572
   1   2.0000     -15.592621      -424.2968
   2   2.0000     -11.349228      -308.8282
   3   2.0000     -11.272263      -306.7339
   4   2.0000     -11.236048      -305.7484
   5   2.0000     -11.235538      -305.7345
   6   2.0000     -11.227950      -305.5281
   7   2.0000     -11.227875      -305.5260
   8   2.0000     -11.211403      -305.0778
   9   2.0000      -1.383360       -37.6432
  10   2.0000      -1.253103       -34.0987
  11   2.0000      -1.170866       -31.8609
  12   2.0000      -1.022101       -27.8128
  13   2.0000      -0.945267       -25.7220
  14   2.0000      -0.892072       -24.2745
  15   2.0000      -0.820805       -22.3352
  16   2.0000      -0.789411       -21.4810
  17   2.0000      -0.753671       -20.5084
  18   2.0000      -0.708710       -19.2850
  19   2.0000      -0.687918       -18.7192
  20   2.0000      -0.636250       -17.3132
  21   2.0000      -0.612705       -16.6725
  22   2.0000      -0.598521       -16.2866
  23   2.0000      -0.576748       -15.6941
  24   2.0000      -0.562025       -15.2935
  25   2.0000      -0.559427       -15.2228
  26   2.0000      -0.530010       -14.4223
  27   2.0000      -0.500138       -13.6095
  28   2.0000      -0.485871       -13.2212
  29   2.0000      -0.461350       -12.5540
  30   2.0000      -0.441351       -12.0098
  31   2.0000      -0.421505       -11.4697
  32   2.0000      -0.399465       -10.8700
  33   2.0000      -0.363578        -9.8935
  34   0.0000       0.125645         3.4190
  35   0.0000       0.148020         4.0278
  36   0.0000       0.162055         4.4097
  37   0.0000       0.168258         4.5785
  38   0.0000       0.176004         4.7893

MULLIKEN ATOMIC CHARGES
-----------------------
   0 C :   -0.406149
   1 C :   -0.054495
   2 C :   -0.231881
   3 C :   -0.125393
   4 C :   -0.266934
   5 C :    0.155261
   6 N :   -0.354244
   7 C :    0.194643
   8 O :   -0.347651
   9 H :    0.122449
  10 H :    0.131775
  11 H :    0.137404
  12 H :    0.087051
  13 H :    0.119598
  14 H :    0.116173
  15 H :    0.135098
  16 H :    0.143469
  17 H :    0.131651
  18 H :    0.237163
  19 H :    0.075011
Sum of atomic charges:    0.0000000

LOEWDIN ATOMIC CHARGES
----------------------
   0 C :   -0.294346
   1 C :   -0.211068
   2 C :   -0.192680
   3 C :   -0.164692
   4 C :   -0.172694
   5 C :   -0.236051
   6 N :    0.122472
   7 C :   -0.428473
   8 O :    0.072329
   9 H :    0.124333
  10 H :    0.123692
  11 H :    0.128732
  12 H :    0.149631
  13 H :    0.132178
  14 H :    0.131366
  15 H :    0.135217
  16 H :    0.148747
  17 H :    0.134454
  18 H :    0.188866
  19 H :    0.107984

  Mayer bond orders larger than 0.1
B(  0-C ,  1-C ) :   0.9081 B(  0-C ,  9-H ) :   0.9340 B(  0-C , 10-H ) :   0.9382
B(  0-C , 11-H ) :   0.9349 B(  1-C ,  2-C ) :   0.9641 B(  1-C ,  5-C ) :   0.9267
B(  1-C , 12-H ) :   0.9246 B(  2-C ,  3-C ) :   0.9521 B(  2-C , 13-H ) :   0.9269
B(  2-C , 14-H ) :   0.9169 B(  3-C ,  4-C ) :   0.8745 B(  3-C ,  5-C ) :   0.8301
B(  3-C , 15-H ) :   0.9221 B(  4-C ,  5-C ) :   0.8976 B(  4-C , 16-H ) :   0.9334
B(  4-C , 17-H ) :   0.9190 B(  5-C ,  6-N ) :   0.7971 B(  6-N ,  7-C ) :   1.1269
B(  6-N , 18-H ) :   0.8689 B(  7-C ,  8-O ) :   1.9140 B(  7-C , 19-H ) :   0.9276

MP2 TOTAL ENERGY:     -402.453708005 Eh
FINAL SINGLE POINT ENERGY      -402.453708005133

DIPOLE MOMENT
-------------
                                X             Y             Z
Electronic contribution:     -0.81440      -2.47850       6.66456
Nuclear contribution   :      0.38308       1.43031      -7.55399
                        -----------------------------------------
Total Dipole Moment    :     -0.43132      -1.04819      -0.88944
                        -----------------------------------------
Magnitude (a.u.)       :      1.44078
Magnitude (Debye)      :      3.66217

                             ****ORCA TERMINATED NORMALLY****
TOTAL RUN TIME: 0 days 0 hours 18 minutes 26 seconds 482 msec
