                         Program Version 3.0.3 - RELEASE   -
|  1> ! RI-MP2 RIJK def2-TZVP def2-TZVP/C def2-TZVP/JK TIGHTSCF
|  2> % maxcore 2000
|  3> % mp2 density relaxed end
|  4> *xyz 0 1
|  5>  O        0.0117364104     0.0549269273     0.0241298958
|  6>  C       -0.0252234468     1.2536499003     0.0269068585
|  7>  C       -1.2183330874     2.2046390542     0.0485905876
|  8>  C       -0.7052224484     3.2234742220     1.0748024500
|  9>  O        0.7394739838     3.2385313282     0.9284608476
| 10>  C        1.1301371313     2.2600151228    -0.0030255775
| 11>  O        1.2093022657     2.7602748914    -1.3291686715
| 12>  C        0.0588773446     3.5207677118    -1.7060610747
| 13>  C       -1.2645815035     2.8062243886    -1.3833582303
| 14>  H       -2.1546226959     1.7216494737     0.3281693799
| 15>  H       -1.0792508142     4.2394085310     0.9090746733
| 16>  H       -0.9536989986     2.9207432293     2.0981477189
| 17>  H        2.1150011606     1.8692846789     0.2511558032
| 18>  H        0.0911903637     4.4976701411    -1.2070621565
| 19>  H        0.1579768280     3.6910168091    -2.7806495131
| 20>  H       -1.4446968639     1.9987568279    -2.1008491136
| 21>  H       -2.0945201194     3.5170697124    -1.4710917076
| 22> *
| 23>
| 24>                          ****END OF INPUT****

CARTESIAN COORDINATES (ANGSTROEM)
---------------------------------
  O      0.011736    0.054927    0.024130
  C     -0.025223    1.253650    0.026907
  C     -1.218333    2.204639    0.048591
  C     -0.705222    3.223474    1.074802
  O      0.739474    3.238531    0.928461
  C      1.130137    2.260015   -0.003026
  O      1.209302    2.760275   -1.329169
  C      0.058877    3.520768   -1.706061
  C     -1.264582    2.806224   -1.383358
  H     -2.154623    1.721649    0.328169
  H     -1.079251    4.239409    0.909075
  H     -0.953699    2.920743    2.098148
  H      2.115001    1.869285    0.251156
  H      0.091190    4.497670   -1.207062
  H      0.157977    3.691017   -2.780650
  H     -1.444697    1.998757   -2.100849
  H     -2.094520    3.517070   -1.471092

 Total Charge           Charge          ....    0
 Multiplicity           Mult            ....    1
 Number of Electrons    NEL             ....   68
 Basis Dimension        Dim             ....  327

ORBITAL ENERGIES
----------------

  NO   OCC          E(Eh)            E(eV)
   0   2.0000     -20.582795      -560.0863
   1   2.0000     -20.575738      -559.8943
   2   2.0000     -20.566666      -559.6474
   3   2.0000     -11.348046      -308.7960
   4   2.0000     -11.339667      -308.5680
   5   2.0000     -11.303895      -307.5946
   6   2.0000     -11.292879      -307.2949
   7   2.0000     -11.262262      -306.4617
   8   2.0000     -11.255050      -306.2655
   9   2.0000      -1.443688       -39.2847
  10   2.0000      -1.402552       -38.1654
  11   2.0000      -1.361603       -37.0511
  12   2.0000      -1.115207       -30.3463
  13   2.0000      -1.019412       -27.7396
  14   2.0000      -0.978223       -26.6188
  15   2.0000      -0.863425       -23.4950
  16   2.0000      -0.836315       -22.7573
  17   2.0000      -0.773385       -21.0449
  18   2.0000      -0.732439       -19.9307
  19   2.0000      -0.694159       -18.8890
  20   2.0000      -0.653996       -17.7961
  21   2.0000      -0.644103       -17.5269
  22   2.0000      -0.639201       -17.3935
  23   2.0000      -0.614797       -16.7295
  24   2.0000      -0.598542       -16.2871
  25   2.0000      -0.592537       -16.1238
  26   2.0000      -0.563017       -15.3205
  27   2.0000      -0.548658       -14.9297
  28   2.0000      -0.534369       -14.5409
  29   2.0000      -0.501599       -13.6492
  30   2.0000      -0.485711       -13.2169
  31   2.0000      -0.467794       -12.7293
  32   2.0000      -0.452815       -12.3217
  33   2.0000      -0.392413       -10.6781
  34   0.0000       0.124240         3.3807
  35   0.0000       0.131773         3.5857
  36   0.0000       0.158712         4.3188
  37   0.0000       0.168122         4.5748
  38   0.0000       0.181055         4.9268

MULLIKEN ATOMIC CHARGES
-----------------------
   0 O :   -0.246972
   1 C :    0.063546
   2 C :    0.014347
   3 C :   -0.097978
   4 O :   -0.313287
   5 C :    0.224457
   6 O :   -0.303118
   7 C :   -0.094656
   8 C :   -0.292047
   9 H :    0.138944
  10 H :    0.118353
  11 H :    0.125314
  12 H :    0.130743
  13 H :    0.122007
  14 H :    0.139045
  15 H :    0.135312
  16 H :    0.135990
Sum of atomic charges:   -0.0000000

LOEWDIN ATOMIC CHARGES
----------------------
   0 O :    0.176755
   1 C :   -0.281606
   2 C :   -0.217385
   3 C :   -0.249575
   4 O :    0.178923
   5 C :   -0.365340
   6 O :    0.176684
   7 C :   -0.300700
   8 C :   -0.231206
   9 H :    0.158086
  10 H :    0.128066
  11 H :    0.129231
  12 H :    0.144331
  13 H :    0.127376
  14 H :    0.134469
  15 H :    0.147159
  16 H :    0.144728

  Mayer bond orders larger than 0.1
B(  0-O ,  1-C ) :   2.0403 B(  1-C ,  2-C ) :   0.8487 B(  1-C ,  5-C ) :   0.9060
B(  2-C ,  3-C ) :   0.9331 B(  2-C ,  8-C ) :   0.8706 B(  2-C ,  9-H ) :   0.9109
B(  3-C ,  4-O ) :   0.8921 B(  3-C , 10-H ) :   0.9259 B(  3-C , 11-H ) :   0.9225
B(  4-O ,  5-C ) :   0.9790 B(  5-C ,  6-O ) :   0.9386 B(  5-C , 12-H ) :   0.9072
B(  6-O ,  7-C ) :   0.9183 B(  7-C ,  8-C ) :   0.9451 B(  7-C , 13-H ) :   0.9437
B(  7-C , 14-H ) :   0.9219 B(  8-C , 15-H ) :   0.9224 B(  8-C , 16-H ) :   0.9148

MP2 TOTAL ENERGY:     -458.248159044 Eh
FINAL SINGLE POINT ENERGY      -458.248159044390

DIPOLE MOMENT
-------------
                                X             Y             Z
Electronic contribution:      4.05450      -4.20827       1.70698
Nuclear contribution   :     -5.09910       5.06732      -1.76752
                        -----------------------------------------
Total Dipole Moment    :     -1.04460       0.85905      -0.06054
                        -----------------------------------------
Magnitude (a.u.)       :      1.35381
Magnitude (Debye)      :      3.44112

                             ****ORCA TERMINATED NORMALLY****
TOTAL RUN TIME: 0 days 0 hours 17 minutes 56 seconds 957 msec
