                         Program Version 3.0.3 - RELEASE   -
|  1> ! RI-MP2 RIJK def2-TZVP def2-TZVP/C def2-TZVP/JK TIGHTSCF
|  2> % maxcore 2000
|  3> % mp2 density relaxed end
|  4> *xyz 0 1
|  5>  O        0.0119863202    -0.0383760216    -0.0003814611
|  6>  C        0.0025704263     1.1729932912     0.0093132132
|  7>  C        1.2218458469     1.9808136903     0.0017912523
|  8>  C        1.3347329102     3.3227420970     0.0113074972
|  9>  C        2.7947508743     3.6725451183    -0.0023531762
| 10>  C        3.5018206661     2.2985458891    -0.0218306460
| 11>  O        4.6850230045     2.0664861054    -0.0364611206
| 12>  N        2.4768595636     1.3673590744    -0.0174227729
| 13>  H       -0.9386974834     1.7587890296     0.0248076789
| 14>  H        0.5118638607     4.0221216922     0.0263834890
| 15>  H        3.0960884191     4.2580855658    -0.8788165328
| 16>  H        3.1160258195     4.2436395548     0.8765579263
| 17>  H        2.6044756019     0.3679175435    -0.0264714173
| 18> *
| 19>
| 20>                          ****END OF INPUT****

CARTESIAN COORDINATES (ANGSTROEM)
---------------------------------
  O      0.011986   -0.038376   -0.000381
  C      0.002570    1.172993    0.009313
  C      1.221846    1.980814    0.001791
  C      1.334733    3.322742    0.011307
  C      2.794751    3.672545   -0.002353
  C      3.501821    2.298546   -0.021831
  O      4.685023    2.066486   -0.036461
  N      2.476860    1.367359   -0.017423
  H     -0.938697    1.758789    0.024808
  H      0.511864    4.022122    0.026383
  H      3.096088    4.258086   -0.878817
  H      3.116026    4.243640    0.876558
  H      2.604476    0.367918   -0.026471

 Total Charge           Charge          ....    0
 Multiplicity           Mult            ....    1
 Number of Electrons    NEL             ....   58
 Basis Dimension        Dim             ....  278

ORBITAL ENERGIES
----------------

  NO   OCC          E(Eh)            E(eV)
   0   2.0000     -20.580605      -560.0267
   1   2.0000     -20.537019      -558.8407
   2   2.0000     -15.607696      -424.7070
   3   2.0000     -11.369635      -309.3835
   4   2.0000     -11.359598      -309.1104
   5   2.0000     -11.306211      -307.6576
   6   2.0000     -11.273857      -306.7772
   7   2.0000     -11.268918      -306.6429
   8   2.0000      -1.418325       -38.5946
   9   2.0000      -1.401338       -38.1323
  10   2.0000      -1.288914       -35.0731
  11   2.0000      -1.091973       -29.7141
  12   2.0000      -1.025261       -27.8988
  13   2.0000      -0.879027       -23.9195
  14   2.0000      -0.829973       -22.5847
  15   2.0000      -0.809060       -22.0156
  16   2.0000      -0.714175       -19.4337
  17   2.0000      -0.678847       -18.4724
  18   2.0000      -0.657412       -17.8891
  19   2.0000      -0.652342       -17.7511
  20   2.0000      -0.623643       -16.9702
  21   2.0000      -0.608014       -16.5449
  22   2.0000      -0.580642       -15.8001
  23   2.0000      -0.574071       -15.6213
  24   2.0000      -0.548047       -14.9131
  25   2.0000      -0.484283       -13.1780
  26   2.0000      -0.460994       -12.5443
  27   2.0000      -0.434823       -11.8321
  28   2.0000      -0.348494        -9.4830
  29   0.0000       0.058849         1.6014
  30   0.0000       0.130952         3.5634
  31   0.0000       0.148776         4.0484
  32   0.0000       0.160389         4.3644
  33   0.0000       0.169662         4.6167

MULLIKEN ATOMIC CHARGES
-----------------------
   0 O :   -0.283564
   1 C :    0.072165
   2 C :    0.146298
   3 C :   -0.226358
   4 C :   -0.153834
   5 C :    0.190013
   6 O :   -0.310393
   7 N :   -0.277423
   8 H :    0.101221
   9 H :    0.162130
  10 H :    0.156991
  11 H :    0.157041
  12 H :    0.265712
Sum of atomic charges:   -0.0000000

LOEWDIN ATOMIC CHARGES
----------------------
   0 O :    0.130563
   1 C :   -0.266152
   2 C :   -0.231626
   3 C :   -0.116702
   4 C :   -0.197913
   5 C :   -0.406383
   6 O :    0.106155
   7 N :    0.184839
   8 H :    0.124712
   9 H :    0.145949
  10 H :    0.163919
  11 H :    0.163933
  12 H :    0.198706

  Mayer bond orders larger than 0.1
B(  0-O ,  1-C ) :   1.9391 B(  1-C ,  2-C ) :   0.8770 B(  1-C ,  8-H ) :   0.9785
B(  2-C ,  3-C ) :   1.5812 B(  2-C ,  7-N ) :   1.0046 B(  3-C ,  4-C ) :   0.9289
B(  3-C ,  9-H ) :   0.9124 B(  4-C ,  5-C ) :   0.9338 B(  4-C , 10-H ) :   0.8930
B(  4-C , 11-H ) :   0.8929 B(  5-C ,  6-O ) :   2.0371 B(  5-C ,  7-N ) :   1.0872
B(  7-N , 12-H ) :   0.8521

MP2 TOTAL ENERGY:     -397.997851023 Eh
FINAL SINGLE POINT ENERGY      -397.997851022800

DIPOLE MOMENT
-------------
                                X             Y             Z
Electronic contribution:      0.63654      -3.50769      -0.03616
Nuclear contribution   :     -1.60256       4.59937       0.05583
                        -----------------------------------------
Total Dipole Moment    :     -0.96602       1.09168       0.01967
                        -----------------------------------------
Magnitude (a.u.)       :      1.45786
Magnitude (Debye)      :      3.70559

                             ****ORCA TERMINATED NORMALLY****
TOTAL RUN TIME: 0 days 0 hours 9 minutes 40 seconds 103 msec
