                         Program Version 3.0.3 - RELEASE   -
|  1> ! RI-MP2 RIJK def2-TZVP def2-TZVP/C def2-TZVP/JK TIGHTSCF
|  2> % maxcore 2000
|  3> % mp2 density relaxed end
|  4> *xyz 0 1
|  5>  O       -0.0843249336     1.5219552508    -0.0571031816
|  6>  C       -0.0219759480     0.1143749454    -0.0625096153
|  7>  C       -1.3467457745    -0.6209055204    -0.0902238557
|  8>  O       -2.2302272489    -0.7815323246     0.9545556568
|  9>  C       -1.7725873404    -0.7472255765    -1.5634216641
| 10>  C       -0.6963673540    -0.0699816362    -2.4142554291
| 11>  C        0.3051055400    -0.6395657714    -1.3788657745
| 12>  O        1.6481187260    -0.8289523202    -1.6506970025
| 13>  C       -0.7890143778    -1.7234463100    -0.9485527275
| 14>  H        0.8149363704     1.8624272602    -0.0115747566
| 15>  H        0.6111450762    -0.2750870411     0.7465653183
| 16>  H       -2.7438052244     0.0301487480     1.0353971073
| 17>  H       -2.8076230794    -0.9420152161    -1.8112312682
| 18>  H       -0.5905967715    -0.5657100406    -3.3863155645
| 19>  H       -0.7164805888     1.0169808591    -2.5354466367
| 20>  H        1.7305236715    -1.2472976116    -2.5144309686
| 21>  H       -0.7916804828    -2.7954843149    -0.8238420775
| 22> *
| 23>
| 24>                          ****END OF INPUT****

CARTESIAN COORDINATES (ANGSTROEM)
---------------------------------
  O     -0.084325    1.521955   -0.057103
  C     -0.021976    0.114375   -0.062510
  C     -1.346746   -0.620906   -0.090224
  O     -2.230227   -0.781532    0.954556
  C     -1.772587   -0.747226   -1.563422
  C     -0.696367   -0.069982   -2.414255
  C      0.305106   -0.639566   -1.378866
  O      1.648119   -0.828952   -1.650697
  C     -0.789014   -1.723446   -0.948553
  H      0.814936    1.862427   -0.011575
  H      0.611145   -0.275087    0.746565
  H     -2.743805    0.030149    1.035397
  H     -2.807623   -0.942015   -1.811231
  H     -0.590597   -0.565710   -3.386316
  H     -0.716481    1.016981   -2.535447
  H      1.730524   -1.247298   -2.514431
  H     -0.791680   -2.795484   -0.823842

 Total Charge           Charge          ....    0
 Multiplicity           Mult            ....    1
 Number of Electrons    NEL             ....   68
 Basis Dimension        Dim             ....  327

ORBITAL ENERGIES
----------------

  NO   OCC          E(Eh)            E(eV)
   0   2.0000     -20.574326      -559.8559
   1   2.0000     -20.571029      -559.7662
   2   2.0000     -20.559988      -559.4657
   3   2.0000     -11.299472      -307.4743
   4   2.0000     -11.290523      -307.2308
   5   2.0000     -11.282254      -307.0057
   6   2.0000     -11.239104      -305.8316
   7   2.0000     -11.233459      -305.6780
   8   2.0000     -11.229253      -305.5635
   9   2.0000      -1.393303       -37.9137
  10   2.0000      -1.381485       -37.5921
  11   2.0000      -1.363198       -37.0945
  12   2.0000      -1.221121       -33.2284
  13   2.0000      -0.978794       -26.6343
  14   2.0000      -0.955075       -25.9889
  15   2.0000      -0.850920       -23.1547
  16   2.0000      -0.774633       -21.0788
  17   2.0000      -0.758280       -20.6339
  18   2.0000      -0.735118       -20.0036
  19   2.0000      -0.697604       -18.9828
  20   2.0000      -0.660231       -17.9658
  21   2.0000      -0.644248       -17.5309
  22   2.0000      -0.621398       -16.9091
  23   2.0000      -0.611602       -16.6425
  24   2.0000      -0.589836       -16.0503
  25   2.0000      -0.571581       -15.5535
  26   2.0000      -0.549508       -14.9529
  27   2.0000      -0.536343       -14.5946
  28   2.0000      -0.492523       -13.4022
  29   2.0000      -0.485914       -13.2224
  30   2.0000      -0.439225       -11.9519
  31   2.0000      -0.413959       -11.2644
  32   2.0000      -0.381674       -10.3859
  33   2.0000      -0.379259       -10.3202
  34   0.0000       0.130902         3.5620
  35   0.0000       0.145805         3.9676
  36   0.0000       0.158198         4.3048
  37   0.0000       0.172536         4.6949
  38   0.0000       0.181646         4.9428

MULLIKEN ATOMIC CHARGES
-----------------------
   0 O :   -0.474750
   1 C :    0.078138
   2 C :    0.172441
   3 O :   -0.461682
   4 C :   -0.235343
   5 C :   -0.161824
   6 C :    0.196842
   7 O :   -0.449950
   8 C :   -0.264868
   9 H :    0.323306
  10 H :    0.092514
  11 H :    0.335260
  12 H :    0.136126
  13 H :    0.107543
  14 H :    0.116368
  15 H :    0.325706
  16 H :    0.164172
Sum of atomic charges:   -0.0000000

LOEWDIN ATOMIC CHARGES
----------------------
   0 O :   -0.011874
   1 C :   -0.266043
   2 C :   -0.305173
   3 O :    0.040553
   4 C :   -0.151721
   5 C :   -0.186579
   6 C :   -0.307632
   7 O :    0.030548
   8 C :   -0.091613
   9 H :    0.180135
  10 H :    0.148098
  11 H :    0.192031
  12 H :    0.140558
  13 H :    0.136633
  14 H :    0.129813
  15 H :    0.183979
  16 H :    0.138286

  Mayer bond orders larger than 0.1
B(  0-O ,  1-C ) :   1.1076 B(  0-O ,  9-H ) :   0.8403 B(  1-C ,  2-C ) :   0.9522
B(  1-C ,  6-C ) :   0.9137 B(  1-C , 10-H ) :   0.9476 B(  2-C ,  3-O ) :   1.0042
B(  2-C ,  4-C ) :   0.8430 B(  2-C ,  8-C ) :   0.8378 B(  3-O , 11-H ) :   0.8331
B(  4-C ,  5-C ) :   0.9129 B(  4-C ,  8-C ) :   0.8744 B(  4-C , 12-H ) :   0.9290
B(  5-C ,  6-C ) :   0.9588 B(  5-C , 13-H ) :   0.9178 B(  5-C , 14-H ) :   0.8921
B(  6-C ,  7-O ) :   1.0515 B(  6-C ,  8-C ) :   0.8449 B(  7-O , 15-H ) :   0.8356
B(  8-C , 16-H ) :   0.8850

MP2 TOTAL ENERGY:     -458.180912663 Eh
FINAL SINGLE POINT ENERGY      -458.180912663025

DIPOLE MOMENT
-------------
                                X             Y             Z
Electronic contribution:      0.39718      -0.10176       2.23678
Nuclear contribution   :     -0.27191       0.12885      -2.90402
                        -----------------------------------------
Total Dipole Moment    :      0.12527       0.02709      -0.66723
                        -----------------------------------------
Magnitude (a.u.)       :      0.67943
Magnitude (Debye)      :      1.72697

                             ****ORCA TERMINATED NORMALLY****
TOTAL RUN TIME: 0 days 0 hours 15 minutes 12 seconds 152 msec
