                         Program Version 3.0.3 - RELEASE   -
|  1> ! RI-MP2 RIJK def2-TZVP def2-TZVP/C def2-TZVP/JK TIGHTSCF
|  2> % maxcore 2000
|  3> % mp2 density relaxed end
|  4> *xyz 0 1
|  5>  C       -0.0487881196     1.6029268500    -0.0818120808
|  6>  C       -0.1293841026     0.0725845722    -0.1089567421
|  7>  C        0.7966076669    -0.5758666303    -1.1391967789
|  8>  C        2.2984337679    -0.3602518821    -0.8811063344
|  9>  O        2.9715790628    -1.4522092230    -1.5206470582
| 10>  C        2.0984244334    -2.4936522841    -1.7316484847
| 11>  C        0.7345627212    -2.1101931781    -1.2028366891
| 12>  N        2.3948477748    -3.5849147145    -2.2840885050
| 13>  C        3.7593258622    -3.8155853046    -2.7320783320
| 14>  H        0.9540354767     1.9512674969     0.1879638042
| 15>  H       -0.2953310156     2.0293737962    -1.0604369788
| 16>  H       -0.7483160807     2.0206091607     0.6482987266
| 17>  H        0.1082763770    -0.3289127439     0.8855950196
| 18>  H       -1.1611160789    -0.2331480950    -0.3211628297
| 19>  H        0.5621227038    -0.1749598129    -2.1341805536
| 20>  H        2.6952858360     0.5677593714    -1.2993638325
| 21>  H        2.5221335837    -0.3810873781     0.1953544621
| 22>  H        0.6055001121    -2.5309978946    -0.1966309366
| 23>  H       -0.0607176530    -2.5097364820    -1.8325302810
| 24>  H        4.2571083638    -4.5117762220    -2.0453216519
| 25>  H        3.7329252758    -4.3030250381    -3.7123112060
| 26>  H        4.3705103422    -2.9084844240    -2.8016654772
| 27> *
| 28>
| 29>                          ****END OF INPUT****

CARTESIAN COORDINATES (ANGSTROEM)
---------------------------------
  C     -0.048788    1.602927   -0.081812
  C     -0.129384    0.072585   -0.108957
  C      0.796608   -0.575867   -1.139197
  C      2.298434   -0.360252   -0.881106
  O      2.971579   -1.452209   -1.520647
  C      2.098424   -2.493652   -1.731648
  C      0.734563   -2.110193   -1.202837
  N      2.394848   -3.584915   -2.284089
  C      3.759326   -3.815585   -2.732078
  H      0.954035    1.951267    0.187964
  H     -0.295331    2.029374   -1.060437
  H     -0.748316    2.020609    0.648299
  H      0.108276   -0.328913    0.885595
  H     -1.161116   -0.233148   -0.321163
  H      0.562123   -0.174960   -2.134181
  H      2.695286    0.567759   -1.299364
  H      2.522134   -0.381087    0.195354
  H      0.605500   -2.530998   -0.196631
  H     -0.060718   -2.509736   -1.832530
  H      4.257108   -4.511776   -2.045322
  H      3.732925   -4.303025   -3.712311
  H      4.370510   -2.908484   -2.801665

 Total Charge           Charge          ....    0
 Multiplicity           Mult            ....    1
 Number of Electrons    NEL             ....   70
 Basis Dimension        Dim             ....  357

ORBITAL ENERGIES
----------------

  NO   OCC          E(Eh)            E(eV)
   0   2.0000     -20.583296      -560.1000
   1   2.0000     -15.526143      -422.4878
   2   2.0000     -11.321599      -308.0764
   3   2.0000     -11.289387      -307.1998
   4   2.0000     -11.243520      -305.9517
   5   2.0000     -11.236510      -305.7610
   6   2.0000     -11.236099      -305.7498
   7   2.0000     -11.228850      -305.5526
   8   2.0000     -11.226335      -305.4841
   9   2.0000      -1.418723       -38.6054
  10   2.0000      -1.202714       -32.7275
  11   2.0000      -1.107254       -30.1299
  12   2.0000      -1.019792       -27.7499
  13   2.0000      -0.975065       -26.5329
  14   2.0000      -0.904279       -24.6067
  15   2.0000      -0.873696       -23.7745
  16   2.0000      -0.798409       -21.7258
  17   2.0000      -0.744152       -20.2494
  18   2.0000      -0.682701       -18.5772
  19   2.0000      -0.676511       -18.4088
  20   2.0000      -0.633773       -17.2458
  21   2.0000      -0.616490       -16.7755
  22   2.0000      -0.600877       -16.3507
  23   2.0000      -0.588801       -16.0221
  24   2.0000      -0.577299       -15.7091
  25   2.0000      -0.550196       -14.9716
  26   2.0000      -0.543602       -14.7922
  27   2.0000      -0.532289       -14.4843
  28   2.0000      -0.516640       -14.0585
  29   2.0000      -0.497879       -13.5480
  30   2.0000      -0.480918       -13.0864
  31   2.0000      -0.469729       -12.7820
  32   2.0000      -0.466207       -12.6861
  33   2.0000      -0.394921       -10.7463
  34   2.0000      -0.369423       -10.0525
  35   0.0000       0.126628         3.4457
  36   0.0000       0.149245         4.0612
  37   0.0000       0.153862         4.1868
  38   0.0000       0.162727         4.4280
  39   0.0000       0.179448         4.8830

MULLIKEN ATOMIC CHARGES
-----------------------
   0 C :   -0.396664
   1 C :   -0.227795
   2 C :   -0.080870
   3 C :   -0.063672
   4 O :   -0.273926
   5 C :    0.126730
   6 C :   -0.175427
   7 N :   -0.250589
   8 C :   -0.270785
   9 H :    0.128758
  10 H :    0.128110
  11 H :    0.140058
  12 H :    0.112285
  13 H :    0.121241
  14 H :    0.101292
  15 H :    0.127131
  16 H :    0.100916
  17 H :    0.125092
  18 H :    0.138478
  19 H :    0.130234
  20 H :    0.133028
  21 H :    0.126376
Sum of atomic charges:   -0.0000000

LOEWDIN ATOMIC CHARGES
----------------------
   0 C :   -0.314975
   1 C :   -0.275206
   2 C :   -0.254208
   3 C :   -0.253896
   4 O :    0.229508
   5 C :   -0.371196
   6 C :   -0.194324
   7 N :    0.065790
   8 C :   -0.335151
   9 H :    0.121029
  10 H :    0.122698
  11 H :    0.123090
  12 H :    0.138276
  13 H :    0.141004
  14 H :    0.156548
  15 H :    0.127852
  16 H :    0.127156
  17 H :    0.153924
  18 H :    0.150319
  19 H :    0.117923
  20 H :    0.115210
  21 H :    0.108630

  Mayer bond orders larger than 0.1
B(  0-C ,  1-C ) :   0.9176 B(  0-C ,  9-H ) :   0.9392 B(  0-C , 10-H ) :   0.9371
B(  0-C , 11-H ) :   0.9412 B(  1-C ,  2-C ) :   0.9205 B(  1-C , 12-H ) :   0.9256
B(  1-C , 13-H ) :   0.9353 B(  2-C ,  3-C ) :   0.9312 B(  2-C ,  6-C ) :   0.9364
B(  2-C , 14-H ) :   0.9194 B(  3-C ,  4-O ) :   0.9009 B(  3-C , 15-H ) :   0.9248
B(  3-C , 16-H ) :   0.9200 B(  4-O ,  5-C ) :   1.0419 B(  5-C ,  6-C ) :   0.9192
B(  5-C ,  7-N ) :   2.0040 B(  6-C , 17-H ) :   0.9119 B(  6-C , 18-H ) :   0.9138
B(  7-N ,  8-C ) :   0.8577 B(  8-C , 19-H ) :   0.9326 B(  8-C , 20-H ) :   0.9408
B(  8-C , 21-H ) :   0.9295

MP2 TOTAL ENERGY:     -403.678061483 Eh
FINAL SINGLE POINT ENERGY      -403.678061483093

DIPOLE MOMENT
-------------
                                X             Y             Z
Electronic contribution:      3.56121      -5.38781      -2.64355
Nuclear contribution   :     -3.94261       6.35557       3.11623
                        -----------------------------------------
Total Dipole Moment    :     -0.38140       0.96776       0.47267
                        -----------------------------------------
Magnitude (a.u.)       :      1.14256
Magnitude (Debye)      :      2.90417

                             ****ORCA TERMINATED NORMALLY****
TOTAL RUN TIME: 0 days 0 hours 30 minutes 17 seconds 439 msec
