                         Program Version 3.0.3 - RELEASE   -
|  1> ! RI-MP2 RIJK def2-TZVP def2-TZVP/C def2-TZVP/JK TIGHTSCF
|  2> % maxcore 2000
|  3> % mp2 density relaxed end
|  4> *xyz 0 1
|  5>  C       -0.2920332854     1.4715830995    -0.0751975310
|  6>  C       -0.0054296495    -0.0271854814    -0.0472192081
|  7>  C        1.2616764815    -0.4605663669    -0.8455738053
|  8>  C        2.0476041139    -0.5364960663     0.4888534810
|  9>  C        0.6972196076    -0.5293711910     1.2507948633
| 10>  N        2.8796778041    -1.7102087375     0.6743708120
| 11>  C        4.2814403327    -1.5717625071     0.2854168257
| 12>  C        3.8947403143    -1.6188998382     1.7216060341
| 13>  H        0.5978731230     2.0571184578     0.1836317650
| 14>  H       -0.6199372281     1.7924908838    -1.0703233995
| 15>  H       -1.0800927567     1.7363999383     0.6386740341
| 16>  H       -0.9150326785    -0.5745313135    -0.3100984006
| 17>  H        1.1564572722    -1.4578999550    -1.2800602301
| 18>  H        1.6316230142     0.2264243380    -1.6120302258
| 19>  H        2.6128870365     0.3935640510     0.6715839860
| 20>  H        0.6214342565     0.1032867579     2.1397676456
| 21>  H        0.4046904809    -1.5495370344     1.5119694800
| 22>  H        4.7267919953    -2.4374002524    -0.1963258330
| 23>  H        4.6082201522    -0.6111022963    -0.1101793729
| 24>  H        3.9631379462    -0.6897355279     2.2856316488
| 25>  H        4.0525512756    -2.5195878085     2.3077798162
| 26> *
| 27>
| 28>                          ****END OF INPUT****

CARTESIAN COORDINATES (ANGSTROEM)
---------------------------------
  C     -0.292033    1.471583   -0.075198
  C     -0.005430   -0.027185   -0.047219
  C      1.261676   -0.460566   -0.845574
  C      2.047604   -0.536496    0.488853
  C      0.697220   -0.529371    1.250795
  N      2.879678   -1.710209    0.674371
  C      4.281440   -1.571763    0.285417
  C      3.894740   -1.618900    1.721606
  H      0.597873    2.057118    0.183632
  H     -0.619937    1.792491   -1.070323
  H     -1.080093    1.736400    0.638674
  H     -0.915033   -0.574531   -0.310098
  H      1.156457   -1.457900   -1.280060
  H      1.631623    0.226424   -1.612030
  H      2.612887    0.393564    0.671584
  H      0.621434    0.103287    2.139768
  H      0.404690   -1.549537    1.511969
  H      4.726792   -2.437400   -0.196326
  H      4.608220   -0.611102   -0.110179
  H      3.963138   -0.689736    2.285632
  H      4.052551   -2.519588    2.307780

 Total Charge           Charge          ....    0
 Multiplicity           Mult            ....    1
 Number of Electrons    NEL             ....   62
 Basis Dimension        Dim             ....  326

ORBITAL ENERGIES
----------------

  NO   OCC          E(Eh)            E(eV)
   0   2.0000     -15.554242      -423.2524
   1   2.0000     -11.251081      -306.1575
   2   2.0000     -11.250358      -306.1378
   3   2.0000     -11.249986      -306.1277
   4   2.0000     -11.222457      -305.3786
   5   2.0000     -11.211271      -305.0742
   6   2.0000     -11.210651      -305.0573
   7   2.0000     -11.210632      -305.0568
   8   2.0000      -1.270539       -34.5731
   9   2.0000      -1.125963       -30.6390
  10   2.0000      -0.986208       -26.8361
  11   2.0000      -0.905414       -24.6376
  12   2.0000      -0.895719       -24.3738
  13   2.0000      -0.837182       -22.7809
  14   2.0000      -0.802642       -21.8410
  15   2.0000      -0.730186       -19.8694
  16   2.0000      -0.675571       -18.3832
  17   2.0000      -0.665370       -18.1056
  18   2.0000      -0.618059       -16.8182
  19   2.0000      -0.588672       -16.0186
  20   2.0000      -0.577620       -15.7178
  21   2.0000      -0.534516       -14.5449
  22   2.0000      -0.526260       -14.3203
  23   2.0000      -0.523435       -14.2434
  24   2.0000      -0.520502       -14.1636
  25   2.0000      -0.484501       -13.1839
  26   2.0000      -0.449335       -12.2270
  27   2.0000      -0.435149       -11.8410
  28   2.0000      -0.429149       -11.6777
  29   2.0000      -0.415399       -11.3036
  30   2.0000      -0.367823       -10.0090
  31   0.0000       0.140310         3.8180
  32   0.0000       0.149446         4.0666
  33   0.0000       0.166287         4.5249
  34   0.0000       0.173512         4.7215
  35   0.0000       0.188670         5.1340

MULLIKEN ATOMIC CHARGES
-----------------------
   0 C :   -0.443330
   1 C :    0.008732
   2 C :   -0.209406
   3 C :   -0.087997
   4 C :   -0.209406
   5 N :   -0.213803
   6 C :   -0.175462
   7 C :   -0.175462
   8 H :    0.124799
   9 H :    0.129925
  10 H :    0.129925
  11 H :    0.099774
  12 H :    0.117541
  13 H :    0.110795
  14 H :    0.069399
  15 H :    0.110795
  16 H :    0.117541
  17 H :    0.130263
  18 H :    0.117556
  19 H :    0.117556
  20 H :    0.130263
Sum of atomic charges:    0.0000000

LOEWDIN ATOMIC CHARGES
----------------------
   0 C :   -0.300874
   1 C :   -0.251409
   2 C :   -0.199782
   3 C :   -0.278877
   4 C :   -0.199782
   5 N :    0.106970
   6 C :   -0.267797
   7 C :   -0.267797
   8 H :    0.122734
   9 H :    0.122891
  10 H :    0.122891
  11 H :    0.137621
  12 H :    0.139639
  13 H :    0.125002
  14 H :    0.132201
  15 H :    0.125002
  16 H :    0.139639
  17 H :    0.123776
  18 H :    0.122087
  19 H :    0.122087
  20 H :    0.123776

  Mayer bond orders larger than 0.1
B(  0-C ,  1-C ) :   0.9032 B(  0-C ,  8-H ) :   0.9333 B(  0-C ,  9-H ) :   0.9419
B(  0-C , 10-H ) :   0.9419 B(  1-C ,  2-C ) :   0.9019 B(  1-C ,  4-C ) :   0.9019
B(  1-C , 11-H ) :   0.9211 B(  2-C ,  3-C ) :   0.9394 B(  2-C , 12-H ) :   0.9152
B(  2-C , 13-H ) :   0.9289 B(  3-C ,  4-C ) :   0.9394 B(  3-C ,  5-N ) :   1.0032
B(  3-C , 14-H ) :   0.9182 B(  4-C , 15-H ) :   0.9289 B(  4-C , 16-H ) :   0.9152
B(  5-N ,  6-C ) :   0.8788 B(  5-N ,  7-C ) :   0.8788 B(  6-C ,  7-C ) :   0.9496
B(  6-C , 17-H ) :   0.9274 B(  6-C , 18-H ) :   0.9221 B(  7-C , 19-H ) :   0.9221
B(  7-C , 20-H ) :   0.9274

MP2 TOTAL ENERGY:     -328.491911591 Eh
FINAL SINGLE POINT ENERGY      -328.491911590772

DIPOLE MOMENT
-------------
                                X             Y             Z
Electronic contribution:      2.26290      -3.66004       0.48917
Nuclear contribution   :     -2.06821       4.01141      -0.42522
                        -----------------------------------------
Total Dipole Moment    :      0.19469       0.35137       0.06395
                        -----------------------------------------
Magnitude (a.u.)       :      0.40676
Magnitude (Debye)      :      1.03391

                             ****ORCA TERMINATED NORMALLY****
TOTAL RUN TIME: 0 days 0 hours 14 minutes 7 seconds 285 msec
