                         Program Version 3.0.3 - RELEASE   -
|  1> ! RI-MP2 RIJK def2-TZVP def2-TZVP/C def2-TZVP/JK TIGHTSCF
|  2> % maxcore 2000
|  3> % mp2 density relaxed end
|  4> *xyz 0 1
|  5>  C       -0.0766754603     1.4257156398    -0.2219646848
|  6>  C       -0.0492116747     0.0006457965     0.2861398268
|  7>  O        0.9002647895    -0.4815066642     0.8630854421
|  8>  C       -1.3040635271    -0.8016290427     0.0670847112
|  9>  C       -2.2139402696    -0.9328344860    -1.1655542815
| 10>  C       -2.9350945596    -1.6532279147    -0.0254142223
| 11>  C       -1.6307714283    -2.2215119845     0.6139878850
| 12>  C       -2.0435238533    -1.6114331829     1.9483001226
| 13>  N       -2.5546158038    -0.5366147808     0.9876283689
| 14>  H        0.8317342161     1.9476656484     0.0806160132
| 15>  H       -0.1584788972     1.4340804161    -1.3150927218
| 16>  H       -0.9618795085     1.9400587211     0.1674785940
| 17>  H       -2.6819262369    -0.0115340489    -1.5220496159
| 18>  H       -1.8390970103    -1.5475086148    -1.9874216689
| 19>  H       -3.9324905460    -2.0949060016     0.0024815688
| 20>  H       -1.1124589201    -3.1556039021     0.3810942961
| 21>  H       -2.8503878777    -2.0969104500     2.5067058845
| 22>  H       -1.2567327822    -1.2636445186     2.6220613420
| 23> *
| 24>
| 25>                          ****END OF INPUT****

CARTESIAN COORDINATES (ANGSTROEM)
---------------------------------
  C     -0.076675    1.425716   -0.221965
  C     -0.049212    0.000646    0.286140
  O      0.900265   -0.481507    0.863085
  C     -1.304064   -0.801629    0.067085
  C     -2.213940   -0.932834   -1.165554
  C     -2.935095   -1.653228   -0.025414
  C     -1.630771   -2.221512    0.613988
  C     -2.043524   -1.611433    1.948300
  N     -2.554616   -0.536615    0.987628
  H      0.831734    1.947666    0.080616
  H     -0.158479    1.434080   -1.315093
  H     -0.961880    1.940059    0.167479
  H     -2.681926   -0.011534   -1.522050
  H     -1.839097   -1.547509   -1.987422
  H     -3.932491   -2.094906    0.002482
  H     -1.112459   -3.155604    0.381094
  H     -2.850388   -2.096910    2.506706
  H     -1.256733   -1.263645    2.622061

 Total Charge           Charge          ....    0
 Multiplicity           Mult            ....    1
 Number of Electrons    NEL             ....   66
 Basis Dimension        Dim             ....  333

ORBITAL ENERGIES
----------------

  NO   OCC          E(Eh)            E(eV)
   0   2.0000     -20.552842      -559.2713
   1   2.0000     -15.578485      -423.9121
   2   2.0000     -11.335567      -308.4565
   3   2.0000     -11.287362      -307.1447
   4   2.0000     -11.283478      -307.0390
   5   2.0000     -11.257694      -306.3374
   6   2.0000     -11.254458      -306.2494
   7   2.0000     -11.246075      -306.0213
   8   2.0000     -11.235239      -305.7264
   9   2.0000      -1.394798       -37.9544
  10   2.0000      -1.323533       -36.0152
  11   2.0000      -1.048350       -28.5270
  12   2.0000      -1.018636       -27.7185
  13   2.0000      -0.939920       -25.5765
  14   2.0000      -0.915188       -24.9035
  15   2.0000      -0.853609       -23.2279
  16   2.0000      -0.781900       -21.2766
  17   2.0000      -0.691886       -18.8272
  18   2.0000      -0.682984       -18.5849
  19   2.0000      -0.645459       -17.5638
  20   2.0000      -0.633527       -17.2392
  21   2.0000      -0.620386       -16.8816
  22   2.0000      -0.612586       -16.6693
  23   2.0000      -0.593908       -16.1611
  24   2.0000      -0.566366       -15.4116
  25   2.0000      -0.511556       -13.9201
  26   2.0000      -0.504425       -13.7261
  27   2.0000      -0.489146       -13.3103
  28   2.0000      -0.470358       -12.7991
  29   2.0000      -0.458865       -12.4864
  30   2.0000      -0.444394       -12.0926
  31   2.0000      -0.402109       -10.9419
  32   2.0000      -0.384708       -10.4684
  33   0.0000       0.123890         3.3712
  34   0.0000       0.138587         3.7711
  35   0.0000       0.159121         4.3299
  36   0.0000       0.165011         4.4902
  37   0.0000       0.177126         4.8198

MULLIKEN ATOMIC CHARGES
-----------------------
   0 C :   -0.431498
   1 C :    0.143626
   2 O :   -0.274635
   3 C :    0.051215
   4 C :   -0.178563
   5 C :   -0.116525
   6 C :   -0.047166
   7 C :   -0.171730
   8 N :   -0.201793
   9 H :    0.153613
  10 H :    0.148941
  11 H :    0.165381
  12 H :    0.121037
  13 H :    0.128581
  14 H :    0.137165
  15 H :    0.121572
  16 H :    0.118482
  17 H :    0.132296
Sum of atomic charges:    0.0000000

LOEWDIN ATOMIC CHARGES
----------------------
   0 C :   -0.271579
   1 C :   -0.320387
   2 O :    0.163278
   3 C :   -0.183998
   4 C :   -0.180149
   5 C :   -0.173288
   6 C :   -0.142625
   7 C :   -0.230534
   8 N :    0.147437
   9 H :    0.133945
  10 H :    0.139656
  11 H :    0.144047
  12 H :    0.135591
  13 H :    0.135465
  14 H :    0.126289
  15 H :    0.127311
  16 H :    0.123033
  17 H :    0.126508

  Mayer bond orders larger than 0.1
B(  0-C ,  1-C ) :   0.9598 B(  0-C ,  9-H ) :   0.9370 B(  0-C , 10-H ) :   0.9091
B(  0-C , 11-H ) :   0.9105 B(  1-C ,  2-O ) :   2.0357 B(  1-C ,  3-C ) :   0.8048
B(  3-C ,  4-C ) :   0.8692 B(  3-C ,  6-C ) :   0.8446 B(  3-C ,  8-N ) :   0.8706
B(  4-C ,  5-C ) :   0.9390 B(  4-C , 12-H ) :   0.9088 B(  4-C , 13-H ) :   0.9246
B(  5-C ,  6-C ) :   0.9080 B(  5-C ,  8-N ) :   0.8995 B(  5-C , 14-H ) :   0.8934
B(  6-C ,  7-C ) :   0.9577 B(  6-C , 15-H ) :   0.9062 B(  7-C ,  8-N ) :   0.9110
B(  7-C , 16-H ) :   0.9252 B(  7-C , 17-H ) :   0.9259

MP2 TOTAL ENERGY:     -401.172677873 Eh
FINAL SINGLE POINT ENERGY      -401.172677872512

DIPOLE MOMENT
-------------
                                X             Y             Z
Electronic contribution:      1.66769      -1.80368       1.64594
Nuclear contribution   :     -2.19912       1.60618      -2.30866
                        -----------------------------------------
Total Dipole Moment    :     -0.53144      -0.19750      -0.66272
                        -----------------------------------------
Magnitude (a.u.)       :      0.87214
Magnitude (Debye)      :      2.21680

                             ****ORCA TERMINATED NORMALLY****
TOTAL RUN TIME: 0 days 0 hours 21 minutes 28 seconds 32 msec
