                         Program Version 3.0.3 - RELEASE   -
|  1> ! RI-MP2 RIJK def2-TZVP def2-TZVP/C def2-TZVP/JK TIGHTSCF
|  2> % maxcore 2000
|  3> % mp2 density relaxed end
|  4> *xyz 0 1
|  5>  C        0.1138986284     1.5698264489    -0.0092288894
|  6>  C        0.0494312715     0.0348651048    -0.0103290865
|  7>  C        0.7505061027    -0.5290688631    -1.2552125278
|  8>  C        0.6518980796    -0.5470779098     1.2745576852
|  9>  C       -0.1550389866    -0.2371206982     2.5403677745
| 10>  C       -0.9068635030    -1.5102242975     2.4549397292
| 11>  C        0.2883638451    -2.0355367422     1.5673801566
| 12>  C        0.9949230146    -2.2879144697     2.9072959179
| 13>  N        0.0611420307    -1.3161844769     3.5711167099
| 14>  H        1.1518257728     1.9172097683     0.0598129186
| 15>  H       -0.3106031852     1.9797397105    -0.9314679628
| 16>  H       -0.4383718029     2.0007257297     0.8310793656
| 17>  H       -1.0090123758    -0.2606987517    -0.0471453939
| 18>  H        1.8117255365    -0.2527784943    -1.2638289344
| 19>  H        0.6908833455    -1.6207811129    -1.2997485105
| 20>  H        0.2993853619    -0.1333690074    -2.1711127178
| 21>  H        1.7263731092    -0.3161230631     1.3102665284
| 22>  H       -0.4726151320     0.7212427148     2.9299705015
| 23>  H       -1.9461322180    -1.7796210386     2.5874360496
| 24>  H        0.2551658655    -2.7731524234     0.7677186736
| 25>  H        0.8071971077    -3.2800815361     3.3258739544
| 26>  H        2.0619077020    -2.0459520220     2.9860830082
| 27> *
| 28>
| 29>                          ****END OF INPUT****

CARTESIAN COORDINATES (ANGSTROEM)
---------------------------------
  C      0.113899    1.569826   -0.009229
  C      0.049431    0.034865   -0.010329
  C      0.750506   -0.529069   -1.255213
  C      0.651898   -0.547078    1.274558
  C     -0.155039   -0.237121    2.540368
  C     -0.906864   -1.510224    2.454940
  C      0.288364   -2.035537    1.567380
  C      0.994923   -2.287914    2.907296
  N      0.061142   -1.316184    3.571117
  H      1.151826    1.917210    0.059813
  H     -0.310603    1.979740   -0.931468
  H     -0.438372    2.000726    0.831079
  H     -1.009012   -0.260699   -0.047145
  H      1.811726   -0.252778   -1.263829
  H      0.690883   -1.620781   -1.299749
  H      0.299385   -0.133369   -2.171113
  H      1.726373   -0.316123    1.310267
  H     -0.472615    0.721243    2.929971
  H     -1.946132   -1.779621    2.587436
  H      0.255166   -2.773152    0.767719
  H      0.807197   -3.280082    3.325874
  H      2.061908   -2.045952    2.986083

 Total Charge           Charge          ....    0
 Multiplicity           Mult            ....    1
 Number of Electrons    NEL             ....   68
 Basis Dimension        Dim             ....  357

ORBITAL ENERGIES
----------------

  NO   OCC          E(Eh)            E(eV)
   0   2.0000     -15.557613      -423.3442
   1   2.0000     -11.258684      -306.3644
   2   2.0000     -11.255660      -306.2821
   3   2.0000     -11.250930      -306.1534
   4   2.0000     -11.240869      -305.8796
   5   2.0000     -11.234286      -305.7005
   6   2.0000     -11.231783      -305.6324
   7   2.0000     -11.215415      -305.1870
   8   2.0000     -11.214779      -305.1697
   9   2.0000      -1.311317       -35.6828
  10   2.0000      -1.093468       -29.7548
  11   2.0000      -0.998520       -27.1711
  12   2.0000      -0.982009       -26.7218
  13   2.0000      -0.930871       -25.3303
  14   2.0000      -0.875870       -23.8336
  15   2.0000      -0.804074       -21.8800
  16   2.0000      -0.760296       -20.6887
  17   2.0000      -0.725475       -19.7412
  18   2.0000      -0.697190       -18.9715
  19   2.0000      -0.625703       -17.0262
  20   2.0000      -0.623010       -16.9530
  21   2.0000      -0.599953       -16.3256
  22   2.0000      -0.572722       -15.5846
  23   2.0000      -0.566459       -15.4141
  24   2.0000      -0.554053       -15.0766
  25   2.0000      -0.536931       -14.6106
  26   2.0000      -0.503042       -13.6885
  27   2.0000      -0.480319       -13.0702
  28   2.0000      -0.473238       -12.8774
  29   2.0000      -0.456571       -12.4239
  30   2.0000      -0.440754       -11.9935
  31   2.0000      -0.426829       -11.6146
  32   2.0000      -0.409306       -11.1378
  33   2.0000      -0.366402        -9.9703
  34   0.0000       0.136915         3.7256
  35   0.0000       0.155940         4.2433
  36   0.0000       0.162011         4.4085
  37   0.0000       0.170503         4.6396
  38   0.0000       0.181439         4.9372

MULLIKEN ATOMIC CHARGES
-----------------------
   0 C :   -0.410512
   1 C :   -0.066498
   2 C :   -0.400747
   3 C :   -0.033198
   4 C :   -0.109121
   5 C :   -0.160537
   6 C :   -0.084075
   7 C :   -0.103623
   8 N :   -0.223778
   9 H :    0.125926
  10 H :    0.132996
  11 H :    0.130897
  12 H :    0.092885
  13 H :    0.124211
  14 H :    0.126369
  15 H :    0.133200
  16 H :    0.091603
  17 H :    0.132678
  18 H :    0.142669
  19 H :    0.133568
  20 H :    0.121506
  21 H :    0.103581
Sum of atomic charges:   -0.0000000

LOEWDIN ATOMIC CHARGES
----------------------
   0 C :   -0.289368
   1 C :   -0.282847
   2 C :   -0.291538
   3 C :   -0.182700
   4 C :   -0.194409
   5 C :   -0.170835
   6 C :   -0.162781
   7 C :   -0.233236
   8 N :    0.120725
   9 H :    0.124563
  10 H :    0.123654
  11 H :    0.122312
  12 H :    0.156158
  13 H :    0.124020
  14 H :    0.120476
  15 H :    0.123646
  16 H :    0.144390
  17 H :    0.135815
  18 H :    0.128681
  19 H :    0.131707
  20 H :    0.131974
  21 H :    0.119593

  Mayer bond orders larger than 0.1
B(  0-C ,  1-C ) :   0.9146 B(  0-C ,  9-H ) :   0.9331 B(  0-C , 10-H ) :   0.9402
B(  0-C , 11-H ) :   0.9406 B(  1-C ,  2-C ) :   0.9068 B(  1-C ,  3-C ) :   0.8962
B(  1-C , 12-H ) :   0.9235 B(  2-C , 13-H ) :   0.9326 B(  2-C , 14-H ) :   0.9416
B(  2-C , 15-H ) :   0.9393 B(  3-C ,  4-C ) :   0.8766 B(  3-C ,  6-C ) :   0.8981
B(  3-C , 16-H ) :   0.9025 B(  4-C ,  5-C ) :   0.9030 B(  4-C ,  8-N ) :   0.9203
B(  4-C , 17-H ) :   0.9349 B(  5-C ,  6-C ) :   0.9078 B(  5-C ,  8-N ) :   0.8851
B(  5-C , 18-H ) :   0.9027 B(  6-C ,  7-C ) :   0.9337 B(  6-C , 19-H ) :   0.9078
B(  7-C ,  8-N ) :   0.9168 B(  7-C , 20-H ) :   0.9355 B(  7-C , 21-H ) :   0.9186

MP2 TOTAL ENERGY:     -366.487813868 Eh
FINAL SINGLE POINT ENERGY      -366.487813868373

DIPOLE MOMENT
-------------
                                X             Y             Z
Electronic contribution:     -1.67008      -3.60602       7.79901
Nuclear contribution   :      1.66921       3.51267      -8.58326
                        -----------------------------------------
Total Dipole Moment    :     -0.00087      -0.09335      -0.78426
                        -----------------------------------------
Magnitude (a.u.)       :      0.78980
Magnitude (Debye)      :      2.00750

                             ****ORCA TERMINATED NORMALLY****
TOTAL RUN TIME: 0 days 0 hours 24 minutes 22 seconds 185 msec
