                         Program Version 3.0.3 - RELEASE   -
|  1> ! RI-MP2 RIJK def2-TZVP def2-TZVP/C def2-TZVP/JK TIGHTSCF
|  2> % maxcore 2000
|  3> % mp2 density relaxed end
|  4> *xyz 0 1
|  5>  C       -0.1572537842    -1.1485910772     0.1358997773
|  6>  C       -0.0464566071     0.0456769275     0.0743817296
|  7>  C        0.0509478826     1.5051508867    -0.0321633257
|  8>  C        1.4433667192     1.9646820282    -0.0020754977
|  9>  C        2.5739786001     2.3697042715    -0.0042467649
| 10>  C       -0.6661172979     2.0110920261    -1.3059423278
| 11>  C       -2.2042392327     1.8949346500    -1.2755912311
| 12>  O       -2.3505276333     3.3251701175    -1.1527467721
| 13>  C       -0.9346423844     3.5299427160    -1.3408884018
| 14>  H       -0.2430770946    -2.2052027964     0.2011613934
| 15>  H       -0.4718861963     1.9454266518     0.8304880574
| 16>  H        3.5778295360     2.7164739779     0.0050609486
| 17>  H       -0.1748462455     1.5944943458    -2.1856695216
| 18>  H       -2.6552879213     1.5134842370    -2.2000637208
| 19>  H       -2.6325439355     1.3559911571    -0.4220715406
| 20>  H       -0.4864292157     4.1198026133    -0.5324497157
| 21>  H       -0.7132378794     4.0144893373    -2.2999464366
| 22> *
| 23>
| 24>                          ****END OF INPUT****

CARTESIAN COORDINATES (ANGSTROEM)
---------------------------------
  C     -0.157254   -1.148591    0.135900
  C     -0.046457    0.045677    0.074382
  C      0.050948    1.505151   -0.032163
  C      1.443367    1.964682   -0.002075
  C      2.573979    2.369704   -0.004247
  C     -0.666117    2.011092   -1.305942
  C     -2.204239    1.894935   -1.275591
  O     -2.350528    3.325170   -1.152747
  C     -0.934642    3.529943   -1.340888
  H     -0.243077   -2.205203    0.201161
  H     -0.471886    1.945427    0.830488
  H      3.577830    2.716474    0.005061
  H     -0.174846    1.594494   -2.185670
  H     -2.655288    1.513484   -2.200064
  H     -2.632544    1.355991   -0.422072
  H     -0.486429    4.119803   -0.532450
  H     -0.713238    4.014489   -2.299946

 Total Charge           Charge          ....    0
 Multiplicity           Mult            ....    1
 Number of Electrons    NEL             ....   64
 Basis Dimension        Dim             ....  327

ORBITAL ENERGIES
----------------

  NO   OCC          E(Eh)            E(eV)
   0   2.0000     -20.552822      -559.2707
   1   2.0000     -11.298787      -307.4556
   2   2.0000     -11.284843      -307.0762
   3   2.0000     -11.284839      -307.0761
   4   2.0000     -11.255129      -306.2676
   5   2.0000     -11.247212      -306.0522
   6   2.0000     -11.247202      -306.0519
   7   2.0000     -11.235456      -305.7323
   8   2.0000     -11.235454      -305.7323
   9   2.0000      -1.383539       -37.6480
  10   2.0000      -1.134128       -30.8612
  11   2.0000      -1.031012       -28.0553
  12   2.0000      -1.022669       -27.8282
  13   2.0000      -0.946087       -25.7443
  14   2.0000      -0.941137       -25.6097
  15   2.0000      -0.775078       -21.0909
  16   2.0000      -0.755341       -20.5539
  17   2.0000      -0.730294       -19.8723
  18   2.0000      -0.701247       -19.0819
  19   2.0000      -0.676769       -18.4158
  20   2.0000      -0.671311       -18.2673
  21   2.0000      -0.628865       -17.1123
  22   2.0000      -0.596776       -16.2391
  23   2.0000      -0.567161       -15.4332
  24   2.0000      -0.554108       -15.0780
  25   2.0000      -0.476502       -12.9663
  26   2.0000      -0.472234       -12.8501
  27   2.0000      -0.424539       -11.5523
  28   2.0000      -0.414563       -11.2808
  29   2.0000      -0.411364       -11.1938
  30   2.0000      -0.394987       -10.7481
  31   2.0000      -0.388047       -10.5593
  32   0.0000       0.130559         3.5527
  33   0.0000       0.151633         4.1262
  34   0.0000       0.156054         4.2464
  35   0.0000       0.156497         4.2585
  36   0.0000       0.164850         4.4858

MULLIKEN ATOMIC CHARGES
-----------------------
   0 C :   -0.123094
   1 C :   -0.020836
   2 C :   -0.348530
   3 C :   -0.020853
   4 C :   -0.123113
   5 C :   -0.081332
   6 C :   -0.021369
   7 O :   -0.329676
   8 C :   -0.021365
   9 H :    0.195892
  10 H :    0.151682
  11 H :    0.195890
  12 H :    0.130386
  13 H :    0.100478
  14 H :    0.107679
  15 H :    0.107684
  16 H :    0.100477
Sum of atomic charges:    0.0000000

LOEWDIN ATOMIC CHARGES
----------------------
   0 C :   -0.082987
   1 C :   -0.068371
   2 C :   -0.216501
   3 C :   -0.068369
   4 C :   -0.082989
   5 C :   -0.191679
   6 C :   -0.246142
   7 O :    0.110402
   8 C :   -0.246142
   9 H :    0.129114
  10 H :    0.194357
  11 H :    0.129114
  12 H :    0.153454
  13 H :    0.119946
  14 H :    0.123423
  15 H :    0.123426
  16 H :    0.119945

  Mayer bond orders larger than 0.1
B(  0-C ,  1-C ) :   2.5815 B(  0-C ,  2-C ) :  -0.1029 B(  0-C ,  9-H ) :   0.8909
B(  1-C ,  2-C ) :   1.1323 B(  2-C ,  3-C ) :   1.1323 B(  2-C ,  4-C ) :  -0.1029
B(  2-C ,  5-C ) :   0.8753 B(  2-C , 10-H ) :   0.9043 B(  3-C ,  4-C ) :   2.5814
B(  4-C , 11-H ) :   0.8909 B(  5-C ,  6-C ) :   0.9494 B(  5-C ,  8-C ) :   0.9494
B(  5-C , 12-H ) :   0.9118 B(  6-C ,  7-O ) :   0.9497 B(  6-C , 13-H ) :   0.9159
B(  6-C , 14-H ) :   0.9046 B(  7-O ,  8-C ) :   0.9497 B(  8-C , 15-H ) :   0.9046
B(  8-C , 16-H ) :   0.9159

MP2 TOTAL ENERGY:     -383.896207962 Eh
FINAL SINGLE POINT ENERGY      -383.896207961706

DIPOLE MOMENT
-------------
                                X             Y             Z
Electronic contribution:      1.48472      -1.08687       1.65000
Nuclear contribution   :     -1.05068       0.74293      -1.82176
                        -----------------------------------------
Total Dipole Moment    :      0.43405      -0.34395      -0.17176
                        -----------------------------------------
Magnitude (a.u.)       :      0.57983
Magnitude (Debye)      :      1.47380

                             ****ORCA TERMINATED NORMALLY****
TOTAL RUN TIME: 0 days 0 hours 16 minutes 30 seconds 619 msec
