                         Program Version 3.0.3 - RELEASE   -
|  1> ! RI-MP2 RIJK def2-TZVP def2-TZVP/C def2-TZVP/JK TIGHTSCF
|  2> % maxcore 2000
|  3> % mp2 density relaxed end
|  4> *xyz 0 1
|  5>  C        0.1195518309     1.5100361727     0.0987878611
|  6>  C        0.0374455672    -0.0060211074    -0.0101459184
|  7>  C       -1.3911557854    -0.5010427678     0.1759830842
|  8>  C        0.7623101693    -0.7254507040    -1.1628319945
|  9>  C        1.2341194433    -1.7548256048    -0.2151422158
| 10>  C        2.2636714453    -0.7737844704    -0.7685397558
| 11>  C        2.2982490859    -0.2029008482     0.6053632696
| 12>  O        3.0805348845     0.3635935852     1.3007041390
| 13>  N        0.9683417635    -0.7872075278     0.9487626111
| 14>  H        1.1240900067     1.8912153918    -0.0996815448
| 15>  H       -0.5668403852     1.9725115236    -0.6177548673
| 16>  H       -0.1717661535     1.8324967478     1.1035144997
| 17>  H       -2.0373461925    -0.1106493066    -0.6181793228
| 18>  H       -1.4396507230    -1.5928842035     0.1536019658
| 19>  H       -1.7854896847    -0.1614065983     1.1378733280
| 20>  H        0.4731109830    -0.8408534534    -2.2021830146
| 21>  H        1.2574025637    -2.8312868973    -0.1500859349
| 22>  H        3.0505308710    -0.9333907714    -1.4934626295
| 23> *
| 24>
| 25>                          ****END OF INPUT****

CARTESIAN COORDINATES (ANGSTROEM)
---------------------------------
  C      0.119552    1.510036    0.098788
  C      0.037446   -0.006021   -0.010146
  C     -1.391156   -0.501043    0.175983
  C      0.762310   -0.725451   -1.162832
  C      1.234119   -1.754826   -0.215142
  C      2.263671   -0.773784   -0.768540
  C      2.298249   -0.202901    0.605363
  O      3.080535    0.363594    1.300704
  N      0.968342   -0.787208    0.948763
  H      1.124090    1.891215   -0.099682
  H     -0.566840    1.972512   -0.617755
  H     -0.171766    1.832497    1.103514
  H     -2.037346   -0.110649   -0.618179
  H     -1.439651   -1.592884    0.153602
  H     -1.785490   -0.161407    1.137873
  H      0.473111   -0.840853   -2.202183
  H      1.257403   -2.831287   -0.150086
  H      3.050531   -0.933391   -1.493463

 Total Charge           Charge          ....    0
 Multiplicity           Mult            ....    1
 Number of Electrons    NEL             ....   66
 Basis Dimension        Dim             ....  333

ORBITAL ENERGIES
----------------

  NO   OCC          E(Eh)            E(eV)
   0   2.0000     -20.547758      -559.1329
   1   2.0000     -15.578460      -423.9114
   2   2.0000     -11.359347      -309.1035
   3   2.0000     -11.294120      -307.3286
   4   2.0000     -11.293181      -307.3031
   5   2.0000     -11.271923      -306.7246
   6   2.0000     -11.266714      -306.5829
   7   2.0000     -11.227236      -305.5086
   8   2.0000     -11.225948      -305.4736
   9   2.0000      -1.408067       -38.3155
  10   2.0000      -1.322943       -35.9991
  11   2.0000      -1.084100       -29.4999
  12   2.0000      -1.046296       -28.4712
  13   2.0000      -0.958682       -26.0871
  14   2.0000      -0.916846       -24.9486
  15   2.0000      -0.851157       -23.1612
  16   2.0000      -0.747297       -20.3350
  17   2.0000      -0.725165       -19.7327
  18   2.0000      -0.706877       -19.2351
  19   2.0000      -0.654567       -17.8117
  20   2.0000      -0.652425       -17.7534
  21   2.0000      -0.622427       -16.9371
  22   2.0000      -0.611541       -16.6409
  23   2.0000      -0.566124       -15.4050
  24   2.0000      -0.551774       -15.0145
  25   2.0000      -0.540863       -14.7176
  26   2.0000      -0.522875       -14.2281
  27   2.0000      -0.511501       -13.9186
  28   2.0000      -0.487816       -13.2742
  29   2.0000      -0.459698       -12.5090
  30   2.0000      -0.430441       -11.7129
  31   2.0000      -0.414022       -11.2661
  32   2.0000      -0.390812       -10.6345
  33   0.0000       0.132310         3.6003
  34   0.0000       0.152390         4.1467
  35   0.0000       0.156374         4.2551
  36   0.0000       0.166214         4.5229
  37   0.0000       0.182288         4.9603

MULLIKEN ATOMIC CHARGES
-----------------------
   0 C :   -0.399406
   1 C :    0.193508
   2 C :   -0.416831
   3 C :   -0.177252
   4 C :   -0.078469
   5 C :   -0.197073
   6 C :    0.193608
   7 O :   -0.239225
   8 N :   -0.185109
   9 H :    0.150446
  10 H :    0.132722
  11 H :    0.148253
  12 H :    0.128550
  13 H :    0.139474
  14 H :    0.142845
  15 H :    0.139160
  16 H :    0.170524
  17 H :    0.154275
Sum of atomic charges:   -0.0000000

LOEWDIN ATOMIC CHARGES
----------------------
   0 C :   -0.260652
   1 C :   -0.295865
   2 C :   -0.258988
   3 C :   -0.124109
   4 C :   -0.139945
   5 C :   -0.120839
   6 C :   -0.375165
   7 O :    0.171332
   8 N :    0.176928
   9 H :    0.134365
  10 H :    0.132230
  11 H :    0.137089
  12 H :    0.128175
  13 H :    0.131225
  14 H :    0.132966
  15 H :    0.145207
  16 H :    0.139405
  17 H :    0.146640

  Mayer bond orders larger than 0.1
B(  0-C ,  1-C ) :   0.9281 B(  0-C ,  9-H ) :   0.9241 B(  0-C , 10-H ) :   0.9264
B(  0-C , 11-H ) :   0.9288 B(  1-C ,  2-C ) :   0.8956 B(  1-C ,  3-C ) :   0.9392
B(  1-C ,  8-N ) :   0.8893 B(  2-C , 12-H ) :   0.9347 B(  2-C , 13-H ) :   0.9320
B(  2-C , 14-H ) :   0.9359 B(  3-C ,  4-C ) :   0.8984 B(  3-C ,  5-C ) :   0.7953
B(  3-C , 15-H ) :   0.9153 B(  4-C ,  5-C ) :   0.8112 B(  4-C ,  8-N ) :   0.9307
B(  4-C , 16-H ) :   0.8979 B(  5-C ,  6-C ) :   0.9623 B(  5-C , 17-H ) :   0.9026
B(  6-C ,  7-O ) :   2.0748 B(  6-C ,  8-N ) :   0.8888

MP2 TOTAL ENERGY:     -401.217557555 Eh
FINAL SINGLE POINT ENERGY      -401.217557554729

DIPOLE MOMENT
-------------
                                X             Y             Z
Electronic contribution:      7.93582      -2.13917       2.25934
Nuclear contribution   :     -8.74673       1.71198      -3.68637
                        -----------------------------------------
Total Dipole Moment    :     -0.81091      -0.42719      -1.42704
                        -----------------------------------------
Magnitude (a.u.)       :      1.69603
Magnitude (Debye)      :      4.31096

                             ****ORCA TERMINATED NORMALLY****
TOTAL RUN TIME: 0 days 0 hours 23 minutes 30 seconds 450 msec
