                         Program Version 3.0.3 - RELEASE   -
|  1> ! RI-MP2 RIJK def2-TZVP def2-TZVP/C def2-TZVP/JK TIGHTSCF
|  2> % maxcore 2000
|  3> % mp2 density relaxed end
|  4> *xyz 0 1
|  5>  O       -0.0174050207    -0.0222620871    -0.1674537655
|  6>  C       -0.0292093873     1.1486211778     0.0556103219
|  7>  C       -1.0499497138     2.3004756842     0.0386632753
|  8>  C       -0.8123183911     3.0002091760     1.3843566160
|  9>  C        0.7530265202     3.0107190873     1.3922815067
| 10>  C        1.0189502590     2.3147637006     0.0385401025
| 11>  N       -0.0307720692     3.0144849775    -0.8283546337
| 12>  C        2.3573572533     2.1684300123    -0.4475465620
| 13>  C        3.4790573690     2.0141273783    -0.8518927436
| 14>  H       -2.0628666777     2.1906772230    -0.3418751123
| 15>  H       -1.2277764182     4.0095314951     1.3770538990
| 16>  H       -1.2434347108     2.4448799099     2.2204940646
| 17>  H        1.1646231271     4.0211118211     1.3878141672
| 18>  H        1.1896250561     2.4524900777     2.2228060401
| 19>  H       -0.0156172162     2.5813527840    -1.7532659885
| 20>  H        4.4698318804     1.8783510521    -1.2097137378
| 21> *
| 22>
| 23>                          ****END OF INPUT****

CARTESIAN COORDINATES (ANGSTROEM)
---------------------------------
  O     -0.017405   -0.022262   -0.167454
  C     -0.029209    1.148621    0.055610
  C     -1.049950    2.300476    0.038663
  C     -0.812318    3.000209    1.384357
  C      0.753027    3.010719    1.392282
  C      1.018950    2.314764    0.038540
  N     -0.030772    3.014485   -0.828355
  C      2.357357    2.168430   -0.447547
  C      3.479057    2.014127   -0.851893
  H     -2.062867    2.190677   -0.341875
  H     -1.227776    4.009531    1.377054
  H     -1.243435    2.444880    2.220494
  H      1.164623    4.021112    1.387814
  H      1.189625    2.452490    2.222806
  H     -0.015617    2.581353   -1.753266
  H      4.469832    1.878351   -1.209714

 Total Charge           Charge          ....    0
 Multiplicity           Mult            ....    1
 Number of Electrons    NEL             ....   64
 Basis Dimension        Dim             ....  321

ORBITAL ENERGIES
----------------

  NO   OCC          E(Eh)            E(eV)
   0   2.0000     -20.565098      -559.6048
   1   2.0000     -15.586419      -424.1280
   2   2.0000     -11.347746      -308.7879
   3   2.0000     -11.310791      -307.7823
   4   2.0000     -11.288947      -307.1879
   5   2.0000     -11.250992      -306.1551
   6   2.0000     -11.248898      -306.0981
   7   2.0000     -11.247259      -306.0535
   8   2.0000     -11.242231      -305.9167
   9   2.0000      -1.412119       -38.4257
  10   2.0000      -1.289147       -35.0795
  11   2.0000      -1.066068       -29.0092
  12   2.0000      -1.057364       -28.7723
  13   2.0000      -0.978372       -26.6229
  14   2.0000      -0.919137       -25.0110
  15   2.0000      -0.827258       -22.5108
  16   2.0000      -0.778998       -21.1976
  17   2.0000      -0.737243       -20.0614
  18   2.0000      -0.710518       -19.3342
  19   2.0000      -0.669475       -18.2173
  20   2.0000      -0.641592       -17.4586
  21   2.0000      -0.626282       -17.0420
  22   2.0000      -0.568122       -15.4594
  23   2.0000      -0.564008       -15.3474
  24   2.0000      -0.540924       -14.7193
  25   2.0000      -0.533558       -14.5188
  26   2.0000      -0.512871       -13.9559
  27   2.0000      -0.502191       -13.6653
  28   2.0000      -0.441058       -12.0018
  29   2.0000      -0.419125       -11.4050
  30   2.0000      -0.401164       -10.9162
  31   2.0000      -0.374323       -10.1858
  32   0.0000       0.126853         3.4518
  33   0.0000       0.140119         3.8128
  34   0.0000       0.149082         4.0567
  35   0.0000       0.154084         4.1928
  36   0.0000       0.162436         4.4201

MULLIKEN ATOMIC CHARGES
-----------------------
   0 O :   -0.233535
   1 C :    0.109105
   2 C :   -0.020867
   3 C :   -0.230855
   4 C :   -0.208437
   5 C :   -0.144263
   6 N :   -0.309678
   7 C :    0.037464
   8 C :   -0.089076
   9 H :    0.152355
  10 H :    0.123177
  11 H :    0.129239
  12 H :    0.126822
  13 H :    0.133244
  14 H :    0.226616
  15 H :    0.198689
Sum of atomic charges:   -0.0000000

LOEWDIN ATOMIC CHARGES
----------------------
   0 O :    0.173296
   1 C :   -0.269045
   2 C :   -0.216430
   3 C :   -0.217398
   4 C :   -0.179381
   5 C :   -0.250809
   6 N :    0.077047
   7 C :   -0.066768
   8 C :   -0.060958
   9 H :    0.138972
  10 H :    0.140150
  11 H :    0.138693
  12 H :    0.143316
  13 H :    0.142089
  14 H :    0.177000
  15 H :    0.130224

  Mayer bond orders larger than 0.1
B(  0-O ,  1-C ) :   2.0894 B(  1-C ,  2-C ) :   0.9398 B(  1-C ,  5-C ) :   0.8741
B(  2-C ,  3-C ) :   0.9012 B(  2-C ,  5-C ) :  -0.1379 B(  2-C ,  6-N ) :   0.9616
B(  2-C ,  9-H ) :   0.8983 B(  3-C ,  4-C ) :   0.9837 B(  3-C , 10-H ) :   0.9069
B(  3-C , 11-H ) :   0.9244 B(  4-C ,  5-C ) :   0.9009 B(  4-C , 12-H ) :   0.9064
B(  4-C , 13-H ) :   0.9260 B(  5-C ,  6-N ) :   0.9359 B(  5-C ,  7-C ) :   1.1764
B(  5-C ,  8-C ) :  -0.1656 B(  6-N , 14-H ) :   0.8751 B(  7-C ,  8-C ) :   2.6114
B(  8-C , 15-H ) :   0.8679

MP2 TOTAL ENERGY:     -400.005254269 Eh
FINAL SINGLE POINT ENERGY      -400.005254269211

DIPOLE MOMENT
-------------
                                X             Y             Z
Electronic contribution:      1.57052      -4.01168      -2.93862
Nuclear contribution   :     -1.68679       4.61165       3.16605
                        -----------------------------------------
Total Dipole Moment    :     -0.11626       0.59997       0.22743
                        -----------------------------------------
Magnitude (a.u.)       :      0.65208
Magnitude (Debye)      :      1.65744

                             ****ORCA TERMINATED NORMALLY****
TOTAL RUN TIME: 0 days 0 hours 17 minutes 1 seconds 211 msec
