                         Program Version 3.0.3 - RELEASE   -
|  1> ! RI-MP2 RIJK def2-TZVP def2-TZVP/C def2-TZVP/JK TIGHTSCF
|  2> % maxcore 2000
|  3> % mp2 density relaxed end
|  4> *xyz 0 1
|  5>  C       -0.0898585500     1.4299137022    -0.0166039810
|  6>  C        0.0447707430    -0.0774166806     0.0280572499
|  7>  C        1.4066417041    -0.6594229186    -0.2177176465
|  8>  C        0.7779734071    -0.6737308830     1.1945270349
|  9>  C        0.7208826765    -2.2063840986     1.1548833636
| 10>  O       -0.5545223108    -2.8103486084     0.9850900663
| 11>  C       -0.4756461963    -3.5173335095    -0.2384761676
| 12>  O        0.3754107806    -2.7892216882    -1.1037852768
| 13>  C        1.3505290433    -2.1920551991    -0.2595319239
| 14>  H        0.8019427646     1.9229051279     0.3853323164
| 15>  H       -0.2300715512     1.7807941861    -1.0443468584
| 16>  H       -0.9498984118     1.7644225212     0.5728598819
| 17>  H       -0.8118462668    -0.6217518045    -0.3587804589
| 18>  H        2.2307956790    -0.0616570284    -0.5868733194
| 19>  H        1.0507590906    -0.0885305675     2.0639849823
| 20>  H        1.2987534226    -2.7043794030     1.9396649444
| 21>  H       -0.0751786642    -4.5331586227    -0.0704804115
| 22>  H       -1.4733450865    -3.5745935377    -0.6832155257
| 23>  H        2.3241356861    -2.6810059578    -0.3636329200
| 24> *
| 25>
| 26>                          ****END OF INPUT****

CARTESIAN COORDINATES (ANGSTROEM)
---------------------------------
  C     -0.089859    1.429914   -0.016604
  C      0.044771   -0.077417    0.028057
  C      1.406642   -0.659423   -0.217718
  C      0.777973   -0.673731    1.194527
  C      0.720883   -2.206384    1.154883
  O     -0.554522   -2.810349    0.985090
  C     -0.475646   -3.517334   -0.238476
  O      0.375411   -2.789222   -1.103785
  C      1.350529   -2.192055   -0.259532
  H      0.801943    1.922905    0.385332
  H     -0.230072    1.780794   -1.044347
  H     -0.949898    1.764423    0.572860
  H     -0.811846   -0.621752   -0.358780
  H      2.230796   -0.061657   -0.586873
  H      1.050759   -0.088531    2.063985
  H      1.298753   -2.704379    1.939665
  H     -0.075179   -4.533159   -0.070480
  H     -1.473345   -3.574594   -0.683216
  H      2.324136   -2.681006   -0.363633

 Total Charge           Charge          ....    0
 Multiplicity           Mult            ....    1
 Number of Electrons    NEL             ....   68
 Basis Dimension        Dim             ....  339

ORBITAL ENERGIES
----------------

  NO   OCC          E(Eh)            E(eV)
   0   2.0000     -20.561633      -559.5105
   1   2.0000     -20.561612      -559.5099
   2   2.0000     -11.328824      -308.2730
   3   2.0000     -11.287137      -307.1386
   4   2.0000     -11.286554      -307.1227
   5   2.0000     -11.236724      -305.7668
   6   2.0000     -11.235899      -305.7444
   7   2.0000     -11.235511      -305.7338
   8   2.0000     -11.220663      -305.3298
   9   2.0000      -1.436460       -39.0881
  10   2.0000      -1.332104       -36.2484
  11   2.0000      -1.191303       -32.4170
  12   2.0000      -1.026276       -27.9264
  13   2.0000      -0.939892       -25.5758
  14   2.0000      -0.889632       -24.2081
  15   2.0000      -0.870976       -23.7005
  16   2.0000      -0.772647       -21.0248
  17   2.0000      -0.751443       -20.4478
  18   2.0000      -0.725688       -19.7470
  19   2.0000      -0.694085       -18.8870
  20   2.0000      -0.645534       -17.5659
  21   2.0000      -0.632481       -17.2107
  22   2.0000      -0.613141       -16.6844
  23   2.0000      -0.586570       -15.9614
  24   2.0000      -0.569811       -15.5053
  25   2.0000      -0.543038       -14.7768
  26   2.0000      -0.530203       -14.4276
  27   2.0000      -0.521159       -14.1814
  28   2.0000      -0.521027       -14.1779
  29   2.0000      -0.461951       -12.5703
  30   2.0000      -0.443686       -12.0733
  31   2.0000      -0.426344       -11.6014
  32   2.0000      -0.402090       -10.9414
  33   2.0000      -0.381924       -10.3927
  34   0.0000       0.145217         3.9516
  35   0.0000       0.151039         4.1100
  36   0.0000       0.165569         4.5054
  37   0.0000       0.169833         4.6214
  38   0.0000       0.202922         5.5218

MULLIKEN ATOMIC CHARGES
-----------------------
   0 C :   -0.441237
   1 C :   -0.023931
   2 C :   -0.177501
   3 C :   -0.177512
   4 C :    0.070275
   5 O :   -0.334629
   6 C :    0.121849
   7 O :   -0.334630
   8 C :    0.070268
   9 H :    0.127258
  10 H :    0.140908
  11 H :    0.140907
  12 H :    0.135508
  13 H :    0.136088
  14 H :    0.136089
  15 H :    0.100995
  16 H :    0.085968
  17 H :    0.122334
  18 H :    0.100991
Sum of atomic charges:    0.0000000

LOEWDIN ATOMIC CHARGES
----------------------
   0 C :   -0.283995
   1 C :   -0.207702
   2 C :   -0.142525
   3 C :   -0.142524
   4 C :   -0.248669
   5 O :    0.167113
   6 C :   -0.369010
   7 O :    0.167110
   8 C :   -0.248682
   9 H :    0.127500
  10 H :    0.127242
  11 H :    0.127242
  12 H :    0.153070
  13 H :    0.138099
  14 H :    0.138099
  15 H :    0.136514
  16 H :    0.105246
  17 H :    0.119360
  18 H :    0.136515

  Mayer bond orders larger than 0.1
B(  0-C ,  1-C ) :   0.8645 B(  0-C ,  9-H ) :   0.9326 B(  0-C , 10-H ) :   0.9439
B(  0-C , 11-H ) :   0.9439 B(  1-C ,  2-C ) :   0.8783 B(  1-C ,  3-C ) :   0.8783
B(  1-C , 12-H ) :   0.9185 B(  2-C ,  3-C ) :   0.7998 B(  2-C ,  8-C ) :   0.8983
B(  2-C , 13-H ) :   0.9194 B(  3-C ,  4-C ) :   0.8983 B(  3-C , 14-H ) :   0.9194
B(  4-C ,  5-O ) :   0.9866 B(  4-C ,  8-C ) :   1.0006 B(  4-C , 15-H ) :   0.9621
B(  5-O ,  6-C ) :   0.9577 B(  6-C ,  7-O ) :   0.9577 B(  6-C , 16-H ) :   0.9233
B(  6-C , 17-H ) :   0.9297 B(  7-O ,  8-C ) :   0.9866 B(  8-C , 18-H ) :   0.9621

MP2 TOTAL ENERGY:     -422.287071356 Eh
FINAL SINGLE POINT ENERGY      -422.287071356282

DIPOLE MOMENT
-------------
                                X             Y             Z
Electronic contribution:     -0.00952      -5.92857      -0.06434
Nuclear contribution   :      0.45937       6.08446       0.26621
                        -----------------------------------------
Total Dipole Moment    :      0.44985       0.15589       0.20187
                        -----------------------------------------
Magnitude (a.u.)       :      0.51713
Magnitude (Debye)      :      1.31443

                             ****ORCA TERMINATED NORMALLY****
TOTAL RUN TIME: 0 days 0 hours 17 minutes 19 seconds 397 msec
