                         Program Version 3.0.3 - RELEASE   -
|  1> ! RI-MP2 RIJK def2-TZVP def2-TZVP/C def2-TZVP/JK TIGHTSCF
|  2> % maxcore 2000
|  3> % mp2 density relaxed end
|  4> *xyz 0 1
|  5>  C       -0.0709658061     1.5344773063    -0.0171528470
|  6>  C       -0.0141613871     0.0258522084    -0.0091896091
|  7>  C       -0.1222572952    -0.7078198340    -1.1885176610
|  8>  C       -0.0683986772    -2.1037951529    -1.1705343063
|  9>  C        0.0942292606    -2.7751055420     0.0297341390
| 10>  O        0.1601779616    -4.1420498919     0.1626171677
| 11>  C        0.2048413152    -2.0517772059     1.2277284536
| 12>  O        0.3647958478    -2.7040188986     2.4109658316
| 13>  C        0.1499702426    -0.6664356883     1.1975369514
| 14>  H        0.8469711817     1.9734839115     0.3904213893
| 15>  H       -0.2024099677     1.9203209992    -1.0315814962
| 16>  H       -0.9015406957     1.9087175000     0.5923775445
| 17>  H       -0.2499643122    -0.1932683120    -2.1350913403
| 18>  H       -0.1536424019    -2.6680333730    -2.0958104669
| 19>  H        0.0763496122    -4.5554153780    -0.7015452022
| 20>  H        0.3778505815    -3.6502613436     2.2196561049
| 21>  H        0.2380052499    -0.1317319753     2.1378996570
| 22> *
| 23>
| 24>                          ****END OF INPUT****

CARTESIAN COORDINATES (ANGSTROEM)
---------------------------------
  C     -0.070966    1.534477   -0.017153
  C     -0.014161    0.025852   -0.009190
  C     -0.122257   -0.707820   -1.188518
  C     -0.068399   -2.103795   -1.170534
  C      0.094229   -2.775106    0.029734
  O      0.160178   -4.142050    0.162617
  C      0.204841   -2.051777    1.227728
  O      0.364796   -2.704019    2.410966
  C      0.149970   -0.666436    1.197537
  H      0.846971    1.973484    0.390421
  H     -0.202410    1.920321   -1.031581
  H     -0.901541    1.908717    0.592378
  H     -0.249964   -0.193268   -2.135091
  H     -0.153642   -2.668033   -2.095810
  H      0.076350   -4.555415   -0.701545
  H      0.377851   -3.650261    2.219656
  H      0.238005   -0.131732    2.137900

 Total Charge           Charge          ....    0
 Multiplicity           Mult            ....    1
 Number of Electrons    NEL             ....   66
 Basis Dimension        Dim             ....  327

ORBITAL ENERGIES
----------------

  NO   OCC          E(Eh)            E(eV)
   0   2.0000     -20.599011      -560.5276
   1   2.0000     -20.579651      -560.0008
   2   2.0000     -11.295925      -307.3778
   3   2.0000     -11.294441      -307.3374
   4   2.0000     -11.238917      -305.8265
   5   2.0000     -11.238542      -305.8163
   6   2.0000     -11.226661      -305.4930
   7   2.0000     -11.224533      -305.4351
   8   2.0000     -11.222302      -305.3744
   9   2.0000      -1.422976       -38.7211
  10   2.0000      -1.388736       -37.7894
  11   2.0000      -1.147956       -31.2375
  12   2.0000      -1.037674       -28.2365
  13   2.0000      -1.008997       -27.4562
  14   2.0000      -0.930961       -25.3327
  15   2.0000      -0.851101       -23.1596
  16   2.0000      -0.817044       -22.2329
  17   2.0000      -0.736556       -20.0427
  18   2.0000      -0.720956       -19.6182
  19   2.0000      -0.664841       -18.0912
  20   2.0000      -0.635304       -17.2875
  21   2.0000      -0.617207       -16.7951
  22   2.0000      -0.608185       -16.5496
  23   2.0000      -0.585687       -15.9374
  24   2.0000      -0.571003       -15.5378
  25   2.0000      -0.569917       -15.5082
  26   2.0000      -0.558391       -15.1946
  27   2.0000      -0.530151       -14.4261
  28   2.0000      -0.509970       -13.8770
  29   2.0000      -0.494562       -13.4577
  30   2.0000      -0.463151       -12.6030
  31   2.0000      -0.329524        -8.9668
  32   2.0000      -0.300352        -8.1730
  33   0.0000       0.123520         3.3612
  34   0.0000       0.128005         3.4832
  35   0.0000       0.147414         4.0113
  36   0.0000       0.151112         4.1120
  37   0.0000       0.166897         4.5415

MULLIKEN ATOMIC CHARGES
-----------------------
   0 C :   -0.432850
   1 C :    0.172682
   2 C :   -0.211000
   3 C :   -0.189245
   4 C :    0.201841
   5 O :   -0.478622
   6 C :    0.188110
   7 O :   -0.427849
   8 C :   -0.270930
   9 H :    0.140910
  10 H :    0.132172
  11 H :    0.140904
  12 H :    0.116215
  13 H :    0.113347
  14 H :    0.336825
  15 H :    0.345987
  16 H :    0.121505
Sum of atomic charges:   -0.0000000

LOEWDIN ATOMIC CHARGES
----------------------
   0 C :   -0.267487
   1 C :   -0.179210
   2 C :   -0.138724
   3 C :   -0.153864
   4 C :   -0.259564
   5 O :    0.045137
   6 C :   -0.254665
   7 O :    0.077693
   8 C :   -0.095595
   9 H :    0.130397
  10 H :    0.127741
  11 H :    0.130394
  12 H :    0.146863
  13 H :    0.145055
  14 H :    0.193300
  15 H :    0.196823
  16 H :    0.155708

  Mayer bond orders larger than 0.1
B(  0-C ,  1-C ) :   0.8621 B(  0-C ,  9-H ) :   0.9346 B(  0-C , 10-H ) :   0.9508
B(  0-C , 11-H ) :   0.9346 B(  1-C ,  2-C ) :   1.3596 B(  1-C ,  8-C ) :   1.2814
B(  2-C ,  3-C ) :   1.3095 B(  2-C , 12-H ) :   0.9240 B(  3-C ,  4-C ) :   1.2942
B(  3-C , 13-H ) :   0.9130 B(  4-C ,  5-O ) :   1.0049 B(  4-C ,  6-C ) :   1.2126
B(  5-O , 14-H ) :   0.8324 B(  6-C ,  7-O ) :   1.1351 B(  6-C ,  8-C ) :   1.3770
B(  7-O , 15-H ) :   0.8170 B(  8-C , 16-H ) :   0.9450

MP2 TOTAL ENERGY:     -421.188276830 Eh
FINAL SINGLE POINT ENERGY      -421.188276830313

DIPOLE MOMENT
-------------
                                X             Y             Z
Electronic contribution:      0.52128      -7.11689       2.24311
Nuclear contribution   :     -0.60062       6.73171      -3.05887
                        -----------------------------------------
Total Dipole Moment    :     -0.07935      -0.38518      -0.81575
                        -----------------------------------------
Magnitude (a.u.)       :      0.90560
Magnitude (Debye)      :      2.30185

                             ****ORCA TERMINATED NORMALLY****
TOTAL RUN TIME: 0 days 0 hours 16 minutes 47 seconds 607 msec
