                         Program Version 3.0.3 - RELEASE   -
|  1> ! RI-MP2 RIJK def2-TZVP def2-TZVP/C def2-TZVP/JK TIGHTSCF
|  2> % maxcore 2000
|  3> % mp2 density relaxed end
|  4> *xyz 0 1
|  5>  O        0.1440495043     1.3954170756     0.0304590714
|  6>  C        0.0300629410     0.0016687369     0.0074142505
|  7>  C       -0.4515884435    -0.6718711295     1.2557914003
|  8>  C       -0.8617967255     0.1009537355     2.5026278799
|  9>  C       -1.9826051541     1.1291513004     2.2723963561
| 10>  C       -3.1049983868     0.5485787412     1.4096314176
| 11>  O       -4.1823606493     1.4626650422     1.2402275647
| 12>  C       -2.5930287833     0.2170515040     0.0069242310
| 13>  C       -1.3406990843    -0.6521324448     0.0176102886
| 14>  H       -0.0823628660     1.7308456467    -0.8440211918
| 15>  H        0.8160249130    -0.4996320038    -0.5577355016
| 16>  H        0.0357461302    -1.6182585333     1.4735445584
| 17>  H       -1.2068120179    -0.6330567112     3.2421943185
| 18>  H        0.0114048953     0.5948947255     2.9440425010
| 19>  H       -2.3883739634     1.4405446062     3.2443540997
| 20>  H       -1.5900262217     2.0222993902     1.7786659973
| 21>  H       -3.4689417181    -0.3818717313     1.8809696914
| 22>  H       -4.4780778113     1.7353544971     2.1146161689
| 23>  H       -3.3875122899    -0.2805314432    -0.5559329381
| 24>  H       -2.4040500551     1.1731013406    -0.4976147976
| 25>  H       -1.4175600534    -1.5830722351    -0.5354080263
| 26> *
| 27>
| 28>                          ****END OF INPUT****

CARTESIAN COORDINATES (ANGSTROEM)
---------------------------------
  O      0.144050    1.395417    0.030459
  C      0.030063    0.001669    0.007414
  C     -0.451588   -0.671871    1.255791
  C     -0.861797    0.100954    2.502628
  C     -1.982605    1.129151    2.272396
  C     -3.104998    0.548579    1.409631
  O     -4.182361    1.462665    1.240228
  C     -2.593029    0.217052    0.006924
  C     -1.340699   -0.652132    0.017610
  H     -0.082363    1.730846   -0.844021
  H      0.816025   -0.499632   -0.557736
  H      0.035746   -1.618259    1.473545
  H     -1.206812   -0.633057    3.242194
  H      0.011405    0.594895    2.944043
  H     -2.388374    1.440545    3.244354
  H     -1.590026    2.022299    1.778666
  H     -3.468942   -0.381872    1.880970
  H     -4.478078    1.735354    2.114616
  H     -3.387512   -0.280531   -0.555933
  H     -2.404050    1.173101   -0.497615
  H     -1.417560   -1.583072   -0.535408

 Total Charge           Charge          ....    0
 Multiplicity           Mult            ....    1
 Number of Electrons    NEL             ....   70
 Basis Dimension        Dim             ....  351

ORBITAL ENERGIES
----------------

  NO   OCC          E(Eh)            E(eV)
   0   2.0000     -20.562876      -559.5443
   1   2.0000     -20.548018      -559.1400
   2   2.0000     -11.277420      -306.8742
   3   2.0000     -11.271274      -306.7070
   4   2.0000     -11.228393      -305.5401
   5   2.0000     -11.227578      -305.5179
   6   2.0000     -11.223423      -305.4049
   7   2.0000     -11.217343      -305.2394
   8   2.0000     -11.212495      -305.1075
   9   2.0000      -1.372128       -37.3375
  10   2.0000      -1.354283       -36.8519
  11   2.0000      -1.147948       -31.2373
  12   2.0000      -1.042798       -28.3760
  13   2.0000      -1.002208       -27.2715
  14   2.0000      -0.880693       -23.9649
  15   2.0000      -0.827876       -22.5277
  16   2.0000      -0.790844       -21.5200
  17   2.0000      -0.732879       -19.9427
  18   2.0000      -0.706074       -19.2133
  19   2.0000      -0.685602       -18.6562
  20   2.0000      -0.660452       -17.9718
  21   2.0000      -0.622993       -16.9525
  22   2.0000      -0.607523       -16.5315
  23   2.0000      -0.590700       -16.0738
  24   2.0000      -0.575418       -15.6579
  25   2.0000      -0.543030       -14.7766
  26   2.0000      -0.528323       -14.3764
  27   2.0000      -0.520513       -14.1639
  28   2.0000      -0.501794       -13.6545
  29   2.0000      -0.493944       -13.4409
  30   2.0000      -0.469047       -12.7634
  31   2.0000      -0.451085       -12.2746
  32   2.0000      -0.430331       -11.7099
  33   2.0000      -0.392584       -10.6828
  34   2.0000      -0.381695       -10.3864
  35   0.0000       0.129468         3.5230
  36   0.0000       0.145492         3.9590
  37   0.0000       0.155796         4.2394
  38   0.0000       0.171406         4.6642
  39   0.0000       0.178041         4.8447

MULLIKEN ATOMIC CHARGES
-----------------------
   0 O :   -0.474103
   1 C :   -0.025844
   2 C :   -0.069720
   3 C :   -0.248270
   4 C :   -0.214402
   5 C :    0.039770
   6 O :   -0.459323
   7 C :   -0.157134
   8 C :   -0.141082
   9 H :    0.323832
  10 H :    0.107741
  11 H :    0.122808
  12 H :    0.114410
  13 H :    0.124105
  14 H :    0.105122
  15 H :    0.131228
  16 H :    0.071744
  17 H :    0.310149
  18 H :    0.130102
  19 H :    0.087648
  20 H :    0.121221
Sum of atomic charges:    0.0000000

LOEWDIN ATOMIC CHARGES
----------------------
   0 O :    0.006109
   1 C :   -0.304189
   2 C :   -0.190054
   3 C :   -0.236660
   4 C :   -0.253268
   5 C :   -0.346574
   6 O :   -0.022702
   7 C :   -0.222515
   8 C :   -0.188985
   9 H :    0.180434
  10 H :    0.130111
  11 H :    0.149516
  12 H :    0.142381
  13 H :    0.144687
  14 H :    0.132515
  15 H :    0.143766
  16 H :    0.133635
  17 H :    0.171324
  18 H :    0.144165
  19 H :    0.140925
  20 H :    0.145380

  Mayer bond orders larger than 0.1
B(  0-O ,  1-C ) :   1.0215 B(  0-O ,  9-H ) :   0.8397 B(  1-C ,  2-C ) :   0.8789
B(  1-C ,  8-C ) :   0.8769 B(  1-C , 10-H ) :   0.9564 B(  2-C ,  3-C ) :   0.9301
B(  2-C ,  8-C ) :   0.8588 B(  2-C , 11-H ) :   0.9217 B(  3-C ,  4-C ) :   0.9260
B(  3-C , 12-H ) :   0.9313 B(  3-C , 13-H ) :   0.9242 B(  4-C ,  5-C ) :   0.9199
B(  4-C , 14-H ) :   0.9256 B(  4-C , 15-H ) :   0.9180 B(  5-C ,  6-O ) :   1.0090
B(  5-C ,  7-C ) :   0.9327 B(  5-C , 16-H ) :   0.9494 B(  6-O , 17-H ) :   0.8478
B(  7-C ,  8-C ) :   0.8860 B(  7-C , 18-H ) :   0.9328 B(  7-C , 19-H ) :   0.9078
B(  8-C , 20-H ) :   0.9226

MP2 TOTAL ENERGY:     -423.525062096 Eh
FINAL SINGLE POINT ENERGY      -423.525062095689

DIPOLE MOMENT
-------------
                                X             Y             Z
Electronic contribution:      0.20754       1.14181      -1.86648
Nuclear contribution   :     -0.08455      -1.55373       1.95064
                        -----------------------------------------
Total Dipole Moment    :      0.12300      -0.41193       0.08416
                        -----------------------------------------
Magnitude (a.u.)       :      0.43806
Magnitude (Debye)      :      1.11345

                             ****ORCA TERMINATED NORMALLY****
TOTAL RUN TIME: 0 days 0 hours 18 minutes 38 seconds 343 msec
