                         Program Version 3.0.3 - RELEASE   -
|  1> ! RI-MP2 RIJK def2-TZVP def2-TZVP/C def2-TZVP/JK TIGHTSCF
|  2> % maxcore 2000
|  3> % mp2 density relaxed end
|  4> *xyz 0 1
|  5>  C       -0.8922140050     1.0375266261     0.0115346123
|  6>  C        0.0919839216    -0.1159333843     0.0707751241
|  7>  N        1.3651059990     0.1110094301    -0.6538092076
|  8>  C        2.1673304482    -0.5017001266     0.4317603129
|  9>  C        2.5992879681    -1.9554242432     0.1992764248
| 10>  C        3.3391045977     0.3148793476     0.7856145698
| 11>  N        4.2637297240     0.9563495014     1.0486099232
| 12>  C        0.9237951106    -0.3570247871     1.3852898951
| 13>  N        1.0547371596     0.6771089599     2.3819526773
| 14>  H       -0.4317911875     1.9679600313     0.3546848803
| 15>  H       -1.2353314599     1.1947103100    -1.0162890040
| 16>  H       -1.7730950781     0.8319488000     0.6302521049
| 17>  H       -0.4153772504    -1.0454498399    -0.2277580722
| 18>  H        1.4628659151    -0.3310545172    -1.5619898891
| 19>  H        3.3094011334    -2.0196565414    -0.6310473037
| 20>  H        3.0823208576    -2.3663632437     1.0907693832
| 21>  H        1.7259157149    -2.5700852822    -0.0386428814
| 22>  H        0.6743635117    -1.2906152196     1.8952495274
| 23>  H        1.2871941478     1.5740518715     1.9676897049
| 24>  H        0.1929076314     0.7908370373     2.9046824079
| 25> *
| 26>
| 27>                          ****END OF INPUT****

CARTESIAN COORDINATES (ANGSTROEM)
---------------------------------
  C     -0.892214    1.037527    0.011535
  C      0.091984   -0.115933    0.070775
  N      1.365106    0.111009   -0.653809
  C      2.167330   -0.501700    0.431760
  C      2.599288   -1.955424    0.199276
  C      3.339105    0.314879    0.785615
  N      4.263730    0.956350    1.048610
  C      0.923795   -0.357025    1.385290
  N      1.054737    0.677109    2.381953
  H     -0.431791    1.967960    0.354685
  H     -1.235331    1.194710   -1.016289
  H     -1.773095    0.831949    0.630252
  H     -0.415377   -1.045450   -0.227758
  H      1.462866   -0.331055   -1.561990
  H      3.309401   -2.019657   -0.631047
  H      3.082321   -2.366363    1.090769
  H      1.725916   -2.570085   -0.038643
  H      0.674364   -1.290615    1.895250
  H      1.287194    1.574052    1.967690
  H      0.192908    0.790837    2.904682

 Total Charge           Charge          ....    0
 Multiplicity           Mult            ....    1
 Number of Electrons    NEL             ....   68
 Basis Dimension        Dim             ....  345

ORBITAL ENERGIES
----------------

  NO   OCC          E(Eh)            E(eV)
   0   2.0000     -15.563991      -423.5177
   1   2.0000     -15.560251      -423.4159
   2   2.0000     -15.555033      -423.2740
   3   2.0000     -11.312718      -307.8347
   4   2.0000     -11.282802      -307.0206
   5   2.0000     -11.272958      -306.7528
   6   2.0000     -11.259465      -306.3856
   7   2.0000     -11.245231      -305.9983
   8   2.0000     -11.226518      -305.4891
   9   2.0000      -1.276541       -34.7364
  10   2.0000      -1.203745       -32.7556
  11   2.0000      -1.181867       -32.1602
  12   2.0000      -1.051323       -28.6080
  13   2.0000      -1.000224       -27.2175
  14   2.0000      -0.936470       -25.4827
  15   2.0000      -0.887659       -24.1544
  16   2.0000      -0.777050       -21.1446
  17   2.0000      -0.729264       -19.8443
  18   2.0000      -0.686691       -18.6858
  19   2.0000      -0.660374       -17.9697
  20   2.0000      -0.630497       -17.1567
  21   2.0000      -0.600435       -16.3387
  22   2.0000      -0.589411       -16.0387
  23   2.0000      -0.573374       -15.6023
  24   2.0000      -0.570107       -15.5134
  25   2.0000      -0.550563       -14.9816
  26   2.0000      -0.531408       -14.4604
  27   2.0000      -0.521877       -14.2010
  28   2.0000      -0.508574       -13.8390
  29   2.0000      -0.494211       -13.4482
  30   2.0000      -0.451720       -12.2919
  31   2.0000      -0.441474       -12.0131
  32   2.0000      -0.403387       -10.9767
  33   2.0000      -0.390228       -10.6187
  34   0.0000       0.113243         3.0815
  35   0.0000       0.131596         3.5809
  36   0.0000       0.153869         4.1870
  37   0.0000       0.158225         4.3055
  38   0.0000       0.179284         4.8786

MULLIKEN ATOMIC CHARGES
-----------------------
   0 C :   -0.413220
   1 C :    0.018697
   2 N :   -0.347669
   3 C :    0.251108
   4 C :   -0.444859
   5 C :   -0.196949
   6 N :   -0.044966
   7 C :   -0.029227
   8 N :   -0.518263
   9 H :    0.117747
  10 H :    0.136021
  11 H :    0.124879
  12 H :    0.094380
  13 H :    0.207283
  14 H :    0.151335
  15 H :    0.153432
  16 H :    0.142201
  17 H :    0.122212
  18 H :    0.246198
  19 H :    0.229659
Sum of atomic charges:    0.0000000

LOEWDIN ATOMIC CHARGES
----------------------
   0 C :   -0.305208
   1 C :   -0.288631
   2 N :    0.061094
   3 C :   -0.303663
   4 C :   -0.254592
   5 C :   -0.151274
   6 N :    0.067461
   7 C :   -0.241511
   8 N :   -0.119998
   9 H :    0.121688
  10 H :    0.128180
  11 H :    0.124747
  12 H :    0.133992
  13 H :    0.161099
  14 H :    0.132967
  15 H :    0.137490
  16 H :    0.129782
  17 H :    0.143594
  18 H :    0.164429
  19 H :    0.158353

  Mayer bond orders larger than 0.1
B(  0-C ,  1-C ) :   0.8876 B(  0-C ,  9-H ) :   0.9390 B(  0-C , 10-H ) :   0.9370
B(  0-C , 11-H ) :   0.9372 B(  1-C ,  2-N ) :   0.9468 B(  1-C ,  7-C ) :   0.9089
B(  1-C , 12-H ) :   0.9225 B(  2-N ,  3-C ) :   1.0055 B(  2-N , 13-H ) :   0.8783
B(  3-C ,  4-C ) :   0.9210 B(  3-C ,  5-C ) :   0.8926 B(  3-C ,  7-C ) :   0.8272
B(  4-C , 14-H ) :   0.9309 B(  4-C , 15-H ) :   0.9288 B(  4-C , 16-H ) :   0.9281
B(  5-C ,  6-N ) :   2.8867 B(  7-C ,  8-N ) :   1.0342 B(  7-C , 17-H ) :   0.9250
B(  8-N , 18-H ) :   0.8861 B(  8-N , 19-H ) :   0.8885

MP2 TOTAL ENERGY:     -398.635882589 Eh
FINAL SINGLE POINT ENERGY      -398.635882589134

DIPOLE MOMENT
-------------
                                X             Y             Z
Electronic contribution:      7.36448       2.15259       0.99329
Nuclear contribution   :     -9.11930      -3.23363      -1.46811
                        -----------------------------------------
Total Dipole Moment    :     -1.75482      -1.08104      -0.47482
                        -----------------------------------------
Magnitude (a.u.)       :      2.11506
Magnitude (Debye)      :      5.37606

                             ****ORCA TERMINATED NORMALLY****
TOTAL RUN TIME: 0 days 0 hours 19 minutes 6 seconds 186 msec
