                         Program Version 3.0.3 - RELEASE   -
|  1> ! RI-MP2 RIJK def2-TZVP def2-TZVP/C def2-TZVP/JK TIGHTSCF
|  2> % maxcore 2000
|  3> % mp2 density relaxed end
|  4> *xyz 0 1
|  5>  C        0.0260646278     1.5481090568     0.0325760996
|  6>  C        0.0517585362     0.0388506029     0.0159539603
|  7>  C       -0.9046012127    -0.7887668232     0.8395764473
|  8>  C        0.5737593366    -0.8130504275     1.1574153321
|  9>  C        1.4645796201    -1.9379573983     0.6024377556
| 10>  O        1.1341558216    -3.2476795851     1.0261056682
| 11>  C        1.4106143630    -1.7766967579    -0.9181009885
| 12>  O        0.0869630551    -1.9961643933    -1.4385917678
| 13>  C        0.5421124177    -0.6437545345    -1.2546380031
| 14>  H        1.0000355890     1.9707520229    -0.2413425008
| 15>  H       -0.7177751567     1.9429866675    -0.6694911969
| 16>  H       -0.2273653969     1.9218012489     1.0291116637
| 17>  H       -1.5371291674    -0.2566009785     1.5427456973
| 18>  H       -1.3689716344    -1.6479902344     0.3723020077
| 19>  H        0.8855744971    -0.3525891867     2.0887149395
| 20>  H        2.4936586910    -1.7747745639     0.9419001689
| 21>  H        0.2834351702    -3.4594650610     0.6239029391
| 22>  H        2.2201207720    -2.1464310998    -1.5429172440
| 23>  H        0.6414417309    -0.0653703450    -2.1699256485
| 24> *
| 25>
| 26>                          ****END OF INPUT****

CARTESIAN COORDINATES (ANGSTROEM)
---------------------------------
  C      0.026065    1.548109    0.032576
  C      0.051759    0.038851    0.015954
  C     -0.904601   -0.788767    0.839576
  C      0.573759   -0.813050    1.157415
  C      1.464580   -1.937957    0.602438
  O      1.134156   -3.247680    1.026106
  C      1.410614   -1.776697   -0.918101
  O      0.086963   -1.996164   -1.438592
  C      0.542112   -0.643755   -1.254638
  H      1.000036    1.970752   -0.241343
  H     -0.717775    1.942987   -0.669491
  H     -0.227365    1.921801    1.029112
  H     -1.537129   -0.256601    1.542746
  H     -1.368972   -1.647990    0.372302
  H      0.885574   -0.352589    2.088715
  H      2.493659   -1.774775    0.941900
  H      0.283435   -3.459465    0.623903
  H      2.220121   -2.146431   -1.542917
  H      0.641442   -0.065370   -2.169926

 Total Charge           Charge          ....    0
 Multiplicity           Mult            ....    1
 Number of Electrons    NEL             ....   68
 Basis Dimension        Dim             ....  339

ORBITAL ENERGIES
----------------

  NO   OCC          E(Eh)            E(eV)
   0   2.0000     -20.573308      -559.8282
   1   2.0000     -20.553572      -559.2911
   2   2.0000     -11.293611      -307.3148
   3   2.0000     -11.289641      -307.2067
   4   2.0000     -11.285401      -307.0914
   5   2.0000     -11.247894      -306.0708
   6   2.0000     -11.233213      -305.6713
   7   2.0000     -11.230141      -305.5877
   8   2.0000     -11.230060      -305.5855
   9   2.0000      -1.420455       -38.6525
  10   2.0000      -1.358510       -36.9669
  11   2.0000      -1.168702       -31.8020
  12   2.0000      -1.005303       -27.3557
  13   2.0000      -0.978976       -26.6393
  14   2.0000      -0.914665       -24.8893
  15   2.0000      -0.843634       -22.9565
  16   2.0000      -0.788682       -21.4611
  17   2.0000      -0.765135       -20.8204
  18   2.0000      -0.725464       -19.7409
  19   2.0000      -0.673967       -18.3396
  20   2.0000      -0.630506       -17.1569
  21   2.0000      -0.613794       -16.7022
  22   2.0000      -0.609700       -16.5908
  23   2.0000      -0.587997       -16.0002
  24   2.0000      -0.575312       -15.6550
  25   2.0000      -0.554142       -15.0790
  26   2.0000      -0.541060       -14.7230
  27   2.0000      -0.528451       -14.3799
  28   2.0000      -0.495485       -13.4828
  29   2.0000      -0.485384       -13.2080
  30   2.0000      -0.456728       -12.4282
  31   2.0000      -0.425629       -11.5819
  32   2.0000      -0.415247       -11.2994
  33   2.0000      -0.382499       -10.4083
  34   0.0000       0.134093         3.6489
  35   0.0000       0.154894         4.2149
  36   0.0000       0.162750         4.4286
  37   0.0000       0.172645         4.6979
  38   0.0000       0.185451         5.0464

MULLIKEN ATOMIC CHARGES
-----------------------
   0 C :   -0.424676
   1 C :    0.164638
   2 C :   -0.348987
   3 C :   -0.108196
   4 C :    0.070755
   5 O :   -0.459047
   6 C :   -0.021065
   7 O :   -0.333049
   8 C :   -0.050475
   9 H :    0.134225
  10 H :    0.139067
  11 H :    0.135091
  12 H :    0.131859
  13 H :    0.151703
  14 H :    0.126564
  15 H :    0.103354
  16 H :    0.327251
  17 H :    0.127455
  18 H :    0.133534
Sum of atomic charges:    0.0000000

LOEWDIN ATOMIC CHARGES
----------------------
   0 C :   -0.266818
   1 C :   -0.231060
   2 C :   -0.180269
   3 C :   -0.156123
   4 C :   -0.301384
   5 O :   -0.011214
   6 C :   -0.231030
   7 O :    0.160847
   8 C :   -0.202481
   9 H :    0.128267
  10 H :    0.129335
  11 H :    0.131720
  12 H :    0.137404
  13 H :    0.137609
  14 H :    0.146520
  15 H :    0.153015
  16 H :    0.179601
  17 H :    0.134947
  18 H :    0.141115

  Mayer bond orders larger than 0.1
B(  0-C ,  1-C ) :   0.8672 B(  0-C ,  9-H ) :   0.9372 B(  0-C , 10-H ) :   0.9402
B(  0-C , 11-H ) :   0.9386 B(  1-C ,  2-C ) :   0.8786 B(  1-C ,  3-C ) :   0.8349
B(  1-C ,  8-C ) :   0.8865 B(  2-C ,  3-C ) :   0.8666 B(  2-C , 12-H ) :   0.9307
B(  2-C , 13-H ) :   0.9151 B(  3-C ,  4-C ) :   0.9143 B(  3-C , 14-H ) :   0.9265
B(  4-C ,  5-O ) :   0.9536 B(  4-C ,  6-C ) :   0.9489 B(  4-C , 15-H ) :   0.9241
B(  5-O , 16-H ) :   0.8326 B(  6-C ,  7-O ) :   0.8996 B(  6-C ,  8-C ) :   0.9794
B(  6-C , 17-H ) :   0.9319 B(  7-O ,  8-C ) :   0.8992 B(  8-C , 18-H ) :   0.9234

MP2 TOTAL ENERGY:     -422.298602872 Eh
FINAL SINGLE POINT ENERGY      -422.298602872444

DIPOLE MOMENT
-------------
                                X             Y             Z
Electronic contribution:      1.20531      -5.80073      -1.88686
Nuclear contribution   :     -1.10499       6.76211       1.76479
                        -----------------------------------------
Total Dipole Moment    :      0.10033       0.96138      -0.12208
                        -----------------------------------------
Magnitude (a.u.)       :      0.97428
Magnitude (Debye)      :      2.47642

                             ****ORCA TERMINATED NORMALLY****
TOTAL RUN TIME: 0 days 0 hours 18 minutes 46 seconds 213 msec
