                         Program Version 3.0.3 - RELEASE   -
|  1> ! RI-MP2 RIJK def2-TZVP def2-TZVP/C def2-TZVP/JK TIGHTSCF
|  2> % maxcore 2000
|  3> % mp2 density relaxed end
|  4> *xyz 0 1
|  5>  C       -0.0769514175     1.5840375314     0.0978576400
|  6>  C        0.1467146770     0.1144219421    -0.0125178607
|  7>  O       -0.7724442313    -0.7963634543     0.6431708548
|  8>  C        0.6082111032    -0.9387477692     0.9317679477
|  9>  C        1.2016030877    -1.8364520428    -0.1748961980
| 10>  C        0.7178248110    -3.1903983526    -0.3038831127
| 11>  C        0.3135802978    -4.3159258847    -0.4225404827
| 12>  C        0.6978561847    -0.7095380632    -1.1745355803
| 13>  O        0.8510878163    -0.5211701996    -2.3394303729
| 14>  H        0.8157689327     2.1324617236    -0.2169716319
| 15>  H       -0.9068251541     1.8926159081    -0.5454412910
| 16>  H       -0.3186812286     1.8568548536     1.1281220035
| 17>  H        0.9386113826    -0.8318274495     1.9578876186
| 18>  H        2.2990187812    -1.7995333352    -0.1853379185
| 19>  H       -0.0519277827    -5.3073121577    -0.5279957059
| 20> *
| 21>
| 22>                          ****END OF INPUT****

CARTESIAN COORDINATES (ANGSTROEM)
---------------------------------
  C     -0.076951    1.584038    0.097858
  C      0.146715    0.114422   -0.012518
  O     -0.772444   -0.796363    0.643171
  C      0.608211   -0.938748    0.931768
  C      1.201603   -1.836452   -0.174896
  C      0.717825   -3.190398   -0.303883
  C      0.313580   -4.315926   -0.422540
  C      0.697856   -0.709538   -1.174536
  O      0.851088   -0.521170   -2.339430
  H      0.815769    2.132462   -0.216972
  H     -0.906825    1.892616   -0.545441
  H     -0.318681    1.856855    1.128122
  H      0.938611   -0.831827    1.957888
  H      2.299019   -1.799533   -0.185338
  H     -0.051928   -5.307312   -0.527996

 Total Charge           Charge          ....    0
 Multiplicity           Mult            ....    1
 Number of Electrons    NEL             ....   64
 Basis Dimension        Dim             ....  315

ORBITAL ENERGIES
----------------

  NO   OCC          E(Eh)            E(eV)
   0   2.0000     -20.600351      -560.5640
   1   2.0000     -20.576282      -559.9091
   2   2.0000     -11.359137      -309.0978
   3   2.0000     -11.322367      -308.0973
   4   2.0000     -11.321319      -308.0688
   5   2.0000     -11.290612      -307.2332
   6   2.0000     -11.248888      -306.0978
   7   2.0000     -11.244419      -305.9762
   8   2.0000     -11.234053      -305.6941
   9   2.0000      -1.455251       -39.5994
  10   2.0000      -1.416922       -38.5564
  11   2.0000      -1.118716       -30.4418
  12   2.0000      -1.047746       -28.5106
  13   2.0000      -1.014804       -27.6142
  14   2.0000      -0.904990       -24.6260
  15   2.0000      -0.876694       -23.8561
  16   2.0000      -0.751953       -20.4617
  17   2.0000      -0.721306       -19.6277
  18   2.0000      -0.713616       -19.4185
  19   2.0000      -0.686491       -18.6804
  20   2.0000      -0.670160       -18.2360
  21   2.0000      -0.617920       -16.8145
  22   2.0000      -0.613055       -16.6821
  23   2.0000      -0.584369       -15.9015
  24   2.0000      -0.571403       -15.5487
  25   2.0000      -0.560594       -15.2545
  26   2.0000      -0.531954       -14.4752
  27   2.0000      -0.506211       -13.7747
  28   2.0000      -0.449320       -12.2266
  29   2.0000      -0.436102       -11.8669
  30   2.0000      -0.396345       -10.7851
  31   2.0000      -0.375073       -10.2063
  32   0.0000       0.123439         3.3589
  33   0.0000       0.130550         3.5524
  34   0.0000       0.151301         4.1171
  35   0.0000       0.156345         4.2544
  36   0.0000       0.164698         4.4817

MULLIKEN ATOMIC CHARGES
-----------------------
   0 C :   -0.405139
   1 C :    0.148759
   2 O :   -0.300298
   3 C :    0.003637
   4 C :   -0.137446
   5 C :   -0.035381
   6 C :   -0.128329
   7 C :    0.127408
   8 O :   -0.223021
   9 H :    0.146123
  10 H :    0.156755
  11 H :    0.152067
  12 H :    0.154644
  13 H :    0.145770
  14 H :    0.194451
Sum of atomic charges:    0.0000000

LOEWDIN ATOMIC CHARGES
----------------------
   0 C :   -0.262356
   1 C :   -0.256270
   2 O :    0.220021
   3 C :   -0.189486
   4 C :   -0.172943
   5 C :   -0.088822
   6 C :   -0.080324
   7 C :   -0.231764
   8 O :    0.194538
   9 H :    0.139307
  10 H :    0.141485
  11 H :    0.139643
  12 H :    0.138269
  13 H :    0.180242
  14 H :    0.128462

  Mayer bond orders larger than 0.1
B(  0-C ,  1-C ) :   0.8745 B(  0-C ,  9-H ) :   0.9278 B(  0-C , 10-H ) :   0.9330
B(  0-C , 11-H ) :   0.9379 B(  1-C ,  2-O ) :   0.8516 B(  1-C ,  3-C ) :   0.8856
B(  1-C ,  7-C ) :   0.8646 B(  2-O ,  3-C ) :   0.9373 B(  3-C ,  4-C ) :   0.8753
B(  3-C , 12-H ) :   0.9219 B(  4-C ,  5-C ) :   1.1484 B(  4-C ,  6-C ) :  -0.1088
B(  4-C ,  7-C ) :   0.8626 B(  4-C , 13-H ) :   0.8894 B(  5-C ,  6-C ) :   2.5917
B(  6-C , 14-H ) :   0.8940 B(  7-C ,  8-O ) :   2.0651

MP2 TOTAL ENERGY:     -419.845893779 Eh
FINAL SINGLE POINT ENERGY      -419.845893779362

DIPOLE MOMENT
-------------
                                X             Y             Z
Electronic contribution:      0.08473      -3.82972      -2.32988
Nuclear contribution   :      0.40910       4.29538       3.25712
                        -----------------------------------------
Total Dipole Moment    :      0.49383       0.46566       0.92724
                        -----------------------------------------
Magnitude (a.u.)       :      1.14912
Magnitude (Debye)      :      2.92083

                             ****ORCA TERMINATED NORMALLY****
TOTAL RUN TIME: 0 days 0 hours 14 minutes 26 seconds 656 msec
