                         Program Version 3.0.3 - RELEASE   -
|  1> ! RI-MP2 RIJK def2-TZVP def2-TZVP/C def2-TZVP/JK TIGHTSCF
|  2> % maxcore 2000
|  3> % mp2 density relaxed end
|  4> *xyz 0 1
|  5>  N        1.1076253800     0.2164483898    -0.3042895629
|  6>  C       -0.0780195103     0.5739872253    -0.0264982497
|  7>  N       -1.0840174301    -0.3780168228     0.0646786681
|  8>  C       -2.3995307221    -0.0772297713     0.3578508375
|  9>  O       -2.7981500768     1.0509981410     0.5486114005
| 10>  C       -3.2993883864    -1.2863612396     0.4403265558
| 11>  C       -4.4763556767    -1.2209018748     1.3254398599
| 12>  O       -4.6102519720    -1.0973692688    -0.0822011163
| 13>  H        1.7240252884     1.0264282317    -0.3344431591
| 14>  H       -0.4488558821     1.5827229605     0.1632701949
| 15>  H       -0.8044869772    -1.3331320118    -0.1107658396
| 16>  H       -2.8542334935    -2.2570230405     0.2196617156
| 17>  H       -4.8588909462    -2.1427794516     1.7602649794
| 18>  H       -4.6420457050    -0.3039544970     1.8857716558
| 19> *
| 20>
| 21>                          ****END OF INPUT****

CARTESIAN COORDINATES (ANGSTROEM)
---------------------------------
  N      1.107625    0.216448   -0.304290
  C     -0.078020    0.573987   -0.026498
  N     -1.084017   -0.378017    0.064679
  C     -2.399531   -0.077230    0.357851
  O     -2.798150    1.050998    0.548611
  C     -3.299388   -1.286361    0.440327
  C     -4.476356   -1.220902    1.325440
  O     -4.610252   -1.097369   -0.082201
  H      1.724025    1.026428   -0.334443
  H     -0.448856    1.582723    0.163270
  H     -0.804487   -1.333132   -0.110766
  H     -2.854233   -2.257023    0.219662
  H     -4.858891   -2.142779    1.760265
  H     -4.642046   -0.303954    1.885772

 Total Charge           Charge          ....    0
 Multiplicity           Mult            ....    1
 Number of Electrons    NEL             ....   60
 Basis Dimension        Dim             ....  284

ORBITAL ENERGIES
----------------

  NO   OCC          E(Eh)            E(eV)
   0   2.0000     -20.597243      -560.4795
   1   2.0000     -20.547174      -559.1170
   2   2.0000     -15.620217      -425.0477
   3   2.0000     -15.555159      -423.2774
   4   2.0000     -11.381830      -309.7154
   5   2.0000     -11.332534      -308.3739
   6   2.0000     -11.318764      -307.9992
   7   2.0000     -11.308179      -307.7112
   8   2.0000      -1.447652       -39.3926
   9   2.0000      -1.408635       -38.3309
  10   2.0000      -1.293980       -35.2110
  11   2.0000      -1.188563       -32.3424
  12   2.0000      -0.995248       -27.0821
  13   2.0000      -0.923533       -25.1306
  14   2.0000      -0.852500       -23.1977
  15   2.0000      -0.825397       -22.4602
  16   2.0000      -0.761759       -20.7285
  17   2.0000      -0.697900       -18.9908
  18   2.0000      -0.689296       -18.7567
  19   2.0000      -0.653775       -17.7901
  20   2.0000      -0.641138       -17.4462
  21   2.0000      -0.623867       -16.9763
  22   2.0000      -0.588017       -16.0007
  23   2.0000      -0.572847       -15.5880
  24   2.0000      -0.515803       -14.0357
  25   2.0000      -0.491918       -13.3858
  26   2.0000      -0.465127       -12.6567
  27   2.0000      -0.463026       -12.5996
  28   2.0000      -0.436476       -11.8771
  29   2.0000      -0.395471       -10.7613
  30   0.0000       0.108650         2.9565
  31   0.0000       0.129157         3.5145
  32   0.0000       0.149391         4.0651
  33   0.0000       0.166794         4.5387
  34   0.0000       0.181657         4.9431

MULLIKEN ATOMIC CHARGES
-----------------------
   0 N :   -0.378079
   1 C :    0.046637
   2 N :   -0.274439
   3 C :    0.281931
   4 O :   -0.340819
   5 C :    0.012627
   6 C :   -0.078197
   7 O :   -0.310794
   8 H :    0.231350
   9 H :    0.147402
  10 H :    0.248173
  11 H :    0.135231
  12 H :    0.129088
  13 H :    0.149888
Sum of atomic charges:   -0.0000000

LOEWDIN ATOMIC CHARGES
----------------------
   0 N :   -0.082763
   1 C :   -0.318974
   2 N :    0.142026
   3 C :   -0.420668
   4 O :    0.121987
   5 C :   -0.267400
   6 C :   -0.246225
   7 O :    0.178765
   8 H :    0.168818
   9 H :    0.132761
  10 H :    0.199593
  11 H :    0.138747
  12 H :    0.122100
  13 H :    0.131234

  Mayer bond orders larger than 0.1
B(  0-N ,  1-C ) :   1.9205 B(  0-N ,  8-H ) :   0.8629 B(  1-C ,  2-N ) :   0.9802
B(  1-C ,  9-H ) :   0.9251 B(  2-N ,  3-C ) :   1.0816 B(  2-N , 10-H ) :   0.8573
B(  3-C ,  4-O ) :   1.9285 B(  3-C ,  5-C ) :   0.9121 B(  5-C ,  6-C ) :   0.9596
B(  5-C ,  7-O ) :   0.9152 B(  5-C , 11-H ) :   0.9044 B(  6-C ,  7-O ) :   0.8991
B(  6-C , 12-H ) :   0.9222 B(  6-C , 13-H ) :   0.9097

MP2 TOTAL ENERGY:     -415.193369135 Eh
FINAL SINGLE POINT ENERGY      -415.193369134905

DIPOLE MOMENT
-------------
                                X             Y             Z
Electronic contribution:     -0.96153       1.09748      -1.17661
Nuclear contribution   :      1.32830      -1.69652       1.73269
                        -----------------------------------------
Total Dipole Moment    :      0.36677      -0.59904       0.55608
                        -----------------------------------------
Magnitude (a.u.)       :      0.89588
Magnitude (Debye)      :      2.27715

                             ****ORCA TERMINATED NORMALLY****
TOTAL RUN TIME: 0 days 0 hours 8 minutes 52 seconds 33 msec
