                         Program Version 3.0.3 - RELEASE   -
|  1> ! RI-MP2 RIJK def2-TZVP def2-TZVP/C def2-TZVP/JK TIGHTSCF
|  2> % maxcore 2000
|  3> % mp2 density relaxed end
|  4> *xyz 0 1
|  5>  C       -0.0169788620     1.4613057246     0.0817063369
|  6>  C       -0.0075163827    -0.0144509862    -0.0697293249
|  7>  N       -0.1040400184    -0.7018785678    -1.1576635705
|  8>  C       -0.0386348115    -2.0279053494    -0.7227857001
|  9>  C       -0.0555483723    -3.3331119188    -1.1100018436
| 10>  O        0.0675135986    -4.1104283407     0.0080168582
| 11>  C        0.1641551626    -3.3121247821     1.1224346456
| 12>  C        0.1009758429    -2.0317812782     0.6892543922
| 13>  O        0.1217623323    -0.7361271827     1.1166676705
| 14>  H        0.9096687973     1.8067432139     0.5513193803
| 15>  H       -0.1202004243     1.9217126332    -0.9003653271
| 16>  H       -0.8466585212     1.7777136798     0.7221239098
| 17>  H       -0.1387956194    -3.8607008826    -2.0436172319
| 18>  H        0.2657238882    -3.8173053530     2.0653140746
| 19> *
| 20>
| 21>                          ****END OF INPUT****

CARTESIAN COORDINATES (ANGSTROEM)
---------------------------------
  C     -0.016979    1.461306    0.081706
  C     -0.007516   -0.014451   -0.069729
  N     -0.104040   -0.701879   -1.157664
  C     -0.038635   -2.027905   -0.722786
  C     -0.055548   -3.333112   -1.110002
  O      0.067514   -4.110428    0.008017
  C      0.164155   -3.312125    1.122435
  C      0.100976   -2.031781    0.689254
  O      0.121762   -0.736127    1.116668
  H      0.909669    1.806743    0.551319
  H     -0.120200    1.921713   -0.900365
  H     -0.846659    1.777714    0.722124
  H     -0.138796   -3.860701   -2.043617
  H      0.265724   -3.817305    2.065314

 Total Charge           Charge          ....    0
 Multiplicity           Mult            ....    1
 Number of Electrons    NEL             ....   64
 Basis Dimension        Dim             ....  309

ORBITAL ENERGIES
----------------

  NO   OCC          E(Eh)            E(eV)
   0   2.0000     -20.635919      -561.5319
   1   2.0000     -20.623271      -561.1877
   2   2.0000     -15.574522      -423.8043
   3   2.0000     -11.363006      -309.2031
   4   2.0000     -11.293486      -307.3114
   5   2.0000     -11.292907      -307.2956
   6   2.0000     -11.291948      -307.2695
   7   2.0000     -11.261285      -306.4351
   8   2.0000     -11.254037      -306.2379
   9   2.0000      -1.482143       -40.3312
  10   2.0000      -1.450952       -39.4824
  11   2.0000      -1.246971       -33.9318
  12   2.0000      -1.095835       -29.8192
  13   2.0000      -1.014541       -27.6071
  14   2.0000      -1.004931       -27.3456
  15   2.0000      -0.835334       -22.7306
  16   2.0000      -0.811485       -22.0816
  17   2.0000      -0.800238       -21.7756
  18   2.0000      -0.718201       -19.5432
  19   2.0000      -0.685562       -18.6551
  20   2.0000      -0.682229       -18.5644
  21   2.0000      -0.626951       -17.0602
  22   2.0000      -0.622280       -16.9331
  23   2.0000      -0.613944       -16.7063
  24   2.0000      -0.581006       -15.8100
  25   2.0000      -0.577669       -15.7192
  26   2.0000      -0.563700       -15.3391
  27   2.0000      -0.532912       -14.5013
  28   2.0000      -0.477986       -13.0067
  29   2.0000      -0.460887       -12.5414
  30   2.0000      -0.371402       -10.1064
  31   2.0000      -0.308577        -8.3968
  32   0.0000       0.113762         3.0956
  33   0.0000       0.136497         3.7143
  34   0.0000       0.176528         4.8036
  35   0.0000       0.178236         4.8501
  36   0.0000       0.181871         4.9490

MULLIKEN ATOMIC CHARGES
-----------------------
   0 C :   -0.446865
   1 C :    0.313191
   2 N :   -0.266422
   3 C :    0.033979
   4 C :   -0.045041
   5 O :   -0.182189
   6 C :   -0.047100
   7 C :    0.090174
   8 O :   -0.251182
   9 H :    0.156761
  10 H :    0.168456
  11 H :    0.156743
  12 H :    0.159509
  13 H :    0.159985
Sum of atomic charges:   -0.0000000

LOEWDIN ATOMIC CHARGES
----------------------
   0 C :   -0.262141
   1 C :   -0.317872
   2 N :    0.150899
   3 C :   -0.238214
   4 C :   -0.209360
   5 O :    0.340228
   6 C :   -0.229227
   7 C :   -0.254212
   8 O :    0.322500
   9 H :    0.141623
  10 H :    0.145045
  11 H :    0.141648
  12 H :    0.134936
  13 H :    0.134148

  Mayer bond orders larger than 0.1
B(  0-C ,  1-C ) :   0.8633 B(  0-C ,  9-H ) :   0.9269 B(  0-C , 10-H ) :   0.9504
B(  0-C , 11-H ) :   0.9268 B(  1-C ,  2-N ) :   1.7223 B(  1-C ,  8-O ) :   0.9993
B(  2-N ,  3-C ) :   1.1362 B(  3-C ,  4-C ) :   1.4338 B(  3-C ,  7-C ) :   1.1377
B(  4-C ,  5-O ) :   1.0727 B(  4-C ,  6-C ) :   0.1164 B(  4-C , 12-H ) :   0.9239
B(  5-O ,  6-C ) :   1.0331 B(  6-C ,  7-C ) :   1.4663 B(  6-C , 13-H ) :   0.9335
B(  7-C ,  8-O ) :   1.0320

MP2 TOTAL ENERGY:     -435.980579014 Eh
FINAL SINGLE POINT ENERGY      -435.980579013566

DIPOLE MOMENT
-------------
                                X             Y             Z
Electronic contribution:      0.09638      -5.22500       0.09749
Nuclear contribution   :     -0.06288       5.59360       0.30129
                        -----------------------------------------
Total Dipole Moment    :      0.03350       0.36860       0.39878
                        -----------------------------------------
Magnitude (a.u.)       :      0.54407
Magnitude (Debye)      :      1.38292

                             ****ORCA TERMINATED NORMALLY****
TOTAL RUN TIME: 0 days 0 hours 14 minutes 4 seconds 152 msec
