                         Program Version 3.0.3 - RELEASE   -
|  1> ! RI-MP2 RIJK def2-TZVP def2-TZVP/C def2-TZVP/JK TIGHTSCF
|  2> % maxcore 2000
|  3> % mp2 density relaxed end
|  4> *xyz 0 1
|  5>  C        0.0287648365     1.5441980384     0.0206459441
|  6>  O        1.4621270658     1.5097574983    -0.1994891119
|  7>  C        1.4320284190     0.0774559165    -0.4496865445
|  8>  C        2.3634045637    -0.7593667850     0.4156704004
|  9>  C        2.0931565794    -2.2342600747     0.2234279259
| 10>  C        0.9241956040    -2.8738846194     0.1190107884
| 11>  C       -0.5102051866    -2.4109505309     0.2122013275
| 12>  C       -0.8420962280    -0.9431980596     0.2710875769
| 13>  C       -0.0196945022     0.0368181973    -0.0593383620
| 14>  H       -0.2368255575     2.0000234824     0.9830488188
| 15>  H       -0.4918397224     2.0846788991    -0.7828450029
| 16>  H        1.6260128770    -0.1285712795    -1.5123408700
| 17>  H        3.4062278256    -0.5372688864     0.1635726167
| 18>  H        2.2240573809    -0.4643848440     1.4630090339
| 19>  H        2.9835260889    -2.8549421805     0.1486959349
| 20>  H        0.9861444621    -3.9522705810    -0.0255180004
| 21>  H       -1.0679819855    -2.8661331476    -0.6229281784
| 22>  H       -0.9467494157    -2.8957141156     1.1002362266
| 23>  H       -1.8485464849    -0.7045245076     0.6106371060
| 24> *
| 25>
| 26>                          ****END OF INPUT****

CARTESIAN COORDINATES (ANGSTROEM)
---------------------------------
  C      0.028765    1.544198    0.020646
  O      1.462127    1.509757   -0.199489
  C      1.432028    0.077456   -0.449687
  C      2.363405   -0.759367    0.415670
  C      2.093157   -2.234260    0.223428
  C      0.924196   -2.873885    0.119011
  C     -0.510205   -2.410951    0.212201
  C     -0.842096   -0.943198    0.271088
  C     -0.019695    0.036818   -0.059338
  H     -0.236826    2.000023    0.983049
  H     -0.491840    2.084679   -0.782845
  H      1.626013   -0.128571   -1.512341
  H      3.406228   -0.537269    0.163573
  H      2.224057   -0.464385    1.463009
  H      2.983526   -2.854942    0.148696
  H      0.986144   -3.952271   -0.025518
  H     -1.067982   -2.866133   -0.622928
  H     -0.946749   -2.895714    1.100236
  H     -1.848546   -0.704525    0.610637

 Total Charge           Charge          ....    0
 Multiplicity           Mult            ....    1
 Number of Electrons    NEL             ....   66
 Basis Dimension        Dim             ....  339

ORBITAL ENERGIES
----------------

  NO   OCC          E(Eh)            E(eV)
   0   2.0000     -20.547268      -559.1196
   1   2.0000     -11.282198      -307.0042
   2   2.0000     -11.281958      -306.9977
   3   2.0000     -11.242081      -305.9126
   4   2.0000     -11.234760      -305.7134
   5   2.0000     -11.234736      -305.7127
   6   2.0000     -11.232752      -305.6587
   7   2.0000     -11.230925      -305.6090
   8   2.0000     -11.227669      -305.5204
   9   2.0000      -1.377136       -37.4738
  10   2.0000      -1.114445       -30.3256
  11   2.0000      -1.052258       -28.6334
  12   2.0000      -1.020520       -27.7698
  13   2.0000      -0.951294       -25.8860
  14   2.0000      -0.873765       -23.7764
  15   2.0000      -0.868626       -23.6365
  16   2.0000      -0.732826       -19.9412
  17   2.0000      -0.713720       -19.4213
  18   2.0000      -0.674736       -18.3605
  19   2.0000      -0.661490       -18.0001
  20   2.0000      -0.629983       -17.1427
  21   2.0000      -0.593042       -16.1375
  22   2.0000      -0.587427       -15.9847
  23   2.0000      -0.576418       -15.6851
  24   2.0000      -0.568671       -15.4743
  25   2.0000      -0.535085       -14.5604
  26   2.0000      -0.529907       -14.4195
  27   2.0000      -0.484348       -13.1798
  28   2.0000      -0.471867       -12.8401
  29   2.0000      -0.445161       -12.1135
  30   2.0000      -0.433068       -11.7844
  31   2.0000      -0.356637        -9.7046
  32   2.0000      -0.345896        -9.4123
  33   0.0000       0.133030         3.6199
  34   0.0000       0.141558         3.8520
  35   0.0000       0.155018         4.2183
  36   0.0000       0.165408         4.5010
  37   0.0000       0.169173         4.6034

MULLIKEN ATOMIC CHARGES
-----------------------
   0 C :   -0.001615
   1 O :   -0.341059
   2 C :    0.149630
   3 C :   -0.159535
   4 C :   -0.197956
   5 C :   -0.218682
   6 C :   -0.076327
   7 C :   -0.218820
   8 C :   -0.125604
   9 H :    0.109427
  10 H :    0.104446
  11 H :    0.095793
  12 H :    0.129155
  13 H :    0.122127
  14 H :    0.120592
  15 H :    0.118546
  16 H :    0.133279
  17 H :    0.131654
  18 H :    0.124951
Sum of atomic charges:    0.0000000

LOEWDIN ATOMIC CHARGES
----------------------
   0 C :   -0.228731
   1 O :    0.131923
   2 C :   -0.239467
   3 C :   -0.228376
   4 C :   -0.172377
   5 C :   -0.171027
   6 C :   -0.240989
   7 C :   -0.148284
   8 C :   -0.151222
   9 H :    0.123768
  10 H :    0.123872
  11 H :    0.145813
  12 H :    0.145296
  13 H :    0.152018
  14 H :    0.146046
  15 H :    0.148723
  16 H :    0.157085
  17 H :    0.157730
  18 H :    0.148199

  Mayer bond orders larger than 0.1
B(  0-C ,  1-O ) :   0.9493 B(  0-C ,  8-C ) :   1.0138 B(  0-C ,  9-H ) :   0.9127
B(  0-C , 10-H ) :   0.8971 B(  1-O ,  2-C ) :   0.9630 B(  2-C ,  3-C ) :   0.8936
B(  2-C ,  8-C ) :   1.0054 B(  2-C , 11-H ) :   0.8994 B(  3-C ,  4-C ) :   0.9223
B(  3-C , 12-H ) :   0.9318 B(  3-C , 13-H ) :   0.9086 B(  4-C ,  5-C ) :   1.8170
B(  4-C , 14-H ) :   0.9267 B(  5-C ,  6-C ) :   0.9437 B(  5-C , 15-H ) :   0.9245
B(  6-C ,  7-C ) :   0.9448 B(  6-C , 16-H ) :   0.8969 B(  6-C , 17-H ) :   0.9121
B(  7-C ,  8-C ) :   1.6903 B(  7-C , 18-H ) :   0.9136

MP2 TOTAL ENERGY:     -385.181073380 Eh
FINAL SINGLE POINT ENERGY      -385.181073380124

DIPOLE MOMENT
-------------
                                X             Y             Z
Electronic contribution:      0.57716       3.13693      -0.77332
Nuclear contribution   :     -1.12105      -3.72950       0.85984
                        -----------------------------------------
Total Dipole Moment    :     -0.54389      -0.59257       0.08652
                        -----------------------------------------
Magnitude (a.u.)       :      0.80897
Magnitude (Debye)      :      2.05624

                             ****ORCA TERMINATED NORMALLY****
TOTAL RUN TIME: 0 days 0 hours 18 minutes 39 seconds 873 msec
