                         Program Version 3.0.3 - RELEASE   -
|  1> ! RI-MP2 RIJK def2-TZVP def2-TZVP/C def2-TZVP/JK TIGHTSCF
|  2> % maxcore 2000
|  3> % mp2 density relaxed end
|  4> *xyz 0 1
|  5>  C       -0.6163756560     1.4955455653    -0.1003492077
|  6>  C       -0.2312468295     0.0209975068    -0.0366415585
|  7>  C        0.9540178144    -0.5215781580    -0.8797388302
|  8>  C        1.9217252372     0.4377629828    -1.5545693276
|  9>  O        3.0967084215    -0.2525899759    -1.9357530441
| 10>  O        1.5767262491    -1.1043200387     0.3010097538
| 11>  C        0.5614397322    -0.5352637014     1.1767318584
| 12>  C        1.2101681316     0.4129575708     2.1728328559
| 13>  O        2.1638109201    -0.2851107830     2.9511256696
| 14>  H        0.2297582635     2.1665421771     0.0656402210
| 15>  H       -1.0455366730     1.7381712652    -1.0780305741
| 16>  H       -1.3760866684     1.7266486893     0.6535326110
| 17>  H       -1.1258346363    -0.5821172559    -0.2114310038
| 18>  H        0.6905146357    -1.3132209740    -1.5916983947
| 19>  H        1.4780793617     0.8473812312    -2.4689690077
| 20>  H        2.1553417770     1.2805772789    -0.8860881061
| 21>  H        3.3986423424    -0.7174992362    -1.1458106803
| 22>  H        0.0561506498    -1.3353353720     1.7313371101
| 23>  H        1.6715284109     1.2637130621     1.6482934459
| 24>  H        0.4598890118     0.8118838708     2.8646960450
| 25>  H        2.7366308943    -0.7405784651     2.3220468140
| 26> *
| 27>
| 28>                          ****END OF INPUT****

CARTESIAN COORDINATES (ANGSTROEM)
---------------------------------
  C     -0.616376    1.495546   -0.100349
  C     -0.231247    0.020998   -0.036642
  C      0.954018   -0.521578   -0.879739
  C      1.921725    0.437763   -1.554569
  O      3.096708   -0.252590   -1.935753
  O      1.576726   -1.104320    0.301010
  C      0.561440   -0.535264    1.176732
  C      1.210168    0.412958    2.172833
  O      2.163811   -0.285111    2.951126
  H      0.229758    2.166542    0.065640
  H     -1.045537    1.738171   -1.078031
  H     -1.376087    1.726649    0.653533
  H     -1.125835   -0.582117   -0.211431
  H      0.690515   -1.313221   -1.591698
  H      1.478079    0.847381   -2.468969
  H      2.155342    1.280577   -0.886088
  H      3.398642   -0.717499   -1.145811
  H      0.056151   -1.335335    1.731337
  H      1.671528    1.263713    1.648293
  H      0.459889    0.811884    2.864696
  H      2.736631   -0.740578    2.322047

 Total Charge           Charge          ....    0
 Multiplicity           Mult            ....    1
 Number of Electrons    NEL             ....   72
 Basis Dimension        Dim             ....  351

ORBITAL ENERGIES
----------------

  NO   OCC          E(Eh)            E(eV)
   0   2.0000     -20.562213      -559.5262
   1   2.0000     -20.556890      -559.3814
   2   2.0000     -20.556889      -559.3814
   3   2.0000     -11.291681      -307.2622
   4   2.0000     -11.291679      -307.2622
   5   2.0000     -11.281274      -306.9791
   6   2.0000     -11.281273      -306.9790
   7   2.0000     -11.252393      -306.1932
   8   2.0000     -11.236504      -305.7608
   9   2.0000      -1.398170       -38.0461
  10   2.0000      -1.363963       -37.1153
  11   2.0000      -1.354434       -36.8560
  12   2.0000      -1.073778       -29.2190
  13   2.0000      -1.014235       -27.5987
  14   2.0000      -0.961862       -26.1736
  15   2.0000      -0.907126       -24.6841
  16   2.0000      -0.847510       -23.0619
  17   2.0000      -0.744615       -20.2620
  18   2.0000      -0.729073       -19.8391
  19   2.0000      -0.689179       -18.7535
  20   2.0000      -0.684459       -18.6251
  21   2.0000      -0.651685       -17.7332
  22   2.0000      -0.631717       -17.1899
  23   2.0000      -0.611125       -16.6296
  24   2.0000      -0.601563       -16.3694
  25   2.0000      -0.578512       -15.7421
  26   2.0000      -0.577420       -15.7124
  27   2.0000      -0.557692       -15.1756
  28   2.0000      -0.530843       -14.4450
  29   2.0000      -0.524676       -14.2771
  30   2.0000      -0.519766       -14.1436
  31   2.0000      -0.480824       -13.0839
  32   2.0000      -0.460633       -12.5345
  33   2.0000      -0.457848       -12.4587
  34   2.0000      -0.438243       -11.9252
  35   2.0000      -0.413721       -11.2579
  36   0.0000       0.122824         3.3422
  37   0.0000       0.139957         3.8084
  38   0.0000       0.146483         3.9860
  39   0.0000       0.165339         4.4991
  40   0.0000       0.192790         5.2461

MULLIKEN ATOMIC CHARGES
-----------------------
   0 C :   -0.424435
   1 C :   -0.096843
   2 C :    0.048418
   3 C :   -0.019347
   4 O :   -0.472814
   5 O :   -0.387059
   6 C :    0.048418
   7 C :   -0.019346
   8 O :   -0.472814
   9 H :    0.129582
  10 H :    0.143703
  11 H :    0.143703
  12 H :    0.117512
  13 H :    0.100455
  14 H :    0.112588
  15 H :    0.093048
  16 H :    0.324571
  17 H :    0.100455
  18 H :    0.093048
  19 H :    0.112588
  20 H :    0.324571
Sum of atomic charges:    0.0000000

LOEWDIN ATOMIC CHARGES
----------------------
   0 C :   -0.294401
   1 C :   -0.218198
   2 C :   -0.265410
   3 C :   -0.334023
   4 O :   -0.040525
   5 O :    0.127817
   6 C :   -0.265410
   7 C :   -0.334023
   8 O :   -0.040526
   9 H :    0.122304
  10 H :    0.128982
  11 H :    0.128982
  12 H :    0.153015
  13 H :    0.138758
  14 H :    0.132508
  15 H :    0.116595
  16 H :    0.177846
  17 H :    0.138758
  18 H :    0.116595
  19 H :    0.132508
  20 H :    0.177846

  Mayer bond orders larger than 0.1
B(  0-C ,  1-C ) :   0.9212 B(  0-C ,  9-H ) :   0.9355 B(  0-C , 10-H ) :   0.9366
B(  0-C , 11-H ) :   0.9366 B(  1-C ,  2-C ) :   0.9082 B(  1-C ,  6-C ) :   0.9082
B(  1-C , 12-H ) :   0.9268 B(  2-C ,  3-C ) :   0.9425 B(  2-C ,  5-O ) :   0.8745
B(  2-C , 13-H ) :   0.9142 B(  3-C ,  4-O ) :   0.9244 B(  3-C , 14-H ) :   0.9244
B(  3-C , 15-H ) :   0.9153 B(  4-O , 16-H ) :   0.8328 B(  5-O ,  6-C ) :   0.8745
B(  6-C ,  7-C ) :   0.9425 B(  6-C , 17-H ) :   0.9142 B(  7-C ,  8-O ) :   0.9244
B(  7-C , 18-H ) :   0.9153 B(  7-C , 19-H ) :   0.9244 B(  8-O , 20-H ) :   0.8328

MP2 TOTAL ENERGY:     -460.610792097 Eh
FINAL SINGLE POINT ENERGY      -460.610792096679

DIPOLE MOMENT
-------------
                                X             Y             Z
Electronic contribution:      4.18173      -4.84639       0.76603
Nuclear contribution   :     -5.20904       5.26075      -0.95939
                        -----------------------------------------
Total Dipole Moment    :     -1.02731       0.41436      -0.19335
                        -----------------------------------------
Magnitude (a.u.)       :      1.12447
Magnitude (Debye)      :      2.85818

                             ****ORCA TERMINATED NORMALLY****
TOTAL RUN TIME: 0 days 0 hours 27 minutes 21 seconds 146 msec
