                         Program Version 3.0.3 - RELEASE   -
|  1> ! RI-MP2 RIJK def2-TZVP def2-TZVP/C def2-TZVP/JK TIGHTSCF
|  2> % maxcore 2000
|  3> % mp2 density relaxed end
|  4> *xyz 0 1
|  5>  C        0.2323668259     0.8686378628    -1.0131896261
|  6>  C        0.0213771156    -0.0464158274     0.1695889644
|  7>  O        0.7514050446    -0.0980424515     1.1279996792
|  8>  C       -1.2139366099    -0.9681960889     0.1002786120
|  9>  O       -2.3744680068    -0.1854120624    -0.0295665225
| 10>  C       -3.3018222586    -1.0015787845    -0.7375332017
| 11>  C       -2.3988018532    -1.7539255302    -1.7204637597
| 12>  O       -1.1381867560    -1.7994306683    -1.0487224218
| 13>  H        1.1183821748     1.4832752717    -0.8542879408
| 14>  H        0.3471591862     0.2686679809    -1.9215055356
| 15>  H       -0.6507375555     1.4996243044    -1.1518348853
| 16>  H       -1.2408224802    -1.5887558350     1.0103634655
| 17>  H       -3.8134623052    -1.6920358465    -0.0517831164
| 18>  H       -4.0390835121    -0.3527058159    -1.2135885453
| 19>  H       -2.7408040087    -2.7734600997    -1.9235138738
| 20>  H       -2.2932753410    -1.2170405495    -2.6713180621
| 21> *
| 22>
| 23>                          ****END OF INPUT****

CARTESIAN COORDINATES (ANGSTROEM)
---------------------------------
  C      0.232367    0.868638   -1.013190
  C      0.021377   -0.046416    0.169589
  O      0.751405   -0.098042    1.128000
  C     -1.213937   -0.968196    0.100279
  O     -2.374468   -0.185412   -0.029567
  C     -3.301822   -1.001579   -0.737533
  C     -2.398802   -1.753926   -1.720464
  O     -1.138187   -1.799431   -1.048722
  H      1.118382    1.483275   -0.854288
  H      0.347159    0.268668   -1.921506
  H     -0.650738    1.499624   -1.151835
  H     -1.240822   -1.588756    1.010363
  H     -3.813462   -1.692036   -0.051783
  H     -4.039084   -0.352706   -1.213589
  H     -2.740804   -2.773460   -1.923514
  H     -2.293275   -1.217041   -2.671318

 Total Charge           Charge          ....    0
 Multiplicity           Mult            ....    1
 Number of Electrons    NEL             ....   62
 Basis Dimension        Dim             ....  296

ORBITAL ENERGIES
----------------

  NO   OCC          E(Eh)            E(eV)
   0   2.0000     -20.587996      -560.2279
   1   2.0000     -20.580688      -560.0290
   2   2.0000     -20.554519      -559.3169
   3   2.0000     -11.348986      -308.8216
   4   2.0000     -11.332982      -308.3861
   5   2.0000     -11.301760      -307.5365
   6   2.0000     -11.299094      -307.4640
   7   2.0000     -11.231238      -305.6175
   8   2.0000      -1.460781       -39.7499
   9   2.0000      -1.395466       -37.9726
  10   2.0000      -1.351721       -36.7822
  11   2.0000      -1.063130       -28.9292
  12   2.0000      -1.004309       -27.3286
  13   2.0000      -0.902647       -24.5623
  14   2.0000      -0.872328       -23.7373
  15   2.0000      -0.771781       -21.0012
  16   2.0000      -0.729568       -19.8526
  17   2.0000      -0.701935       -19.1006
  18   2.0000      -0.663709       -18.0604
  19   2.0000      -0.639607       -17.4046
  20   2.0000      -0.624355       -16.9896
  21   2.0000      -0.617957       -16.8155
  22   2.0000      -0.597212       -16.2510
  23   2.0000      -0.580001       -15.7826
  24   2.0000      -0.551740       -15.0136
  25   2.0000      -0.535133       -14.5617
  26   2.0000      -0.515755       -14.0344
  27   2.0000      -0.501565       -13.6483
  28   2.0000      -0.469581       -12.7779
  29   2.0000      -0.461122       -12.5478
  30   2.0000      -0.406510       -11.0617
  31   0.0000       0.129301         3.5185
  32   0.0000       0.140587         3.8256
  33   0.0000       0.154001         4.1906
  34   0.0000       0.171586         4.6691
  35   0.0000       0.184550         5.0218

MULLIKEN ATOMIC CHARGES
-----------------------
   0 C :   -0.444177
   1 C :    0.205234
   2 O :   -0.265583
   3 C :    0.249986
   4 O :   -0.317338
   5 C :   -0.084829
   6 C :   -0.036810
   7 O :   -0.332481
   8 H :    0.153639
   9 H :    0.156373
  10 H :    0.154925
  11 H :    0.089409
  12 H :    0.112246
  13 H :    0.135819
  14 H :    0.120098
  15 H :    0.103488
Sum of atomic charges:   -0.0000000

LOEWDIN ATOMIC CHARGES
----------------------
   0 C :   -0.280226
   1 C :   -0.324171
   2 O :    0.168065
   3 C :   -0.362451
   4 O :    0.183730
   5 C :   -0.303921
   6 C :   -0.300715
   7 O :    0.165508
   8 H :    0.133973
   9 H :    0.142376
  10 H :    0.141256
  11 H :    0.132551
  12 H :    0.123939
  13 H :    0.131697
  14 H :    0.127039
  15 H :    0.121350

  Mayer bond orders larger than 0.1
B(  0-C ,  1-C ) :   0.9278 B(  0-C ,  8-H ) :   0.9337 B(  0-C ,  9-H ) :   0.9089
B(  0-C , 10-H ) :   0.9090 B(  1-C ,  2-O ) :   2.0084 B(  1-C ,  3-C ) :   0.8598
B(  3-C ,  4-O ) :   0.9728 B(  3-C ,  7-O ) :   0.9312 B(  3-C , 11-H ) :   0.9158
B(  4-O ,  5-C ) :   0.9073 B(  5-C ,  6-C ) :   0.9559 B(  5-C , 12-H ) :   0.9377
B(  5-C , 13-H ) :   0.9220 B(  6-C ,  7-O ) :   0.9192 B(  6-C , 14-H ) :   0.9193
B(  6-C , 15-H ) :   0.9293

MP2 TOTAL ENERGY:     -420.221168931 Eh
FINAL SINGLE POINT ENERGY      -420.221168931200

DIPOLE MOMENT
-------------
                                X             Y             Z
Electronic contribution:      2.41630      -0.72947       4.17916
Nuclear contribution   :     -3.58383       0.58626      -5.21046
                        -----------------------------------------
Total Dipole Moment    :     -1.16753      -0.14321      -1.03130
                        -----------------------------------------
Magnitude (a.u.)       :      1.56436
Magnitude (Debye)      :      3.97628

                             ****ORCA TERMINATED NORMALLY****
TOTAL RUN TIME: 0 days 0 hours 10 minutes 50 seconds 51 msec
