                         Program Version 3.0.3 - RELEASE   -
|  1> ! RI-MP2 RIJK def2-TZVP def2-TZVP/C def2-TZVP/JK TIGHTSCF
|  2> % maxcore 2000
|  3> % mp2 density relaxed end
|  4> *xyz 0 1
|  5>  N        0.1706229817     1.4241898347    -0.0077737795
|  6>  C        0.0232671219     0.0241158390    -0.0202705833
|  7>  C       -1.0663078171    -0.8159105739    -0.0173559769
|  8>  O       -2.3565162335    -0.3981183055     0.0003184415
|  9>  C       -0.5823356485    -2.1644617001    -0.0359095631
| 10>  C        0.8070689029    -2.0976383580    -0.0498977472
| 11>  N        1.1478030513    -0.7900203907    -0.0401519598
| 12>  C       -1.4064202160    -3.3091572579    -0.0387618977
| 13>  N       -2.1481315456    -4.2014898750    -0.0400487624
| 14>  H       -0.2522040796     1.8382539854     0.8171686536
| 15>  H       -0.2698737668     1.8546532402    -0.8148804569
| 16>  H       -2.9336454029    -1.1708328608    -0.0015485802
| 17>  H        1.5380838305    -2.8879979649    -0.0655524243
| 18>  H        2.0821633518    -0.4166045125    -0.0461632539
| 19> *
| 20>
| 21>                          ****END OF INPUT****

CARTESIAN COORDINATES (ANGSTROEM)
---------------------------------
  N      0.170623    1.424190   -0.007774
  C      0.023267    0.024116   -0.020271
  C     -1.066308   -0.815911   -0.017356
  O     -2.356516   -0.398118    0.000318
  C     -0.582336   -2.164462   -0.035910
  C      0.807069   -2.097638   -0.049898
  N      1.147803   -0.790020   -0.040152
  C     -1.406420   -3.309157   -0.038762
  N     -2.148132   -4.201490   -0.040049
  H     -0.252204    1.838254    0.817169
  H     -0.269874    1.854653   -0.814880
  H     -2.933645   -1.170833   -0.001549
  H      1.538084   -2.887998   -0.065552
  H      2.082163   -0.416605   -0.046163

 Total Charge           Charge          ....    0
 Multiplicity           Mult            ....    1
 Number of Electrons    NEL             ....   64
 Basis Dimension        Dim             ....  309

ORBITAL ENERGIES
----------------

  NO   OCC          E(Eh)            E(eV)
   0   2.0000     -20.598704      -560.5192
   1   2.0000     -15.633812      -425.4177
   2   2.0000     -15.575473      -423.8302
   3   2.0000     -15.568977      -423.6534
   4   2.0000     -11.303932      -307.5956
   5   2.0000     -11.300904      -307.5132
   6   2.0000     -11.295778      -307.3737
   7   2.0000     -11.277320      -306.8715
   8   2.0000     -11.264388      -306.5196
   9   2.0000      -1.416368       -38.5413
  10   2.0000      -1.329346       -36.1733
  11   2.0000      -1.217290       -33.1242
  12   2.0000      -1.201189       -32.6860
  13   2.0000      -1.083168       -29.4745
  14   2.0000      -0.992107       -26.9966
  15   2.0000      -0.884676       -24.0733
  16   2.0000      -0.815163       -22.1817
  17   2.0000      -0.774964       -21.0878
  18   2.0000      -0.697936       -18.9918
  19   2.0000      -0.688684       -18.7400
  20   2.0000      -0.672833       -18.3087
  21   2.0000      -0.657990       -17.9048
  22   2.0000      -0.625082       -17.0093
  23   2.0000      -0.616350       -16.7717
  24   2.0000      -0.563368       -15.3300
  25   2.0000      -0.561894       -15.2899
  26   2.0000      -0.553946       -15.0736
  27   2.0000      -0.500797       -13.6274
  28   2.0000      -0.467439       -12.7197
  29   2.0000      -0.441393       -12.0109
  30   2.0000      -0.355657        -9.6779
  31   2.0000      -0.312851        -8.5131
  32   0.0000       0.118206         3.2166
  33   0.0000       0.120990         3.2923
  34   0.0000       0.131181         3.5696
  35   0.0000       0.147465         4.0127
  36   0.0000       0.167192         4.5495

MULLIKEN ATOMIC CHARGES
-----------------------
   0 N :   -0.540687
   1 C :    0.115693
   2 C :    0.038827
   3 O :   -0.429391
   4 C :    0.195434
   5 C :   -0.130021
   6 N :   -0.224472
   7 C :   -0.256665
   8 N :   -0.058339
   9 H :    0.258421
  10 H :    0.258431
  11 H :    0.348857
  12 H :    0.169729
  13 H :    0.254183
Sum of atomic charges:   -0.0000000

LOEWDIN ATOMIC CHARGES
----------------------
   0 N :   -0.113729
   1 C :   -0.314303
   2 C :   -0.262393
   3 O :    0.073858
   4 C :   -0.190398
   5 C :   -0.184833
   6 N :    0.218372
   7 C :   -0.174700
   8 N :    0.058780
   9 H :    0.171692
  10 H :    0.171699
  11 H :    0.202709
  12 H :    0.142675
  13 H :    0.200571

  Mayer bond orders larger than 0.1
B(  0-N ,  1-C ) :   1.1124 B(  0-N ,  9-H ) :   0.8864 B(  0-N , 10-H ) :   0.8864
B(  1-C ,  2-C ) :   1.5042 B(  1-C ,  6-N ) :   1.0841 B(  2-C ,  3-O ) :   1.1845
B(  2-C ,  4-C ) :   1.1318 B(  3-O , 11-H ) :   0.8195 B(  4-C ,  5-C ) :   1.3258
B(  4-C ,  7-C ) :   0.8587 B(  5-C ,  6-N ) :   1.2424 B(  5-C , 12-H ) :   0.9041
B(  6-N , 13-H ) :   0.8620 B(  7-C ,  8-N ) :   2.8668

MP2 TOTAL ENERGY:     -432.192533410 Eh
FINAL SINGLE POINT ENERGY      -432.192533410241

DIPOLE MOMENT
-------------
                                X             Y             Z
Electronic contribution:     -1.85710      -3.93610      -0.02005
Nuclear contribution   :      3.02534       5.28423       0.02149
                        -----------------------------------------
Total Dipole Moment    :      1.16824       1.34814       0.00143
                        -----------------------------------------
Magnitude (a.u.)       :      1.78389
Magnitude (Debye)      :      4.53429

                             ****ORCA TERMINATED NORMALLY****
TOTAL RUN TIME: 0 days 0 hours 14 minutes 20 seconds 761 msec
