                         Program Version 3.0.3 - RELEASE   -
|  1> ! RI-MP2 RIJK def2-TZVP def2-TZVP/C def2-TZVP/JK TIGHTSCF
|  2> % maxcore 2000
|  3> % mp2 density relaxed end
|  4> *xyz 0 1
|  5>  O       -0.1591115747     1.4600014356    -0.1208315716
|  6>  C       -0.0534289518     0.0589966583    -0.0807096810
|  7>  C        0.1949912731    -0.6103017074     1.2887704170
|  8>  C       -1.2791165038    -0.3400052501     1.7467655746
|  9>  C       -1.3845023729    -0.6422408260     0.2035031108
| 10>  C       -0.6577734793    -1.8556013948     0.8845746966
| 11>  N       -1.4610362657    -1.7640754823     2.1362663249
| 12>  C       -2.6522080867    -2.3794013205     2.4127854110
| 13>  O       -3.5957392427    -1.8524689004     2.9608715222
| 14>  H        0.7259156115     1.8339710614    -0.1743348160
| 15>  H        0.5322769171    -0.3356563711    -0.9221057811
| 16>  H        1.0769519400    -0.6180828361     1.9290200580
| 17>  H       -1.6871175661     0.4913507888     2.3118931664
| 18>  H       -2.2966730681    -0.6745384664    -0.3917165910
| 19>  H       -0.3301923375    -2.7965369257     0.4454588490
| 20>  H       -2.6255468623    -3.4584841433     2.1518213602
| 21> *
| 22>
| 23>                          ****END OF INPUT****

CARTESIAN COORDINATES (ANGSTROEM)
---------------------------------
  O     -0.159112    1.460001   -0.120832
  C     -0.053429    0.058997   -0.080710
  C      0.194991   -0.610302    1.288770
  C     -1.279117   -0.340005    1.746766
  C     -1.384502   -0.642241    0.203503
  C     -0.657773   -1.855601    0.884575
  N     -1.461036   -1.764075    2.136266
  C     -2.652208   -2.379401    2.412785
  O     -3.595739   -1.852469    2.960872
  H      0.725916    1.833971   -0.174335
  H      0.532277   -0.335656   -0.922106
  H      1.076952   -0.618083    1.929020
  H     -1.687118    0.491351    2.311893
  H     -2.296673   -0.674538   -0.391717
  H     -0.330192   -2.796537    0.445459
  H     -2.625547   -3.458484    2.151821

 Total Charge           Charge          ....    0
 Multiplicity           Mult            ....    1
 Number of Electrons    NEL             ....   66
 Basis Dimension        Dim             ....  321

ORBITAL ENERGIES
----------------

  NO   OCC          E(Eh)            E(eV)
   0   2.0000     -20.574205      -559.8526
   1   2.0000     -20.525947      -558.5394
   2   2.0000     -15.583212      -424.0407
   3   2.0000     -11.343855      -308.6820
   4   2.0000     -11.305757      -307.6453
   5   2.0000     -11.305155      -307.6289
   6   2.0000     -11.296457      -307.3922
   7   2.0000     -11.264989      -306.5359
   8   2.0000     -11.263160      -306.4862
   9   2.0000      -1.389715       -37.8161
  10   2.0000      -1.381595       -37.5951
  11   2.0000      -1.319079       -35.8940
  12   2.0000      -1.142272       -31.0828
  13   2.0000      -0.942437       -25.6450
  14   2.0000      -0.904923       -24.6242
  15   2.0000      -0.894756       -24.3475
  16   2.0000      -0.800685       -21.7877
  17   2.0000      -0.730242       -19.8709
  18   2.0000      -0.721518       -19.6335
  19   2.0000      -0.706679       -19.2297
  20   2.0000      -0.691483       -18.8162
  21   2.0000      -0.644308       -17.5325
  22   2.0000      -0.625383       -17.0175
  23   2.0000      -0.589857       -16.0508
  24   2.0000      -0.558134       -15.1876
  25   2.0000      -0.533265       -14.5109
  26   2.0000      -0.510672       -13.8961
  27   2.0000      -0.490522       -13.3478
  28   2.0000      -0.470815       -12.8115
  29   2.0000      -0.459271       -12.4974
  30   2.0000      -0.445268       -12.1164
  31   2.0000      -0.423995       -11.5375
  32   2.0000      -0.373392       -10.1605
  33   0.0000       0.125174         3.4062
  34   0.0000       0.143753         3.9117
  35   0.0000       0.156466         4.2577
  36   0.0000       0.167768         4.5652
  37   0.0000       0.168648         4.5891

MULLIKEN ATOMIC CHARGES
-----------------------
   0 O :   -0.461687
   1 C :   -0.025696
   2 C :   -0.041804
   3 C :   -0.100254
   4 C :   -0.059144
   5 C :   -0.112732
   6 N :   -0.100397
   7 C :    0.124126
   8 O :   -0.335711
   9 H :    0.322589
  10 H :    0.102583
  11 H :    0.151759
  12 H :    0.159375
  13 H :    0.150714
  14 H :    0.148475
  15 H :    0.077804
Sum of atomic charges:   -0.0000000

LOEWDIN ATOMIC CHARGES
----------------------
   0 O :   -0.005426
   1 C :   -0.303010
   2 C :   -0.123563
   3 C :   -0.118212
   4 C :   -0.112849
   5 C :   -0.139257
   6 N :    0.189375
   7 C :   -0.419388
   8 O :    0.074117
   9 H :    0.179611
  10 H :    0.128863
  11 H :    0.131415
  12 H :    0.140673
  13 H :    0.135441
  14 H :    0.133154
  15 H :    0.109056

  Mayer bond orders larger than 0.1
B(  0-O ,  1-C ) :   1.1500 B(  0-O ,  2-C ) :  -0.1087 B(  0-O ,  4-C ) :  -0.1102
B(  0-O ,  9-H ) :   0.8414 B(  1-C ,  2-C ) :   0.8462 B(  1-C ,  4-C ) :   0.8879
B(  1-C , 10-H ) :   0.9819 B(  2-C ,  3-C ) :   0.8650 B(  2-C ,  5-C ) :   0.8669
B(  2-C , 11-H ) :   0.8810 B(  3-C ,  4-C ) :   0.8528 B(  3-C ,  6-N ) :   0.8747
B(  3-C , 12-H ) :   0.9030 B(  4-C ,  5-C ) :   0.8594 B(  4-C , 13-H ) :   0.9006
B(  5-C ,  6-N ) :   0.8673 B(  5-C , 14-H ) :   0.8979 B(  6-N ,  7-C ) :   1.0919
B(  7-C ,  8-O ) :   1.9313 B(  7-C , 15-H ) :   0.9372

MP2 TOTAL ENERGY:     -437.082542845 Eh
FINAL SINGLE POINT ENERGY      -437.082542845418

DIPOLE MOMENT
-------------
                                X             Y             Z
Electronic contribution:     -2.08314      -0.45360       2.17095
Nuclear contribution   :      3.80732       0.35672      -3.27926
                        -----------------------------------------
Total Dipole Moment    :      1.72418      -0.09688      -1.10830
                        -----------------------------------------
Magnitude (a.u.)       :      2.05195
Magnitude (Debye)      :      5.21565

                             ****ORCA TERMINATED NORMALLY****
TOTAL RUN TIME: 0 days 0 hours 16 minutes 0 seconds 930 msec
