                         Program Version 3.0.3 - RELEASE   -
|  1> ! RI-MP2 RIJK def2-TZVP def2-TZVP/C def2-TZVP/JK TIGHTSCF
|  2> % maxcore 2000
|  3> % mp2 density relaxed end
|  4> *xyz 0 1
|  5>  C        0.1029070977     1.5509933353    -0.0644393656
|  6>  C        0.0119669545     0.0250248340     0.0025626628
|  7>  C       -1.4345060202    -0.4856575622     0.0290637942
|  8>  O       -2.1755598871    -0.0469999508    -1.0976108287
|  9>  C       -1.4784594880    -2.0273133366     0.1709250444
| 10>  C       -2.8245632565    -2.5659439935     0.2653465107
| 11>  C       -3.9451842007    -3.0136429744     0.3545986838
| 12>  C       -5.2062238589    -3.5147429555     0.4549054959
| 13>  C       -6.3245455459    -3.9617367274     0.5449774098
| 14>  H        1.1427501384     1.8818393054    -0.1405751267
| 15>  H       -0.4467013961     1.9314625978    -0.9290803086
| 16>  H       -0.3301194629     2.0094318756     0.8312345974
| 17>  H        0.5239864125    -0.4201392467    -0.8637065576
| 18>  H        0.5374674743    -0.3465615914     0.8912749997
| 19>  H       -1.9571526707    -0.0480614747     0.8878630855
| 20>  H       -1.7671099451    -0.4193645235    -1.8877359268
| 21>  H       -0.9593325755    -2.4754519534    -0.6896822137
| 22>  H       -0.9010440520    -2.3203124102     1.0577580685
| 23>  H       -7.3087130678    -4.3516841378     0.6231698450
| 24> *
| 25>
| 26>                          ****END OF INPUT****

CARTESIAN COORDINATES (ANGSTROEM)
---------------------------------
  C      0.102907    1.550993   -0.064439
  C      0.011967    0.025025    0.002563
  C     -1.434506   -0.485658    0.029064
  O     -2.175560   -0.047000   -1.097611
  C     -1.478459   -2.027313    0.170925
  C     -2.824563   -2.565944    0.265347
  C     -3.945184   -3.013643    0.354599
  C     -5.206224   -3.514743    0.454905
  C     -6.324546   -3.961737    0.544977
  H      1.142750    1.881839   -0.140575
  H     -0.446701    1.931463   -0.929080
  H     -0.330119    2.009432    0.831235
  H      0.523986   -0.420139   -0.863707
  H      0.537467   -0.346562    0.891275
  H     -1.957153   -0.048061    0.887863
  H     -1.767110   -0.419365   -1.887736
  H     -0.959333   -2.475452   -0.689682
  H     -0.901044   -2.320312    1.057758
  H     -7.308713   -4.351684    0.623170

 Total Charge           Charge          ....    0
 Multiplicity           Mult            ....    1
 Number of Electrons    NEL             ....   66
 Basis Dimension        Dim             ....  339

ORBITAL ENERGIES
----------------

  NO   OCC          E(Eh)            E(eV)
   0   2.0000     -20.561582      -559.5091
   1   2.0000     -11.294866      -307.3489
   2   2.0000     -11.263620      -306.4987
   3   2.0000     -11.253652      -306.2274
   4   2.0000     -11.251462      -306.1679
   5   2.0000     -11.242591      -305.9264
   6   2.0000     -11.242221      -305.9164
   7   2.0000     -11.234461      -305.7052
   8   2.0000     -11.218521      -305.2715
   9   2.0000      -1.370857       -37.3029
  10   2.0000      -1.100236       -29.9389
  11   2.0000      -1.069657       -29.1069
  12   2.0000      -1.035147       -28.1678
  13   2.0000      -0.981906       -26.7190
  14   2.0000      -0.894995       -24.3540
  15   2.0000      -0.822938       -22.3933
  16   2.0000      -0.817826       -22.2542
  17   2.0000      -0.707586       -19.2544
  18   2.0000      -0.679791       -18.4980
  19   2.0000      -0.666218       -18.1287
  20   2.0000      -0.640756       -17.4359
  21   2.0000      -0.627599       -17.0778
  22   2.0000      -0.600478       -16.3398
  23   2.0000      -0.559178       -15.2160
  24   2.0000      -0.535872       -14.5818
  25   2.0000      -0.521959       -14.2032
  26   2.0000      -0.494627       -13.4595
  27   2.0000      -0.487565       -13.2673
  28   2.0000      -0.473215       -12.8768
  29   2.0000      -0.470465       -12.8020
  30   2.0000      -0.447233       -12.1698
  31   2.0000      -0.348246        -9.4763
  32   2.0000      -0.347629        -9.4595
  33   0.0000       0.111474         3.0334
  34   0.0000       0.120678         3.2838
  35   0.0000       0.129735         3.5303
  36   0.0000       0.151416         4.1202
  37   0.0000       0.156168         4.2495

MULLIKEN ATOMIC CHARGES
-----------------------
   0 C :   -0.370841
   1 C :   -0.209593
   2 C :    0.092303
   3 O :   -0.457528
   4 C :   -0.474917
   5 C :   -0.041016
   6 C :    0.102572
   7 C :   -0.003954
   8 C :   -0.152601
   9 H :    0.134267
  10 H :    0.136005
  11 H :    0.123059
  12 H :    0.102502
  13 H :    0.110474
  14 H :    0.100891
  15 H :    0.310714
  16 H :    0.153294
  17 H :    0.152919
  18 H :    0.191447
Sum of atomic charges:    0.0000000

LOEWDIN ATOMIC CHARGES
----------------------
   0 C :   -0.316718
   1 C :   -0.285706
   2 C :   -0.339824
   3 O :   -0.003838
   4 C :   -0.240233
   5 C :   -0.021858
   6 C :   -0.061211
   7 C :   -0.099128
   8 C :   -0.053331
   9 H :    0.121002
  10 H :    0.124784
  11 H :    0.122777
  12 H :    0.135192
  13 H :    0.140058
  14 H :    0.150736
  15 H :    0.176833
  16 H :    0.158117
  17 H :    0.163177
  18 H :    0.129173

  Mayer bond orders larger than 0.1
B(  0-C ,  1-C ) :   0.9335 B(  0-C ,  9-H ) :   0.9407 B(  0-C , 10-H ) :   0.9343
B(  0-C , 11-H ) :   0.9374 B(  1-C ,  2-C ) :   0.9460 B(  1-C , 12-H ) :   0.9105
B(  1-C , 13-H ) :   0.9308 B(  2-C ,  3-O ) :   0.9126 B(  2-C ,  4-C ) :   0.9298
B(  2-C , 14-H ) :   0.9249 B(  3-O , 15-H ) :   0.8416 B(  4-C ,  5-C ) :   1.0413
B(  4-C ,  6-C ) :  -0.1661 B(  4-C , 16-H ) :   0.9234 B(  4-C , 17-H ) :   0.9234
B(  5-C ,  6-C ) :   2.5585 B(  5-C ,  8-C ) :   0.1218 B(  6-C ,  7-C ) :   1.2932
B(  7-C ,  8-C ) :   2.5372 B(  8-C , 18-H ) :   0.8906

MP2 TOTAL ENERGY:     -385.145037269 Eh
FINAL SINGLE POINT ENERGY      -385.145037268609

DIPOLE MOMENT
-------------
                                X             Y             Z
Electronic contribution:    -11.37893      -9.14456       0.41291
Nuclear contribution   :     12.26848       9.06082      -0.47848
                        -----------------------------------------
Total Dipole Moment    :      0.88956      -0.08374      -0.06557
                        -----------------------------------------
Magnitude (a.u.)       :      0.89589
Magnitude (Debye)      :      2.27717

                             ****ORCA TERMINATED NORMALLY****
TOTAL RUN TIME: 0 days 0 hours 13 minutes 54 seconds 959 msec
