                         Program Version 3.0.3 - RELEASE   -
|  1> ! RI-MP2 RIJK def2-TZVP def2-TZVP/C def2-TZVP/JK TIGHTSCF
|  2> % maxcore 2000
|  3> % mp2 density relaxed end
|  4> *xyz 0 1
|  5>  N        0.0654402700     1.2919658661     0.0915286733
|  6>  C        0.0961577537    -0.0547551640     0.0007010183
|  7>  O        1.1160037937    -0.7140343561    -0.1369369346
|  8>  C       -1.2637127768    -0.7902766219     0.0306691446
|  9>  O       -1.0180830826    -2.1618360947     0.0016607359
| 10>  C       -2.1054098074    -0.4248729132     1.2880097504
| 11>  O       -2.4668428278     0.9659295104     1.2735655397
| 12>  C       -3.2931388255    -1.2652420056     1.3889776658
| 13>  C       -4.3131506155    -1.8980889589     1.4415954598
| 14>  H        0.9453608162     1.7781951935     0.1614154542
| 15>  H       -0.7842958123     1.7354119457     0.4121794689
| 16>  H       -1.8462319593    -0.4704322805    -0.8499474817
| 17>  H       -0.0488368446    -2.2292211198    -0.0858165534
| 18>  H       -1.4772045863    -0.5643154519     2.1752247892
| 19>  H       -3.3039732092     1.0389109737     0.8014702713
| 20>  H       -5.2002838964    -2.4798279127     1.4974922282
| 21> *
| 22>
| 23>                          ****END OF INPUT****

CARTESIAN COORDINATES (ANGSTROEM)
---------------------------------
  N      0.065440    1.291966    0.091529
  C      0.096158   -0.054755    0.000701
  O      1.116004   -0.714034   -0.136937
  C     -1.263713   -0.790277    0.030669
  O     -1.018083   -2.161836    0.001661
  C     -2.105410   -0.424873    1.288010
  O     -2.466843    0.965930    1.273566
  C     -3.293139   -1.265242    1.388978
  C     -4.313151   -1.898089    1.441595
  H      0.945361    1.778195    0.161415
  H     -0.784296    1.735412    0.412179
  H     -1.846232   -0.470432   -0.849947
  H     -0.048837   -2.229221   -0.085817
  H     -1.477205   -0.564315    2.175225
  H     -3.303973    1.038911    0.801470
  H     -5.200284   -2.479828    1.497492

 Total Charge           Charge          ....    0
 Multiplicity           Mult            ....    1
 Number of Electrons    NEL             ....   68
 Basis Dimension        Dim             ....  321

ORBITAL ENERGIES
----------------

  NO   OCC          E(Eh)            E(eV)
   0   2.0000     -20.596615      -560.4624
   1   2.0000     -20.558870      -559.4353
   2   2.0000     -20.539767      -558.9155
   3   2.0000     -15.591711      -424.2720
   4   2.0000     -11.366411      -309.2958
   5   2.0000     -11.334733      -308.4338
   6   2.0000     -11.312083      -307.8174
   7   2.0000     -11.249199      -306.1063
   8   2.0000     -11.244229      -305.9710
   9   2.0000      -1.417017       -38.5590
  10   2.0000      -1.399780       -38.0899
  11   2.0000      -1.363841       -37.1120
  12   2.0000      -1.227472       -33.4012
  13   2.0000      -1.076736       -29.2995
  14   2.0000      -1.011132       -27.5143
  15   2.0000      -0.915354       -24.9080
  16   2.0000      -0.806689       -21.9511
  17   2.0000      -0.784314       -21.3423
  18   2.0000      -0.746797       -20.3214
  19   2.0000      -0.708896       -19.2900
  20   2.0000      -0.706460       -19.2238
  21   2.0000      -0.692410       -18.8414
  22   2.0000      -0.663440       -18.0531
  23   2.0000      -0.638524       -17.3751
  24   2.0000      -0.605770       -16.4838
  25   2.0000      -0.572434       -15.5767
  26   2.0000      -0.567779       -15.4500
  27   2.0000      -0.539866       -14.6905
  28   2.0000      -0.514029       -13.9874
  29   2.0000      -0.461949       -12.5703
  30   2.0000      -0.449073       -12.2199
  31   2.0000      -0.429225       -11.6798
  32   2.0000      -0.412326       -11.2200
  33   2.0000      -0.401752       -10.9322
  34   0.0000       0.117759         3.2044
  35   0.0000       0.147684         4.0187
  36   0.0000       0.154957         4.2166
  37   0.0000       0.157696         4.2911
  38   0.0000       0.162919         4.4333

MULLIKEN ATOMIC CHARGES
-----------------------
   0 N :   -0.460788
   1 C :    0.241602
   2 O :   -0.380900
   3 C :    0.118886
   4 O :   -0.467800
   5 C :   -0.041716
   6 O :   -0.498253
   7 C :   -0.053838
   8 C :   -0.094606
   9 H :    0.260445
  10 H :    0.287521
  11 H :    0.090066
  12 H :    0.341926
  13 H :    0.120359
  14 H :    0.337325
  15 H :    0.199771
Sum of atomic charges:   -0.0000000

LOEWDIN ATOMIC CHARGES
----------------------
   0 N :    0.002978
   1 C :   -0.462363
   2 O :    0.070857
   3 C :   -0.313141
   4 O :    0.012075
   5 C :   -0.301169
   6 O :   -0.017382
   7 C :   -0.093178
   8 C :   -0.069395
   9 H :    0.177350
  10 H :    0.176371
  11 H :    0.147907
  12 H :    0.188886
  13 H :    0.165728
  14 H :    0.184093
  15 H :    0.130383

  Mayer bond orders larger than 0.1
B(  0-N ,  1-C ) :   1.2266 B(  0-N ,  9-H ) :   0.8560 B(  0-N , 10-H ) :   0.8355
B(  1-C ,  2-O ) :   1.8668 B(  1-C ,  3-C ) :   0.9091 B(  3-C ,  4-O ) :   1.1043
B(  3-C ,  5-C ) :   0.8720 B(  3-C , 11-H ) :   0.8957 B(  4-O , 12-H ) :   0.7854
B(  5-C ,  6-O ) :   0.8634 B(  5-C ,  7-C ) :   1.1806 B(  5-C , 13-H ) :   0.9053
B(  6-O , 14-H ) :   0.8277 B(  7-C ,  8-C ) :   2.5670 B(  8-C , 15-H ) :   0.8874

MP2 TOTAL ENERGY:     -474.268303928 Eh
FINAL SINGLE POINT ENERGY      -474.268303927592

DIPOLE MOMENT
-------------
                                X             Y             Z
Electronic contribution:      1.01070      -1.19665      -0.02032
Nuclear contribution   :     -1.82838       2.29031       0.10913
                        -----------------------------------------
Total Dipole Moment    :     -0.81768       1.09366       0.08880
                        -----------------------------------------
Magnitude (a.u.)       :      1.36842
Magnitude (Debye)      :      3.47824

                             ****ORCA TERMINATED NORMALLY****
TOTAL RUN TIME: 0 days 0 hours 15 minutes 21 seconds 856 msec
