                         Program Version 3.0.3 - RELEASE   -
|  1> ! RI-MP2 RIJK def2-TZVP def2-TZVP/C def2-TZVP/JK TIGHTSCF
|  2> % maxcore 2000
|  3> % mp2 density relaxed end
|  4> *xyz 0 1
|  5>  C       -0.1399346286     1.4559869471     0.0398291693
|  6>  C        0.0979868104    -0.0149730335     0.0551301834
|  7>  O       -1.0761630900    -0.8810528412    -0.0827787724
|  8>  C       -0.6031584489    -1.6959292224     0.9610102141
|  9>  N       -1.1712673017    -2.6378148147     1.5577254514
| 10>  C        0.6983153721    -0.9930879093     1.0784799600
| 11>  C        1.2728867559    -0.8230695208    -0.3473392612
| 12>  O        1.2428101676    -1.7905288666    -1.3345082625
| 13>  H        0.7961847858     1.9898449873     0.2261154746
| 14>  H       -0.5235717174     1.7739421875    -0.9355536163
| 15>  H       -0.8656568405     1.7430813105     0.8066182227
| 16>  H       -2.1075180228    -2.8044934691     1.1857078351
| 17>  H        1.2770518471    -0.8440222677     1.9786209086
| 18>  H        2.2254530965    -0.2999613002    -0.3425948772
| 19>  H        0.3138736445    -1.9882964470    -1.5121668196
| 20> *
| 21>
| 22>                          ****END OF INPUT****

CARTESIAN COORDINATES (ANGSTROEM)
---------------------------------
  C     -0.139935    1.455987    0.039829
  C      0.097987   -0.014973    0.055130
  O     -1.076163   -0.881053   -0.082779
  C     -0.603158   -1.695929    0.961010
  N     -1.171267   -2.637815    1.557725
  C      0.698315   -0.993088    1.078480
  C      1.272887   -0.823070   -0.347339
  O      1.242810   -1.790529   -1.334508
  H      0.796185    1.989845    0.226115
  H     -0.523572    1.773942   -0.935554
  H     -0.865657    1.743081    0.806618
  H     -2.107518   -2.804493    1.185708
  H      1.277052   -0.844022    1.978621
  H      2.225453   -0.299961   -0.342595
  H      0.313874   -1.988296   -1.512167

 Total Charge           Charge          ....    0
 Multiplicity           Mult            ....    1
 Number of Electrons    NEL             ....   60
 Basis Dimension        Dim             ....  290

ORBITAL ENERGIES
----------------

  NO   OCC          E(Eh)            E(eV)
   0   2.0000     -20.602285      -560.6167
   1   2.0000     -20.578587      -559.9718
   2   2.0000     -15.546367      -423.0381
   3   2.0000     -11.351296      -308.8845
   4   2.0000     -11.325770      -308.1899
   5   2.0000     -11.319361      -308.0155
   6   2.0000     -11.260284      -306.4079
   7   2.0000     -11.249624      -306.1178
   8   2.0000      -1.452995       -39.5380
   9   2.0000      -1.386391       -37.7256
  10   2.0000      -1.207486       -32.8574
  11   2.0000      -1.141466       -31.0609
  12   2.0000      -1.016998       -27.6739
  13   2.0000      -0.902291       -24.5526
  14   2.0000      -0.818248       -22.2656
  15   2.0000      -0.750282       -20.4162
  16   2.0000      -0.733590       -19.9620
  17   2.0000      -0.705529       -19.1984
  18   2.0000      -0.691678       -18.8215
  19   2.0000      -0.611995       -16.6532
  20   2.0000      -0.604909       -16.4604
  21   2.0000      -0.593002       -16.1364
  22   2.0000      -0.584710       -15.9108
  23   2.0000      -0.566805       -15.4235
  24   2.0000      -0.558138       -15.1877
  25   2.0000      -0.533293       -14.5116
  26   2.0000      -0.455780       -12.4024
  27   2.0000      -0.444146       -12.0858
  28   2.0000      -0.417134       -11.3508
  29   2.0000      -0.391267       -10.6469
  30   0.0000       0.127478         3.4689
  31   0.0000       0.148749         4.0477
  32   0.0000       0.162153         4.4124
  33   0.0000       0.173459         4.7201
  34   0.0000       0.181218         4.9312

MULLIKEN ATOMIC CHARGES
-----------------------
   0 C :   -0.391544
   1 C :    0.188167
   2 O :   -0.305562
   3 C :    0.085471
   4 N :   -0.352484
   5 C :   -0.113728
   6 C :    0.034973
   7 O :   -0.440810
   8 H :    0.137240
   9 H :    0.150801
  10 H :    0.147180
  11 H :    0.233325
  12 H :    0.158677
  13 H :    0.129044
  14 H :    0.339250
Sum of atomic charges:    0.0000000

LOEWDIN ATOMIC CHARGES
----------------------
   0 C :   -0.263475
   1 C :   -0.260162
   2 O :    0.219500
   3 C :   -0.377067
   4 N :   -0.035788
   5 C :   -0.112598
   6 C :   -0.275367
   7 O :    0.021821
   8 H :    0.138738
   9 H :    0.138603
  10 H :    0.136549
  11 H :    0.175706
  12 H :    0.147994
  13 H :    0.155765
  14 H :    0.189780

  Mayer bond orders larger than 0.1
B(  0-C ,  1-C ) :   0.8915 B(  0-C ,  8-H ) :   0.9284 B(  0-C ,  9-H ) :   0.9320
B(  0-C , 10-H ) :   0.9284 B(  1-C ,  2-O ) :   0.8849 B(  1-C ,  5-C ) :   0.7972
B(  1-C ,  6-C ) :   0.9317 B(  2-O ,  3-C ) :   0.9950 B(  3-C ,  4-N ) :   2.0819
B(  3-C ,  5-C ) :   0.9544 B(  4-N , 11-H ) :   0.8423 B(  5-C ,  6-C ) :   0.7950
B(  5-C , 12-H ) :   0.8993 B(  6-C ,  7-O ) :   1.0249 B(  6-C , 13-H ) :   0.9464
B(  7-O , 14-H ) :   0.8180

MP2 TOTAL ENERGY:     -399.117778110 Eh
FINAL SINGLE POINT ENERGY      -399.117778110170

DIPOLE MOMENT
-------------
                                X             Y             Z
Electronic contribution:     -0.82531      -4.48045      -0.16660
Nuclear contribution   :      0.84949       5.67122       0.02174
                        -----------------------------------------
Total Dipole Moment    :      0.02418       1.19077      -0.14486
                        -----------------------------------------
Magnitude (a.u.)       :      1.19979
Magnitude (Debye)      :      3.04963

                             ****ORCA TERMINATED NORMALLY****
TOTAL RUN TIME: 0 days 0 hours 10 minutes 31 seconds 87 msec
