                         Program Version 3.0.3 - RELEASE   -
|  1> ! RI-MP2 RIJK def2-TZVP def2-TZVP/C def2-TZVP/JK TIGHTSCF
|  2> % maxcore 2000
|  3> % mp2 density relaxed end
|  4> *xyz 0 1
|  5>  C       -0.1006895041     1.5890910884     0.1362929693
|  6>  C       -0.1361510773     0.0591159597     0.1169185368
|  7>  C        0.8633357266    -0.5715522886     1.1057999551
|  8>  C        0.8604875256    -2.0716918050     1.1011499163
|  9>  C        1.8856503887    -2.8761653409     0.7941860160
| 10>  C        1.5619520748    -4.3178271914     0.9889241645
| 11>  C        1.2437564796    -4.7154838614     2.4181399955
| 12>  C        0.1244443764    -4.3314179511     1.4851864816
| 13>  C       -0.3673703460    -2.8855390754     1.4926518239
| 14>  H        0.8945334412     1.9656163388    -0.1255843743
| 15>  H       -0.8152721814     2.0143120954    -0.5753856238
| 16>  H       -0.3485440290     1.9786375233     1.1301815560
| 17>  H       -1.1506605766    -0.2859755729     0.3509916893
| 18>  H        0.0858013322    -0.3063945465    -0.8933100982
| 19>  H        1.8731834661    -0.2096674369     0.8766286553
| 20>  H        0.6275281820    -0.2041648676     2.1162268579
| 21>  H        2.8672860315    -2.5315634789     0.4853307996
| 22>  H        1.9531903945    -5.0667852686     0.3088183567
| 23>  H        1.3231351405    -5.7663095793     2.6785313558
| 24>  H        1.5327110528    -4.0295334396     3.2086982932
| 25>  H       -0.5608211860    -5.1115715058     1.1754467602
| 26>  H       -0.7623748280    -2.5784654138     2.4709234932
| 27>  H       -1.1865935040    -2.7412714320     0.7752883904
| 28> *
| 29>
| 30>                          ****END OF INPUT****

CARTESIAN COORDINATES (ANGSTROEM)
---------------------------------
  C     -0.100690    1.589091    0.136293
  C     -0.136151    0.059116    0.116919
  C      0.863336   -0.571552    1.105800
  C      0.860488   -2.071692    1.101150
  C      1.885650   -2.876165    0.794186
  C      1.561952   -4.317827    0.988924
  C      1.243756   -4.715484    2.418140
  C      0.124444   -4.331418    1.485186
  C     -0.367370   -2.885539    1.492652
  H      0.894533    1.965616   -0.125584
  H     -0.815272    2.014312   -0.575386
  H     -0.348544    1.978638    1.130182
  H     -1.150661   -0.285976    0.350992
  H      0.085801   -0.306395   -0.893310
  H      1.873183   -0.209667    0.876629
  H      0.627528   -0.204165    2.116227
  H      2.867286   -2.531563    0.485331
  H      1.953190   -5.066785    0.308818
  H      1.323135   -5.766310    2.678531
  H      1.532711   -4.029533    3.208698
  H     -0.560821   -5.111572    1.175447
  H     -0.762375   -2.578465    2.470923
  H     -1.186594   -2.741271    0.775288

 Total Charge           Charge          ....    0
 Multiplicity           Mult            ....    1
 Number of Electrons    NEL             ....   68
 Basis Dimension        Dim             ....  363

ORBITAL ENERGIES
----------------

  NO   OCC          E(Eh)            E(eV)
   0   2.0000     -11.224678      -305.4390
   1   2.0000     -11.223975      -305.4199
   2   2.0000     -11.222596      -305.3824
   3   2.0000     -11.222012      -305.3665
   4   2.0000     -11.221188      -305.3440
   5   2.0000     -11.219489      -305.2978
   6   2.0000     -11.219009      -305.2848
   7   2.0000     -11.212694      -305.1129
   8   2.0000     -11.212021      -305.0946
   9   2.0000      -1.174768       -31.9671
  10   2.0000      -1.077208       -29.3123
  11   2.0000      -1.019791       -27.7499
  12   2.0000      -0.952605       -25.9217
  13   2.0000      -0.925646       -25.1881
  14   2.0000      -0.823455       -22.4074
  15   2.0000      -0.793456       -21.5910
  16   2.0000      -0.760395       -20.6914
  17   2.0000      -0.709767       -19.3137
  18   2.0000      -0.679084       -18.4788
  19   2.0000      -0.628136       -17.0924
  20   2.0000      -0.610023       -16.5996
  21   2.0000      -0.577604       -15.7174
  22   2.0000      -0.568645       -15.4736
  23   2.0000      -0.561408       -15.2767
  24   2.0000      -0.545384       -14.8407
  25   2.0000      -0.516369       -14.0511
  26   2.0000      -0.506499       -13.7825
  27   2.0000      -0.493236       -13.4216
  28   2.0000      -0.478570       -13.0226
  29   2.0000      -0.464331       -12.6351
  30   2.0000      -0.454894       -12.3783
  31   2.0000      -0.434728       -11.8296
  32   2.0000      -0.396201       -10.7812
  33   2.0000      -0.317052        -8.6274
  34   0.0000       0.135738         3.6936
  35   0.0000       0.153953         4.1893
  36   0.0000       0.158458         4.3119
  37   0.0000       0.170364         4.6359
  38   0.0000       0.178694         4.8625

MULLIKEN ATOMIC CHARGES
-----------------------
   0 C :   -0.387674
   1 C :   -0.198391
   2 C :   -0.293633
   3 C :    0.042571
   4 C :   -0.220293
   5 C :   -0.037871
   6 C :   -0.292421
   7 C :   -0.086539
   8 C :   -0.230256
   9 H :    0.122607
  10 H :    0.133089
  11 H :    0.121557
  12 H :    0.108096
  13 H :    0.115067
  14 H :    0.117665
  15 H :    0.115714
  16 H :    0.119779
  17 H :    0.126373
  18 H :    0.126264
  19 H :    0.131410
  20 H :    0.126042
  21 H :    0.121577
  22 H :    0.119266
Sum of atomic charges:    0.0000000

LOEWDIN ATOMIC CHARGES
----------------------
   0 C :   -0.322013
   1 C :   -0.287782
   2 C :   -0.234657
   3 C :   -0.157158
   4 C :   -0.122456
   5 C :   -0.188718
   6 C :   -0.201707
   7 C :   -0.186626
   8 C :   -0.195427
   9 H :    0.120321
  10 H :    0.120501
  11 H :    0.119985
  12 H :    0.134035
  13 H :    0.136224
  14 H :    0.144875
  15 H :    0.144336
  16 H :    0.139702
  17 H :    0.141519
  18 H :    0.132171
  19 H :    0.134856
  20 H :    0.141671
  21 H :    0.143849
  22 H :    0.142499

  Mayer bond orders larger than 0.1
B(  0-C ,  1-C ) :   0.9154 B(  0-C ,  9-H ) :   0.9399 B(  0-C , 10-H ) :   0.9429
B(  0-C , 11-H ) :   0.9391 B(  1-C ,  2-C ) :   0.9220 B(  1-C , 12-H ) :   0.9343
B(  1-C , 13-H ) :   0.9334 B(  2-C ,  3-C ) :   0.9103 B(  2-C , 14-H ) :   0.9331
B(  2-C , 15-H ) :   0.9206 B(  3-C ,  4-C ) :   1.7550 B(  3-C ,  8-C ) :   0.9702
B(  4-C ,  5-C ) :   0.9408 B(  4-C , 16-H ) :   0.9298 B(  5-C ,  6-C ) :   0.8640
B(  5-C ,  7-C ) :   0.8681 B(  5-C , 17-H ) :   0.9265 B(  6-C ,  7-C ) :   0.8967
B(  6-C , 18-H ) :   0.9285 B(  6-C , 19-H ) :   0.9252 B(  7-C ,  8-C ) :   0.9371
B(  7-C , 20-H ) :   0.9322 B(  8-C , 21-H ) :   0.9063 B(  8-C , 22-H ) :   0.9093

MP2 TOTAL ENERGY:     -350.507733279 Eh
FINAL SINGLE POINT ENERGY      -350.507733279339

DIPOLE MOMENT
-------------
                                X             Y             Z
Electronic contribution:      2.29331      -6.95540       0.81595
Nuclear contribution   :     -2.40635       6.99303      -0.83947
                        -----------------------------------------
Total Dipole Moment    :     -0.11304       0.03763      -0.02353
                        -----------------------------------------
Magnitude (a.u.)       :      0.12144
Magnitude (Debye)      :      0.30868

                             ****ORCA TERMINATED NORMALLY****
TOTAL RUN TIME: 0 days 0 hours 20 minutes 12 seconds 864 msec
