                         Program Version 3.0.3 - RELEASE   -
|  1> ! RI-MP2 RIJK def2-TZVP def2-TZVP/C def2-TZVP/JK TIGHTSCF
|  2> % maxcore 2000
|  3> % mp2 density relaxed end
|  4> *xyz 0 1
|  5>  C        0.0374390993     1.5025519939     0.0067749057
|  6>  C        0.0226876481     0.0477331783     0.0355708759
|  7>  C        0.0129267536    -1.1568374647     0.0514453242
|  8>  C        0.0017997476    -2.5868126488     0.0790783664
|  9>  C       -0.4785367847    -3.3732326889     1.2855440871
| 10>  O       -1.2888341040    -2.6712846577     2.2089156805
| 11>  C       -2.4073814043    -2.3319602954     1.5114609126
| 12>  N       -2.5231531337    -2.7274428404     0.3082942830
| 13>  C       -1.2940826043    -3.4161679595     0.0090531028
| 14>  H        0.8917257711     1.8763675940    -0.5685165695
| 15>  H       -0.8722035675     1.9010177898    -0.4561587283
| 16>  H        0.1095506479     1.9228296616     1.0161739251
| 17>  H        0.8312885225    -3.0756262582    -0.4259962687
| 18>  H        0.1109874730    -4.1572826188     1.7424058844
| 19>  H       -3.1275505371    -1.7451762866     2.0668061562
| 20>  H       -1.3461609876    -4.2466248187    -0.6837517573
| 21> *
| 22>
| 23>                          ****END OF INPUT****

CARTESIAN COORDINATES (ANGSTROEM)
---------------------------------
  C      0.037439    1.502552    0.006775
  C      0.022688    0.047733    0.035571
  C      0.012927   -1.156837    0.051445
  C      0.001800   -2.586813    0.079078
  C     -0.478537   -3.373233    1.285544
  O     -1.288834   -2.671285    2.208916
  C     -2.407381   -2.331960    1.511461
  N     -2.523153   -2.727443    0.308294
  C     -1.294083   -3.416168    0.009053
  H      0.891726    1.876368   -0.568517
  H     -0.872204    1.901018   -0.456159
  H      0.109551    1.922830    1.016174
  H      0.831289   -3.075626   -0.425996
  H      0.110987   -4.157283    1.742406
  H     -3.127551   -1.745176    2.066806
  H     -1.346161   -4.246625   -0.683752

 Total Charge           Charge          ....    0
 Multiplicity           Mult            ....    1
 Number of Electrons    NEL             ....   64
 Basis Dimension        Dim             ....  321

ORBITAL ENERGIES
----------------

  NO   OCC          E(Eh)            E(eV)
   0   2.0000     -20.610007      -560.8268
   1   2.0000     -15.556633      -423.3175
   2   2.0000     -11.337642      -308.5129
   3   2.0000     -11.307737      -307.6992
   4   2.0000     -11.279823      -306.9396
   5   2.0000     -11.265988      -306.5631
   6   2.0000     -11.245820      -306.0143
   7   2.0000     -11.225188      -305.4529
   8   2.0000     -11.219504      -305.2982
   9   2.0000      -1.458226       -39.6803
  10   2.0000      -1.232470       -33.5372
  11   2.0000      -1.137917       -30.9643
  12   2.0000      -1.052984       -28.6531
  13   2.0000      -0.968078       -26.3427
  14   2.0000      -0.893097       -24.3024
  15   2.0000      -0.846097       -23.0235
  16   2.0000      -0.809012       -22.0143
  17   2.0000      -0.743526       -20.2324
  18   2.0000      -0.673925       -18.3384
  19   2.0000      -0.658207       -17.9107
  20   2.0000      -0.623495       -16.9662
  21   2.0000      -0.617793       -16.8110
  22   2.0000      -0.594856       -16.1868
  23   2.0000      -0.585737       -15.9387
  24   2.0000      -0.585068       -15.9205
  25   2.0000      -0.558747       -15.2043
  26   2.0000      -0.523819       -14.2538
  27   2.0000      -0.477617       -12.9966
  28   2.0000      -0.424495       -11.5511
  29   2.0000      -0.396995       -10.8028
  30   2.0000      -0.368931       -10.0391
  31   2.0000      -0.340373        -9.2620
  32   0.0000       0.140521         3.8238
  33   0.0000       0.143239         3.8977
  34   0.0000       0.159395         4.3374
  35   0.0000       0.175837         4.7848
  36   0.0000       0.181122         4.9286

MULLIKEN ATOMIC CHARGES
-----------------------
   0 C :   -0.486282
   1 C :    0.032958
   2 C :    0.082468
   3 C :   -0.351073
   4 C :    0.066234
   5 O :   -0.253500
   6 C :    0.104758
   7 N :   -0.269447
   8 C :    0.008479
   9 H :    0.162374
  10 H :    0.165681
  11 H :    0.162703
  12 H :    0.142057
  13 H :    0.144919
  14 H :    0.148042
  15 H :    0.139630
Sum of atomic charges:    0.0000000

LOEWDIN ATOMIC CHARGES
----------------------
   0 C :   -0.294154
   1 C :   -0.088608
   2 C :   -0.067970
   3 C :   -0.186163
   4 C :   -0.216707
   5 O :    0.266983
   6 C :   -0.320544
   7 N :    0.103057
   8 C :   -0.208921
   9 H :    0.142035
  10 H :    0.141850
  11 H :    0.140770
  12 H :    0.171997
  13 H :    0.139359
  14 H :    0.134885
  15 H :    0.142132

  Mayer bond orders larger than 0.1
B(  0-C ,  1-C ) :   0.8615 B(  0-C ,  9-H ) :   0.9479 B(  0-C , 10-H ) :   0.9453
B(  0-C , 11-H ) :   0.9470 B(  1-C ,  2-C ) :   2.6460 B(  1-C ,  3-C ) :  -0.1076
B(  2-C ,  3-C ) :   1.0988 B(  3-C ,  4-C ) :   0.8590 B(  3-C ,  8-C ) :   0.8413
B(  3-C , 12-H ) :   0.9203 B(  4-C ,  5-O ) :   0.9278 B(  4-C ,  8-C ) :   0.8818
B(  4-C , 13-H ) :   0.9271 B(  5-O ,  6-C ) :   1.0554 B(  6-C ,  7-N ) :   1.7824
B(  6-C , 14-H ) :   0.9241 B(  7-N ,  8-C ) :   0.9889 B(  8-C , 15-H ) :   0.9286

MP2 TOTAL ENERGY:     -400.009158550 Eh
FINAL SINGLE POINT ENERGY      -400.009158549597

DIPOLE MOMENT
-------------
                                X             Y             Z
Electronic contribution:     -2.16921      -5.10025       1.84676
Nuclear contribution   :      2.68604       5.09050      -1.69089
                        -----------------------------------------
Total Dipole Moment    :      0.51683      -0.00975       0.15587
                        -----------------------------------------
Magnitude (a.u.)       :      0.53991
Magnitude (Debye)      :      1.37235

                             ****ORCA TERMINATED NORMALLY****
TOTAL RUN TIME: 0 days 0 hours 16 minutes 53 seconds 150 msec
