                         Program Version 3.0.3 - RELEASE   -
|  1> ! RI-MP2 RIJK def2-TZVP def2-TZVP/C def2-TZVP/JK TIGHTSCF
|  2> % maxcore 2000
|  3> % mp2 density relaxed end
|  4> *xyz 0 1
|  5>  O       -0.1199981116     1.3708344689     0.0540108588
|  6>  C       -0.1722090316    -0.0206086516     0.3284900014
|  7>  C       -1.4164934677    -0.5795065872    -0.3558203856
|  8>  C       -1.5435650729    -2.0766752382    -0.1850235933
|  9>  C       -1.9043606265    -2.7471426899     1.1130618148
| 10>  O       -2.5806271003    -1.9470823618     2.0783180778
| 11>  C       -3.7643383680    -1.6122767849     1.4970468862
| 12>  N       -4.0297788987    -2.0618795597     0.3378532310
| 13>  C       -2.8686512522    -2.8225691025    -0.0638210622
| 14>  H        0.6409477383     1.7395532533     0.5115217156
| 15>  H        0.7269398875    -0.5354579401    -0.0493860965
| 16>  H       -0.2323999488    -0.2162665937     1.4101423466
| 17>  H       -2.2941407585    -0.0607599266     0.0387327835
| 18>  H       -1.3712431870    -0.3379455778    -1.4237274779
| 19>  H       -0.8078172541    -2.6554222295    -0.7398606553
| 20>  H       -1.3296633388    -3.5465886013     1.5629864916
| 21>  H       -4.3991238604    -0.9721598839     2.0973080792
| 22>  H       -3.0533495889    -3.6994872838    -0.6720839359
| 23> *
| 24>
| 25>                          ****END OF INPUT****

CARTESIAN COORDINATES (ANGSTROEM)
---------------------------------
  O     -0.119998    1.370834    0.054011
  C     -0.172209   -0.020609    0.328490
  C     -1.416493   -0.579507   -0.355820
  C     -1.543565   -2.076675   -0.185024
  C     -1.904361   -2.747143    1.113062
  O     -2.580627   -1.947082    2.078318
  C     -3.764338   -1.612277    1.497047
  N     -4.029779   -2.061880    0.337853
  C     -2.868651   -2.822569   -0.063821
  H      0.640948    1.739553    0.511522
  H      0.726940   -0.535458   -0.049386
  H     -0.232400   -0.216267    1.410142
  H     -2.294141   -0.060760    0.038733
  H     -1.371243   -0.337946   -1.423727
  H     -0.807817   -2.655422   -0.739861
  H     -1.329663   -3.546589    1.562986
  H     -4.399124   -0.972160    2.097308
  H     -3.053350   -3.699487   -0.672084

 Total Charge           Charge          ....    0
 Multiplicity           Mult            ....    1
 Number of Electrons    NEL             ....   68
 Basis Dimension        Dim             ....  333

ORBITAL ENERGIES
----------------

  NO   OCC          E(Eh)            E(eV)
   0   2.0000     -20.607412      -560.7562
   1   2.0000     -20.555816      -559.3522
   2   2.0000     -15.555780      -423.2943
   3   2.0000     -11.335688      -308.4598
   4   2.0000     -11.298309      -307.4426
   5   2.0000     -11.276241      -306.8421
   6   2.0000     -11.270968      -306.6986
   7   2.0000     -11.246836      -306.0420
   8   2.0000     -11.225161      -305.4522
   9   2.0000      -1.453156       -39.5424
  10   2.0000      -1.359980       -37.0069
  11   2.0000      -1.228546       -33.4304
  12   2.0000      -1.133691       -30.8493
  13   2.0000      -1.021927       -27.8081
  14   2.0000      -0.890410       -24.2293
  15   2.0000      -0.840997       -22.8847
  16   2.0000      -0.839038       -22.8314
  17   2.0000      -0.750000       -20.4085
  18   2.0000      -0.739428       -20.1209
  19   2.0000      -0.689197       -18.7540
  20   2.0000      -0.682638       -18.5755
  21   2.0000      -0.635856       -17.3025
  22   2.0000      -0.617263       -16.7966
  23   2.0000      -0.594138       -16.1673
  24   2.0000      -0.587857       -15.9964
  25   2.0000      -0.577705       -15.7201
  26   2.0000      -0.537537       -14.6271
  27   2.0000      -0.517168       -14.0729
  28   2.0000      -0.506031       -13.7698
  29   2.0000      -0.473862       -12.8944
  30   2.0000      -0.465146       -12.6573
  31   2.0000      -0.444331       -12.0909
  32   2.0000      -0.399850       -10.8805
  33   2.0000      -0.366222        -9.9654
  34   0.0000       0.134131         3.6499
  35   0.0000       0.142625         3.8810
  36   0.0000       0.161247         4.3878
  37   0.0000       0.176726         4.8090
  38   0.0000       0.177649         4.8341

MULLIKEN ATOMIC CHARGES
-----------------------
   0 O :   -0.465075
   1 C :   -0.077841
   2 C :   -0.142844
   3 C :   -0.186584
   4 C :    0.024034
   5 O :   -0.264234
   6 C :    0.078871
   7 N :   -0.273093
   8 C :   -0.018009
   9 H :    0.315754
  10 H :    0.087100
  11 H :    0.109851
  12 H :    0.125764
  13 H :    0.126411
  14 H :    0.127754
  15 H :    0.144279
  16 H :    0.148699
  17 H :    0.139165
Sum of atomic charges:    0.0000000

LOEWDIN ATOMIC CHARGES
----------------------
   0 O :   -0.050408
   1 C :   -0.347259
   2 C :   -0.241753
   3 C :   -0.197365
   4 C :   -0.229315
   5 O :    0.254405
   6 C :   -0.338573
   7 N :    0.096882
   8 C :   -0.221026
   9 H :    0.172219
  10 H :    0.113412
  11 H :    0.117989
  12 H :    0.149716
  13 H :    0.147840
  14 H :    0.161575
  15 H :    0.136549
  16 H :    0.134568
  17 H :    0.140544

  Mayer bond orders larger than 0.1
B(  0-O ,  1-C ) :   1.0157 B(  0-O ,  9-H ) :   0.8487 B(  1-C ,  2-C ) :   0.9260
B(  1-C , 10-H ) :   0.9263 B(  1-C , 11-H ) :   0.9325 B(  2-C ,  3-C ) :   0.9028
B(  2-C , 12-H ) :   0.9112 B(  2-C , 13-H ) :   0.9260 B(  3-C ,  4-C ) :   0.8718
B(  3-C ,  8-C ) :   0.8418 B(  3-C , 14-H ) :   0.9202 B(  4-C ,  5-O ) :   0.8870
B(  4-C ,  8-C ) :   0.8676 B(  4-C , 15-H ) :   0.9303 B(  5-O ,  6-C ) :   1.0620
B(  6-C ,  7-N ) :   1.7888 B(  6-C , 16-H ) :   0.9257 B(  7-N ,  8-C ) :   0.9563
B(  8-C , 17-H ) :   0.9346

MP2 TOTAL ENERGY:     -438.349679658 Eh
FINAL SINGLE POINT ENERGY      -438.349679657750

DIPOLE MOMENT
-------------
                                X             Y             Z
Electronic contribution:     -4.36518      -1.89760       2.43719
Nuclear contribution   :      5.37441       1.46004      -2.04397
                        -----------------------------------------
Total Dipole Moment    :      1.00923      -0.43755       0.39322
                        -----------------------------------------
Magnitude (a.u.)       :      1.16817
Magnitude (Debye)      :      2.96926

                             ****ORCA TERMINATED NORMALLY****
TOTAL RUN TIME: 0 days 0 hours 16 minutes 27 seconds 382 msec
