                         Program Version 3.0.3 - RELEASE   -
|  1> ! RI-MP2 RIJK def2-TZVP def2-TZVP/C def2-TZVP/JK TIGHTSCF
|  2> % maxcore 2000
|  3> % mp2 density relaxed end
|  4> *xyz 0 1
|  5>  C        0.0444740727     1.6046503118     0.5275148406
|  6>  C       -0.0491922755     0.1737122223    -0.0178137834
|  7>  C        0.8457759922    -0.7774229694     0.8010325092
|  8>  C       -1.4689565998    -0.3327898292    -0.0813241028
|  9>  C       -2.5908638742     0.2315194350     0.4831685496
| 10>  N       -3.6692334068    -0.5723700163     0.1918012545
| 11>  C       -3.2669091735    -1.6519755506    -0.5578841303
| 12>  C       -4.2287713599    -2.6937435974    -1.0262829704
| 13>  C       -1.9085331514    -1.5251417317    -0.7385732877
| 14>  H        1.0801943714     1.9585697329     0.5115221223
| 15>  H       -0.5613447637     2.2981903511    -0.0637509478
| 16>  H       -0.3032200832     1.6526115434     1.5660788355
| 17>  H        0.3462906207     0.1845448959    -1.0440169165
| 18>  H        0.5158315164    -0.8108526765     1.8453129330
| 19>  H        0.8059370287    -1.7976272191     0.4083162598
| 20>  H        1.8903066516    -0.4463146352     0.7835076755
| 21>  H       -2.7161900237     1.1331909548     1.0599621980
| 22>  H       -4.6159701426    -0.3910348992     0.4759211623
| 23>  H       -5.0161005018    -2.2756083862    -1.6665730277
| 24>  H       -3.7000760605    -3.4518843358    -1.6085139538
| 25>  H       -4.7259363472    -3.2058915200    -0.1924449296
| 26>  H       -1.2884958600    -2.2157394906    -1.2923429203
| 27> *
| 28>
| 29>                          ****END OF INPUT****

CARTESIAN COORDINATES (ANGSTROEM)
---------------------------------
  C      0.044474    1.604650    0.527515
  C     -0.049192    0.173712   -0.017814
  C      0.845776   -0.777423    0.801033
  C     -1.468957   -0.332790   -0.081324
  C     -2.590864    0.231519    0.483169
  N     -3.669233   -0.572370    0.191801
  C     -3.266909   -1.651976   -0.557884
  C     -4.228771   -2.693744   -1.026283
  C     -1.908533   -1.525142   -0.738573
  H      1.080194    1.958570    0.511522
  H     -0.561345    2.298190   -0.063751
  H     -0.303220    1.652612    1.566079
  H      0.346291    0.184545   -1.044017
  H      0.515832   -0.810853    1.845313
  H      0.805937   -1.797627    0.408316
  H      1.890307   -0.446315    0.783508
  H     -2.716190    1.133191    1.059962
  H     -4.615970   -0.391035    0.475921
  H     -5.016101   -2.275608   -1.666573
  H     -3.700076   -3.451884   -1.608514
  H     -4.725936   -3.205892   -0.192445
  H     -1.288496   -2.215739   -1.292343

 Total Charge           Charge          ....    0
 Multiplicity           Mult            ....    1
 Number of Electrons    NEL             ....   68
 Basis Dimension        Dim             ....  357

ORBITAL ENERGIES
----------------

  NO   OCC          E(Eh)            E(eV)
   0   2.0000     -15.590062      -424.2271
   1   2.0000     -11.252011      -306.1828
   2   2.0000     -11.236435      -305.7589
   3   2.0000     -11.228981      -305.5561
   4   2.0000     -11.222726      -305.3859
   5   2.0000     -11.204733      -304.8963
   6   2.0000     -11.204151      -304.8804
   7   2.0000     -11.202773      -304.8429
   8   2.0000     -11.194069      -304.6061
   9   2.0000      -1.280798       -34.8523
  10   2.0000      -1.082530       -29.4571
  11   2.0000      -1.027962       -27.9723
  12   2.0000      -1.002308       -27.2742
  13   2.0000      -0.922293       -25.0969
  14   2.0000      -0.905524       -24.6406
  15   2.0000      -0.824751       -22.4426
  16   2.0000      -0.766691       -20.8627
  17   2.0000      -0.719516       -19.5790
  18   2.0000      -0.692043       -18.8315
  19   2.0000      -0.609717       -16.5912
  20   2.0000      -0.597460       -16.2577
  21   2.0000      -0.591103       -16.0847
  22   2.0000      -0.583114       -15.8673
  23   2.0000      -0.556107       -15.1325
  24   2.0000      -0.548428       -14.9235
  25   2.0000      -0.534055       -14.5324
  26   2.0000      -0.530047       -14.4233
  27   2.0000      -0.523066       -14.2334
  28   2.0000      -0.513744       -13.9797
  29   2.0000      -0.471660       -12.8345
  30   2.0000      -0.465900       -12.6778
  31   2.0000      -0.456382       -12.4188
  32   2.0000      -0.329960        -8.9787
  33   2.0000      -0.281412        -7.6576
  34   0.0000       0.129636         3.5276
  35   0.0000       0.147132         4.0037
  36   0.0000       0.163326         4.4443
  37   0.0000       0.171493         4.6666
  38   0.0000       0.177123         4.8198

MULLIKEN ATOMIC CHARGES
-----------------------
   0 C :   -0.415432
   1 C :   -0.033604
   2 C :   -0.381602
   3 C :    0.105549
   4 C :   -0.164877
   5 N :   -0.271379
   6 C :    0.187598
   7 C :   -0.450726
   8 C :   -0.345802
   9 H :    0.132377
  10 H :    0.137113
  11 H :    0.119821
  12 H :    0.090237
  13 H :    0.119474
  14 H :    0.126353
  15 H :    0.120118
  16 H :    0.144142
  17 H :    0.235806
  18 H :    0.139995
  19 H :    0.147719
  20 H :    0.140781
  21 H :    0.116338
Sum of atomic charges:    0.0000000

LOEWDIN ATOMIC CHARGES
----------------------
   0 C :   -0.290960
   1 C :   -0.271452
   2 C :   -0.286547
   3 C :   -0.171532
   4 C :   -0.217583
   5 N :    0.192265
   6 C :   -0.259930
   7 C :   -0.284011
   8 C :   -0.154403
   9 H :    0.122066
  10 H :    0.123852
  11 H :    0.122269
  12 H :    0.156640
  13 H :    0.123241
  14 H :    0.121706
  15 H :    0.118727
  16 H :    0.133445
  17 H :    0.189303
  18 H :    0.127725
  19 H :    0.137265
  20 H :    0.127909
  21 H :    0.140002

  Mayer bond orders larger than 0.1
B(  0-C ,  1-C ) :   0.9227 B(  0-C ,  9-H ) :   0.9409 B(  0-C , 10-H ) :   0.9405
B(  0-C , 11-H ) :   0.9313 B(  1-C ,  2-C ) :   0.9064 B(  1-C ,  3-C ) :   0.9255
B(  1-C , 12-H ) :   0.9295 B(  2-C , 13-H ) :   0.9333 B(  2-C , 14-H ) :   0.9390
B(  2-C , 15-H ) :   0.9355 B(  3-C ,  4-C ) :   1.4589 B(  3-C ,  8-C ) :   1.2231
B(  4-C ,  5-N ) :   1.1463 B(  4-C , 16-H ) :   0.9041 B(  5-N ,  6-C ) :   1.1206
B(  5-N , 17-H ) :   0.8778 B(  6-C ,  7-C ) :   0.8529 B(  6-C ,  8-C ) :   1.4892
B(  7-C , 18-H ) :   0.9374 B(  7-C , 19-H ) :   0.9539 B(  7-C , 20-H ) :   0.9373
B(  8-C , 21-H ) :   0.9324

MP2 TOTAL ENERGY:     -366.598102389 Eh
FINAL SINGLE POINT ENERGY      -366.598102388619

DIPOLE MOMENT
-------------
                                X             Y             Z
Electronic contribution:     -5.48828      -0.51751      -1.01298
Nuclear contribution   :      4.75388       0.52776       1.11722
                        -----------------------------------------
Total Dipole Moment    :     -0.73440       0.01025       0.10424
                        -----------------------------------------
Magnitude (a.u.)       :      0.74183
Magnitude (Debye)      :      1.88558

                             ****ORCA TERMINATED NORMALLY****
TOTAL RUN TIME: 0 days 0 hours 20 minutes 20 seconds 282 msec
