                         Program Version 3.0.3 - RELEASE   -
|  1> ! RI-MP2 RIJK def2-TZVP def2-TZVP/C def2-TZVP/JK TIGHTSCF
|  2> % maxcore 2000
|  3> % mp2 density relaxed end
|  4> *xyz 0 1
|  5>  O       -0.8179754144     0.9897885926     0.6335150718
|  6>  C        0.1295761441     0.9014500656    -0.0994391839
|  7>  C        1.3653026850     1.7955491210    -0.0066050184
|  8>  C        1.4045556771     2.6002960831     1.2964160570
|  9>  C        2.7514497320     3.2491910073     1.4942538897
| 10>  O        2.9696425118     4.3107315201     1.9890547409
| 11>  O        3.8302928765     2.4727825951     1.0852458097
| 12>  C        3.6089332954     1.3332273897     0.3518208799
| 13>  N        2.5411175922     0.9576917131    -0.2006865218
| 14>  H        0.1896514004     0.1519121681    -0.9158558763
| 15>  H        1.2975478692     2.4751730029    -0.8739441631
| 16>  H        0.6330919191     3.3683303806     1.3421091032
| 17>  H        1.2323643246     1.9194654366     2.1396300305
| 18>  H        4.5306359270     0.7648213740     0.2647051809
| 19> *
| 20>
| 21>                          ****END OF INPUT****

CARTESIAN COORDINATES (ANGSTROEM)
---------------------------------
  O     -0.817975    0.989789    0.633515
  C      0.129576    0.901450   -0.099439
  C      1.365303    1.795549   -0.006605
  C      1.404556    2.600296    1.296416
  C      2.751450    3.249191    1.494254
  O      2.969643    4.310732    1.989055
  O      3.830293    2.472783    1.085246
  C      3.608933    1.333227    0.351821
  N      2.541118    0.957692   -0.200687
  H      0.189651    0.151912   -0.915856
  H      1.297548    2.475173   -0.873944
  H      0.633092    3.368330    1.342109
  H      1.232364    1.919465    2.139630
  H      4.530636    0.764821    0.264705

 Total Charge           Charge          ....    0
 Multiplicity           Mult            ....    1
 Number of Electrons    NEL             ....   66
 Basis Dimension        Dim             ....  309

ORBITAL ENERGIES
----------------

  NO   OCC          E(Eh)            E(eV)
   0   2.0000     -20.647180      -561.8383
   1   2.0000     -20.581113      -560.0406
   2   2.0000     -20.574757      -559.8676
   3   2.0000     -15.592794      -424.3015
   4   2.0000     -11.412437      -310.5482
   5   2.0000     -11.376947      -309.5825
   6   2.0000     -11.352858      -308.9270
   7   2.0000     -11.311512      -307.8019
   8   2.0000     -11.276242      -306.8421
   9   2.0000      -1.501607       -40.8608
  10   2.0000      -1.421881       -38.6913
  11   2.0000      -1.409561       -38.3561
  12   2.0000      -1.270038       -34.5595
  13   2.0000      -1.100758       -29.9532
  14   2.0000      -0.983996       -26.7759
  15   2.0000      -0.927984       -25.2517
  16   2.0000      -0.821986       -22.3674
  17   2.0000      -0.760267       -20.6879
  18   2.0000      -0.743071       -20.2200
  19   2.0000      -0.721825       -19.6419
  20   2.0000      -0.699483       -19.0339
  21   2.0000      -0.680130       -18.5073
  22   2.0000      -0.650677       -17.7058
  23   2.0000      -0.643136       -17.5006
  24   2.0000      -0.637452       -17.3460
  25   2.0000      -0.596119       -16.2212
  26   2.0000      -0.574550       -15.6343
  27   2.0000      -0.543483       -14.7889
  28   2.0000      -0.516791       -14.0626
  29   2.0000      -0.483458       -13.1556
  30   2.0000      -0.466733       -12.7004
  31   2.0000      -0.451885       -12.2964
  32   2.0000      -0.425853       -11.5880
  33   0.0000       0.099870         2.7176
  34   0.0000       0.116298         3.1646
  35   0.0000       0.131096         3.5673
  36   0.0000       0.156048         4.2463
  37   0.0000       0.165194         4.4951

MULLIKEN ATOMIC CHARGES
-----------------------
   0 O :   -0.254458
   1 C :    0.091339
   2 C :    0.050678
   3 C :   -0.276563
   4 C :    0.264227
   5 O :   -0.238767
   6 O :   -0.196972
   7 C :    0.093619
   8 N :   -0.270567
   9 H :    0.110736
  10 H :    0.136529
  11 H :    0.165545
  12 H :    0.164734
  13 H :    0.159921
Sum of atomic charges:    0.0000000

LOEWDIN ATOMIC CHARGES
----------------------
   0 O :    0.151733
   1 C :   -0.262703
   2 C :   -0.286672
   3 C :   -0.201528
   4 C :   -0.428536
   5 O :    0.178418
   6 O :    0.284472
   7 C :   -0.313060
   8 N :    0.108522
   9 H :    0.121978
  10 H :    0.170812
  11 H :    0.164649
  12 H :    0.171235
  13 H :    0.140681

  Mayer bond orders larger than 0.1
B(  0-O ,  1-C ) :   2.0054 B(  1-C ,  2-C ) :   0.8566 B(  1-C ,  9-H ) :   0.9429
B(  2-C ,  3-C ) :   0.8833 B(  2-C ,  8-N ) :   0.8575 B(  2-C , 10-H ) :   0.8944
B(  3-C ,  4-C ) :   0.9426 B(  3-C , 11-H ) :   0.9089 B(  3-C , 12-H ) :   0.8951
B(  4-C ,  5-O ) :   2.0730 B(  4-C ,  6-O ) :   1.0017 B(  6-O ,  7-C ) :   1.0011
B(  7-C ,  8-N ) :   1.8524 B(  7-C , 13-H ) :   0.9236

MP2 TOTAL ENERGY:     -473.113173338 Eh
FINAL SINGLE POINT ENERGY      -473.113173338142

DIPOLE MOMENT
-------------
                                X             Y             Z
Electronic contribution:      2.00448       1.16191       1.02569
Nuclear contribution   :     -1.84389      -1.62833      -1.65233
                        -----------------------------------------
Total Dipole Moment    :      0.16059      -0.46642      -0.62663
                        -----------------------------------------
Magnitude (a.u.)       :      0.79750
Magnitude (Debye)      :      2.02708

                             ****ORCA TERMINATED NORMALLY****
TOTAL RUN TIME: 0 days 0 hours 13 minutes 25 seconds 352 msec
