                         Program Version 3.0.3 - RELEASE   -
|  1> ! RI-MP2 RIJK def2-TZVP def2-TZVP/C def2-TZVP/JK TIGHTSCF
|  2> % maxcore 2000
|  3> % mp2 density relaxed end
|  4> *xyz 0 1
|  5>  C        0.0581620702     1.5886798534     0.1290212572
|  6>  C       -0.0838732255     0.0647249130    -0.0362313245
|  7>  C        0.6659988536    -0.4768336531    -1.2185710259
|  8>  C        0.1566903828    -0.8578242477    -2.4424596008
|  9>  N        1.2096721672    -1.2535916505    -3.2020542482
| 10>  N        2.3841609325    -1.1634428103    -2.5570999412
| 11>  C        2.0675950041    -0.6923864814    -1.3495507383
| 12>  C        3.1523618737    -0.4297578332    -0.3505811868
| 13>  O        3.4347127137     0.9613631480    -0.1797547573
| 14>  H        1.1124035642     1.8600959924     0.2267581535
| 15>  H       -0.3496279148     2.1131516284    -0.7415015397
| 16>  H       -0.4788228159     1.9361621702     1.0175831201
| 17>  H        0.2733780238    -0.4259952566     0.8780482168
| 18>  H       -1.1434002714    -0.2007607016    -0.1278133691
| 19>  H       -0.8550050390    -0.8824417383    -2.8175086524
| 20>  H        1.1942572996    -1.6089721602    -4.1426429979
| 21>  H        2.8597671182    -0.7846937776     0.6427475477
| 22>  H        4.0507779185    -0.9817176086    -0.6571526871
| 23>  H        3.6361222546     1.3137039338    -1.0533947063
| 24> *
| 25>
| 26>                          ****END OF INPUT****

CARTESIAN COORDINATES (ANGSTROEM)
---------------------------------
  C      0.058162    1.588680    0.129021
  C     -0.083873    0.064725   -0.036231
  C      0.665999   -0.476834   -1.218571
  C      0.156690   -0.857824   -2.442460
  N      1.209672   -1.253592   -3.202054
  N      2.384161   -1.163443   -2.557100
  C      2.067595   -0.692386   -1.349551
  C      3.152362   -0.429758   -0.350581
  O      3.434713    0.961363   -0.179755
  H      1.112404    1.860096    0.226758
  H     -0.349628    2.113152   -0.741502
  H     -0.478823    1.936162    1.017583
  H      0.273378   -0.425995    0.878048
  H     -1.143400   -0.200761   -0.127813
  H     -0.855005   -0.882442   -2.817509
  H      1.194257   -1.608972   -4.142643
  H      2.859767   -0.784694    0.642748
  H      4.050778   -0.981718   -0.657153
  H      3.636122    1.313704   -1.053395

 Total Charge           Charge          ....    0
 Multiplicity           Mult            ....    1
 Number of Electrons    NEL             ....   68
 Basis Dimension        Dim             ....  339

ORBITAL ENERGIES
----------------

  NO   OCC          E(Eh)            E(eV)
   0   2.0000     -20.553916      -559.3005
   1   2.0000     -15.635874      -425.4738
   2   2.0000     -15.588207      -424.1767
   3   2.0000     -11.278329      -306.8989
   4   2.0000     -11.272002      -306.7268
   5   2.0000     -11.252029      -306.1833
   6   2.0000     -11.229266      -305.5639
   7   2.0000     -11.224008      -305.4208
   8   2.0000     -11.206478      -304.9438
   9   2.0000      -1.375816       -37.4379
  10   2.0000      -1.354513       -36.8582
  11   2.0000      -1.107072       -30.1250
  12   2.0000      -1.083709       -29.4892
  13   2.0000      -0.999907       -27.2089
  14   2.0000      -0.940956       -25.6047
  15   2.0000      -0.863246       -23.4901
  16   2.0000      -0.795161       -21.6374
  17   2.0000      -0.766510       -20.8578
  18   2.0000      -0.727729       -19.8025
  19   2.0000      -0.670889       -18.2558
  20   2.0000      -0.634806       -17.2740
  21   2.0000      -0.626668       -17.0525
  22   2.0000      -0.602295       -16.3893
  23   2.0000      -0.590894       -16.0791
  24   2.0000      -0.584642       -15.9089
  25   2.0000      -0.561582       -15.2814
  26   2.0000      -0.519684       -14.1413
  27   2.0000      -0.507047       -13.7975
  28   2.0000      -0.500635       -13.6230
  29   2.0000      -0.484673       -13.1886
  30   2.0000      -0.457853       -12.4588
  31   2.0000      -0.444447       -12.0940
  32   2.0000      -0.358314        -9.7502
  33   2.0000      -0.335980        -9.1425
  34   0.0000       0.133783         3.6404
  35   0.0000       0.141633         3.8540
  36   0.0000       0.150175         4.0865
  37   0.0000       0.158303         4.3076
  38   0.0000       0.174827         4.7573

MULLIKEN ATOMIC CHARGES
-----------------------
   0 C :   -0.391833
   1 C :   -0.211307
   2 C :    0.010361
   3 C :   -0.114962
   4 N :   -0.098720
   5 N :   -0.205702
   6 C :   -0.089571
   7 C :   -0.010082
   8 O :   -0.478983
   9 H :    0.156352
  10 H :    0.116115
  11 H :    0.122589
  12 H :    0.117055
  13 H :    0.118084
  14 H :    0.150166
  15 H :    0.255716
  16 H :    0.112546
  17 H :    0.124962
  18 H :    0.317215
Sum of atomic charges:   -0.0000000

LOEWDIN ATOMIC CHARGES
----------------------
   0 C :   -0.311283
   1 C :   -0.250999
   2 C :   -0.170653
   3 C :   -0.216579
   4 N :    0.127737
   5 N :    0.042348
   6 C :   -0.273885
   7 C :   -0.306766
   8 O :   -0.053249
   9 H :    0.126244
  10 H :    0.118965
  11 H :    0.118192
  12 H :    0.144746
  13 H :    0.141933
  14 H :    0.137994
  15 H :    0.187153
  16 H :    0.134645
  17 H :    0.129673
  18 H :    0.173783

  Mayer bond orders larger than 0.1
B(  0-C ,  1-C ) :   0.9053 B(  0-C ,  9-H ) :   0.9302 B(  0-C , 10-H ) :   0.9360
B(  0-C , 11-H ) :   0.9344 B(  1-C ,  2-C ) :   0.8927 B(  1-C , 12-H ) :   0.9406
B(  1-C , 13-H ) :   0.9391 B(  2-C ,  3-C ) :   1.4179 B(  2-C ,  6-C ) :   1.2666
B(  3-C ,  4-N ) :   1.1952 B(  3-C ,  5-N ) :   0.1159 B(  3-C , 14-H ) :   0.9033
B(  4-N ,  5-N ) :   1.0685 B(  4-N , 15-H ) :   0.8743 B(  5-N ,  6-C ) :   1.5635
B(  6-C ,  7-C ) :   0.9370 B(  7-C ,  8-O ) :   0.8654 B(  7-C , 16-H ) :   0.9394
B(  7-C , 17-H ) :   0.9268 B(  8-O , 18-H ) :   0.8437

MP2 TOTAL ENERGY:     -418.528614125 Eh
FINAL SINGLE POINT ENERGY      -418.528614124592

DIPOLE MOMENT
-------------
                                X             Y             Z
Electronic contribution:      3.41653      -4.40534      -5.88077
Nuclear contribution   :     -4.28104       4.11628       5.06728
                        -----------------------------------------
Total Dipole Moment    :     -0.86451      -0.28906      -0.81348
                        -----------------------------------------
Magnitude (a.u.)       :      1.22176
Magnitude (Debye)      :      3.10547

                             ****ORCA TERMINATED NORMALLY****
TOTAL RUN TIME: 0 days 0 hours 19 minutes 27 seconds 359 msec
