                         Program Version 3.0.3 - RELEASE   -
|  1> ! RI-MP2 RIJK def2-TZVP def2-TZVP/C def2-TZVP/JK TIGHTSCF
|  2> % maxcore 2000
|  3> % mp2 density relaxed end
|  4> *xyz 0 1
|  5>  C        0.3332469579     1.4104464230     0.1834213306
|  6>  C        0.0284137938    -0.0617209942    -0.1093655188
|  7>  N        0.5629055680    -0.5341402247    -1.3824678761
|  8>  C        1.9867586748    -0.7789283052    -1.5121818944
|  9>  C        2.4230950178    -2.0404619695    -0.7797219374
| 10>  O        3.4807567760    -2.1657673932    -0.2230816446
| 11>  C       -0.2434173386    -0.7041598608    -2.4734243302
| 12>  O        0.1298898006    -1.0535255044    -3.5728322629
| 13>  H        1.4095459182     1.5990946055     0.2316100156
| 14>  H       -0.0921312249     2.0561829611    -0.5903968704
| 15>  H       -0.0973565160     1.6969367634     1.1476842521
| 16>  H        0.4210634827    -0.6940787718     0.6966022951
| 17>  H       -1.0547683776    -0.2201263694    -0.1303871773
| 18>  H        2.1803181193    -0.9287899682    -2.5818604097
| 19>  H        2.5874372819     0.0658596684    -1.1622365068
| 20>  H        1.6710882524    -2.8623368084    -0.8140271070
| 21>  H       -1.3027774764    -0.4864280216    -2.2372982179
| 22> *
| 23>
| 24>                          ****END OF INPUT****

CARTESIAN COORDINATES (ANGSTROEM)
---------------------------------
  C      0.333247    1.410446    0.183421
  C      0.028414   -0.061721   -0.109366
  N      0.562906   -0.534140   -1.382468
  C      1.986759   -0.778928   -1.512182
  C      2.423095   -2.040462   -0.779722
  O      3.480757   -2.165767   -0.223082
  C     -0.243417   -0.704160   -2.473424
  O      0.129890   -1.053526   -3.572832
  H      1.409546    1.599095    0.231610
  H     -0.092131    2.056183   -0.590397
  H     -0.097357    1.696937    1.147684
  H      0.421063   -0.694079    0.696602
  H     -1.054768   -0.220126   -0.130387
  H      2.180318   -0.928790   -2.581860
  H      2.587437    0.065860   -1.162237
  H      1.671088   -2.862337   -0.814027
  H     -1.302777   -0.486428   -2.237298

 Total Charge           Charge          ....    0
 Multiplicity           Mult            ....    1
 Number of Electrons    NEL             ....   62
 Basis Dimension        Dim             ....  302

ORBITAL ENERGIES
----------------

  NO   OCC          E(Eh)            E(eV)
   0   2.0000     -20.569420      -559.7224
   1   2.0000     -20.536012      -558.8133
   2   2.0000     -15.608365      -424.7252
   3   2.0000     -11.361170      -309.1532
   4   2.0000     -11.342259      -308.6386
   5   2.0000     -11.294037      -307.3264
   6   2.0000     -11.284740      -307.0734
   7   2.0000     -11.241569      -305.8986
   8   2.0000      -1.409349       -38.3503
   9   2.0000      -1.398124       -38.0449
  10   2.0000      -1.272923       -34.6380
  11   2.0000      -1.054809       -28.7028
  12   2.0000      -1.009129       -27.4598
  13   2.0000      -0.891950       -24.2712
  14   2.0000      -0.842620       -22.9288
  15   2.0000      -0.785170       -21.3656
  16   2.0000      -0.724877       -19.7249
  17   2.0000      -0.690112       -18.7789
  18   2.0000      -0.663940       -18.0667
  19   2.0000      -0.662345       -18.0233
  20   2.0000      -0.625107       -17.0100
  21   2.0000      -0.612181       -16.6583
  22   2.0000      -0.589037       -16.0285
  23   2.0000      -0.582194       -15.8423
  24   2.0000      -0.555196       -15.1076
  25   2.0000      -0.542175       -14.7533
  26   2.0000      -0.523687       -14.2503
  27   2.0000      -0.515296       -14.0219
  28   2.0000      -0.446982       -12.1630
  29   2.0000      -0.443394       -12.0654
  30   2.0000      -0.390922       -10.6375
  31   0.0000       0.119094         3.2407
  32   0.0000       0.123992         3.3740
  33   0.0000       0.137945         3.7537
  34   0.0000       0.162424         4.4198
  35   0.0000       0.169999         4.6259

MULLIKEN ATOMIC CHARGES
-----------------------
   0 C :   -0.375294
   1 C :   -0.175855
   2 N :   -0.112488
   3 C :   -0.105565
   4 C :    0.064512
   5 O :   -0.251295
   6 C :    0.148116
   7 O :   -0.357891
   8 H :    0.134443
   9 H :    0.134517
  10 H :    0.137916
  11 H :    0.133316
  12 H :    0.133953
  13 H :    0.181497
  14 H :    0.134686
  15 H :    0.092529
  16 H :    0.082902
Sum of atomic charges:   -0.0000000

LOEWDIN ATOMIC CHARGES
----------------------
   0 C :   -0.311695
   1 C :   -0.285685
   2 N :    0.163488
   3 C :   -0.252606
   4 C :   -0.294679
   5 O :    0.141343
   6 C :   -0.413181
   7 O :    0.060981
   8 H :    0.123239
   9 H :    0.125070
  10 H :    0.127669
  11 H :    0.136744
  12 H :    0.139531
  13 H :    0.166959
  14 H :    0.142968
  15 H :    0.113664
  16 H :    0.116190

  Mayer bond orders larger than 0.1
B(  0-C ,  1-C ) :   0.9244 B(  0-C ,  8-H ) :   0.9348 B(  0-C ,  9-H ) :   0.9314
B(  0-C , 10-H ) :   0.9330 B(  1-C ,  2-N ) :   0.8927 B(  1-C , 11-H ) :   0.9304
B(  1-C , 12-H ) :   0.9288 B(  2-N ,  3-C ) :   0.8297 B(  2-N ,  6-C ) :   1.1351
B(  3-C ,  4-C ) :   0.8601 B(  3-C , 13-H ) :   0.8842 B(  3-C , 14-H ) :   0.9051
B(  4-C ,  5-O ) :   2.0093 B(  4-C , 15-H ) :   0.9367 B(  6-C ,  7-O ) :   1.8833
B(  6-C , 16-H ) :   0.9287

MP2 TOTAL ENERGY:     -400.374408964 Eh
FINAL SINGLE POINT ENERGY      -400.374408964447

DIPOLE MOMENT
-------------
                                X             Y             Z
Electronic contribution:      3.01688      -5.67187      -4.28669
Nuclear contribution   :     -3.83964       6.41266       5.28413
                        -----------------------------------------
Total Dipole Moment    :     -0.82276       0.74079       0.99744
                        -----------------------------------------
Magnitude (a.u.)       :      1.49016
Magnitude (Debye)      :      3.78769

                             ****ORCA TERMINATED NORMALLY****
TOTAL RUN TIME: 0 days 0 hours 11 minutes 49 seconds 624 msec
