                         Program Version 3.0.3 - RELEASE   -
|  1> ! RI-MP2 RIJK def2-TZVP def2-TZVP/C def2-TZVP/JK TIGHTSCF
|  2> % maxcore 2000
|  3> % mp2 density relaxed end
|  4> *xyz 0 1
|  5>  C        0.1593730241     1.6173596140     0.2077438906
|  6>  C        0.0997029555     0.1057834697     0.1762025231
|  7>  C        1.2801772413    -0.7901048307    -0.2254849813
|  8>  C        2.5435553827    -0.2280177190     0.4201034700
|  9>  O        3.6104617075     0.1850926303     0.0500952997
| 10>  N        1.9860438858    -0.3229844530     1.6929022607
| 11>  C        2.2540246782     0.5060018339     2.8470505817
| 12>  C        0.7033797901    -0.8365284807     1.1855922894
| 13>  C       -0.0096655805    -1.9408271346     1.9056066533
| 14>  H        1.1233813713     1.9827319065     0.5692613456
| 15>  H        0.0129733285     2.0247950317    -0.7979277327
| 16>  H       -0.6264820985     2.0270602006     0.8519136925
| 17>  H       -0.8363061465    -0.2815294241    -0.2281716792
| 18>  H        1.2233131733    -1.5261696496    -1.0153664969
| 19>  H        3.2614317732     0.9143194281     2.7314959866
| 20>  H        1.5443762915     1.3390457156     2.9406925913
| 21>  H        2.2218026859    -0.0818431061     3.7704216454
| 22>  H       -0.4439150080    -1.5868663849     2.8480085635
| 23>  H       -0.8277647968    -2.3328660018     1.2945531613
| 24>  H        0.6771165314    -2.7612806659     2.1370279753
| 25> *
| 26>
| 27>                          ****END OF INPUT****

CARTESIAN COORDINATES (ANGSTROEM)
---------------------------------
  C      0.159373    1.617360    0.207744
  C      0.099703    0.105783    0.176203
  C      1.280177   -0.790105   -0.225485
  C      2.543555   -0.228018    0.420103
  O      3.610462    0.185093    0.050095
  N      1.986044   -0.322984    1.692902
  C      2.254025    0.506002    2.847051
  C      0.703380   -0.836528    1.185592
  C     -0.009666   -1.940827    1.905607
  H      1.123381    1.982732    0.569261
  H      0.012973    2.024795   -0.797928
  H     -0.626482    2.027060    0.851914
  H     -0.836306   -0.281529   -0.228172
  H      1.223313   -1.526170   -1.015366
  H      3.261432    0.914319    2.731496
  H      1.544376    1.339046    2.940693
  H      2.221803   -0.081843    3.770422
  H     -0.443915   -1.586866    2.848009
  H     -0.827765   -2.332866    1.294553
  H      0.677117   -2.761281    2.137028

 Total Charge           Charge          ....    0
 Multiplicity           Mult            ....    1
 Number of Electrons    NEL             ....   68
 Basis Dimension        Dim             ....  345

ORBITAL ENERGIES
----------------

  NO   OCC          E(Eh)            E(eV)
   0   2.0000     -20.525440      -558.5256
   1   2.0000     -15.577349      -423.8812
   2   2.0000     -11.348279      -308.8024
   3   2.0000     -11.288189      -307.1673
   4   2.0000     -11.260622      -306.4171
   5   2.0000     -11.260415      -306.4115
   6   2.0000     -11.245940      -306.0176
   7   2.0000     -11.236736      -305.7671
   8   2.0000     -11.228869      -305.5531
   9   2.0000      -1.387813       -37.7643
  10   2.0000      -1.291401       -35.1408
  11   2.0000      -1.125280       -30.6204
  12   2.0000      -1.008192       -27.4343
  13   2.0000      -0.998057       -27.1585
  14   2.0000      -0.930162       -25.3110
  15   2.0000      -0.843008       -22.9394
  16   2.0000      -0.774455       -21.0740
  17   2.0000      -0.720639       -19.6096
  18   2.0000      -0.672858       -18.3094
  19   2.0000      -0.666499       -18.1364
  20   2.0000      -0.649323       -17.6690
  21   2.0000      -0.606505       -16.5038
  22   2.0000      -0.589327       -16.0364
  23   2.0000      -0.581069       -15.8117
  24   2.0000      -0.573806       -15.6140
  25   2.0000      -0.571675       -15.5561
  26   2.0000      -0.557650       -15.1744
  27   2.0000      -0.532322       -14.4852
  28   2.0000      -0.528026       -14.3683
  29   2.0000      -0.509201       -13.8561
  30   2.0000      -0.447461       -12.1760
  31   2.0000      -0.418259       -11.3814
  32   2.0000      -0.410472       -11.1695
  33   2.0000      -0.360080        -9.7983
  34   0.0000       0.121908         3.3173
  35   0.0000       0.151798         4.1306
  36   0.0000       0.154832         4.2132
  37   0.0000       0.172493         4.6938
  38   0.0000       0.184457         5.0193

MULLIKEN ATOMIC CHARGES
-----------------------
   0 C :   -0.391404
   1 C :   -0.110566
   2 C :   -0.160590
   3 C :    0.157659
   4 O :   -0.314028
   5 N :   -0.128461
   6 C :   -0.334029
   7 C :    0.141906
   8 C :   -0.412422
   9 H :    0.146529
  10 H :    0.142435
  11 H :    0.132105
  12 H :    0.117128
  13 H :    0.151939
  14 H :    0.168904
  15 H :    0.130181
  16 H :    0.144555
  17 H :    0.139235
  18 H :    0.135317
  19 H :    0.143607
Sum of atomic charges:   -0.0000000

LOEWDIN ATOMIC CHARGES
----------------------
   0 C :   -0.286043
   1 C :   -0.180908
   2 C :   -0.109996
   3 C :   -0.399166
   4 O :    0.111692
   5 N :    0.208918
   6 C :   -0.305536
   7 C :   -0.228946
   8 C :   -0.266813
   9 H :    0.131752
  10 H :    0.131029
  11 H :    0.126247
  12 H :    0.158084
  13 H :    0.143151
  14 H :    0.135090
  15 H :    0.114127
  16 H :    0.118701
  17 H :    0.130986
  18 H :    0.134375
  19 H :    0.133253

  Mayer bond orders larger than 0.1
B(  0-C ,  1-C ) :   0.9075 B(  0-C ,  9-H ) :   0.9344 B(  0-C , 10-H ) :   0.9343
B(  0-C , 11-H ) :   0.9356 B(  1-C ,  2-C ) :   0.8311 B(  1-C ,  7-C ) :   0.8961
B(  1-C , 12-H ) :   0.9209 B(  2-C ,  3-C ) :   0.9013 B(  2-C ,  7-C ) :   0.8190
B(  2-C , 13-H ) :   0.9072 B(  3-C ,  4-O ) :   2.0038 B(  3-C ,  5-N ) :   1.1339
B(  5-N ,  6-C ) :   0.8697 B(  5-N ,  7-C ) :   0.9223 B(  6-C , 14-H ) :   0.9255
B(  6-C , 15-H ) :   0.9250 B(  6-C , 16-H ) :   0.9378 B(  7-C ,  8-C ) :   0.8859
B(  8-C , 17-H ) :   0.9325 B(  8-C , 18-H ) :   0.9340 B(  8-C , 19-H ) :   0.9403

MP2 TOTAL ENERGY:     -402.455244189 Eh
FINAL SINGLE POINT ENERGY      -402.455244189201

DIPOLE MOMENT
-------------
                                X             Y             Z
Electronic contribution:      6.25375      -1.63933      -3.78224
Nuclear contribution   :     -7.71494       1.44260       4.42963
                        -----------------------------------------
Total Dipole Moment    :     -1.46119      -0.19673       0.64740
                        -----------------------------------------
Magnitude (a.u.)       :      1.61024
Magnitude (Debye)      :      4.09292

                             ****ORCA TERMINATED NORMALLY****
TOTAL RUN TIME: 0 days 0 hours 20 minutes 55 seconds 475 msec
