                         Program Version 3.0.3 - RELEASE   -
|  1> ! RI-MP2 RIJK def2-TZVP def2-TZVP/C def2-TZVP/JK TIGHTSCF
|  2> % maxcore 2000
|  3> % mp2 density relaxed end
|  4> *xyz 0 1
|  5>  O        0.1866815608     1.1482718254    -0.5448236366
|  6>  C       -0.0483987546    -0.1953681407    -0.1828040862
|  7>  C       -1.5076017536    -0.4521772856     0.1476676605
|  8>  O       -2.2486546252    -0.1642339029    -1.0621007950
|  9>  C       -3.5664196439    -0.3471268336    -1.0092402951
| 10>  O       -4.1935247246    -0.7519753754    -0.0632536174
| 11>  C       -4.2575245124     0.0230502718    -2.3271133675
| 12>  O       -3.6931420196     0.4644907774    -3.2876468006
| 13>  H       -0.3545021408     1.3297487595    -1.3214278441
| 14>  H        0.2738275009    -0.8942079441    -0.9701332056
| 15>  H        0.5545365906    -0.3966783456     0.7086610620
| 16>  H       -1.6897848721    -1.4890164802     0.4468841327
| 17>  H       -1.8617601214     0.2129844880     0.9405214898
| 18>  H       -5.3487811642    -0.1624768840    -2.2779437869
| 19> *
| 20>
| 21>                          ****END OF INPUT****

CARTESIAN COORDINATES (ANGSTROEM)
---------------------------------
  O      0.186682    1.148272   -0.544824
  C     -0.048399   -0.195368   -0.182804
  C     -1.507602   -0.452177    0.147668
  O     -2.248655   -0.164234   -1.062101
  C     -3.566420   -0.347127   -1.009240
  O     -4.193525   -0.751975   -0.063254
  C     -4.257525    0.023050   -2.327113
  O     -3.693142    0.464491   -3.287647
  H     -0.354502    1.329749   -1.321428
  H      0.273828   -0.894208   -0.970133
  H      0.554537   -0.396678    0.708661
  H     -1.689785   -1.489016    0.446884
  H     -1.861760    0.212984    0.940521
  H     -5.348781   -0.162477   -2.277944

 Total Charge           Charge          ....    0
 Multiplicity           Mult            ....    1
 Number of Electrons    NEL             ....   62
 Basis Dimension        Dim             ....  284

ORBITAL ENERGIES
----------------

  NO   OCC          E(Eh)            E(eV)
   0   2.0000     -20.632077      -561.4274
   1   2.0000     -20.604691      -560.6822
   2   2.0000     -20.583905      -560.1165
   3   2.0000     -20.566280      -559.6369
   4   2.0000     -11.411745      -310.5294
   5   2.0000     -11.368979      -309.3657
   6   2.0000     -11.308723      -307.7260
   7   2.0000     -11.294288      -307.3332
   8   2.0000      -1.496162       -40.7127
   9   2.0000      -1.436291       -39.0835
  10   2.0000      -1.398949       -38.0673
  11   2.0000      -1.371246       -37.3135
  12   2.0000      -1.052783       -28.6477
  13   2.0000      -0.956204       -26.0196
  14   2.0000      -0.871908       -23.7258
  15   2.0000      -0.806699       -21.9514
  16   2.0000      -0.744111       -20.2483
  17   2.0000      -0.718968       -19.5641
  18   2.0000      -0.715613       -19.4728
  19   2.0000      -0.685517       -18.6539
  20   2.0000      -0.679617       -18.4933
  21   2.0000      -0.634851       -17.2752
  22   2.0000      -0.615758       -16.7556
  23   2.0000      -0.583573       -15.8798
  24   2.0000      -0.568485       -15.4693
  25   2.0000      -0.546440       -14.8694
  26   2.0000      -0.528368       -14.3776
  27   2.0000      -0.513309       -13.9679
  28   2.0000      -0.490466       -13.3463
  29   2.0000      -0.462329       -12.5806
  30   2.0000      -0.450832       -12.2678
  31   0.0000       0.054614         1.4861
  32   0.0000       0.135233         3.6799
  33   0.0000       0.157972         4.2986
  34   0.0000       0.171013         4.6535
  35   0.0000       0.184292         5.0148

MULLIKEN ATOMIC CHARGES
-----------------------
   0 O :   -0.479214
   1 C :    0.002186
   2 C :   -0.114578
   3 O :   -0.240169
   4 C :    0.316537
   5 O :   -0.307819
   6 C :    0.088007
   7 O :   -0.219919
   8 H :    0.332150
   9 H :    0.110946
  10 H :    0.120266
  11 H :    0.133102
  12 H :    0.139935
  13 H :    0.118569
Sum of atomic charges:   -0.0000000

LOEWDIN ATOMIC CHARGES
----------------------
   0 O :   -0.039991
   1 C :   -0.354845
   2 C :   -0.277020
   3 O :    0.267776
   4 C :   -0.498104
   5 O :    0.145852
   6 C :   -0.251887
   7 O :    0.174536
   8 H :    0.179857
   9 H :    0.122948
  10 H :    0.135942
  11 H :    0.134997
  12 H :    0.135192
  13 H :    0.124746

  Mayer bond orders larger than 0.1
B(  0-O ,  1-C ) :   0.9326 B(  0-O ,  8-H ) :   0.8348 B(  1-C ,  2-C ) :   0.9481
B(  1-C ,  9-H ) :   0.9290 B(  1-C , 10-H ) :   0.9239 B(  2-C ,  3-O ) :   0.8026
B(  2-C , 11-H ) :   0.9253 B(  2-C , 12-H ) :   0.9270 B(  3-O ,  4-C ) :   1.1513
B(  4-C ,  5-O ) :   1.8966 B(  4-C ,  6-C ) :   0.8290 B(  6-C ,  7-O ) :   2.0052
B(  6-C , 13-H ) :   0.9328

MP2 TOTAL ENERGY:     -456.140793901 Eh
FINAL SINGLE POINT ENERGY      -456.140793901317

DIPOLE MOMENT
-------------
                                X             Y             Z
Electronic contribution:     -5.47043       0.67638      -3.29069
Nuclear contribution   :      5.45040      -1.20952       3.49767
                        -----------------------------------------
Total Dipole Moment    :     -0.02003      -0.53314       0.20698
                        -----------------------------------------
Magnitude (a.u.)       :      0.57226
Magnitude (Debye)      :      1.45456

                             ****ORCA TERMINATED NORMALLY****
TOTAL RUN TIME: 0 days 0 hours 8 minutes 26 seconds 556 msec
