                         Program Version 3.0.3 - RELEASE   -
|  1> ! RI-MP2 RIJK def2-TZVP def2-TZVP/C def2-TZVP/JK TIGHTSCF
|  2> % maxcore 2000
|  3> % mp2 density relaxed end
|  4> *xyz 0 1
|  5>  N       -0.0275083188     1.3248870249    -0.0613448292
|  6>  C       -0.0536760201    -0.0524701689    -0.2662848229
|  7>  O        0.7335588939    -0.6195059583    -1.0010598692
|  8>  N       -1.0287704965    -0.7005714041     0.4587233203
|  9>  C       -1.1131660915    -2.1494205073     0.4858788659
| 10>  C       -2.5089335755    -2.6587770580     0.1144383508
| 11>  C       -2.5859532587    -4.1977754332     0.1561046358
| 12>  C       -3.9128312137    -4.7083454666    -0.1644313562
| 13>  C       -5.0165296770    -5.1034102537    -0.4299970449
| 14>  H        0.5320274034     1.7973259021    -0.7555495713
| 15>  H       -0.9073813897     1.7829239878     0.1261167238
| 16>  H       -1.4758298647    -0.1930075398     1.2051585086
| 17>  H       -0.3655797300    -2.5077325060    -0.2262324387
| 18>  H       -0.8285904369    -2.5311625231     1.4773938301
| 19>  H       -3.2570440076    -2.2453125431     0.8016592770
| 20>  H       -2.7712834358    -2.3032601123    -0.8871034472
| 21>  H       -1.8522778037    -4.6184871339    -0.5440692927
| 22>  H       -2.2899689115    -4.5531150555     1.1524461795
| 23>  H       -5.9865371256    -5.4650656210    -0.6652102796
| 24> *
| 25>
| 26>                          ****END OF INPUT****

CARTESIAN COORDINATES (ANGSTROEM)
---------------------------------
  N     -0.027508    1.324887   -0.061345
  C     -0.053676   -0.052470   -0.266285
  O      0.733559   -0.619506   -1.001060
  N     -1.028770   -0.700571    0.458723
  C     -1.113166   -2.149421    0.485879
  C     -2.508934   -2.658777    0.114438
  C     -2.585953   -4.197775    0.156105
  C     -3.912831   -4.708345   -0.164431
  C     -5.016530   -5.103410   -0.429997
  H      0.532027    1.797326   -0.755550
  H     -0.907381    1.782924    0.126117
  H     -1.475830   -0.193008    1.205159
  H     -0.365580   -2.507733   -0.226232
  H     -0.828590   -2.531163    1.477394
  H     -3.257044   -2.245313    0.801659
  H     -2.771283   -2.303260   -0.887103
  H     -1.852278   -4.618487   -0.544069
  H     -2.289969   -4.553115    1.152446
  H     -5.986537   -5.465066   -0.665210

 Total Charge           Charge          ....    0
 Multiplicity           Mult            ....    1
 Number of Electrons    NEL             ....   68
 Basis Dimension        Dim             ....  339

ORBITAL ENERGIES
----------------

  NO   OCC          E(Eh)            E(eV)
   0   2.0000     -20.510009      -558.1057
   1   2.0000     -15.582678      -424.0262
   2   2.0000     -15.579610      -423.9427
   3   2.0000     -11.375992      -309.5565
   4   2.0000     -11.265503      -306.5499
   5   2.0000     -11.256585      -306.3072
   6   2.0000     -11.236394      -305.7578
   7   2.0000     -11.234312      -305.7012
   8   2.0000     -11.220270      -305.3191
   9   2.0000      -1.392048       -37.8796
  10   2.0000      -1.242716       -33.8160
  11   2.0000      -1.192575       -32.4516
  12   2.0000      -1.091803       -29.7095
  13   2.0000      -1.017152       -27.6781
  14   2.0000      -0.943332       -25.6694
  15   2.0000      -0.843197       -22.9446
  16   2.0000      -0.801830       -21.8189
  17   2.0000      -0.744267       -20.2525
  18   2.0000      -0.722559       -19.6618
  19   2.0000      -0.703588       -19.1456
  20   2.0000      -0.652333       -17.7509
  21   2.0000      -0.643514       -17.5109
  22   2.0000      -0.627992       -17.0885
  23   2.0000      -0.610669       -16.6172
  24   2.0000      -0.589926       -16.0527
  25   2.0000      -0.559123       -15.2145
  26   2.0000      -0.545902       -14.8547
  27   2.0000      -0.517098       -14.0709
  28   2.0000      -0.494602       -13.4588
  29   2.0000      -0.446805       -12.1582
  30   2.0000      -0.426225       -11.5982
  31   2.0000      -0.403972       -10.9926
  32   2.0000      -0.386262       -10.5107
  33   2.0000      -0.381920       -10.3926
  34   0.0000       0.116031         3.1574
  35   0.0000       0.135774         3.6946
  36   0.0000       0.156992         4.2720
  37   0.0000       0.168044         4.5727
  38   0.0000       0.173581         4.7234

MULLIKEN ATOMIC CHARGES
-----------------------
   0 N :   -0.531606
   1 C :    0.404299
   2 O :   -0.401061
   3 N :   -0.376691
   4 C :   -0.143063
   5 C :   -0.171499
   6 C :   -0.399737
   7 C :   -0.011036
   8 C :   -0.121138
   9 H :    0.266069
  10 H :    0.246274
  11 H :    0.232319
  12 H :    0.163909
  13 H :    0.123451
  14 H :    0.107887
  15 H :    0.131460
  16 H :    0.150062
  17 H :    0.140160
  18 H :    0.189938
Sum of atomic charges:    0.0000000

LOEWDIN ATOMIC CHARGES
----------------------
   0 N :   -0.075458
   1 C :   -0.573318
   2 O :    0.050381
   3 N :    0.080692
   4 C :   -0.280519
   5 C :   -0.255291
   6 C :   -0.248832
   7 C :   -0.112968
   8 C :   -0.108621
   9 H :    0.175482
  10 H :    0.163992
  11 H :    0.181197
  12 H :    0.150675
  13 H :    0.130058
  14 H :    0.137314
  15 H :    0.143957
  16 H :    0.159056
  17 H :    0.156334
  18 H :    0.125868

  Mayer bond orders larger than 0.1
B(  0-N ,  1-C ) :   1.0705 B(  0-N ,  9-H ) :   0.8704 B(  0-N , 10-H ) :   0.8725
B(  1-C ,  2-O ) :   1.9276 B(  1-C ,  3-N ) :   1.1152 B(  3-N ,  4-C ) :   0.8651
B(  3-N , 11-H ) :   0.8751 B(  4-C ,  5-C ) :   0.9107 B(  4-C , 12-H ) :   0.9175
B(  4-C , 13-H ) :   0.9430 B(  5-C ,  6-C ) :   0.9321 B(  5-C , 14-H ) :   0.9288
B(  5-C , 15-H ) :   0.9218 B(  6-C ,  7-C ) :   1.1190 B(  6-C ,  8-C ) :  -0.1200
B(  6-C , 16-H ) :   0.9206 B(  6-C , 17-H ) :   0.9222 B(  7-C ,  8-C ) :   2.6118
B(  8-C , 18-H ) :   0.8965

MP2 TOTAL ENERGY:     -418.506098931 Eh
FINAL SINGLE POINT ENERGY      -418.506098931285

DIPOLE MOMENT
-------------
                                X             Y             Z
Electronic contribution:      1.83282       1.72402      -1.57565
Nuclear contribution   :     -2.73289      -1.00010       2.31387
                        -----------------------------------------
Total Dipole Moment    :     -0.90007       0.72392       0.73821
                        -----------------------------------------
Magnitude (a.u.)       :      1.37082
Magnitude (Debye)      :      3.48434

                             ****ORCA TERMINATED NORMALLY****
TOTAL RUN TIME: 0 days 0 hours 14 minutes 19 seconds 762 msec
