                         Program Version 3.0.3 - RELEASE   -
|  1> ! RI-MP2 RIJK def2-TZVP def2-TZVP/C def2-TZVP/JK TIGHTSCF
|  2> % maxcore 2000
|  3> % mp2 density relaxed end
|  4> *xyz 0 1
|  5>  C       -0.1263914961     1.5834762130    -0.0633068490
|  6>  C        0.0379071725     0.0743109919     0.0305395210
|  7>  C        0.6664015279    -0.6850291502    -1.1684556114
|  8>  C       -0.0647748457    -1.2543389512    -2.3436477704
|  9>  N        2.0586131359    -0.1837886271    -1.2708759532
| 10>  C        1.7276608586    -1.2634203294    -0.2923439918
| 11>  C        1.1675983740    -0.5286847949     0.9060124292
| 12>  C        1.8195496031    -0.0588556545     2.1239201149
| 13>  O        0.8973235333    -1.1668614123     2.1394591194
| 14>  H        0.8069379617     2.0470782668    -0.3920922130
| 15>  H       -0.9146569125     1.8509677590    -0.7757191165
| 16>  H       -0.4041300347     2.0095861874     0.9067804668
| 17>  H       -0.8999312451    -0.4128547254     0.3213711326
| 18>  H       -0.4026376513    -0.4630963894    -3.0233668763
| 19>  H        0.5779934098    -1.9328188469    -2.9157174506
| 20>  H       -0.9472511068    -1.8178419506    -2.0226410279
| 21>  H        2.4829159201    -0.6413460150    -2.0787715215
| 22>  H        2.2219287869    -2.2272430538    -0.3171937867
| 23>  H        2.8604811057    -0.3146288063     2.3161426494
| 24>  H        1.4632738728     0.8438415288     2.6179700050
| 25> *
| 26>
| 27>                          ****END OF INPUT****

CARTESIAN COORDINATES (ANGSTROEM)
---------------------------------
  C     -0.126391    1.583476   -0.063307
  C      0.037907    0.074311    0.030540
  C      0.666402   -0.685029   -1.168456
  C     -0.064775   -1.254339   -2.343648
  N      2.058613   -0.183789   -1.270876
  C      1.727661   -1.263420   -0.292344
  C      1.167598   -0.528685    0.906012
  C      1.819550   -0.058856    2.123920
  O      0.897324   -1.166861    2.139459
  H      0.806938    2.047078   -0.392092
  H     -0.914657    1.850968   -0.775719
  H     -0.404130    2.009586    0.906780
  H     -0.899931   -0.412855    0.321371
  H     -0.402638   -0.463096   -3.023367
  H      0.577993   -1.932819   -2.915717
  H     -0.947251   -1.817842   -2.022641
  H      2.482916   -0.641346   -2.078772
  H      2.221929   -2.227243   -0.317194
  H      2.860481   -0.314629    2.316143
  H      1.463274    0.843842    2.617970

 Total Charge           Charge          ....    0
 Multiplicity           Mult            ....    1
 Number of Electrons    NEL             ....   68
 Basis Dimension        Dim             ....  345

ORBITAL ENERGIES
----------------

  NO   OCC          E(Eh)            E(eV)
   0   2.0000     -20.563321      -559.5564
   1   2.0000     -15.563411      -423.5019
   2   2.0000     -11.289545      -307.2041
   3   2.0000     -11.276091      -306.8380
   4   2.0000     -11.270503      -306.6860
   5   2.0000     -11.261533      -306.4419
   6   2.0000     -11.236362      -305.7570
   7   2.0000     -11.233604      -305.6819
   8   2.0000     -11.212194      -305.0993
   9   2.0000      -1.408524       -38.3279
  10   2.0000      -1.283052       -34.9136
  11   2.0000      -1.059214       -28.8227
  12   2.0000      -0.997990       -27.1567
  13   2.0000      -0.957763       -26.0621
  14   2.0000      -0.909626       -24.7522
  15   2.0000      -0.840731       -22.8775
  16   2.0000      -0.795645       -21.6506
  17   2.0000      -0.729556       -19.8522
  18   2.0000      -0.686692       -18.6858
  19   2.0000      -0.674955       -18.3665
  20   2.0000      -0.623907       -16.9774
  21   2.0000      -0.608835       -16.5672
  22   2.0000      -0.591742       -16.1021
  23   2.0000      -0.577104       -15.7038
  24   2.0000      -0.556931       -15.1549
  25   2.0000      -0.543023       -14.7764
  26   2.0000      -0.530429       -14.4337
  27   2.0000      -0.502147       -13.6641
  28   2.0000      -0.498766       -13.5721
  29   2.0000      -0.478960       -13.0332
  30   2.0000      -0.446249       -12.1431
  31   2.0000      -0.433172       -11.7872
  32   2.0000      -0.411729       -11.2037
  33   2.0000      -0.360214        -9.8019
  34   0.0000       0.126220         3.4346
  35   0.0000       0.155135         4.2214
  36   0.0000       0.165999         4.5171
  37   0.0000       0.181162         4.9297
  38   0.0000       0.186958         5.0874

MULLIKEN ATOMIC CHARGES
-----------------------
   0 C :   -0.459765
   1 C :    0.045712
   2 C :    0.111640
   3 C :   -0.389723
   4 N :   -0.395199
   5 C :   -0.143165
   6 C :    0.131610
   7 C :   -0.086305
   8 O :   -0.340171
   9 H :    0.155918
  10 H :    0.127851
  11 H :    0.132916
  12 H :    0.102799
  13 H :    0.145050
  14 H :    0.126069
  15 H :    0.140793
  16 H :    0.211689
  17 H :    0.149127
  18 H :    0.117416
  19 H :    0.115740
Sum of atomic charges:    0.0000000

LOEWDIN ATOMIC CHARGES
----------------------
   0 C :   -0.292699
   1 C :   -0.168619
   2 C :   -0.260225
   3 C :   -0.277620
   4 N :    0.024473
   5 C :   -0.171603
   6 C :   -0.277139
   7 C :   -0.229695
   8 O :    0.166340
   9 H :    0.131810
  10 H :    0.124045
  11 H :    0.125037
  12 H :    0.160636
  13 H :    0.131741
  14 H :    0.130127
  15 H :    0.133629
  16 H :    0.170439
  17 H :    0.134834
  18 H :    0.122390
  19 H :    0.122098

  Mayer bond orders larger than 0.1
B(  0-C ,  1-C ) :   0.8587 B(  0-C ,  9-H ) :   0.9396 B(  0-C , 10-H ) :   0.9343
B(  0-C , 11-H ) :   0.9392 B(  1-C ,  2-C ) :   0.9580 B(  1-C ,  6-C ) :   0.9856
B(  1-C , 12-H ) :   0.9128 B(  2-C ,  3-C ) :   0.8885 B(  2-C ,  4-N ) :   0.8955
B(  2-C ,  5-C ) :   0.8721 B(  3-C , 13-H ) :   0.9428 B(  3-C , 14-H ) :   0.9263
B(  3-C , 15-H ) :   0.9346 B(  4-N ,  5-C ) :   0.9785 B(  4-N , 16-H ) :   0.8691
B(  5-C ,  6-C ) :   0.8545 B(  5-C , 17-H ) :   0.9003 B(  6-C ,  7-C ) :   0.9650
B(  6-C ,  8-O ) :   0.8972 B(  7-C ,  8-O ) :   0.8943 B(  7-C , 18-H ) :   0.9113
B(  7-C , 19-H ) :   0.9101

MP2 TOTAL ENERGY:     -402.393274042 Eh
FINAL SINGLE POINT ENERGY      -402.393274042483

DIPOLE MOMENT
-------------
                                X             Y             Z
Electronic contribution:      2.89379      -3.05810       4.41541
Nuclear contribution   :     -2.87886       2.94773      -5.11653
                        -----------------------------------------
Total Dipole Moment    :      0.01493      -0.11036      -0.70112
                        -----------------------------------------
Magnitude (a.u.)       :      0.70991
Magnitude (Debye)      :      1.80445

                             ****ORCA TERMINATED NORMALLY****
TOTAL RUN TIME: 0 days 0 hours 20 minutes 6 seconds 768 msec
