                         Program Version 3.0.3 - RELEASE   -
|  1> ! RI-MP2 RIJK def2-TZVP def2-TZVP/C def2-TZVP/JK TIGHTSCF
|  2> % maxcore 2000
|  3> % mp2 density relaxed end
|  4> *xyz 0 1
|  5>  O       -0.0564354910    -0.0712828458     0.0041204573
|  6>  C        0.0242646831     1.1288649787     0.0087225379
|  7>  N       -1.1458488368     1.9270613998     0.0290207584
|  8>  N       -1.2078652307     3.2530109369     0.0362400826
|  9>  N       -0.1170921487     3.9105169794     0.0240291187
| 10>  C        1.0733265188     3.1701236595     0.0037150762
| 11>  N        1.1926272315     1.8743167160    -0.0041624390
| 12>  C        2.2484313884     3.9793087977    -0.0089411969
| 13>  C        3.2322761852     4.6698663940    -0.0194778193
| 14>  H       -2.0444570178     1.4597915187     0.0394408320
| 15>  H        4.1064021781     5.2749985551    -0.0288782379
| 16> *
| 17>
| 18>                          ****END OF INPUT****

CARTESIAN COORDINATES (ANGSTROEM)
---------------------------------
  O     -0.056435   -0.071283    0.004120
  C      0.024265    1.128865    0.008723
  N     -1.145849    1.927061    0.029021
  N     -1.207865    3.253011    0.036240
  N     -0.117092    3.910517    0.024029
  C      1.073327    3.170124    0.003715
  N      1.192627    1.874317   -0.004162
  C      2.248431    3.979309   -0.008941
  C      3.232276    4.669866   -0.019478
  H     -2.044457    1.459792    0.039441
  H      4.106402    5.274999   -0.028878

 Total Charge           Charge          ....    0
 Multiplicity           Mult            ....    1
 Number of Electrons    NEL             ....   62
 Basis Dimension        Dim             ....  291

ORBITAL ENERGIES
----------------

  NO   OCC          E(Eh)            E(eV)
   0   2.0000     -20.555290      -559.3379
   1   2.0000     -15.743883      -428.4128
   2   2.0000     -15.690509      -426.9605
   3   2.0000     -15.651853      -425.9086
   4   2.0000     -15.611904      -424.8215
   5   2.0000     -11.418291      -310.7075
   6   2.0000     -11.397059      -310.1297
   7   2.0000     -11.280882      -306.9684
   8   2.0000     -11.271855      -306.7228
   9   2.0000      -1.493017       -40.6271
  10   2.0000      -1.420199       -38.6456
  11   2.0000      -1.296291       -35.2739
  12   2.0000      -1.259632       -34.2763
  13   2.0000      -1.089363       -29.6431
  14   2.0000      -1.017021       -27.6745
  15   2.0000      -0.966445       -26.2983
  16   2.0000      -0.830759       -22.6061
  17   2.0000      -0.804847       -21.9010
  18   2.0000      -0.794488       -21.6191
  19   2.0000      -0.730761       -19.8850
  20   2.0000      -0.697624       -18.9833
  21   2.0000      -0.660882       -17.9835
  22   2.0000      -0.604451       -16.4479
  23   2.0000      -0.575613       -15.6632
  24   2.0000      -0.547332       -14.8936
  25   2.0000      -0.545216       -14.8361
  26   2.0000      -0.496904       -13.5214
  27   2.0000      -0.443770       -12.0756
  28   2.0000      -0.437362       -11.9012
  29   2.0000      -0.430253       -11.7078
  30   2.0000      -0.414017       -11.2660
  31   0.0000       0.014051         0.3823
  32   0.0000       0.091424         2.4878
  33   0.0000       0.126620         3.4455
  34   0.0000       0.146336         3.9820
  35   0.0000       0.153968         4.1897

MULLIKEN ATOMIC CHARGES
-----------------------
   0 O :   -0.285703
   1 C :    0.266922
   2 N :   -0.114852
   3 N :   -0.050759
   4 N :   -0.115753
   5 C :   -0.064718
   6 N :   -0.186995
   7 C :    0.089626
   8 C :   -0.030794
   9 H :    0.281053
  10 H :    0.211973
Sum of atomic charges:   -0.0000000

LOEWDIN ATOMIC CHARGES
----------------------
   0 O :    0.129122
   1 C :   -0.516024
   2 N :    0.120731
   3 N :    0.009551
   4 N :    0.060761
   5 C :   -0.290322
   6 N :    0.207238
   7 C :   -0.048868
   8 C :   -0.014147
   9 H :    0.206010
  10 H :    0.135947

  Mayer bond orders larger than 0.1
B(  0-O ,  1-C ) :   2.0131 B(  1-C ,  2-N ) :   1.0039 B(  1-C ,  6-N ) :   1.1017
B(  2-N ,  3-N ) :   1.0883 B(  2-N ,  9-H ) :   0.8507 B(  3-N ,  4-N ) :   1.3962
B(  4-N ,  5-C ) :   1.2311 B(  5-C ,  6-N ) :   1.6524 B(  5-C ,  7-C ) :   1.1769
B(  5-C ,  8-C ) :  -0.1500 B(  7-C ,  8-C ) :   2.6041 B(  8-C , 10-H ) :   0.8658

MP2 TOTAL ENERGY:     -446.928405901 Eh
FINAL SINGLE POINT ENERGY      -446.928405901265

DIPOLE MOMENT
-------------
                                X             Y             Z
Electronic contribution:     -1.09624      -0.73142       0.01191
Nuclear contribution   :      0.95057       1.44538      -0.00644
                        -----------------------------------------
Total Dipole Moment    :     -0.14567       0.71396       0.00547
                        -----------------------------------------
Magnitude (a.u.)       :      0.72869
Magnitude (Debye)      :      1.85218

                             ****ORCA TERMINATED NORMALLY****
TOTAL RUN TIME: 0 days 0 hours 13 minutes 51 seconds 628 msec
