                         Program Version 3.0.3 - RELEASE   -
|  1> ! RI-MP2 RIJK def2-TZVP def2-TZVP/C def2-TZVP/JK TIGHTSCF
|  2> % maxcore 2000
|  3> % mp2 density relaxed end
|  4> *xyz 0 1
|  5>  C        0.2791107712     0.9911689465    -0.4719050239
|  6>  O       -0.2249240671     0.2378844931     0.6320556743
|  7>  C       -1.2992007976    -0.5420400931     0.3455995401
|  8>  C       -1.3867262053    -1.8628535294    -0.0020678381
|  9>  C       -0.2383760394    -2.8007235502    -0.2088814296
| 10>  C       -2.7915189510    -2.1637293508    -0.1241867049
| 11>  C       -3.4782048843    -1.0116520746     0.1558081224
| 12>  O       -4.8000223072    -0.6990454676     0.2129436105
| 13>  N       -2.5844943794    -0.0135616909     0.4259046987
| 14>  H        1.1404903430     1.5521131260    -0.1022507255
| 15>  H        0.5925926222     0.3304057127    -1.2887696307
| 16>  H       -0.4733595732     1.6930644548    -0.8540074460
| 17>  H       -0.3294274857    -3.6945679832     0.4196419331
| 18>  H       -0.1678257822    -3.1468382007    -1.2475705427
| 19>  H        0.7054430245    -2.3110501344     0.0468768833
| 20>  H       -3.2239134538    -3.1163570681    -0.3913528984
| 21>  H       -5.3031873236    -1.5002274396     0.0394527287
| 22>  H       -2.8224862210     0.8941698093     0.7864178987
| 23> *
| 24>
| 25>                          ****END OF INPUT****

CARTESIAN COORDINATES (ANGSTROEM)
---------------------------------
  C      0.279111    0.991169   -0.471905
  O     -0.224924    0.237884    0.632056
  C     -1.299201   -0.542040    0.345600
  C     -1.386726   -1.862854   -0.002068
  C     -0.238376   -2.800724   -0.208881
  C     -2.791519   -2.163729   -0.124187
  C     -3.478205   -1.011652    0.155808
  O     -4.800022   -0.699045    0.212944
  N     -2.584494   -0.013562    0.425905
  H      1.140490    1.552113   -0.102251
  H      0.592593    0.330406   -1.288770
  H     -0.473360    1.693064   -0.854007
  H     -0.329427   -3.694568    0.419642
  H     -0.167826   -3.146838   -1.247571
  H      0.705443   -2.311050    0.046877
  H     -3.223913   -3.116357   -0.391353
  H     -5.303187   -1.500227    0.039453
  H     -2.822486    0.894170    0.786418

 Total Charge           Charge          ....    0
 Multiplicity           Mult            ....    1
 Number of Electrons    NEL             ....   68
 Basis Dimension        Dim             ....  333

ORBITAL ENERGIES
----------------

  NO   OCC          E(Eh)            E(eV)
   0   2.0000     -20.596333      -560.4547
   1   2.0000     -20.576498      -559.9150
   2   2.0000     -15.593314      -424.3157
   3   2.0000     -11.317242      -307.9578
   4   2.0000     -11.292716      -307.2904
   5   2.0000     -11.280492      -306.9578
   6   2.0000     -11.212947      -305.1198
   7   2.0000     -11.210611      -305.0562
   8   2.0000     -11.198384      -304.7235
   9   2.0000      -1.418657       -38.6036
  10   2.0000      -1.402301       -38.1586
  11   2.0000      -1.269452       -34.5435
  12   2.0000      -1.063425       -28.9373
  13   2.0000      -0.984743       -26.7962
  14   2.0000      -0.949203       -25.8291
  15   2.0000      -0.899191       -24.4682
  16   2.0000      -0.809159       -22.0183
  17   2.0000      -0.754928       -20.5426
  18   2.0000      -0.741895       -20.1880
  19   2.0000      -0.679267       -18.4838
  20   2.0000      -0.652704       -17.7610
  21   2.0000      -0.644020       -17.5247
  22   2.0000      -0.622493       -16.9389
  23   2.0000      -0.607502       -16.5310
  24   2.0000      -0.581503       -15.8235
  25   2.0000      -0.569265       -15.4905
  26   2.0000      -0.557606       -15.1732
  27   2.0000      -0.529285       -14.4026
  28   2.0000      -0.525736       -14.3060
  29   2.0000      -0.504558       -13.7297
  30   2.0000      -0.493324       -13.4240
  31   2.0000      -0.451786       -12.2937
  32   2.0000      -0.342530        -9.3207
  33   2.0000      -0.270316        -7.3557
  34   0.0000       0.132755         3.6124
  35   0.0000       0.141997         3.8639
  36   0.0000       0.158066         4.3012
  37   0.0000       0.176273         4.7966
  38   0.0000       0.194932         5.3044

MULLIKEN ATOMIC CHARGES
-----------------------
   0 C :   -0.204314
   1 O :   -0.318648
   2 C :    0.170726
   3 C :    0.042622
   4 C :   -0.441726
   5 C :   -0.321554
   6 C :    0.267886
   7 O :   -0.441800
   8 N :   -0.278154
   9 H :    0.139261
  10 H :    0.127374
  11 H :    0.118738
  12 H :    0.137818
  13 H :    0.135753
  14 H :    0.146644
  15 H :    0.127743
  16 H :    0.341549
  17 H :    0.250083
Sum of atomic charges:    0.0000000

LOEWDIN ATOMIC CHARGES
----------------------
   0 C :   -0.325057
   1 O :    0.196962
   2 C :   -0.332439
   3 C :   -0.201939
   4 C :   -0.276290
   5 C :   -0.191162
   6 C :   -0.368159
   7 O :    0.054073
   8 N :    0.201846
   9 H :    0.112703
  10 H :    0.107221
  11 H :    0.103062
  12 H :    0.128915
  13 H :    0.126704
  14 H :    0.132670
  15 H :    0.136982
  16 H :    0.199136
  17 H :    0.194772

  Mayer bond orders larger than 0.1
B(  0-C ,  1-O ) :   0.8611 B(  0-C ,  9-H ) :   0.9376 B(  0-C , 10-H ) :   0.9330
B(  0-C , 11-H ) :   0.9375 B(  1-O ,  2-C ) :   1.0641 B(  2-C ,  3-C ) :   1.5259
B(  2-C ,  8-N ) :   1.0721 B(  3-C ,  4-C ) :   0.8401 B(  3-C ,  5-C ) :   1.1331
B(  4-C , 12-H ) :   0.9383 B(  4-C , 13-H ) :   0.9339 B(  4-C , 14-H ) :   0.9575
B(  5-C ,  6-C ) :   1.5102 B(  5-C , 15-H ) :   0.9145 B(  6-C ,  7-O ) :   1.0994
B(  6-C ,  8-N ) :   1.1238 B(  7-O , 16-H ) :   0.8309 B(  8-N , 17-H ) :   0.8616

MP2 TOTAL ENERGY:     -438.380188124 Eh
FINAL SINGLE POINT ENERGY      -438.380188124173

DIPOLE MOMENT
-------------
                                X             Y             Z
Electronic contribution:     -6.45726       1.88782       2.89987
Nuclear contribution   :      6.22077      -1.68248      -3.29686
                        -----------------------------------------
Total Dipole Moment    :     -0.23649       0.20534      -0.39699
                        -----------------------------------------
Magnitude (a.u.)       :      0.50566
Magnitude (Debye)      :      1.28528

                             ****ORCA TERMINATED NORMALLY****
TOTAL RUN TIME: 0 days 0 hours 15 minutes 27 seconds 150 msec
