                         Program Version 3.0.3 - RELEASE   -
|  1> ! RI-MP2 RIJK def2-TZVP def2-TZVP/C def2-TZVP/JK TIGHTSCF
|  2> % maxcore 2000
|  3> % mp2 density relaxed end
|  4> *xyz 0 1
|  5>  C       -0.4930781087     1.4365088019     0.1180784166
|  6>  C       -0.0736936172     0.0066640976    -0.0153734352
|  7>  C       -0.1699026515    -0.7739059904    -1.0928786600
|  8>  C        0.3844296451    -2.1574922141    -0.8753186065
|  9>  C        0.6346977791    -2.2181526339     0.6539986066
| 10>  C        1.9480111291    -2.9142324201     1.0501108118
| 11>  C        0.5802024350    -0.7321546798     1.1330609461
| 12>  C       -0.4947449095    -2.9652635346     1.3587360776
| 13>  O       -1.3984697777    -3.5572382263     0.8306504668
| 14>  H        0.3579430536     2.0777799694     0.3825167483
| 15>  H       -0.9272171826     1.8164447462    -0.8106216309
| 16>  H       -1.2350393191     1.5613785840     0.9172568183
| 17>  H       -0.5838056617    -0.4579441702    -2.0450356345
| 18>  H       -0.3089190906    -2.9469132071    -1.1831463846
| 19>  H        1.3159717218    -2.3093185742    -1.4374713061
| 20>  H        2.8023612117    -2.3633834349     0.6447163996
| 21>  H        2.0659918593    -2.9594550484     2.1389299825
| 22>  H        1.9891098623    -3.9380922272     0.6640711524
| 23>  H        1.5891090305    -0.3429551348     1.3320579163
| 24>  H        0.0281066358    -0.6177522441     2.0773466842
| 25>  H       -0.4130155747    -2.9279956990     2.4720525308
| 26> *
| 27>
| 28>                          ****END OF INPUT****

CARTESIAN COORDINATES (ANGSTROEM)
---------------------------------
  C     -0.493078    1.436509    0.118078
  C     -0.073694    0.006664   -0.015373
  C     -0.169903   -0.773906   -1.092879
  C      0.384430   -2.157492   -0.875319
  C      0.634698   -2.218153    0.653999
  C      1.948011   -2.914232    1.050111
  C      0.580202   -0.732155    1.133061
  C     -0.494745   -2.965264    1.358736
  O     -1.398470   -3.557238    0.830650
  H      0.357943    2.077780    0.382517
  H     -0.927217    1.816445   -0.810622
  H     -1.235039    1.561379    0.917257
  H     -0.583806   -0.457944   -2.045036
  H     -0.308919   -2.946913   -1.183146
  H      1.315972   -2.309319   -1.437471
  H      2.802361   -2.363383    0.644716
  H      2.065992   -2.959455    2.138930
  H      1.989110   -3.938092    0.664071
  H      1.589109   -0.342955    1.332058
  H      0.028107   -0.617752    2.077347
  H     -0.413016   -2.927996    2.472053

 Total Charge           Charge          ....    0
 Multiplicity           Mult            ....    1
 Number of Electrons    NEL             ....   68
 Basis Dimension        Dim             ....  351

ORBITAL ENERGIES
----------------

  NO   OCC          E(Eh)            E(eV)
   0   2.0000     -20.553865      -559.2991
   1   2.0000     -11.325970      -308.1953
   2   2.0000     -11.251072      -306.1572
   3   2.0000     -11.237228      -305.7805
   4   2.0000     -11.232353      -305.6479
   5   2.0000     -11.232104      -305.6411
   6   2.0000     -11.225398      -305.4586
   7   2.0000     -11.222062      -305.3678
   8   2.0000     -11.218834      -305.2800
   9   2.0000      -1.394317       -37.9413
  10   2.0000      -1.153770       -31.3957
  11   2.0000      -1.053596       -28.6698
  12   2.0000      -0.986598       -26.8467
  13   2.0000      -0.944234       -25.6939
  14   2.0000      -0.894423       -24.3385
  15   2.0000      -0.853027       -23.2120
  16   2.0000      -0.747722       -20.3465
  17   2.0000      -0.712040       -19.3756
  18   2.0000      -0.673151       -18.3174
  19   2.0000      -0.648662       -17.6510
  20   2.0000      -0.636036       -17.3074
  21   2.0000      -0.590295       -16.0627
  22   2.0000      -0.583071       -15.8662
  23   2.0000      -0.574579       -15.6351
  24   2.0000      -0.562663       -15.3108
  25   2.0000      -0.549793       -14.9606
  26   2.0000      -0.533258       -14.5107
  27   2.0000      -0.522229       -14.2106
  28   2.0000      -0.510134       -13.8814
  29   2.0000      -0.491058       -13.3624
  30   2.0000      -0.473420       -12.8824
  31   2.0000      -0.459341       -12.4993
  32   2.0000      -0.409448       -11.1416
  33   2.0000      -0.338827        -9.2199
  34   0.0000       0.127858         3.4792
  35   0.0000       0.132528         3.6063
  36   0.0000       0.155888         4.2419
  37   0.0000       0.160489         4.3671
  38   0.0000       0.172896         4.7047

MULLIKEN ATOMIC CHARGES
-----------------------
   0 C :   -0.433483
   1 C :    0.015969
   2 C :   -0.218727
   3 C :   -0.192677
   4 C :    0.210586
   5 C :   -0.453558
   6 C :   -0.251572
   7 C :    0.029775
   8 O :   -0.260794
   9 H :    0.136505
  10 H :    0.138866
  11 H :    0.139905
  12 H :    0.121362
  13 H :    0.145740
  14 H :    0.115603
  15 H :    0.141935
  16 H :    0.137880
  17 H :    0.148880
  18 H :    0.121256
  19 H :    0.124154
  20 H :    0.082396
Sum of atomic charges:    0.0000000

LOEWDIN ATOMIC CHARGES
----------------------
   0 C :   -0.274464
   1 C :   -0.192400
   2 C :   -0.134940
   3 C :   -0.195198
   4 C :   -0.267197
   5 C :   -0.267208
   6 C :   -0.166411
   7 C :   -0.256516
   8 O :    0.142243
   9 H :    0.130635
  10 H :    0.131039
  11 H :    0.131006
  12 H :    0.137987
  13 H :    0.147736
  14 H :    0.142429
  15 H :    0.129280
  16 H :    0.127762
  17 H :    0.130088
  18 H :    0.145240
  19 H :    0.142692
  20 H :    0.116198

  Mayer bond orders larger than 0.1
B(  0-C ,  1-C ) :   0.8905 B(  0-C ,  9-H ) :   0.9293 B(  0-C , 10-H ) :   0.9485
B(  0-C , 11-H ) :   0.9354 B(  1-C ,  2-C ) :   1.7484 B(  1-C ,  6-C ) :   0.9490
B(  2-C ,  3-C ) :   0.9520 B(  2-C , 12-H ) :   0.9265 B(  3-C ,  4-C ) :   0.9220
B(  3-C , 13-H ) :   0.9013 B(  3-C , 14-H ) :   0.9143 B(  4-C ,  5-C ) :   0.8943
B(  4-C ,  6-C ) :   0.8784 B(  4-C ,  7-C ) :   0.8245 B(  5-C , 15-H ) :   0.9327
B(  5-C , 16-H ) :   0.9285 B(  5-C , 17-H ) :   0.9380 B(  6-C , 18-H ) :   0.8962
B(  6-C , 19-H ) :   0.9183 B(  7-C ,  8-O ) :   2.0041 B(  7-C , 20-H ) :   0.9403

MP2 TOTAL ENERGY:     -386.440982803 Eh
FINAL SINGLE POINT ENERGY      -386.440982802806

DIPOLE MOMENT
-------------
                                X             Y             Z
Electronic contribution:     -4.32298      -4.39733      -0.38246
Nuclear contribution   :      5.14156       5.01124       0.62764
                        -----------------------------------------
Total Dipole Moment    :      0.81858       0.61391       0.24519
                        -----------------------------------------
Magnitude (a.u.)       :      1.05218
Magnitude (Debye)      :      2.67442

                             ****ORCA TERMINATED NORMALLY****
TOTAL RUN TIME: 0 days 0 hours 19 minutes 53 seconds 281 msec
