                         Program Version 3.0.3 - RELEASE   -
|  1> ! RI-MP2 RIJK def2-TZVP def2-TZVP/C def2-TZVP/JK TIGHTSCF
|  2> % maxcore 2000
|  3> % mp2 density relaxed end
|  4> *xyz 0 1
|  5>  C        0.0225492573     1.3789968714    -0.0239340862
|  6>  C        0.2106585054    -0.1153055937     0.0531961811
|  7>  C        1.5191324526    -0.7645659962    -0.0965802162
|  8>  C        0.8851109073    -0.7904701018     1.3075374447
|  9>  C        1.4807002959     0.0579289829     2.3629338101
| 10>  O        2.1768490984     1.0294260617     2.1750090310
| 11>  C        0.2559078734    -2.0616479643     1.7377331081
| 12>  O       -0.2060635611    -2.8859454480     0.9834558440
| 13>  H        0.8817014013     1.9130064656     0.3844605425
| 14>  H       -0.0999590447     1.6704933624    -1.0729254711
| 15>  H       -0.8751989515     1.6951856392     0.5161066698
| 16>  H       -0.6363445896    -0.7175096100    -0.2653225594
| 17>  H        1.5687168458    -1.7352527728    -0.5770149171
| 18>  H        2.3989009981    -0.1332587721    -0.1653066601
| 19>  H        1.2389338839    -0.2701687838     3.3995003217
| 20>  H        0.2273270775    -2.2182551104     2.8395411670
| 21> *
| 22>
| 23>                          ****END OF INPUT****

CARTESIAN COORDINATES (ANGSTROEM)
---------------------------------
  C      0.022549    1.378997   -0.023934
  C      0.210659   -0.115306    0.053196
  C      1.519132   -0.764566   -0.096580
  C      0.885111   -0.790470    1.307537
  C      1.480700    0.057929    2.362934
  O      2.176849    1.029426    2.175009
  C      0.255908   -2.061648    1.737733
  O     -0.206064   -2.885945    0.983456
  H      0.881701    1.913006    0.384461
  H     -0.099959    1.670493   -1.072925
  H     -0.875199    1.695186    0.516107
  H     -0.636345   -0.717510   -0.265323
  H      1.568717   -1.735253   -0.577015
  H      2.398901   -0.133259   -0.165307
  H      1.238934   -0.270169    3.399500
  H      0.227327   -2.218255    2.839541

 Total Charge           Charge          ....    0
 Multiplicity           Mult            ....    1
 Number of Electrons    NEL             ....   60
 Basis Dimension        Dim             ....  296

ORBITAL ENERGIES
----------------

  NO   OCC          E(Eh)            E(eV)
   0   2.0000     -20.563565      -559.5630
   1   2.0000     -20.562519      -559.5346
   2   2.0000     -11.348151      -308.7989
   3   2.0000     -11.347049      -308.7689
   4   2.0000     -11.277261      -306.8699
   5   2.0000     -11.267016      -306.5911
   6   2.0000     -11.260615      -306.4169
   7   2.0000     -11.231478      -305.6241
   8   2.0000      -1.406198       -38.2646
   9   2.0000      -1.402102       -38.1531
  10   2.0000      -1.184381       -32.2286
  11   2.0000      -1.011506       -27.5245
  12   2.0000      -0.956697       -26.0331
  13   2.0000      -0.850508       -23.1435
  14   2.0000      -0.813715       -22.1423
  15   2.0000      -0.762593       -20.7512
  16   2.0000      -0.725341       -19.7375
  17   2.0000      -0.669918       -18.2294
  18   2.0000      -0.655209       -17.8291
  19   2.0000      -0.633131       -17.2284
  20   2.0000      -0.601690       -16.3728
  21   2.0000      -0.591727       -16.1017
  22   2.0000      -0.578359       -15.7379
  23   2.0000      -0.559318       -15.2198
  24   2.0000      -0.533644       -14.5212
  25   2.0000      -0.517484       -14.0815
  26   2.0000      -0.485232       -13.2038
  27   2.0000      -0.435571       -11.8525
  28   2.0000      -0.425977       -11.5914
  29   2.0000      -0.412515       -11.2251
  30   0.0000       0.090110         2.4520
  31   0.0000       0.133913         3.6440
  32   0.0000       0.145360         3.9554
  33   0.0000       0.153716         4.1828
  34   0.0000       0.182854         4.9757

MULLIKEN ATOMIC CHARGES
-----------------------
   0 C :   -0.411989
   1 C :   -0.089083
   2 C :   -0.274136
   3 C :    0.077643
   4 C :    0.094325
   5 O :   -0.292601
   6 C :    0.077684
   7 O :   -0.289602
   8 H :    0.168397
   9 H :    0.143444
  10 H :    0.137524
  11 H :    0.156162
  12 H :    0.167933
  13 H :    0.161958
  14 H :    0.086753
  15 H :    0.085587
Sum of atomic charges:   -0.0000000

LOEWDIN ATOMIC CHARGES
----------------------
   0 C :   -0.282975
   1 C :   -0.171011
   2 C :   -0.142906
   3 C :   -0.222258
   4 C :   -0.267306
   5 O :    0.125958
   6 C :   -0.267516
   7 O :    0.127532
   8 H :    0.136605
   9 H :    0.133944
  10 H :    0.129450
  11 H :    0.163080
  12 H :    0.148323
  13 H :    0.150655
  14 H :    0.119726
  15 H :    0.118699

  Mayer bond orders larger than 0.1
B(  0-C ,  1-C ) :   0.9082 B(  0-C ,  8-H ) :   0.9233 B(  0-C ,  9-H ) :   0.9284
B(  0-C , 10-H ) :   0.9380 B(  1-C ,  2-C ) :   0.9860 B(  1-C ,  3-C ) :   0.7340
B(  1-C , 11-H ) :   0.9168 B(  2-C ,  3-C ) :   0.7727 B(  2-C , 12-H ) :   0.9181
B(  2-C , 13-H ) :   0.9185 B(  3-C ,  4-C ) :   0.9012 B(  3-C ,  6-C ) :   0.8952
B(  4-C ,  5-O ) :   1.9323 B(  4-C , 14-H ) :   0.9592 B(  6-C ,  7-O ) :   1.9437
B(  6-C , 15-H ) :   0.9545

MP2 TOTAL ENERGY:     -383.111166212 Eh
FINAL SINGLE POINT ENERGY      -383.111166211533

DIPOLE MOMENT
-------------
                                X             Y             Z
Electronic contribution:      1.32043      -3.79570       3.23618
Nuclear contribution   :     -1.52556       3.99876      -3.25630
                        -----------------------------------------
Total Dipole Moment    :     -0.20514       0.20306      -0.02012
                        -----------------------------------------
Magnitude (a.u.)       :      0.28934
Magnitude (Debye)      :      0.73545

                             ****ORCA TERMINATED NORMALLY****
TOTAL RUN TIME: 0 days 0 hours 11 minutes 14 seconds 131 msec
