                         Program Version 3.0.3 - RELEASE   -
|  1> ! RI-MP2 RIJK def2-TZVP def2-TZVP/C def2-TZVP/JK TIGHTSCF
|  2> % maxcore 2000
|  3> % mp2 density relaxed end
|  4> *xyz 0 1
|  5>  O        0.1631773498     1.4099346539     0.2587339646
|  6>  C        0.1131657264     0.0162396942     0.0276466826
|  7>  C       -1.3181195937    -0.4942827400     0.1171247251
|  8>  O       -2.0345532662     0.2242116655    -0.8632514866
|  9>  C       -1.5288397507    -2.0600138590     0.2105772599
| 10>  C       -1.2752500488    -1.9103939579     1.7431019635
| 11>  C       -2.0115326752    -0.5788659199     1.5064837516
| 12>  O       -3.3442702870    -0.9929388037     1.1181486590
| 13>  C       -3.0584278881    -2.1043323078     0.2148070384
| 14>  H       -0.5194574586     1.7847290311    -0.3119708144
| 15>  H        0.5007677981    -0.2399462509    -0.9721144953
| 16>  H        0.7667654561    -0.4525878730     0.7655193602
| 17>  H       -2.9481433894     0.2662497232    -0.5476354871
| 18>  H       -0.9976516186    -2.7712894898    -0.4201226032
| 19>  H       -1.7726173993    -2.6227335825     2.4038105027
| 20>  H       -0.2279156510    -1.8026803569     2.0180846736
| 21>  H       -2.0736001543     0.2447567646     2.2144147408
| 22>  H       -3.5052536091    -1.9085652052    -0.7646400337
| 23>  H       -3.4705151102    -3.0320951159     0.6245671181
| 24> *
| 25>
| 26>                          ****END OF INPUT****

CARTESIAN COORDINATES (ANGSTROEM)
---------------------------------
  O      0.163177    1.409935    0.258734
  C      0.113166    0.016240    0.027647
  C     -1.318120   -0.494283    0.117125
  O     -2.034553    0.224212   -0.863251
  C     -1.528840   -2.060014    0.210577
  C     -1.275250   -1.910394    1.743102
  C     -2.011533   -0.578866    1.506484
  O     -3.344270   -0.992939    1.118149
  C     -3.058428   -2.104332    0.214807
  H     -0.519457    1.784729   -0.311971
  H      0.500768   -0.239946   -0.972114
  H      0.766765   -0.452588    0.765519
  H     -2.948143    0.266250   -0.547635
  H     -0.997652   -2.771289   -0.420123
  H     -1.772617   -2.622734    2.403811
  H     -0.227916   -1.802680    2.018085
  H     -2.073600    0.244757    2.214415
  H     -3.505254   -1.908565   -0.764640
  H     -3.470515   -3.032095    0.624567

 Total Charge           Charge          ....    0
 Multiplicity           Mult            ....    1
 Number of Electrons    NEL             ....   70
 Basis Dimension        Dim             ....  339

ORBITAL ENERGIES
----------------

  NO   OCC          E(Eh)            E(eV)
   0   2.0000     -20.567361      -559.6663
   1   2.0000     -20.566782      -559.6506
   2   2.0000     -20.550936      -559.2194
   3   2.0000     -11.296887      -307.4039
   4   2.0000     -11.293209      -307.3038
   5   2.0000     -11.286283      -307.1154
   6   2.0000     -11.278900      -306.9145
   7   2.0000     -11.251369      -306.1653
   8   2.0000     -11.238977      -305.8281
   9   2.0000      -1.410652       -38.3858
  10   2.0000      -1.370145       -37.2836
  11   2.0000      -1.347792       -36.6753
  12   2.0000      -1.131432       -30.7878
  13   2.0000      -0.994718       -27.0677
  14   2.0000      -0.962246       -26.1840
  15   2.0000      -0.870986       -23.7007
  16   2.0000      -0.806052       -21.9338
  17   2.0000      -0.777853       -21.1665
  18   2.0000      -0.737521       -20.0690
  19   2.0000      -0.702661       -19.1204
  20   2.0000      -0.672499       -18.2996
  21   2.0000      -0.655536       -17.8380
  22   2.0000      -0.628326       -17.0976
  23   2.0000      -0.598000       -16.2724
  24   2.0000      -0.586023       -15.9465
  25   2.0000      -0.565514       -15.3884
  26   2.0000      -0.562708       -15.3121
  27   2.0000      -0.531416       -14.4606
  28   2.0000      -0.518174       -14.1002
  29   2.0000      -0.508445       -13.8355
  30   2.0000      -0.491449       -13.3730
  31   2.0000      -0.474486       -12.9114
  32   2.0000      -0.447595       -12.1797
  33   2.0000      -0.431888       -11.7523
  34   2.0000      -0.402843       -10.9619
  35   0.0000       0.140995         3.8367
  36   0.0000       0.155340         4.2270
  37   0.0000       0.167263         4.5515
  38   0.0000       0.169698         4.6177
  39   0.0000       0.184898         5.0313

MULLIKEN ATOMIC CHARGES
-----------------------
   0 O :   -0.479656
   1 C :   -0.007186
   2 C :    0.054722
   3 O :   -0.496094
   4 C :   -0.057033
   5 C :   -0.317364
   6 C :    0.107767
   7 O :   -0.355750
   8 C :   -0.135395
   9 H :    0.329332
  10 H :    0.104630
  11 H :    0.108338
  12 H :    0.341635
  13 H :    0.145856
  14 H :    0.125682
  15 H :    0.135966
  16 H :    0.141256
  17 H :    0.132558
  18 H :    0.120736
Sum of atomic charges:    0.0000000

LOEWDIN ATOMIC CHARGES
----------------------
   0 O :   -0.042144
   1 C :   -0.308251
   2 C :   -0.339339
   3 O :    0.015876
   4 C :   -0.182618
   5 C :   -0.197672
   6 C :   -0.240132
   7 O :    0.131747
   8 C :   -0.260733
   9 H :    0.178641
  10 H :    0.126708
  11 H :    0.132125
  12 H :    0.186315
  13 H :    0.139722
  14 H :    0.135037
  15 H :    0.138396
  16 H :    0.136425
  17 H :    0.124336
  18 H :    0.125563

  Mayer bond orders larger than 0.1
B(  0-O ,  1-C ) :   0.9391 B(  0-O ,  9-H ) :   0.8276 B(  1-C ,  2-C ) :   0.9662
B(  1-C , 10-H ) :   0.9189 B(  1-C , 11-H ) :   0.9254 B(  2-C ,  3-O ) :   0.9731
B(  2-C ,  4-C ) :   0.8177 B(  2-C ,  6-C ) :   0.9047 B(  3-O , 12-H ) :   0.8093
B(  4-C ,  5-C ) :   0.9051 B(  4-C ,  8-C ) :   0.9096 B(  4-C , 13-H ) :   0.8968
B(  5-C ,  6-C ) :   0.9346 B(  5-C , 14-H ) :   0.9118 B(  5-C , 15-H ) :   0.9268
B(  6-C ,  7-O ) :   0.8794 B(  6-C , 16-H ) :   0.9010 B(  7-O ,  8-C ) :   0.8943
B(  8-C , 17-H ) :   0.9429 B(  8-C , 18-H ) :   0.9202

MP2 TOTAL ENERGY:     -459.414604148 Eh
FINAL SINGLE POINT ENERGY      -459.414604148404

DIPOLE MOMENT
-------------
                                X             Y             Z
Electronic contribution:     -1.65723       2.78403      -0.45093
Nuclear contribution   :      1.53836      -3.64322       0.42386
                        -----------------------------------------
Total Dipole Moment    :     -0.11886      -0.85919      -0.02707
                        -----------------------------------------
Magnitude (a.u.)       :      0.86780
Magnitude (Debye)      :      2.20576

                             ****ORCA TERMINATED NORMALLY****
TOTAL RUN TIME: 0 days 0 hours 16 minutes 37 seconds 319 msec
