                         Program Version 3.0.3 - RELEASE   -
|  1> ! RI-MP2 RIJK def2-TZVP def2-TZVP/C def2-TZVP/JK TIGHTSCF
|  2> % maxcore 2000
|  3> % mp2 density relaxed end
|  4> *xyz 0 1
|  5>  O        0.2423459951     0.0076222419    -0.1861762806
|  6>  C        0.2213890815     1.1965711517    -0.2593004423
|  7>  O        0.9198035678     1.9895974138     0.5829710709
|  8>  C        0.8333083991     3.4035746597     0.4096668656
|  9>  C        2.2300142995     3.9501807869     0.1282611323
| 10>  C        2.2353944358     5.4535090975    -0.0032031474
| 11>  O        1.2573847522     6.1530994584     0.0805782414
| 12>  C        3.5643744745     6.0502863660    -0.2548707330
| 13>  N        4.6102898493     6.5013779427    -0.4530680157
| 14>  H       -0.3590995844     1.7737700838    -1.0057083667
| 15>  H        0.1458856155     3.6558897891    -0.4057608082
| 16>  H        0.4291638594     3.8327913043     1.3298966461
| 17>  H        2.9270305114     3.6631224469     0.9259911188
| 18>  H        2.6465089734     3.5186589874    -0.7916763311
| 19> *
| 20>
| 21>                          ****END OF INPUT****

CARTESIAN COORDINATES (ANGSTROEM)
---------------------------------
  O      0.242346    0.007622   -0.186176
  C      0.221389    1.196571   -0.259300
  O      0.919804    1.989597    0.582971
  C      0.833308    3.403575    0.409667
  C      2.230014    3.950181    0.128261
  C      2.235394    5.453509   -0.003203
  O      1.257385    6.153099    0.080578
  C      3.564374    6.050286   -0.254871
  N      4.610290    6.501378   -0.453068
  H     -0.359100    1.773770   -1.005708
  H      0.145886    3.655890   -0.405761
  H      0.429164    3.832791    1.329897
  H      2.927031    3.663122    0.925991
  H      2.646509    3.518659   -0.791676

 Total Charge           Charge          ....    0
 Multiplicity           Mult            ....    1
 Number of Electrons    NEL             ....   66
 Basis Dimension        Dim             ....  309

ORBITAL ENERGIES
----------------

  NO   OCC          E(Eh)            E(eV)
   0   2.0000     -20.631044      -561.3992
   1   2.0000     -20.621676      -561.1443
   2   2.0000     -20.568120      -559.6870
   3   2.0000     -15.625987      -425.2047
   4   2.0000     -11.420009      -310.7543
   5   2.0000     -11.401458      -310.2494
   6   2.0000     -11.337002      -308.4955
   7   2.0000     -11.312466      -307.8279
   8   2.0000     -11.296379      -307.3901
   9   2.0000      -1.483266       -40.3617
  10   2.0000      -1.465181       -39.8696
  11   2.0000      -1.393642       -37.9229
  12   2.0000      -1.261306       -34.3219
  13   2.0000      -1.116887       -30.3920
  14   2.0000      -0.994897       -27.0725
  15   2.0000      -0.896932       -24.4068
  16   2.0000      -0.865853       -23.5611
  17   2.0000      -0.769632       -20.9428
  18   2.0000      -0.734148       -19.9772
  19   2.0000      -0.719167       -19.5695
  20   2.0000      -0.703728       -19.1494
  21   2.0000      -0.671736       -18.2789
  22   2.0000      -0.657556       -17.8930
  23   2.0000      -0.614543       -16.7226
  24   2.0000      -0.608340       -16.5538
  25   2.0000      -0.583704       -15.8834
  26   2.0000      -0.570619       -15.5273
  27   2.0000      -0.546147       -14.8614
  28   2.0000      -0.517380       -14.0786
  29   2.0000      -0.505481       -13.7548
  30   2.0000      -0.504687       -13.7332
  31   2.0000      -0.477942       -13.0055
  32   2.0000      -0.475639       -12.9428
  33   0.0000       0.044172         1.2020
  34   0.0000       0.104082         2.8322
  35   0.0000       0.128901         3.5076
  36   0.0000       0.138930         3.7805
  37   0.0000       0.150701         4.1008

MULLIKEN ATOMIC CHARGES
-----------------------
   0 O :   -0.258166
   1 C :    0.199366
   2 O :   -0.207950
   3 C :   -0.080921
   4 C :   -0.243557
   5 C :    0.292756
   6 O :   -0.235212
   7 C :   -0.140231
   8 N :   -0.028511
   9 H :    0.077844
  10 H :    0.129540
  11 H :    0.150087
  12 H :    0.177466
  13 H :    0.167490
Sum of atomic charges:    0.0000000

LOEWDIN ATOMIC CHARGES
----------------------
   0 O :    0.131764
   1 C :   -0.447915
   2 O :    0.244418
   3 C :   -0.283177
   4 C :   -0.225762
   5 C :   -0.317617
   6 O :    0.212385
   7 C :   -0.133171
   8 N :    0.109249
   9 H :    0.103127
  10 H :    0.131052
  11 H :    0.139193
  12 H :    0.169755
  13 H :    0.166700

  Mayer bond orders larger than 0.1
B(  0-O ,  1-C ) :   2.0322 B(  1-C ,  2-O ) :   1.0526 B(  1-C ,  9-H ) :   0.9155
B(  2-O ,  3-C ) :   0.8819 B(  3-C ,  4-C ) :   0.9292 B(  3-C , 10-H ) :   0.9429
B(  3-C , 11-H ) :   0.9266 B(  4-C ,  5-C ) :   0.9296 B(  4-C , 12-H ) :   0.8925
B(  4-C , 13-H ) :   0.8964 B(  5-C ,  6-O ) :   1.9532 B(  5-C ,  7-C ) :   0.8984
B(  7-C ,  8-N ) :   2.7852

MP2 TOTAL ENERGY:     -473.097711713 Eh
FINAL SINGLE POINT ENERGY      -473.097711712877

DIPOLE MOMENT
-------------
                                X             Y             Z
Electronic contribution:      2.13453       2.57326      -0.10814
Nuclear contribution   :     -2.64741      -2.27919      -0.00531
                        -----------------------------------------
Total Dipole Moment    :     -0.51288       0.29407      -0.11345
                        -----------------------------------------
Magnitude (a.u.)       :      0.60199
Magnitude (Debye)      :      1.53014

                             ****ORCA TERMINATED NORMALLY****
TOTAL RUN TIME: 0 days 0 hours 11 minutes 14 seconds 737 msec
