                         Program Version 3.0.3 - RELEASE   -
|  1> ! RI-MP2 RIJK def2-TZVP def2-TZVP/C def2-TZVP/JK TIGHTSCF
|  2> % maxcore 2000
|  3> % mp2 density relaxed end
|  4> *xyz 0 1
|  5>  C        0.0570954965     1.6712268148     0.4020596994
|  6>  C        0.0192904357     0.1601414605     0.3986558341
|  7>  C        1.1040680165    -0.7112882405    -0.1866586371
|  8>  O        2.3976569146    -0.1279167268    -0.0063693020
|  9>  C        2.2755486361    -0.2430340107     1.4376024381
| 10>  C        0.8427698634    -0.7445900353     1.2962697360
| 11>  O        0.3205489141    -1.7717870879     2.0822131224
| 12>  C       -0.5641396634    -1.4173247831     3.0503681916
| 13>  O       -1.0465650641    -2.2147149202     3.7924843095
| 14>  H        1.0875872725     2.0341079811     0.4125083861
| 15>  H       -0.4206717425     2.0648283153    -0.5006584452
| 16>  H       -0.4682438065     2.0874309630     1.2679081434
| 17>  H       -0.9593923138    -0.2843806110     0.2203513860
| 18>  H        0.9742371138    -1.4397453199    -0.9777250170
| 19>  H        2.9482496294    -1.0168497889     1.8220214484
| 20>  H        2.4511458614     0.7062780663     1.9551024664
| 21>  H       -0.7737775234    -0.3323572567     3.0551270599
| 22> *
| 23>
| 24>                          ****END OF INPUT****

CARTESIAN COORDINATES (ANGSTROEM)
---------------------------------
  C      0.057095    1.671227    0.402060
  C      0.019290    0.160141    0.398656
  C      1.104068   -0.711288   -0.186659
  O      2.397657   -0.127917   -0.006369
  C      2.275549   -0.243034    1.437602
  C      0.842770   -0.744590    1.296270
  O      0.320549   -1.771787    2.082213
  C     -0.564140   -1.417325    3.050368
  O     -1.046565   -2.214715    3.792484
  H      1.087587    2.034108    0.412508
  H     -0.420672    2.064828   -0.500658
  H     -0.468244    2.087431    1.267908
  H     -0.959392   -0.284381    0.220351
  H      0.974237   -1.439745   -0.977725
  H      2.948250   -1.016850    1.822021
  H      2.451146    0.706278    1.955102
  H     -0.773778   -0.332357    3.055127

 Total Charge           Charge          ....    0
 Multiplicity           Mult            ....    1
 Number of Electrons    NEL             ....   68
 Basis Dimension        Dim             ....  327

ORBITAL ENERGIES
----------------

  NO   OCC          E(Eh)            E(eV)
   0   2.0000     -20.626533      -561.2765
   1   2.0000     -20.575684      -559.8928
   2   2.0000     -20.563626      -559.5647
   3   2.0000     -11.394140      -310.0503
   4   2.0000     -11.319768      -308.0265
   5   2.0000     -11.307363      -307.6890
   6   2.0000     -11.304464      -307.6101
   7   2.0000     -11.267327      -306.5995
   8   2.0000     -11.237133      -305.7779
   9   2.0000      -1.479350       -40.2552
  10   2.0000      -1.415815       -38.5263
  11   2.0000      -1.385714       -37.7072
  12   2.0000      -1.145787       -31.1784
  13   2.0000      -0.999952       -27.2101
  14   2.0000      -0.966226       -26.2923
  15   2.0000      -0.883418       -24.0390
  16   2.0000      -0.809642       -22.0315
  17   2.0000      -0.802620       -21.8404
  18   2.0000      -0.756652       -20.5895
  19   2.0000      -0.688003       -18.7215
  20   2.0000      -0.675951       -18.3936
  21   2.0000      -0.671221       -18.2648
  22   2.0000      -0.632194       -17.2029
  23   2.0000      -0.618703       -16.8358
  24   2.0000      -0.596423       -16.2295
  25   2.0000      -0.588682       -16.0189
  26   2.0000      -0.568517       -15.4701
  27   2.0000      -0.534116       -14.5340
  28   2.0000      -0.527599       -14.3567
  29   2.0000      -0.517196       -14.0736
  30   2.0000      -0.481133       -13.0923
  31   2.0000      -0.470264       -12.7965
  32   2.0000      -0.419361       -11.4114
  33   2.0000      -0.395953       -10.7744
  34   0.0000       0.125122         3.4047
  35   0.0000       0.132124         3.5953
  36   0.0000       0.155300         4.2259
  37   0.0000       0.162942         4.4339
  38   0.0000       0.169754         4.6193

MULLIKEN ATOMIC CHARGES
-----------------------
   0 C :   -0.397762
   1 C :   -0.139210
   2 C :    0.044173
   3 O :   -0.329035
   4 C :   -0.030809
   5 C :    0.048748
   6 O :   -0.201231
   7 C :    0.193444
   8 O :   -0.253042
   9 H :    0.157693
  10 H :    0.141364
  11 H :    0.132383
  12 H :    0.141979
  13 H :    0.151009
  14 H :    0.125805
  15 H :    0.120100
  16 H :    0.094390
Sum of atomic charges:    0.0000000

LOEWDIN ATOMIC CHARGES
----------------------
   0 C :   -0.288104
   1 C :   -0.205651
   2 C :   -0.202978
   3 O :    0.152720
   4 C :   -0.217545
   5 C :   -0.298929
   6 O :    0.290204
   7 C :   -0.426381
   8 O :    0.133965
   9 H :    0.134434
  10 H :    0.130863
  11 H :    0.125381
  12 H :    0.167111
  13 H :    0.137854
  14 H :    0.134303
  15 H :    0.122449
  16 H :    0.110304

  Mayer bond orders larger than 0.1
B(  0-C ,  1-C ) :   0.8904 B(  0-C ,  9-H ) :   0.9307 B(  0-C , 10-H ) :   0.9331
B(  0-C , 11-H ) :   0.9356 B(  1-C ,  2-C ) :   0.8676 B(  1-C ,  5-C ) :   0.8780
B(  1-C , 12-H ) :   0.9215 B(  2-C ,  3-O ) :   0.9559 B(  2-C ,  5-C ) :   0.9198
B(  2-C , 13-H ) :   0.9059 B(  3-O ,  4-C ) :   0.9185 B(  4-C ,  5-C ) :   0.9776
B(  4-C , 14-H ) :   0.9011 B(  4-C , 15-H ) :   0.9176 B(  5-C ,  6-O ) :   0.9391
B(  6-O ,  7-C ) :   1.0152 B(  7-C ,  8-O ) :   2.0485 B(  7-C , 16-H ) :   0.9174

MP2 TOTAL ENERGY:     -458.188349966 Eh
FINAL SINGLE POINT ENERGY      -458.188349965875

DIPOLE MOMENT
-------------
                                X             Y             Z
Electronic contribution:     -0.07919      -7.09118       3.12398
Nuclear contribution   :      0.05822       8.08362      -3.59854
                        -----------------------------------------
Total Dipole Moment    :     -0.02098       0.99244      -0.47456
                        -----------------------------------------
Magnitude (a.u.)       :      1.10027
Magnitude (Debye)      :      2.79665

                             ****ORCA TERMINATED NORMALLY****
TOTAL RUN TIME: 0 days 0 hours 14 minutes 40 seconds 521 msec
