                         Program Version 3.0.3 - RELEASE   -
|  1> ! RI-MP2 RIJK def2-TZVP def2-TZVP/C def2-TZVP/JK TIGHTSCF
|  2> % maxcore 2000
|  3> % mp2 density relaxed end
|  4> *xyz 0 1
|  5>  C        0.0247932388     1.5561310000     0.1806162123
|  6>  C        0.0233741376     0.0633746923     0.0315344510
|  7>  C        0.0154066375    -0.5666631834    -1.1590410918
|  8>  C        0.0558935949    -2.0859997538    -1.2544821975
|  9>  O        0.3848746456    -2.7225717131    -0.0410183890
| 10>  C       -0.3509420736    -2.2003938914     1.0495497689
| 11>  C        0.0354649757    -0.7448774866     1.3064997786
| 12>  C       -0.0450258317     0.1061112767    -2.4095279873
| 13>  C       -0.0970409399     0.6007531658    -3.5082601174
| 14>  H        0.8831779186     1.8821909661     0.7824455307
| 15>  H        0.0654781035     2.0624179814    -0.7851247510
| 16>  H       -0.8733169773     1.8941602613     0.7138240413
| 17>  H       -0.9151700347    -2.4491077753    -1.6365624054
| 18>  H        0.8189413286    -2.3874641576    -1.9793017954
| 19>  H       -1.4334270111    -2.2731091242     0.8519866841
| 20>  H       -0.1216666958    -2.8334926219     1.9110420616
| 21>  H        1.0338780857    -0.6961256483     1.7639782935
| 22>  H       -0.6545807942    -0.2981309399     2.0348797662
| 23>  H       -0.1443002280     1.0550527619    -4.4667072835
| 24> *
| 25>
| 26>                          ****END OF INPUT****

CARTESIAN COORDINATES (ANGSTROEM)
---------------------------------
  C      0.024793    1.556131    0.180616
  C      0.023374    0.063375    0.031534
  C      0.015407   -0.566663   -1.159041
  C      0.055894   -2.086000   -1.254482
  O      0.384875   -2.722572   -0.041018
  C     -0.350942   -2.200394    1.049550
  C      0.035465   -0.744877    1.306500
  C     -0.045026    0.106111   -2.409528
  C     -0.097041    0.600753   -3.508260
  H      0.883178    1.882191    0.782446
  H      0.065478    2.062418   -0.785125
  H     -0.873317    1.894160    0.713824
  H     -0.915170   -2.449108   -1.636562
  H      0.818941   -2.387464   -1.979302
  H     -1.433427   -2.273109    0.851987
  H     -0.121667   -2.833493    1.911042
  H      1.033878   -0.696126    1.763978
  H     -0.654581   -0.298131    2.034880
  H     -0.144300    1.055053   -4.466707

 Total Charge           Charge          ....    0
 Multiplicity           Mult            ....    1
 Number of Electrons    NEL             ....   66
 Basis Dimension        Dim             ....  339

ORBITAL ENERGIES
----------------

  NO   OCC          E(Eh)            E(eV)
   0   2.0000     -20.557195      -559.3897
   1   2.0000     -11.281930      -306.9969
   2   2.0000     -11.278839      -306.9128
   3   2.0000     -11.254459      -306.2494
   4   2.0000     -11.248277      -306.0812
   5   2.0000     -11.236988      -305.7740
   6   2.0000     -11.235099      -305.7226
   7   2.0000     -11.226410      -305.4862
   8   2.0000     -11.226094      -305.4775
   9   2.0000      -1.382272       -37.6135
  10   2.0000      -1.126972       -30.6665
  11   2.0000      -1.056677       -28.7536
  12   2.0000      -1.005250       -27.3542
  13   2.0000      -0.969330       -26.3768
  14   2.0000      -0.890909       -24.2429
  15   2.0000      -0.852109       -23.1871
  16   2.0000      -0.767495       -20.8846
  17   2.0000      -0.701551       -19.0902
  18   2.0000      -0.678869       -18.4730
  19   2.0000      -0.657645       -17.8954
  20   2.0000      -0.654157       -17.8005
  21   2.0000      -0.611886       -16.6503
  22   2.0000      -0.588798       -16.0220
  23   2.0000      -0.571950       -15.5635
  24   2.0000      -0.550445       -14.9784
  25   2.0000      -0.541691       -14.7402
  26   2.0000      -0.530385       -14.4325
  27   2.0000      -0.503245       -13.6940
  28   2.0000      -0.467358       -12.7175
  29   2.0000      -0.441432       -12.0120
  30   2.0000      -0.424000       -11.5376
  31   2.0000      -0.388145       -10.5620
  32   2.0000      -0.322461        -8.7746
  33   0.0000       0.115087         3.1317
  34   0.0000       0.135434         3.6854
  35   0.0000       0.159291         4.3345
  36   0.0000       0.161047         4.3823
  37   0.0000       0.173103         4.7104

MULLIKEN ATOMIC CHARGES
-----------------------
   0 C :   -0.439546
   1 C :   -0.012446
   2 C :   -0.200543
   3 C :   -0.090590
   4 O :   -0.310215
   5 C :   -0.054170
   6 C :   -0.190403
   7 C :    0.095211
   8 C :   -0.136742
   9 H :    0.139084
  10 H :    0.155266
  11 H :    0.138949
  12 H :    0.114335
  13 H :    0.136838
  14 H :    0.095339
  15 H :    0.129160
  16 H :    0.121156
  17 H :    0.119818
  18 H :    0.189500
Sum of atomic charges:   -0.0000000

LOEWDIN ATOMIC CHARGES
----------------------
   0 C :   -0.261865
   1 C :   -0.143499
   2 C :   -0.150930
   3 C :   -0.267018
   4 O :    0.164482
   5 C :   -0.307332
   6 C :   -0.229211
   7 C :   -0.075776
   8 C :   -0.084499
   9 H :    0.133900
  10 H :    0.136914
  11 H :    0.132375
  12 H :    0.131033
  13 H :    0.142782
  14 H :    0.123912
  15 H :    0.129761
  16 H :    0.149314
  17 H :    0.148249
  18 H :    0.127409

  Mayer bond orders larger than 0.1
B(  0-C ,  1-C ) :   0.8996 B(  0-C ,  9-H ) :   0.9287 B(  0-C , 10-H ) :   0.9449
B(  0-C , 11-H ) :   0.9349 B(  1-C ,  2-C ) :   1.6682 B(  1-C ,  6-C ) :   0.9485
B(  2-C ,  3-C ) :   0.9582 B(  2-C ,  7-C ) :   1.1390 B(  2-C ,  8-C ) :  -0.1444
B(  3-C ,  4-O ) :   0.9646 B(  3-C , 12-H ) :   0.9513 B(  3-C , 13-H ) :   0.9157
B(  4-O ,  5-C ) :   0.9117 B(  5-C ,  6-C ) :   0.9540 B(  5-C , 14-H ) :   0.9317
B(  5-C , 15-H ) :   0.9319 B(  6-C , 16-H ) :   0.8978 B(  6-C , 17-H ) :   0.9212
B(  7-C ,  8-C ) :   2.5757 B(  8-C , 18-H ) :   0.8888

MP2 TOTAL ENERGY:     -385.182716022 Eh
FINAL SINGLE POINT ENERGY      -385.182716022440

DIPOLE MOMENT
-------------
                                X             Y             Z
Electronic contribution:      1.00249      -2.42962      -4.39085
Nuclear contribution   :     -1.30971       2.85233       4.67730
                        -----------------------------------------
Total Dipole Moment    :     -0.30723       0.42271       0.28645
                        -----------------------------------------
Magnitude (a.u.)       :      0.59592
Magnitude (Debye)      :      1.51471

                             ****ORCA TERMINATED NORMALLY****
TOTAL RUN TIME: 0 days 0 hours 27 minutes 10 seconds 896 msec
