                         Program Version 3.0.3 - RELEASE   -
|  1> ! RI-MP2 RIJK def2-TZVP def2-TZVP/C def2-TZVP/JK TIGHTSCF
|  2> % maxcore 2000
|  3> % mp2 density relaxed end
|  4> *xyz 0 1
|  5>  C        0.3883816390     1.6626814529    -0.0869031143
|  6>  C       -0.0286157886     0.1936516557     0.0572914842
|  7>  C        0.2426655408    -0.5760596415    -1.2443636415
|  8>  O       -0.3904431980    -1.8514342134    -1.2201418138
|  9>  C        0.4164105151    -2.9080040297    -0.7764783057
| 10>  O        1.1743633891    -2.6095823147     0.3607682604
| 11>  C        0.4621248061    -1.9648410609     1.4270304669
| 12>  C        1.0383041992    -2.4965387258     2.7347923886
| 13>  C        0.6382409533    -0.4457192545     1.2880002630
| 14>  H        1.4651624235     1.7511438831    -0.2742037356
| 15>  H       -0.1356177184     2.1473673218    -0.9174608906
| 16>  H        0.1659556806     2.2277289656     0.8237411505
| 17>  H       -1.1173885227     0.1537984858     0.2003607793
| 18>  H       -0.1952340668    -0.0329499083    -2.0894536627
| 19>  H        1.3218110451    -0.6742861802    -1.4288517221
| 20>  H       -0.2850141134    -3.7375710397    -0.5988356051
| 21>  H        1.1565049569    -3.2034662519    -1.5357312131
| 22>  H       -0.6039835460    -2.2256984413     1.3637161433
| 23>  H        2.1058390793    -2.2641110509     2.8040820344
| 24>  H        0.5306288551    -2.0491225348     3.5947616742
| 25>  H        0.9229885157    -3.5824431708     2.7890506086
| 26>  H        1.7191956662    -0.2507447388     1.2605173982
| 27>  H        0.2546500589     0.0441919623     2.1919520630
| 28> *
| 29>
| 30>                          ****END OF INPUT****

CARTESIAN COORDINATES (ANGSTROEM)
---------------------------------
  C      0.388382    1.662681   -0.086903
  C     -0.028616    0.193652    0.057291
  C      0.242666   -0.576060   -1.244364
  O     -0.390443   -1.851434   -1.220142
  C      0.416411   -2.908004   -0.776478
  O      1.174363   -2.609582    0.360768
  C      0.462125   -1.964841    1.427030
  C      1.038304   -2.496539    2.734792
  C      0.638241   -0.445719    1.288000
  H      1.465162    1.751144   -0.274204
  H     -0.135618    2.147367   -0.917461
  H      0.165956    2.227729    0.823741
  H     -1.117389    0.153798    0.200361
  H     -0.195234   -0.032950   -2.089454
  H      1.321811   -0.674286   -1.428852
  H     -0.285014   -3.737571   -0.598836
  H      1.156505   -3.203466   -1.535731
  H     -0.603984   -2.225698    1.363716
  H      2.105839   -2.264111    2.804082
  H      0.530629   -2.049123    3.594762
  H      0.922989   -3.582443    2.789051
  H      1.719196   -0.250745    1.260517
  H      0.254650    0.044192    2.191952

 Total Charge           Charge          ....    0
 Multiplicity           Mult            ....    1
 Number of Electrons    NEL             ....   72
 Basis Dimension        Dim             ....  363

ORBITAL ENERGIES
----------------

  NO   OCC          E(Eh)            E(eV)
   0   2.0000     -20.554253      -559.3097
   1   2.0000     -20.552794      -559.2700
   2   2.0000     -11.322561      -308.1025
   3   2.0000     -11.279075      -306.9192
   4   2.0000     -11.271256      -306.7065
   5   2.0000     -11.227403      -305.5132
   6   2.0000     -11.218823      -305.2797
   7   2.0000     -11.217221      -305.2361
   8   2.0000     -11.213127      -305.1247
   9   2.0000      -1.413168       -38.4542
  10   2.0000      -1.339643       -36.4535
  11   2.0000      -1.096261       -29.8308
  12   2.0000      -1.027351       -27.9556
  13   2.0000      -0.949564       -25.8389
  14   2.0000      -0.929221       -25.2854
  15   2.0000      -0.872753       -23.7488
  16   2.0000      -0.788839       -21.4654
  17   2.0000      -0.783024       -21.3072
  18   2.0000      -0.698355       -19.0032
  19   2.0000      -0.686231       -18.6733
  20   2.0000      -0.659090       -17.9348
  21   2.0000      -0.628544       -17.1036
  22   2.0000      -0.606529       -16.5045
  23   2.0000      -0.586793       -15.9674
  24   2.0000      -0.564134       -15.3509
  25   2.0000      -0.554899       -15.0996
  26   2.0000      -0.546360       -14.8672
  27   2.0000      -0.534886       -14.5550
  28   2.0000      -0.526524       -14.3274
  29   2.0000      -0.518041       -14.0966
  30   2.0000      -0.480655       -13.0793
  31   2.0000      -0.476694       -12.9715
  32   2.0000      -0.458115       -12.4660
  33   2.0000      -0.454291       -12.3619
  34   2.0000      -0.435377       -11.8472
  35   2.0000      -0.406400       -11.0587
  36   0.0000       0.137509         3.7418
  37   0.0000       0.151874         4.1327
  38   0.0000       0.165832         4.5125
  39   0.0000       0.171447         4.6653
  40   0.0000       0.192859         5.2480

MULLIKEN ATOMIC CHARGES
-----------------------
   0 C :   -0.407567
   1 C :   -0.020526
   2 C :   -0.075245
   3 O :   -0.324500
   4 C :    0.097069
   5 O :   -0.323119
   6 C :    0.089168
   7 C :   -0.364417
   8 C :   -0.276049
   9 H :    0.127281
  10 H :    0.134997
  11 H :    0.134281
  12 H :    0.082568
  13 H :    0.123883
  14 H :    0.104413
  15 H :    0.098609
  16 H :    0.099951
  17 H :    0.089880
  18 H :    0.128672
  19 H :    0.122405
  20 H :    0.134507
  21 H :    0.105891
  22 H :    0.117848
Sum of atomic charges:   -0.0000000

LOEWDIN ATOMIC CHARGES
----------------------
   0 C :   -0.293348
   1 C :   -0.289574
   2 C :   -0.287769
   3 O :    0.152089
   4 C :   -0.419605
   5 O :    0.173526
   6 C :   -0.330217
   7 C :   -0.293483
   8 C :   -0.231897
   9 H :    0.124147
  10 H :    0.123508
  11 H :    0.125037
  12 H :    0.154136
  13 H :    0.130122
  14 H :    0.128324
  15 H :    0.112903
  16 H :    0.113243
  17 H :    0.142265
  18 H :    0.126791
  19 H :    0.124598
  20 H :    0.125097
  21 H :    0.145689
  22 H :    0.144417

  Mayer bond orders larger than 0.1
B(  0-C ,  1-C ) :   0.9050 B(  0-C ,  9-H ) :   0.9305 B(  0-C , 10-H ) :   0.9416
B(  0-C , 11-H ) :   0.9383 B(  1-C ,  2-C ) :   0.9337 B(  1-C ,  8-C ) :   0.9457
B(  1-C , 12-H ) :   0.9216 B(  2-C ,  3-O ) :   0.8884 B(  2-C , 13-H ) :   0.9291
B(  2-C , 14-H ) :   0.9270 B(  3-O ,  4-C ) :   0.9595 B(  4-C ,  5-O ) :   0.9639
B(  4-C , 15-H ) :   0.9304 B(  4-C , 16-H ) :   0.9325 B(  5-O ,  6-C ) :   0.8560
B(  6-C ,  7-C ) :   0.9108 B(  6-C ,  8-C ) :   0.9283 B(  6-C , 17-H ) :   0.9363
B(  7-C , 18-H ) :   0.9327 B(  7-C , 19-H ) :   0.9370 B(  7-C , 20-H ) :   0.9401
B(  8-C , 21-H ) :   0.9148 B(  8-C , 22-H ) :   0.9270

MP2 TOTAL ENERGY:     -424.736249265 Eh
FINAL SINGLE POINT ENERGY      -424.736249264903

DIPOLE MOMENT
-------------
                                X             Y             Z
Electronic contribution:     -1.05257      -4.98338      -3.85374
Nuclear contribution   :      1.01780       5.30658       4.09257
                        -----------------------------------------
Total Dipole Moment    :     -0.03477       0.32320       0.23883
                        -----------------------------------------
Magnitude (a.u.)       :      0.40336
Magnitude (Debye)      :      1.02527

                             ****ORCA TERMINATED NORMALLY****
TOTAL RUN TIME: 0 days 0 hours 19 minutes 30 seconds 782 msec
