                         Program Version 3.0.3 - RELEASE   -
|  1> ! RI-MP2 RIJK def2-TZVP def2-TZVP/C def2-TZVP/JK TIGHTSCF
|  2> % maxcore 2000
|  3> % mp2 density relaxed end
|  4> *xyz 0 1
|  5>  N        0.1091551190     1.4772719177    -0.0996167236
|  6>  C        0.0250545052     0.0251915450    -0.0330939956
|  7>  C        0.1307071581    -0.5098389953     1.4310062028
|  8>  N       -1.3295193046    -0.7814768407     1.4368877054
|  9>  C       -1.3862077300    -0.6356304019    -0.0204382512
| 10>  C       -2.5823352953    -0.2470789751    -0.8245541690
| 11>  C       -1.9453008045    -1.6170907373    -1.0012955755
| 12>  C        0.9560691943    -0.5619275390    -0.9943288453
| 13>  N        1.6553831126    -1.0507672114    -1.7741572684
| 14>  H       -0.1108064000     1.8017638578    -1.0373892308
| 15>  H       -0.5918386879     1.8723712501     0.5215736217
| 16>  H        0.7693895836    -1.3948785682     1.5138448315
| 17>  H        0.4542832780     0.2444199426     2.1539786819
| 18>  H       -1.5770519508    -1.7054684775     1.7743632913
| 19>  H       -3.5334112522    -0.1902307182    -0.3051871675
| 20>  H       -2.4585229593     0.4826788312    -1.6192850038
| 21>  H       -1.3859723649    -1.8175440646    -1.9098438342
| 22>  H       -2.4792713911    -2.4761288151    -0.6055450297
| 23> *
| 24>
| 25>                          ****END OF INPUT****

CARTESIAN COORDINATES (ANGSTROEM)
---------------------------------
  N      0.109155    1.477272   -0.099617
  C      0.025055    0.025192   -0.033094
  C      0.130707   -0.509839    1.431006
  N     -1.329519   -0.781477    1.436888
  C     -1.386208   -0.635630   -0.020438
  C     -2.582335   -0.247079   -0.824554
  C     -1.945301   -1.617091   -1.001296
  C      0.956069   -0.561928   -0.994329
  N      1.655383   -1.050767   -1.774157
  H     -0.110806    1.801764   -1.037389
  H     -0.591839    1.872371    0.521574
  H      0.769390   -1.394879    1.513845
  H      0.454283    0.244420    2.153979
  H     -1.577052   -1.705468    1.774363
  H     -3.533411   -0.190231   -0.305187
  H     -2.458523    0.482679   -1.619285
  H     -1.385972   -1.817544   -1.909844
  H     -2.479271   -2.476129   -0.605545

 Total Charge           Charge          ....    0
 Multiplicity           Mult            ....    1
 Number of Electrons    NEL             ....   66
 Basis Dimension        Dim             ....  333

ORBITAL ENERGIES
----------------

  NO   OCC          E(Eh)            E(eV)
   0   2.0000     -15.573649      -423.7805
   1   2.0000     -15.571626      -423.7255
   2   2.0000     -15.566720      -423.5920
   3   2.0000     -11.321255      -308.0670
   4   2.0000     -11.288191      -307.1673
   5   2.0000     -11.279871      -306.9409
   6   2.0000     -11.273394      -306.7647
   7   2.0000     -11.243224      -305.9437
   8   2.0000     -11.240418      -305.8673
   9   2.0000      -1.285444       -34.9787
  10   2.0000      -1.221056       -33.2266
  11   2.0000      -1.193256       -32.4702
  12   2.0000      -1.130581       -30.7647
  13   2.0000      -0.994326       -27.0570
  14   2.0000      -0.889329       -24.1999
  15   2.0000      -0.847156       -23.0523
  16   2.0000      -0.813091       -22.1253
  17   2.0000      -0.716676       -19.5017
  18   2.0000      -0.692913       -18.8551
  19   2.0000      -0.671966       -18.2851
  20   2.0000      -0.656824       -17.8731
  21   2.0000      -0.616658       -16.7801
  22   2.0000      -0.577047       -15.7023
  23   2.0000      -0.567784       -15.4502
  24   2.0000      -0.559234       -15.2175
  25   2.0000      -0.536931       -14.6106
  26   2.0000      -0.528271       -14.3750
  27   2.0000      -0.503830       -13.7099
  28   2.0000      -0.468203       -12.7405
  29   2.0000      -0.463420       -12.6103
  30   2.0000      -0.440650       -11.9907
  31   2.0000      -0.403219       -10.9721
  32   2.0000      -0.375447       -10.2164
  33   0.0000       0.120943         3.2910
  34   0.0000       0.135906         3.6982
  35   0.0000       0.152209         4.1418
  36   0.0000       0.167404         4.5553
  37   0.0000       0.173114         4.7107

MULLIKEN ATOMIC CHARGES
-----------------------
   0 N :   -0.535611
   1 C :    0.392446
   2 C :   -0.189267
   3 N :   -0.317667
   4 C :   -0.026291
   5 C :   -0.250562
   6 C :   -0.274353
   7 C :   -0.256385
   8 N :   -0.044239
   9 H :    0.237470
  10 H :    0.243209
  11 H :    0.139936
  12 H :    0.122908
  13 H :    0.209872
  14 H :    0.133952
  15 H :    0.128694
  16 H :    0.152138
  17 H :    0.133750
Sum of atomic charges:    0.0000000

LOEWDIN ATOMIC CHARGES
----------------------
   0 N :   -0.092513
   1 C :   -0.294664
   2 C :   -0.198076
   3 N :    0.023699
   4 C :   -0.259719
   5 C :   -0.207233
   6 C :   -0.201940
   7 C :   -0.147310
   8 N :    0.070995
   9 H :    0.163607
  10 H :    0.169526
  11 H :    0.130912
  12 H :    0.128656
  13 H :    0.163366
  14 H :    0.138866
  15 H :    0.134137
  16 H :    0.141649
  17 H :    0.136040

  Mayer bond orders larger than 0.1
B(  0-N ,  1-C ) :   0.8964 B(  0-N ,  9-H ) :   0.8854 B(  0-N , 10-H ) :   0.8910
B(  1-C ,  2-C ) :   0.8415 B(  1-C ,  4-C ) :   0.8567 B(  1-C ,  7-C ) :   0.9094
B(  2-C ,  3-N ) :   0.9720 B(  2-C , 11-H ) :   0.9127 B(  2-C , 12-H ) :   0.9101
B(  3-N ,  4-C ) :   0.9826 B(  3-N , 13-H ) :   0.8745 B(  4-C ,  5-C ) :   0.8468
B(  4-C ,  6-C ) :   0.8529 B(  5-C ,  6-C ) :   0.8997 B(  5-C , 14-H ) :   0.9166
B(  5-C , 15-H ) :   0.9244 B(  6-C , 16-H ) :   0.9048 B(  6-C , 17-H ) :   0.9155
B(  7-C ,  8-N ) :   2.8675

MP2 TOTAL ENERGY:     -397.403046945 Eh
FINAL SINGLE POINT ENERGY      -397.403046944695

DIPOLE MOMENT
-------------
                                X             Y             Z
Electronic contribution:      4.72777      -0.44185      -1.39306
Nuclear contribution   :     -5.93705       0.49975       2.03103
                        -----------------------------------------
Total Dipole Moment    :     -1.20927       0.05791       0.63797
                        -----------------------------------------
Magnitude (a.u.)       :      1.36846
Magnitude (Debye)      :      3.47836

                             ****ORCA TERMINATED NORMALLY****
TOTAL RUN TIME: 0 days 0 hours 18 minutes 30 seconds 468 msec
