                         Program Version 3.0.3 - RELEASE   -
|  1> ! RI-MP2 RIJK def2-TZVP def2-TZVP/C def2-TZVP/JK TIGHTSCF
|  2> % maxcore 2000
|  3> % mp2 density relaxed end
|  4> *xyz 0 1
|  5>  C        0.3015992296     1.3956491914    -0.0560036986
|  6>  C       -0.1686476270    -0.0423277004     0.0869548664
|  7>  O        0.1363566683    -0.8335245527    -1.0430629491
|  8>  C        1.3047277276    -1.5815017193    -0.7491818523
|  9>  C        1.3877346099    -1.5703389336     0.7612439850
| 10>  N        2.1641185841    -2.2650673415     1.4687391094
| 11>  O        0.4692667552    -0.6685021247     1.2086239290
| 12>  H        1.3831439361     1.4325393458    -0.2162124289
| 13>  H       -0.1980681612     1.8604865317    -0.9100745146
| 14>  H        0.0602673752     1.9631225663     0.8469134126
| 15>  H       -1.2507966526    -0.0929174276     0.2524489139
| 16>  H        1.1985719553    -2.5953093528    -1.1419090133
| 17>  H        2.2060470470    -1.1302439333    -1.1873910665
| 18>  H        2.0365994326    -2.0619047494     2.4609073770
| 19> *
| 20>
| 21>                          ****END OF INPUT****

CARTESIAN COORDINATES (ANGSTROEM)
---------------------------------
  C      0.301599    1.395649   -0.056004
  C     -0.168648   -0.042328    0.086955
  O      0.136357   -0.833525   -1.043063
  C      1.304728   -1.581502   -0.749182
  C      1.387735   -1.570339    0.761244
  N      2.164119   -2.265067    1.468739
  O      0.469267   -0.668502    1.208624
  H      1.383144    1.432539   -0.216212
  H     -0.198068    1.860487   -0.910075
  H      0.060267    1.963123    0.846913
  H     -1.250797   -0.092917    0.252449
  H      1.198572   -2.595309   -1.141909
  H      2.206047   -1.130244   -1.187391
  H      2.036599   -2.061905    2.460907

 Total Charge           Charge          ....    0
 Multiplicity           Mult            ....    1
 Number of Electrons    NEL             ....   54
 Basis Dimension        Dim             ....  259

ORBITAL ENERGIES
----------------

  NO   OCC          E(Eh)            E(eV)
   0   2.0000     -20.606843      -560.7407
   1   2.0000     -20.584058      -560.1207
   2   2.0000     -15.540162      -422.8693
   3   2.0000     -11.359013      -309.0945
   4   2.0000     -11.347097      -308.7702
   5   2.0000     -11.302914      -307.5679
   6   2.0000     -11.234641      -305.7101
   7   2.0000      -1.478674       -40.2368
   8   2.0000      -1.372331       -37.3430
   9   2.0000      -1.206901       -32.8414
  10   2.0000      -1.048914       -28.5424
  11   2.0000      -0.971306       -26.4306
  12   2.0000      -0.859276       -23.3821
  13   2.0000      -0.812292       -22.1036
  14   2.0000      -0.728623       -19.8268
  15   2.0000      -0.700354       -19.0576
  16   2.0000      -0.686591       -18.6831
  17   2.0000      -0.623206       -16.9583
  18   2.0000      -0.610463       -16.6115
  19   2.0000      -0.586749       -15.9663
  20   2.0000      -0.562961       -15.3189
  21   2.0000      -0.547429       -14.8963
  22   2.0000      -0.543227       -14.7820
  23   2.0000      -0.534831       -14.5535
  24   2.0000      -0.447308       -12.1719
  25   2.0000      -0.439770       -11.9667
  26   2.0000      -0.407574       -11.0906
  27   0.0000       0.132805         3.6138
  28   0.0000       0.163372         4.4456
  29   0.0000       0.167310         4.5527
  30   0.0000       0.176273         4.7966
  31   0.0000       0.183276         4.9872

MULLIKEN ATOMIC CHARGES
-----------------------
   0 C :   -0.388784
   1 C :    0.241286
   2 O :   -0.323837
   3 C :   -0.004287
   4 C :    0.102799
   5 N :   -0.377113
   6 O :   -0.265486
   7 H :    0.132439
   8 H :    0.139446
   9 H :    0.138263
  10 H :    0.113408
  11 H :    0.142997
  12 H :    0.121173
  13 H :    0.227696
Sum of atomic charges:    0.0000000

LOEWDIN ATOMIC CHARGES
----------------------
   0 C :   -0.290581
   1 C :   -0.378755
   2 O :    0.175948
   3 C :   -0.263131
   4 C :   -0.416660
   5 N :   -0.057512
   6 O :    0.253919
   7 H :    0.129096
   8 H :    0.131804
   9 H :    0.130720
  10 H :    0.136079
  11 H :    0.142740
  12 H :    0.135655
  13 H :    0.170677

  Mayer bond orders larger than 0.1
B(  0-C ,  1-C ) :   0.9400 B(  0-C ,  7-H ) :   0.9216 B(  0-C ,  8-H ) :   0.9312
B(  0-C ,  9-H ) :   0.9310 B(  1-C ,  2-O ) :   0.9348 B(  1-C ,  6-O ) :   0.8887
B(  1-C , 10-H ) :   0.9328 B(  2-O ,  3-C ) :   0.9322 B(  3-C ,  4-C ) :   0.9369
B(  3-C , 11-H ) :   0.9157 B(  3-C , 12-H ) :   0.9145 B(  4-C ,  5-N ) :   2.0443
B(  4-C ,  6-O ) :   1.0706 B(  5-N , 13-H ) :   0.8532

MP2 TOTAL ENERGY:     -361.151276668 Eh
FINAL SINGLE POINT ENERGY      -361.151276668096

DIPOLE MOMENT
-------------
                                X             Y             Z
Electronic contribution:     -0.29808      -3.71084       1.32151
Nuclear contribution   :     -0.06551       4.47248      -1.44828
                        -----------------------------------------
Total Dipole Moment    :     -0.36358       0.76164      -0.12677
                        -----------------------------------------
Magnitude (a.u.)       :      0.85344
Magnitude (Debye)      :      2.16928

                             ****ORCA TERMINATED NORMALLY****
TOTAL RUN TIME: 0 days 0 hours 7 minutes 9 seconds 745 msec
