                         Program Version 3.0.3 - RELEASE   -
|  1> ! RI-MP2 RIJK def2-TZVP def2-TZVP/C def2-TZVP/JK TIGHTSCF
|  2> % maxcore 2000
|  3> % mp2 density relaxed end
|  4> *xyz 0 1
|  5>  C        0.0168270146     1.5437924808     0.0573257375
|  6>  C        0.0139473545     0.0286696160    -0.0476357727
|  7>  C        0.7488139346    -0.5022904079    -1.2850641612
|  8>  N        0.9076866249    -1.9588581921    -1.2854947088
|  9>  C        1.4893756414    -2.4261497648    -0.0366681462
| 10>  C        0.7547434787    -1.8736263129     1.2066622472
| 11>  O        0.6497634042    -0.4652134485     1.1465482730
| 12>  C       -0.5763796921    -2.5118446917     1.3456266414
| 13>  N       -1.6108601747    -3.0219828659     1.4222822259
| 14>  H        1.0422839559     1.9249634254     0.0862346751
| 15>  H       -0.4951557053     1.9854496365    -0.8028217168
| 16>  H       -0.4945702834     1.8643409134     0.9684065042
| 17>  H       -1.0238123607    -0.3423281335    -0.0655491873
| 18>  H        0.2180366526    -0.2020307277    -2.1943539787
| 19>  H        1.7497125679    -0.0512423886    -1.3214689892
| 20>  H        0.0073578258    -2.4066423072    -1.4330583703
| 21>  H        1.5026527650    -3.5197859357    -0.0177407897
| 22>  H        2.5252944333    -2.0709569770     0.0221966802
| 23>  H        1.3270637929    -2.0934478786     2.1147295464
| 24> *
| 25>
| 26>                          ****END OF INPUT****

CARTESIAN COORDINATES (ANGSTROEM)
---------------------------------
  C      0.016827    1.543792    0.057326
  C      0.013947    0.028670   -0.047636
  C      0.748814   -0.502290   -1.285064
  N      0.907687   -1.958858   -1.285495
  C      1.489376   -2.426150   -0.036668
  C      0.754743   -1.873626    1.206662
  O      0.649763   -0.465213    1.146548
  C     -0.576380   -2.511845    1.345627
  N     -1.610860   -3.021983    1.422282
  H      1.042284    1.924963    0.086235
  H     -0.495156    1.985450   -0.802822
  H     -0.494570    1.864341    0.968407
  H     -1.023812   -0.342328   -0.065549
  H      0.218037   -0.202031   -2.194354
  H      1.749713   -0.051242   -1.321469
  H      0.007358   -2.406642   -1.433058
  H      1.502653   -3.519786   -0.017741
  H      2.525294   -2.070957    0.022197
  H      1.327064   -2.093448    2.114730

 Total Charge           Charge          ....    0
 Multiplicity           Mult            ....    1
 Number of Electrons    NEL             ....   68
 Basis Dimension        Dim             ....  339

ORBITAL ENERGIES
----------------

  NO   OCC          E(Eh)            E(eV)
   0   2.0000     -20.582864      -560.0882
   1   2.0000     -15.579769      -423.9471
   2   2.0000     -15.563643      -423.5083
   3   2.0000     -11.337335      -308.5046
   4   2.0000     -11.294487      -307.3386
   5   2.0000     -11.278672      -306.9083
   6   2.0000     -11.277305      -306.8711
   7   2.0000     -11.264169      -306.5136
   8   2.0000     -11.227373      -305.5124
   9   2.0000      -1.407215       -38.2923
  10   2.0000      -1.229957       -33.4688
  11   2.0000      -1.222424       -33.2639
  12   2.0000      -1.088497       -29.6195
  13   2.0000      -0.997327       -27.1386
  14   2.0000      -0.938133       -25.5279
  15   2.0000      -0.880975       -23.9726
  16   2.0000      -0.827834       -22.5265
  17   2.0000      -0.716618       -19.5002
  18   2.0000      -0.702318       -19.1110
  19   2.0000      -0.679531       -18.4910
  20   2.0000      -0.667171       -18.1547
  21   2.0000      -0.637766       -17.3545
  22   2.0000      -0.581459       -15.8223
  23   2.0000      -0.572434       -15.5767
  24   2.0000      -0.557903       -15.1813
  25   2.0000      -0.552562       -15.0360
  26   2.0000      -0.548533       -14.9263
  27   2.0000      -0.525258       -14.2930
  28   2.0000      -0.518254       -14.1024
  29   2.0000      -0.502936       -13.6856
  30   2.0000      -0.483156       -13.1473
  31   2.0000      -0.471525       -12.8308
  32   2.0000      -0.461018       -12.5449
  33   2.0000      -0.377549       -10.2736
  34   0.0000       0.127304         3.4641
  35   0.0000       0.141343         3.8461
  36   0.0000       0.147576         4.0158
  37   0.0000       0.162726         4.4280
  38   0.0000       0.167605         4.5608

MULLIKEN ATOMIC CHARGES
-----------------------
   0 C :   -0.373741
   1 C :    0.037422
   2 C :   -0.170599
   3 N :   -0.328561
   4 C :   -0.170176
   5 C :    0.218168
   6 O :   -0.290566
   7 C :   -0.265202
   8 N :   -0.049754
   9 H :    0.131414
  10 H :    0.127872
  11 H :    0.146925
  12 H :    0.096627
  13 H :    0.138421
  14 H :    0.111157
  15 H :    0.217255
  16 H :    0.149374
  17 H :    0.130355
  18 H :    0.143610
Sum of atomic charges:   -0.0000000

LOEWDIN ATOMIC CHARGES
----------------------
   0 C :   -0.287234
   1 C :   -0.340833
   2 C :   -0.288607
   3 N :   -0.012505
   4 C :   -0.278049
   5 C :   -0.324054
   6 O :    0.207953
   7 C :   -0.177923
   8 N :    0.065605
   9 H :    0.128067
  10 H :    0.129779
  11 H :    0.130560
  12 H :    0.141914
  13 H :    0.139074
  14 H :    0.138997
  15 H :    0.174285
  16 H :    0.143090
  17 H :    0.142199
  18 H :    0.167681

  Mayer bond orders larger than 0.1
B(  0-C ,  1-C ) :   0.9275 B(  0-C ,  9-H ) :   0.9345 B(  0-C , 10-H ) :   0.9302
B(  0-C , 11-H ) :   0.9350 B(  1-C ,  2-C ) :   0.9247 B(  1-C ,  6-O ) :   0.8952
B(  1-C , 12-H ) :   0.9201 B(  2-C ,  3-N ) :   0.9549 B(  2-C , 13-H ) :   0.9286
B(  2-C , 14-H ) :   0.9184 B(  3-N ,  4-C ) :   0.9744 B(  3-N , 15-H ) :   0.8824
B(  4-C ,  5-C ) :   0.8993 B(  4-C , 16-H ) :   0.9289 B(  4-C , 17-H ) :   0.9312
B(  5-C ,  6-O ) :   0.9618 B(  5-C ,  7-C ) :   0.8718 B(  5-C , 18-H ) :   0.8933
B(  7-C ,  8-N ) :   2.8472

MP2 TOTAL ENERGY:     -418.517545554 Eh
FINAL SINGLE POINT ENERGY      -418.517545553516

DIPOLE MOMENT
-------------
                                X             Y             Z
Electronic contribution:     -2.47320      -6.06928       4.47772
Nuclear contribution   :      3.26083       6.62664      -4.88516
                        -----------------------------------------
Total Dipole Moment    :      0.78762       0.55736      -0.40744
                        -----------------------------------------
Magnitude (a.u.)       :      1.04738
Magnitude (Debye)      :      2.66223

                             ****ORCA TERMINATED NORMALLY****
TOTAL RUN TIME: 0 days 0 hours 18 minutes 50 seconds 782 msec
