                         Program Version 3.0.3 - RELEASE   -
|  1> ! RI-MP2 RIJK def2-TZVP def2-TZVP/C def2-TZVP/JK TIGHTSCF
|  2> % maxcore 2000
|  3> % mp2 density relaxed end
|  4> *xyz 0 1
|  5>  C        0.0494862213     1.5140883947    -0.0226302829
|  6>  C        0.0095634089    -0.0038385692    -0.0138161689
|  7>  O        0.6507410132    -0.4793870083    -1.1858213448
|  8>  C        0.6723697435    -1.8818448102    -1.2890924130
|  9>  C        1.4450989869    -2.2311773488    -2.5877936915
| 10>  C        0.6929064735    -1.6948884618    -3.8219531720
| 11>  N        2.8129405368    -1.6893137900    -2.6005670511
| 12>  C        1.5288529829    -3.7014266614    -2.6637472807
| 13>  N        1.5724684855    -4.8554533420    -2.6940446273
| 14>  H        1.0826194816     1.8726293094    -0.0394191912
| 15>  H       -0.4656512225     1.9071265944    -0.9035225550
| 16>  H       -0.4401843252     1.9105240336     0.8715119551
| 17>  H        0.5176809999    -0.4031112151     0.8791284703
| 18>  H       -1.0306712578    -0.3661527535     0.0165258700
| 19>  H        1.1863122997    -2.3329443966    -0.4246112335
| 20>  H       -0.3485446160    -2.2947613943    -1.3247399632
| 21>  H        0.5887585827    -0.6117604704    -3.7286695906
| 22>  H        1.2551818364    -1.9260166374    -4.7277026239
| 23>  H       -0.3047947863    -2.1353891604    -3.8936386086
| 24>  H        2.7409587315    -0.7002676809    -2.3730771119
| 25>  H        3.3575723537    -2.1144640517    -1.8542192052
| 26> *
| 27>
| 28>                          ****END OF INPUT****

CARTESIAN COORDINATES (ANGSTROEM)
---------------------------------
  C      0.049486    1.514088   -0.022630
  C      0.009563   -0.003839   -0.013816
  O      0.650741   -0.479387   -1.185821
  C      0.672370   -1.881845   -1.289092
  C      1.445099   -2.231177   -2.587794
  C      0.692906   -1.694888   -3.821953
  N      2.812941   -1.689314   -2.600567
  C      1.528853   -3.701427   -2.663747
  N      1.572468   -4.855453   -2.694045
  H      1.082619    1.872629   -0.039419
  H     -0.465651    1.907127   -0.903523
  H     -0.440184    1.910524    0.871512
  H      0.517681   -0.403111    0.879128
  H     -1.030671   -0.366153    0.016526
  H      1.186312   -2.332944   -0.424611
  H     -0.348545   -2.294761   -1.324740
  H      0.588759   -0.611760   -3.728670
  H      1.255182   -1.926017   -4.727703
  H     -0.304795   -2.135389   -3.893639
  H      2.740959   -0.700268   -2.373077
  H      3.357572   -2.114464   -1.854219

 Total Charge           Charge          ....    0
 Multiplicity           Mult            ....    1
 Number of Electrons    NEL             ....   70
 Basis Dimension        Dim             ....  351

ORBITAL ENERGIES
----------------

  NO   OCC          E(Eh)            E(eV)
   0   2.0000     -20.577664      -559.9467
   1   2.0000     -15.570849      -423.7043
   2   2.0000     -15.561738      -423.4564
   3   2.0000     -11.317698      -307.9702
   4   2.0000     -11.301501      -307.5295
   5   2.0000     -11.293834      -307.3209
   6   2.0000     -11.269561      -306.6603
   7   2.0000     -11.233086      -305.6678
   8   2.0000     -11.229929      -305.5819
   9   2.0000      -1.402277       -38.1579
  10   2.0000      -1.236270       -33.6406
  11   2.0000      -1.199637       -32.6438
  12   2.0000      -1.059045       -28.8181
  13   2.0000      -1.023393       -27.8479
  14   2.0000      -0.944765       -25.7084
  15   2.0000      -0.870608       -23.6904
  16   2.0000      -0.842565       -22.9274
  17   2.0000      -0.719823       -19.5874
  18   2.0000      -0.697825       -18.9888
  19   2.0000      -0.677027       -18.4229
  20   2.0000      -0.659245       -17.9390
  21   2.0000      -0.640011       -17.4156
  22   2.0000      -0.612391       -16.6640
  23   2.0000      -0.579305       -15.7637
  24   2.0000      -0.569412       -15.4945
  25   2.0000      -0.552765       -15.0415
  26   2.0000      -0.542999       -14.7757
  27   2.0000      -0.540636       -14.7115
  28   2.0000      -0.526503       -14.3269
  29   2.0000      -0.513937       -13.9849
  30   2.0000      -0.499069       -13.5804
  31   2.0000      -0.466759       -12.7011
  32   2.0000      -0.461159       -12.5488
  33   2.0000      -0.445318       -12.1177
  34   2.0000      -0.416747       -11.3403
  35   0.0000       0.116186         3.1616
  36   0.0000       0.139861         3.8058
  37   0.0000       0.151592         4.1250
  38   0.0000       0.157862         4.2956
  39   0.0000       0.179952         4.8967

MULLIKEN ATOMIC CHARGES
-----------------------
   0 C :   -0.367332
   1 C :   -0.058733
   2 O :   -0.301921
   3 C :   -0.112357
   4 C :    0.327787
   5 C :   -0.405568
   6 N :   -0.544388
   7 C :   -0.222782
   8 N :   -0.047471
   9 H :    0.130278
  10 H :    0.133377
  11 H :    0.129253
  12 H :    0.098732
  13 H :    0.099427
  14 H :    0.112066
  15 H :    0.114757
  16 H :    0.151140
  17 H :    0.156117
  18 H :    0.132438
  19 H :    0.242860
  20 H :    0.232318
Sum of atomic charges:    0.0000000

LOEWDIN ATOMIC CHARGES
----------------------
   0 C :   -0.315324
   1 C :   -0.346563
   2 O :    0.158979
   3 C :   -0.289125
   4 C :   -0.373234
   5 C :   -0.247465
   6 N :   -0.104639
   7 C :   -0.149720
   8 N :    0.070570
   9 H :    0.124168
  10 H :    0.125084
  11 H :    0.127244
  12 H :    0.118832
  13 H :    0.119493
  14 H :    0.127433
  15 H :    0.130368
  16 H :    0.132247
  17 H :    0.135093
  18 H :    0.131257
  19 H :    0.163554
  20 H :    0.161747

  Mayer bond orders larger than 0.1
B(  0-C ,  1-C ) :   0.9545 B(  0-C ,  9-H ) :   0.9359 B(  0-C , 10-H ) :   0.9356
B(  0-C , 11-H ) :   0.9322 B(  1-C ,  2-O ) :   0.9048 B(  1-C , 12-H ) :   0.9250
B(  1-C , 13-H ) :   0.9249 B(  2-O ,  3-C ) :   0.9371 B(  3-C ,  4-C ) :   0.9440
B(  3-C , 14-H ) :   0.9138 B(  3-C , 15-H ) :   0.9215 B(  4-C ,  5-C ) :   0.8871
B(  4-C ,  6-N ) :   0.8741 B(  4-C ,  7-C ) :   0.8955 B(  5-C , 16-H ) :   0.9219
B(  5-C , 17-H ) :   0.9360 B(  5-C , 18-H ) :   0.9286 B(  6-N , 19-H ) :   0.8787
B(  6-N , 20-H ) :   0.8845 B(  7-C ,  8-N ) :   2.8807

MP2 TOTAL ENERGY:     -419.710514105 Eh
FINAL SINGLE POINT ENERGY      -419.710514104806

DIPOLE MOMENT
-------------
                                X             Y             Z
Electronic contribution:      3.47170      -9.53141      -3.32744
Nuclear contribution   :     -4.02740      11.04931       4.28098
                        -----------------------------------------
Total Dipole Moment    :     -0.55571       1.51790       0.95354
                        -----------------------------------------
Magnitude (a.u.)       :      1.87672
Magnitude (Debye)      :      4.77024

                             ****ORCA TERMINATED NORMALLY****
TOTAL RUN TIME: 0 days 0 hours 17 minutes 53 seconds 878 msec
