                         Program Version 3.0.3 - RELEASE   -
|  1> ! RI-MP2 RIJK def2-TZVP def2-TZVP/C def2-TZVP/JK TIGHTSCF
|  2> % maxcore 2000
|  3> % mp2 density relaxed end
|  4> *xyz 0 1
|  5>  C       -0.2184137672     1.5773948505    -0.2385594488
|  6>  C       -0.0288526632     0.0821353364     0.0115585859
|  7>  C        0.8900992174    -0.6140366326    -1.0715407344
|  8>  C        2.0976963513    -0.5719981783    -0.0669327387
|  9>  C        1.0256286015    -0.4033115298     0.9875812603
| 10>  C        0.4479251450    -1.2164987042     1.8828711108
| 11>  N       -0.9493865467    -1.1862710700     1.7178179530
| 12>  C       -1.3315830343    -0.5290975748     0.5503527238
| 13>  O       -2.4687836822    -0.3840821787     0.1632588163
| 14>  H        0.7162544392     2.0443405453    -0.5633431328
| 15>  H       -0.9745169971     1.7236351233    -1.0160166285
| 16>  H       -0.5612610134     2.0908096907     0.6645591062
| 17>  H        0.5811396874    -1.6385270631    -1.2851343432
| 18>  H        1.0001337064    -0.0569546552    -2.0056388634
| 19>  H        2.7345754077    -1.4567842844    -0.0070467760
| 20>  H        2.7254891525     0.3109541150    -0.2197201352
| 21>  H        0.8902450508    -1.9509872633     2.5430928436
| 22>  H       -1.6252976651    -1.5959735270     2.3420483711
| 23> *
| 24>
| 25>                          ****END OF INPUT****

CARTESIAN COORDINATES (ANGSTROEM)
---------------------------------
  C     -0.218414    1.577395   -0.238559
  C     -0.028853    0.082135    0.011559
  C      0.890099   -0.614037   -1.071541
  C      2.097696   -0.571998   -0.066933
  C      1.025629   -0.403312    0.987581
  C      0.447925   -1.216499    1.882871
  N     -0.949387   -1.186271    1.717818
  C     -1.331583   -0.529098    0.550353
  O     -2.468784   -0.384082    0.163259
  H      0.716254    2.044341   -0.563343
  H     -0.974517    1.723635   -1.016017
  H     -0.561261    2.090810    0.664559
  H      0.581140   -1.638527   -1.285134
  H      1.000134   -0.056955   -2.005639
  H      2.734575   -1.456784   -0.007047
  H      2.725489    0.310954   -0.219720
  H      0.890245   -1.950987    2.543093
  H     -1.625298   -1.595974    2.342048

 Total Charge           Charge          ....    0
 Multiplicity           Mult            ....    1
 Number of Electrons    NEL             ....   66
 Basis Dimension        Dim             ....  333

ORBITAL ENERGIES
----------------

  NO   OCC          E(Eh)            E(eV)
   0   2.0000     -20.523641      -558.4767
   1   2.0000     -15.595478      -424.3745
   2   2.0000     -11.349147      -308.8260
   3   2.0000     -11.280004      -306.9445
   4   2.0000     -11.250658      -306.1460
   5   2.0000     -11.248779      -306.0948
   6   2.0000     -11.247761      -306.0671
   7   2.0000     -11.233125      -305.6689
   8   2.0000     -11.223333      -305.4024
   9   2.0000      -1.385568       -37.7032
  10   2.0000      -1.268398       -34.5149
  11   2.0000      -1.150415       -31.3044
  12   2.0000      -1.008308       -27.4375
  13   2.0000      -0.975765       -26.5519
  14   2.0000      -0.905409       -24.6374
  15   2.0000      -0.862561       -23.4715
  16   2.0000      -0.774363       -21.0715
  17   2.0000      -0.739252       -20.1161
  18   2.0000      -0.698281       -19.0012
  19   2.0000      -0.654548       -17.8112
  20   2.0000      -0.643239       -17.5034
  21   2.0000      -0.615862       -16.7584
  22   2.0000      -0.596439       -16.2299
  23   2.0000      -0.567525       -15.4431
  24   2.0000      -0.565760       -15.3951
  25   2.0000      -0.534755       -14.5514
  26   2.0000      -0.519578       -14.1384
  27   2.0000      -0.509177       -13.8554
  28   2.0000      -0.472627       -12.8608
  29   2.0000      -0.466288       -12.6883
  30   2.0000      -0.453559       -12.3420
  31   2.0000      -0.408030       -11.1031
  32   2.0000      -0.313308        -8.5255
  33   0.0000       0.122899         3.3442
  34   0.0000       0.136607         3.7173
  35   0.0000       0.144894         3.9428
  36   0.0000       0.160908         4.3785
  37   0.0000       0.163385         4.4459

MULLIKEN ATOMIC CHARGES
-----------------------
   0 C :   -0.423132
   1 C :    0.195578
   2 C :   -0.257282
   3 C :   -0.210222
   4 C :   -0.109258
   5 C :   -0.073499
   6 N :   -0.275320
   7 C :    0.142999
   8 O :   -0.321025
   9 H :    0.131012
  10 H :    0.152797
  11 H :    0.139102
  12 H :    0.132466
  13 H :    0.130925
  14 H :    0.125356
  15 H :    0.129564
  16 H :    0.146568
  17 H :    0.243372
Sum of atomic charges:   -0.0000000

LOEWDIN ATOMIC CHARGES
----------------------
   0 C :   -0.250198
   1 C :   -0.190338
   2 C :   -0.160744
   3 C :   -0.196155
   4 C :   -0.151337
   5 C :   -0.185550
   6 N :    0.155300
   7 C :   -0.380384
   8 O :    0.098746
   9 H :    0.128172
  10 H :    0.136322
  11 H :    0.131987
  12 H :    0.141343
  13 H :    0.132148
  14 H :    0.130372
  15 H :    0.137866
  16 H :    0.136403
  17 H :    0.186047

  Mayer bond orders larger than 0.1
B(  0-C ,  1-C ) :   0.9045 B(  0-C ,  9-H ) :   0.9312 B(  0-C , 10-H ) :   0.9327
B(  0-C , 11-H ) :   0.9330 B(  1-C ,  2-C ) :   0.8510 B(  1-C ,  4-C ) :   0.8877
B(  1-C ,  7-C ) :   0.8507 B(  2-C ,  3-C ) :   0.9249 B(  2-C , 12-H ) :   0.9143
B(  2-C , 13-H ) :   0.9210 B(  3-C ,  4-C ) :   0.9148 B(  3-C , 14-H ) :   0.9164
B(  3-C , 15-H ) :   0.9244 B(  4-C ,  5-C ) :   1.7307 B(  5-C ,  6-N ) :   0.9833
B(  5-C , 16-H ) :   0.9046 B(  6-N ,  7-C ) :   1.1234 B(  6-N , 17-H ) :   0.8650
B(  7-C ,  8-O ) :   2.0257

MP2 TOTAL ENERGY:     -401.267447792 Eh
FINAL SINGLE POINT ENERGY      -401.267447792437

DIPOLE MOMENT
-------------
                                X             Y             Z
Electronic contribution:     -4.91376      -2.91406       3.51682
Nuclear contribution   :      5.97476       2.47497      -3.12443
                        -----------------------------------------
Total Dipole Moment    :      1.06100      -0.43909       0.39239
                        -----------------------------------------
Magnitude (a.u.)       :      1.21347
Magnitude (Debye)      :      3.08438

                             ****ORCA TERMINATED NORMALLY****
TOTAL RUN TIME: 0 days 0 hours 19 minutes 31 seconds 717 msec
