                         Program Version 3.0.3 - RELEASE   -
|  1> ! RI-MP2 RIJK def2-TZVP def2-TZVP/C def2-TZVP/JK TIGHTSCF
|  2> % maxcore 2000
|  3> % mp2 density relaxed end
|  4> *xyz 0 1
|  5>  C       -0.1161196439     1.4351493949     0.0887714608
|  6>  N       -0.0369846966    -0.0146201134     0.0052514317
|  7>  C        0.0218052452    -0.7011882716     1.2803299986
|  8>  C       -0.0244291645    -0.6034682375    -1.2355191751
|  9>  O       -0.0768821242     0.0400925024    -2.2648636036
| 10>  C        0.0608823309    -2.1459184860    -1.2584752990
| 11>  C        0.0693237454    -2.6908862133    -2.6064305840
| 12>  C        0.0790876288    -3.1858126121    -3.6997774099
| 13>  H        0.7600300022     1.8394966636     0.6115015284
| 14>  H       -0.1547671195     1.8356149971    -0.9222858618
| 15>  H       -1.0142681369     1.7409914177     0.6402938893
| 16>  H       -0.8684415276    -0.4753275711     1.8827501475
| 17>  H        0.0794848340    -1.7802992239     1.1573761222
| 18>  H        0.9008208449    -0.3774593520     1.8539132667
| 19>  H        0.9650424700    -2.4665535467    -0.7253560342
| 20>  H       -0.7844903917    -2.5638120396    -0.6970227297
| 21>  H        0.0863541534    -3.6017012086    -4.6765024177
| 22> *
| 23>
| 24>                          ****END OF INPUT****

CARTESIAN COORDINATES (ANGSTROEM)
---------------------------------
  C     -0.116120    1.435149    0.088771
  N     -0.036985   -0.014620    0.005251
  C      0.021805   -0.701188    1.280330
  C     -0.024429   -0.603468   -1.235519
  O     -0.076882    0.040093   -2.264864
  C      0.060882   -2.145918   -1.258475
  C      0.069324   -2.690886   -2.606431
  C      0.079088   -3.185813   -3.699777
  H      0.760030    1.839497    0.611502
  H     -0.154767    1.835615   -0.922286
  H     -1.014268    1.740991    0.640294
  H     -0.868442   -0.475328    1.882750
  H      0.079485   -1.780299    1.157376
  H      0.900821   -0.377459    1.853913
  H      0.965042   -2.466554   -0.725356
  H     -0.784490   -2.563812   -0.697023
  H      0.086354   -3.601701   -4.676502

 Total Charge           Charge          ....    0
 Multiplicity           Mult            ....    1
 Number of Electrons    NEL             ....   60
 Basis Dimension        Dim             ....  302

ORBITAL ENERGIES
----------------

  NO   OCC          E(Eh)            E(eV)
   0   2.0000     -20.515807      -558.2635
   1   2.0000     -15.591430      -424.2644
   2   2.0000     -11.356619      -309.0293
   3   2.0000     -11.277455      -306.8752
   4   2.0000     -11.273503      -306.7676
   5   2.0000     -11.256327      -306.3002
   6   2.0000     -11.232108      -305.6412
   7   2.0000     -11.218792      -305.2788
   8   2.0000      -1.385675       -37.7061
   9   2.0000      -1.249914       -34.0119
  10   2.0000      -1.077012       -29.3070
  11   2.0000      -0.991628       -26.9836
  12   2.0000      -0.976318       -26.5670
  13   2.0000      -0.926473       -25.2106
  14   2.0000      -0.758805       -20.6481
  15   2.0000      -0.714304       -19.4372
  16   2.0000      -0.699078       -19.0229
  17   2.0000      -0.668009       -18.1774
  18   2.0000      -0.665564       -18.1109
  19   2.0000      -0.616757       -16.7828
  20   2.0000      -0.614678       -16.7262
  21   2.0000      -0.586855       -15.9691
  22   2.0000      -0.566599       -15.4179
  23   2.0000      -0.564231       -15.3535
  24   2.0000      -0.537101       -14.6153
  25   2.0000      -0.518878       -14.1194
  26   2.0000      -0.427950       -11.6451
  27   2.0000      -0.389161       -10.5896
  28   2.0000      -0.385814       -10.4985
  29   2.0000      -0.374471       -10.1899
  30   0.0000       0.117487         3.1970
  31   0.0000       0.154749         4.2109
  32   0.0000       0.162408         4.4194
  33   0.0000       0.172118         4.6836
  34   0.0000       0.176418         4.8006

MULLIKEN ATOMIC CHARGES
-----------------------
   0 C :   -0.319847
   1 N :   -0.104752
   2 C :   -0.322668
   3 C :    0.237396
   4 O :   -0.353281
   5 C :   -0.414128
   6 C :   -0.015639
   7 C :   -0.103517
   8 H :    0.131298
   9 H :    0.186777
  10 H :    0.131299
  11 H :    0.141844
  12 H :    0.152807
  13 H :    0.141848
  14 H :    0.159496
  15 H :    0.159490
  16 H :    0.191577
Sum of atomic charges:    0.0000000

LOEWDIN ATOMIC CHARGES
----------------------
   0 C :   -0.287799
   1 N :    0.139011
   2 C :   -0.296290
   3 C :   -0.424243
   4 O :    0.099591
   5 C :   -0.225867
   6 C :   -0.102852
   7 C :   -0.093207
   8 H :    0.116991
   9 H :    0.136333
  10 H :    0.116991
  11 H :    0.119797
  12 H :    0.125227
  13 H :    0.119793
  14 H :    0.165111
  15 H :    0.165108
  16 H :    0.126304

  Mayer bond orders larger than 0.1
B(  0-C ,  1-N ) :   0.8654 B(  0-C ,  8-H ) :   0.9331 B(  0-C ,  9-H ) :   0.9206
B(  0-C , 10-H ) :   0.9331 B(  1-N ,  2-C ) :   0.8945 B(  1-N ,  3-C ) :   1.2016
B(  2-C , 11-H ) :   0.9312 B(  2-C , 12-H ) :   0.9278 B(  2-C , 13-H ) :   0.9312
B(  3-C ,  4-O ) :   1.9296 B(  3-C ,  5-C ) :   0.8887 B(  4-O ,  5-C ) :  -0.1131
B(  5-C ,  6-C ) :   1.1973 B(  5-C ,  7-C ) :  -0.1333 B(  5-C , 14-H ) :   0.8874
B(  5-C , 15-H ) :   0.8874 B(  6-C ,  7-C ) :   2.6119 B(  7-C , 16-H ) :   0.8820

MP2 TOTAL ENERGY:     -363.217897052 Eh
FINAL SINGLE POINT ENERGY      -363.217897051995

DIPOLE MOMENT
-------------
                                X             Y             Z
Electronic contribution:      0.01519      -2.37369      -7.18850
Nuclear contribution   :      0.02291       2.14746       8.76331
                        -----------------------------------------
Total Dipole Moment    :      0.03810      -0.22622       1.57482
                        -----------------------------------------
Magnitude (a.u.)       :      1.59144
Magnitude (Debye)      :      4.04511

                             ****ORCA TERMINATED NORMALLY****
TOTAL RUN TIME: 0 days 0 hours 11 minutes 49 seconds 943 msec
