                         Program Version 3.0.3 - RELEASE   -
|  1> ! RI-MP2 RIJK def2-TZVP def2-TZVP/C def2-TZVP/JK TIGHTSCF
|  2> % maxcore 2000
|  3> % mp2 density relaxed end
|  4> *xyz 0 1
|  5>  O        0.0111977967    -0.0401060729    -0.0693291185
|  6>  C       -0.0369857253     1.1701213224     0.0095214313
|  7>  C       -1.2824591515     1.9522719521     0.1039694569
|  8>  C       -1.1392961383     3.2825286354     0.1287555267
|  9>  C        0.2353404957     3.8696366785     0.0940645650
| 10>  C        1.2820635551     3.2942267602    -0.9022274875
| 11>  C        2.3268796618     3.7864567175     0.1107622095
| 12>  N        1.2623826747     3.1758207120     1.0375969158
| 13>  C        1.2205495713     2.0220475764    -0.0082520871
| 14>  H       -2.2329382278     1.4320544319     0.1320963265
| 15>  H       -1.9896421218     3.9556165517     0.1807966035
| 16>  H        0.2341225506     4.9547224105     0.2223297373
| 17>  H        1.2805286621     3.3586689067    -1.9958119965
| 18>  H        3.2856102481     3.2646981005     0.1541944014
| 19>  H        2.4491802867     4.8651249404     0.2429632462
| 20>  H        2.1047648619     1.3814062266     0.0208560795
| 21> *
| 22>
| 23>                          ****END OF INPUT****

CARTESIAN COORDINATES (ANGSTROEM)
---------------------------------
  O      0.011198   -0.040106   -0.069329
  C     -0.036986    1.170121    0.009521
  C     -1.282459    1.952272    0.103969
  C     -1.139296    3.282529    0.128756
  C      0.235340    3.869637    0.094065
  C      1.282064    3.294227   -0.902227
  C      2.326880    3.786457    0.110762
  N      1.262383    3.175821    1.037597
  C      1.220550    2.022048   -0.008252
  H     -2.232938    1.432054    0.132096
  H     -1.989642    3.955617    0.180797
  H      0.234123    4.954722    0.222330
  H      1.280529    3.358669   -1.995812
  H      3.285610    3.264698    0.154194
  H      2.449180    4.865125    0.242963
  H      2.104765    1.381406    0.020856

 Total Charge           Charge          ....    0
 Multiplicity           Mult            ....    1
 Number of Electrons    NEL             ....   64
 Basis Dimension        Dim             ....  321

ORBITAL ENERGIES
----------------

  NO   OCC          E(Eh)            E(eV)
   0   2.0000     -20.548918      -559.1645
   1   2.0000     -15.592095      -424.2825
   2   2.0000     -11.332613      -308.3761
   3   2.0000     -11.290933      -307.2419
   4   2.0000     -11.282072      -307.0008
   5   2.0000     -11.276581      -306.8514
   6   2.0000     -11.273811      -306.7760
   7   2.0000     -11.270272      -306.6797
   8   2.0000     -11.247897      -306.0708
   9   2.0000      -1.389332       -37.8056
  10   2.0000      -1.315471       -35.7958
  11   2.0000      -1.106919       -30.1208
  12   2.0000      -0.988678       -26.9033
  13   2.0000      -0.947156       -25.7734
  14   2.0000      -0.934158       -25.4197
  15   2.0000      -0.842252       -22.9188
  16   2.0000      -0.808293       -21.9948
  17   2.0000      -0.703164       -19.1341
  18   2.0000      -0.677161       -18.4265
  19   2.0000      -0.674247       -18.3472
  20   2.0000      -0.659381       -17.9427
  21   2.0000      -0.606962       -16.5163
  22   2.0000      -0.590355       -16.0644
  23   2.0000      -0.566887       -15.4258
  24   2.0000      -0.555793       -15.1239
  25   2.0000      -0.530336       -14.4312
  26   2.0000      -0.506954       -13.7949
  27   2.0000      -0.491038       -13.3618
  28   2.0000      -0.470656       -12.8072
  29   2.0000      -0.410664       -11.1747
  30   2.0000      -0.400547       -10.8994
  31   2.0000      -0.375765       -10.2251
  32   0.0000       0.072901         1.9837
  33   0.0000       0.140202         3.8151
  34   0.0000       0.147932         4.0254
  35   0.0000       0.158477         4.3124
  36   0.0000       0.169528         4.6131

MULLIKEN ATOMIC CHARGES
-----------------------
   0 O :   -0.272464
   1 C :    0.105222
   2 C :   -0.117755
   3 C :   -0.252644
   4 C :    0.062359
   5 C :   -0.074298
   6 C :   -0.151105
   7 N :   -0.194339
   8 C :   -0.002667
   9 H :    0.143411
  10 H :    0.143092
  11 H :    0.119393
  12 H :    0.121889
  13 H :    0.126833
  14 H :    0.122154
  15 H :    0.120920
Sum of atomic charges:    0.0000000

LOEWDIN ATOMIC CHARGES
----------------------
   0 O :    0.158117
   1 C :   -0.307951
   2 C :   -0.109632
   3 C :   -0.100143
   4 C :   -0.199013
   5 C :   -0.160420
   6 C :   -0.226027
   7 N :    0.137047
   8 C :   -0.164825
   9 H :    0.151375
  10 H :    0.147641
  11 H :    0.145635
  12 H :    0.125010
  13 H :    0.127431
  14 H :    0.125192
  15 H :    0.150562

  Mayer bond orders larger than 0.1
B(  0-O ,  1-C ) :   1.9611 B(  1-C ,  2-C ) :   1.0111 B(  1-C ,  8-C ) :   0.9066
B(  2-C ,  3-C ) :   1.6788 B(  2-C ,  8-C ) :  -0.1139 B(  2-C ,  9-H ) :   0.9215
B(  3-C ,  4-C ) :   0.9382 B(  3-C , 10-H ) :   0.9165 B(  4-C ,  5-C ) :   0.9065
B(  4-C ,  7-N ) :   0.9196 B(  4-C , 11-H ) :   0.9180 B(  5-C ,  6-C ) :   0.9327
B(  5-C ,  8-C ) :   0.8805 B(  5-C , 12-H ) :   0.8997 B(  6-C ,  7-N ) :   0.9026
B(  6-C , 13-H ) :   0.9239 B(  6-C , 14-H ) :   0.9232 B(  7-N ,  8-C ) :   0.8950
B(  8-C , 15-H ) :   0.9138

MP2 TOTAL ENERGY:     -400.000792906 Eh
FINAL SINGLE POINT ENERGY      -400.000792906438

DIPOLE MOMENT
-------------
                                X             Y             Z
Electronic contribution:     -1.91421      -4.11776       0.69486
Nuclear contribution   :      1.86671       5.48119      -1.34362
                        -----------------------------------------
Total Dipole Moment    :     -0.04750       1.36343      -0.64877
                        -----------------------------------------
Magnitude (a.u.)       :      1.51066
Magnitude (Debye)      :      3.83980

                             ****ORCA TERMINATED NORMALLY****
TOTAL RUN TIME: 0 days 0 hours 17 minutes 51 seconds 953 msec
