                         Program Version 3.0.3 - RELEASE   -
|  1> ! RI-MP2 RIJK def2-TZVP def2-TZVP/C def2-TZVP/JK TIGHTSCF
|  2> % maxcore 2000
|  3> % mp2 density relaxed end
|  4> *xyz 0 1
|  5>  C       -0.0059570933     1.0996795085     0.3047301324
|  6>  O       -0.2328297955    -0.0056016471    -0.5502562532
|  7>  C       -1.3785314309    -0.7194061353    -0.2140712220
|  8>  C       -1.4957466907    -2.1136953614    -0.7606457071
|  9>  C       -1.3090555745    -1.8898470347     0.7335622146
| 10>  C        0.0022647758    -2.2692709898     1.3834086698
| 11>  O       -2.4520588828    -2.0137741415     1.5358714268
| 12>  C       -2.8504337725    -3.3470839633     1.7890691059
| 13>  H        0.8944691049     1.6037130016    -0.0539891480
| 14>  H       -0.8473382365     1.8079666451     0.2753150586
| 15>  H        0.1461102181     0.7865198066     1.3468019154
| 16>  H       -2.2920809629    -0.1255058929    -0.1579373503
| 17>  H       -2.4683887594    -2.4319450164    -1.1182307863
| 18>  H       -0.6476487193    -2.4922616808    -1.3210853130
| 19>  H        0.8370223266    -1.9270206483     0.7676546734
| 20>  H        0.0830506540    -1.8029033974     2.3709082818
| 21>  H        0.0969753123    -3.3529006503     1.5104040143
| 22>  H       -3.7971665066    -3.2971401115     2.3324693195
| 23>  H       -3.0024496532    -3.9098543843     0.8568451109
| 24>  H       -2.1210756737    -3.8899190168     2.4063804364
| 25> *
| 26>
| 27>                          ****END OF INPUT****

CARTESIAN COORDINATES (ANGSTROEM)
---------------------------------
  C     -0.005957    1.099680    0.304730
  O     -0.232830   -0.005602   -0.550256
  C     -1.378531   -0.719406   -0.214071
  C     -1.495747   -2.113695   -0.760646
  C     -1.309056   -1.889847    0.733562
  C      0.002265   -2.269271    1.383409
  O     -2.452059   -2.013774    1.535871
  C     -2.850434   -3.347084    1.789069
  H      0.894469    1.603713   -0.053989
  H     -0.847338    1.807967    0.275315
  H      0.146110    0.786520    1.346802
  H     -2.292081   -0.125506   -0.157937
  H     -2.468389   -2.431945   -1.118231
  H     -0.647649   -2.492262   -1.321085
  H      0.837022   -1.927021    0.767655
  H      0.083051   -1.802903    2.370908
  H      0.096975   -3.352901    1.510404
  H     -3.797167   -3.297140    2.332469
  H     -3.002450   -3.909854    0.856845
  H     -2.121076   -3.889919    2.406380

 Total Charge           Charge          ....    0
 Multiplicity           Mult            ....    1
 Number of Electrons    NEL             ....   64
 Basis Dimension        Dim             ....  320

ORBITAL ENERGIES
----------------

  NO   OCC          E(Eh)            E(eV)
   0   2.0000     -20.560084      -559.4683
   1   2.0000     -20.557744      -559.4046
   2   2.0000     -11.282924      -307.0240
   3   2.0000     -11.275548      -306.8233
   4   2.0000     -11.270533      -306.6868
   5   2.0000     -11.269641      -306.6625
   6   2.0000     -11.220088      -305.3141
   7   2.0000     -11.216831      -305.2255
   8   2.0000      -1.388522       -37.7836
   9   2.0000      -1.374195       -37.3938
  10   2.0000      -1.125826       -30.6353
  11   2.0000      -0.974287       -26.5117
  12   2.0000      -0.933871       -25.4119
  13   2.0000      -0.921913       -25.0865
  14   2.0000      -0.812775       -22.1167
  15   2.0000      -0.759428       -20.6651
  16   2.0000      -0.698874       -19.0173
  17   2.0000      -0.674025       -18.3412
  18   2.0000      -0.635654       -17.2970
  19   2.0000      -0.633060       -17.2264
  20   2.0000      -0.620711       -16.8904
  21   2.0000      -0.605106       -16.4658
  22   2.0000      -0.565607       -15.3909
  23   2.0000      -0.558658       -15.2019
  24   2.0000      -0.551962       -15.0196
  25   2.0000      -0.538115       -14.6428
  26   2.0000      -0.504146       -13.7185
  27   2.0000      -0.492558       -13.4032
  28   2.0000      -0.461436       -12.5563
  29   2.0000      -0.455403       -12.3922
  30   2.0000      -0.397292       -10.8109
  31   2.0000      -0.374172       -10.1817
  32   0.0000       0.140213         3.8154
  33   0.0000       0.156537         4.2596
  34   0.0000       0.175217         4.7679
  35   0.0000       0.186312         5.0698
  36   0.0000       0.197031         5.3615

MULLIKEN ATOMIC CHARGES
-----------------------
   0 C :   -0.214990
   1 O :   -0.307627
   2 C :    0.029444
   3 C :   -0.299364
   4 C :    0.206704
   5 C :   -0.444710
   6 O :   -0.303480
   7 C :   -0.217660
   8 H :    0.139800
   9 H :    0.117829
  10 H :    0.119315
  11 H :    0.101148
  12 H :    0.141438
  13 H :    0.132519
  14 H :    0.154957
  15 H :    0.137173
  16 H :    0.135926
  17 H :    0.141055
  18 H :    0.113516
  19 H :    0.117005
Sum of atomic charges:    0.0000000

LOEWDIN ATOMIC CHARGES
----------------------
   0 C :   -0.344927
   1 O :    0.167765
   2 C :   -0.288077
   3 C :   -0.192976
   4 C :   -0.357972
   5 C :   -0.274748
   6 O :    0.185121
   7 C :   -0.346560
   8 H :    0.113182
   9 H :    0.104333
  10 H :    0.104390
  11 H :    0.139417
  12 H :    0.137923
  13 H :    0.141721
  14 H :    0.137503
  15 H :    0.129451
  16 H :    0.125467
  17 H :    0.113113
  18 H :    0.103385
  19 H :    0.102491

  Mayer bond orders larger than 0.1
B(  0-C ,  1-O ) :   0.8924 B(  0-C ,  8-H ) :   0.9399 B(  0-C ,  9-H ) :   0.9364
B(  0-C , 10-H ) :   0.9357 B(  1-O ,  2-C ) :   0.9906 B(  2-C ,  3-C ) :   0.9049
B(  2-C ,  4-C ) :   0.8695 B(  2-C , 11-H ) :   0.9310 B(  3-C ,  4-C ) :   0.8868
B(  3-C , 12-H ) :   0.9131 B(  3-C , 13-H ) :   0.9068 B(  4-C ,  5-C ) :   0.9039
B(  4-C ,  6-O ) :   0.9815 B(  5-C , 14-H ) :   0.9246 B(  5-C , 15-H ) :   0.9372
B(  5-C , 16-H ) :   0.9318 B(  6-O ,  7-C ) :   0.8994 B(  7-C , 17-H ) :   0.9409
B(  7-C , 18-H ) :   0.9334 B(  7-C , 19-H ) :   0.9352

MP2 TOTAL ENERGY:     -385.462767607 Eh
FINAL SINGLE POINT ENERGY      -385.462767606874

DIPOLE MOMENT
-------------
                                X             Y             Z
Electronic contribution:     -1.31059       1.86046      -2.20343
Nuclear contribution   :      1.32572      -2.09686       2.44842
                        -----------------------------------------
Total Dipole Moment    :      0.01513      -0.23640       0.24498
                        -----------------------------------------
Magnitude (a.u.)       :      0.34078
Magnitude (Debye)      :      0.86620

                             ****ORCA TERMINATED NORMALLY****
TOTAL RUN TIME: 0 days 0 hours 12 minutes 22 seconds 894 msec
