                         Program Version 3.0.3 - RELEASE   -
|  1> ! RI-MP2 RIJK def2-TZVP def2-TZVP/C def2-TZVP/JK TIGHTSCF
|  2> % maxcore 2000
|  3> % mp2 density relaxed end
|  4> *xyz 0 1
|  5>  C       -0.0038190680     1.5486938116     0.0103449101
|  6>  C        0.0047483590     0.0193738507     0.0022048373
|  7>  C       -1.4241529949    -0.5615987896     0.0127169813
|  8>  C       -1.4407647839    -2.0226194708     0.0047935433
|  9>  N       -1.4339613062    -3.1782002609    -0.0013555670
| 10>  H        1.0158384100     1.9437175218     0.0026827794
| 11>  H       -0.5233644333     1.9487733688    -0.8671923066
| 12>  H       -0.5064610301     1.9394370601     0.9018210808
| 13>  H        0.5321046517    -0.3528863703    -0.8823586950
| 14>  H        0.5488563373    -0.3621633398     0.8725595396
| 15>  H       -1.9678426628    -0.2126852171     0.8988152352
| 16>  H       -1.9846506989    -0.2031535146    -0.8589514385
| 17> *
| 18>
| 19>                          ****END OF INPUT****

CARTESIAN COORDINATES (ANGSTROEM)
---------------------------------
  C     -0.003819    1.548694    0.010345
  C      0.004748    0.019374    0.002205
  C     -1.424153   -0.561599    0.012717
  C     -1.440765   -2.022619    0.004794
  N     -1.433961   -3.178200   -0.001356
  H      1.015838    1.943718    0.002683
  H     -0.523364    1.948773   -0.867192
  H     -0.506461    1.939437    0.901821
  H      0.532105   -0.352886   -0.882359
  H      0.548856   -0.362163    0.872560
  H     -1.967843   -0.212685    0.898815
  H     -1.984651   -0.203154   -0.858951

 Total Charge           Charge          ....    0
 Multiplicity           Mult            ....    1
 Number of Electrons    NEL             ....   38
 Basis Dimension        Dim             ....  197

ORBITAL ENERGIES
----------------

  NO   OCC          E(Eh)            E(eV)
   0   2.0000     -15.566186      -423.5775
   1   2.0000     -11.282356      -307.0085
   2   2.0000     -11.270854      -306.6955
   3   2.0000     -11.253356      -306.2194
   4   2.0000     -11.236118      -305.7503
   5   2.0000      -1.216455       -33.1014
   6   2.0000      -1.099296       -29.9134
   7   2.0000      -0.986742       -26.8506
   8   2.0000      -0.846558       -23.0360
   9   2.0000      -0.703396       -19.1404
  10   2.0000      -0.670080       -18.2338
  11   2.0000      -0.603712       -16.4278
  12   2.0000      -0.583976       -15.8908
  13   2.0000      -0.562753       -15.3133
  14   2.0000      -0.531366       -14.4592
  15   2.0000      -0.518913       -14.1203
  16   2.0000      -0.506422       -13.7804
  17   2.0000      -0.455467       -12.3939
  18   2.0000      -0.452319       -12.3082
  19   0.0000       0.115832         3.1520
  20   0.0000       0.156272         4.2524
  21   0.0000       0.165375         4.5001
  22   0.0000       0.168643         4.5890
  23   0.0000       0.186769         5.0822

MULLIKEN ATOMIC CHARGES
-----------------------
   0 C :   -0.388371
   1 C :   -0.200595
   2 C :   -0.134283
   3 C :   -0.175099
   4 N :   -0.062575
   5 H :    0.144365
   6 H :    0.128194
   7 H :    0.128191
   8 H :    0.127485
   9 H :    0.127488
  10 H :    0.152610
  11 H :    0.152591
Sum of atomic charges:    0.0000000

LOEWDIN ATOMIC CHARGES
----------------------
   0 C :   -0.315546
   1 C :   -0.275104
   2 C :   -0.249306
   3 C :   -0.194875
   4 N :    0.053178
   5 H :    0.126092
   6 H :    0.122774
   7 H :    0.122773
   8 H :    0.142133
   9 H :    0.142131
  10 H :    0.162877
  11 H :    0.162873

  Mayer bond orders larger than 0.1
B(  0-C ,  1-C ) :   0.9199 B(  0-C ,  5-H ) :   0.9404 B(  0-C ,  6-H ) :   0.9371
B(  0-C ,  7-H ) :   0.9371 B(  1-C ,  2-C ) :   0.9172 B(  1-C ,  8-H ) :   0.9302
B(  1-C ,  9-H ) :   0.9302 B(  2-C ,  3-C ) :   0.9328 B(  2-C , 10-H ) :   0.9077
B(  2-C , 11-H ) :   0.9077 B(  3-C ,  4-N ) :   2.8773

MP2 TOTAL ENERGY:     -210.915074276 Eh
FINAL SINGLE POINT ENERGY      -210.915074275954

DIPOLE MOMENT
-------------
                                X             Y             Z
Electronic contribution:     -2.59933      -7.72394      -0.01688
Nuclear contribution   :      2.74365       9.33702       0.02421
                        -----------------------------------------
Total Dipole Moment    :      0.14432       1.61308       0.00733
                        -----------------------------------------
Magnitude (a.u.)       :      1.61954
Magnitude (Debye)      :      4.11655

                             ****ORCA TERMINATED NORMALLY****
TOTAL RUN TIME: 0 days 0 hours 2 minutes 35 seconds 963 msec
