                         Program Version 3.0.3 - RELEASE   -
|  1> ! RI-MP2 RIJK def2-TZVP def2-TZVP/C def2-TZVP/JK TIGHTSCF
|  2> % maxcore 2000
|  3> % mp2 density relaxed end
|  4> *xyz 0 1
|  5>  C       -0.0160167638     1.4421104185     0.0321523758
|  6>  C        0.0185310966    -0.0474943027    -0.0256769503
|  7>  N        0.0533271374    -0.7736975368    -1.1352440568
|  8>  C        0.0762058823    -2.0701115288    -0.7287448793
|  9>  O        0.1137489318    -3.0878969869    -1.6058553998
| 10>  C        0.0559879631    -2.1770753364     0.6507218954
| 11>  N        0.0186403604    -0.8412952362     1.0703549542
| 12>  C        0.0663806799    -3.2692079690     1.5270101050
| 13>  C        0.0748026431    -4.1972461266     2.2978912328
| 14>  H        0.8527866008     1.8481902227     0.5626719787
| 15>  H       -0.0120127070     1.8327726892    -0.9858676051
| 16>  H       -0.9153496885     1.8080420852     0.5404927761
| 17>  H        0.1190804404    -2.6883236033    -2.4846010202
| 18>  H       -0.0038472748    -0.5457287263     2.0319745852
| 19>  H        0.0826788381    -5.0250312426     2.9620144182
| 20> *
| 21>
| 22>                          ****END OF INPUT****

CARTESIAN COORDINATES (ANGSTROEM)
---------------------------------
  C     -0.016017    1.442110    0.032152
  C      0.018531   -0.047494   -0.025677
  N      0.053327   -0.773698   -1.135244
  C      0.076206   -2.070112   -0.728745
  O      0.113749   -3.087897   -1.605855
  C      0.055988   -2.177075    0.650722
  N      0.018640   -0.841295    1.070355
  C      0.066381   -3.269208    1.527010
  C      0.074803   -4.197246    2.297891
  H      0.852787    1.848190    0.562672
  H     -0.012013    1.832773   -0.985868
  H     -0.915350    1.808042    0.540493
  H      0.119080   -2.688324   -2.484601
  H     -0.003847   -0.545729    2.031975
  H      0.082679   -5.025031    2.962014

 Total Charge           Charge          ....    0
 Multiplicity           Mult            ....    1
 Number of Electrons    NEL             ....   64
 Basis Dimension        Dim             ....  315

ORBITAL ENERGIES
----------------

  NO   OCC          E(Eh)            E(eV)
   0   2.0000     -20.589988      -560.2820
   1   2.0000     -15.622709      -425.1155
   2   2.0000     -15.551796      -423.1859
   3   2.0000     -11.323347      -308.1239
   4   2.0000     -11.323091      -308.1170
   5   2.0000     -11.266734      -306.5834
   6   2.0000     -11.250302      -306.1363
   7   2.0000     -11.238665      -305.8196
   8   2.0000     -11.224192      -305.4258
   9   2.0000      -1.420288       -38.6480
  10   2.0000      -1.345034       -36.6002
  11   2.0000      -1.177398       -32.0386
  12   2.0000      -1.073888       -29.2220
  13   2.0000      -1.023952       -27.8631
  14   2.0000      -0.955730       -26.0067
  15   2.0000      -0.835063       -22.7232
  16   2.0000      -0.830322       -22.5942
  17   2.0000      -0.773622       -21.0513
  18   2.0000      -0.721875       -19.6432
  19   2.0000      -0.680784       -18.5251
  20   2.0000      -0.646716       -17.5980
  21   2.0000      -0.646272       -17.5860
  22   2.0000      -0.614974       -16.7343
  23   2.0000      -0.591497       -16.0955
  24   2.0000      -0.571622       -15.5546
  25   2.0000      -0.549439       -14.9510
  26   2.0000      -0.545342       -14.8395
  27   2.0000      -0.464944       -12.6518
  28   2.0000      -0.438834       -11.9413
  29   2.0000      -0.397167       -10.8075
  30   2.0000      -0.394714       -10.7407
  31   2.0000      -0.285940        -7.7808
  32   0.0000       0.120766         3.2862
  33   0.0000       0.125662         3.4194
  34   0.0000       0.155697         4.2367
  35   0.0000       0.161025         4.3817
  36   0.0000       0.166812         4.5392

MULLIKEN ATOMIC CHARGES
-----------------------
   0 C :   -0.451643
   1 C :    0.234599
   2 N :   -0.324350
   3 C :    0.188285
   4 O :   -0.427155
   5 C :   -0.072715
   6 N :   -0.295777
   7 C :    0.063444
   8 C :   -0.159561
   9 H :    0.146699
  10 H :    0.166516
  11 H :    0.146586
  12 H :    0.340485
  13 H :    0.251605
  14 H :    0.192981
Sum of atomic charges:    0.0000000

LOEWDIN ATOMIC CHARGES
----------------------
   0 C :   -0.275636
   1 C :   -0.337897
   2 N :    0.110787
   3 C :   -0.368003
   4 O :    0.083749
   5 C :   -0.211982
   6 N :    0.230145
   7 C :   -0.092947
   8 C :   -0.077719
   9 H :    0.132907
  10 H :    0.144046
  11 H :    0.132866
  12 H :    0.201619
  13 H :    0.200304
  14 H :    0.127761

  Mayer bond orders larger than 0.1
B(  0-C ,  1-C ) :   0.8551 B(  0-C ,  9-H ) :   0.9332 B(  0-C , 10-H ) :   0.9512
B(  0-C , 11-H ) :   0.9335 B(  1-C ,  2-N ) :   1.5254 B(  1-C ,  6-N ) :   1.2300
B(  2-N ,  3-C ) :   1.2986 B(  3-C ,  4-O ) :   1.1518 B(  3-C ,  5-C ) :   1.4608
B(  4-O , 12-H ) :   0.8182 B(  5-C ,  6-N ) :   1.0695 B(  5-C ,  7-C ) :   1.1867
B(  5-C ,  8-C ) :  -0.1107 B(  6-N , 13-H ) :   0.8625 B(  7-C ,  8-C ) :   2.6138
B(  8-C , 14-H ) :   0.8783

MP2 TOTAL ENERGY:     -416.112460289 Eh
FINAL SINGLE POINT ENERGY      -416.112460289352

DIPOLE MOMENT
-------------
                                X             Y             Z
Electronic contribution:      0.13942      -5.66876      -0.67209
Nuclear contribution   :     -0.17234       6.54976       1.46188
                        -----------------------------------------
Total Dipole Moment    :     -0.03293       0.88100       0.78980
                        -----------------------------------------
Magnitude (a.u.)       :      1.18365
Magnitude (Debye)      :      3.00859

                             ****ORCA TERMINATED NORMALLY****
TOTAL RUN TIME: 0 days 0 hours 14 minutes 31 seconds 590 msec
