                         Program Version 3.0.3 - RELEASE   -
|  1> ! RI-MP2 RIJK def2-TZVP def2-TZVP/C def2-TZVP/JK TIGHTSCF
|  2> % maxcore 2000
|  3> % mp2 density relaxed end
|  4> *xyz 0 1
|  5>  C        0.2856002521     1.2959053092     1.1632277254
|  6>  C        0.1459209348    -0.1926130209     0.8319667041
|  7>  C       -1.1478327527    -0.5101696989     0.0664399752
|  8>  C       -1.3757509654    -1.9948892095    -0.1928468078
|  9>  C       -0.3182194466    -2.6956793404    -1.0417386180
| 10>  C       -0.1977442479    -2.1530701090    -2.4714155033
| 11>  C       -2.0001776585    -2.8148626219     0.9178499240
| 12>  C       -2.7904203737    -2.5286759554    -0.3389534558
| 13>  C       -4.0400381345    -1.6743216462    -0.3145245709
| 14>  H        1.2155144762     1.5005372326     1.7032026709
| 15>  H        0.2886515912     1.9064327807     0.2530733766
| 16>  H       -0.5453147728     1.6428684884     1.7879916466
| 17>  H        1.0161474495    -0.5137430097     0.2470451426
| 18>  H        0.1678588654    -0.7814700718     1.7579192218
| 19>  H       -1.9899108776    -0.1068686345     0.6396215676
| 20>  H       -1.1467005773     0.0405584307    -0.8842267107
| 21>  H        0.6583502018    -2.6348254318    -0.5446324425
| 22>  H       -0.5621169266    -3.7642136009    -1.0853539227
| 23>  H        0.5315905498    -2.7304297037    -3.0483326147
| 24>  H       -1.1583496052    -2.2064527602    -2.9951497190
| 25>  H        0.1283402991    -1.1082767631    -2.4834956276
| 26>  H       -1.6367090032    -3.8224216490     1.0943370086
| 27>  H       -2.2988320012    -2.2909020849     1.8215938979
| 28>  H       -2.8686335466    -3.3691370230    -1.0262270955
| 29>  H       -3.9868233836    -0.8789387454     0.4336998055
| 30>  H       -4.2253238613    -1.2033556911    -1.2868703184
| 31>  H       -4.9164185151    -2.2861003203    -0.0719610401
| 32> *
| 33>
| 34>                          ****END OF INPUT****

CARTESIAN COORDINATES (ANGSTROEM)
---------------------------------
  C      0.285600    1.295905    1.163228
  C      0.145921   -0.192613    0.831967
  C     -1.147833   -0.510170    0.066440
  C     -1.375751   -1.994889   -0.192847
  C     -0.318219   -2.695679   -1.041739
  C     -0.197744   -2.153070   -2.471416
  C     -2.000178   -2.814863    0.917850
  C     -2.790420   -2.528676   -0.338953
  C     -4.040038   -1.674322   -0.314525
  H      1.215514    1.500537    1.703203
  H      0.288652    1.906433    0.253073
  H     -0.545315    1.642868    1.787992
  H      1.016147   -0.513743    0.247045
  H      0.167859   -0.781470    1.757919
  H     -1.989911   -0.106869    0.639622
  H     -1.146701    0.040558   -0.884227
  H      0.658350   -2.634825   -0.544632
  H     -0.562117   -3.764214   -1.085354
  H      0.531591   -2.730430   -3.048333
  H     -1.158350   -2.206453   -2.995150
  H      0.128340   -1.108277   -2.483496
  H     -1.636709   -3.822422    1.094337
  H     -2.298832   -2.290902    1.821594
  H     -2.868634   -3.369137   -1.026227
  H     -3.986823   -0.878939    0.433700
  H     -4.225324   -1.203356   -1.286870
  H     -4.916419   -2.286100   -0.071961

 Total Charge           Charge          ....    0
 Multiplicity           Mult            ....    1
 Number of Electrons    NEL             ....   72
 Basis Dimension        Dim             ....  387

ORBITAL ENERGIES
----------------

  NO   OCC          E(Eh)            E(eV)
   0   2.0000     -11.226671      -305.4933
   1   2.0000     -11.222138      -305.3699
   2   2.0000     -11.216397      -305.2137
   3   2.0000     -11.214710      -305.1678
   4   2.0000     -11.214116      -305.1516
   5   2.0000     -11.212422      -305.1055
   6   2.0000     -11.211988      -305.0937
   7   2.0000     -11.209754      -305.0329
   8   2.0000     -11.209072      -305.0144
   9   2.0000      -1.154315       -31.4105
  10   2.0000      -1.050114       -28.5750
  11   2.0000      -1.019513       -27.7424
  12   2.0000      -0.958064       -26.0702
  13   2.0000      -0.928806       -25.2741
  14   2.0000      -0.851757       -23.1775
  15   2.0000      -0.812678       -22.1141
  16   2.0000      -0.783548       -21.3214
  17   2.0000      -0.715849       -19.4792
  18   2.0000      -0.649648       -17.6778
  19   2.0000      -0.629806       -17.1379
  20   2.0000      -0.613366       -16.6905
  21   2.0000      -0.588312       -16.0088
  22   2.0000      -0.571039       -15.5388
  23   2.0000      -0.565933       -15.3998
  24   2.0000      -0.557777       -15.1779
  25   2.0000      -0.529854       -14.4181
  26   2.0000      -0.526082       -14.3154
  27   2.0000      -0.510610       -13.8944
  28   2.0000      -0.504782       -13.7358
  29   2.0000      -0.491450       -13.3730
  30   2.0000      -0.483134       -13.1467
  31   2.0000      -0.477768       -13.0007
  32   2.0000      -0.464721       -12.6457
  33   2.0000      -0.444075       -12.0839
  34   2.0000      -0.389034       -10.5861
  35   2.0000      -0.375548       -10.2192
  36   0.0000       0.130905         3.5621
  37   0.0000       0.150321         4.0904
  38   0.0000       0.156653         4.2628
  39   0.0000       0.161979         4.4077
  40   0.0000       0.180496         4.9115

MULLIKEN ATOMIC CHARGES
-----------------------
   0 C :   -0.386607
   1 C :   -0.210903
   2 C :   -0.271241
   3 C :    0.167048
   4 C :   -0.229130
   5 C :   -0.420092
   6 C :   -0.321266
   7 C :   -0.110108
   8 C :   -0.401303
   9 H :    0.133095
  10 H :    0.121080
  11 H :    0.121614
  12 H :    0.110025
  13 H :    0.115178
  14 H :    0.102504
  15 H :    0.120935
  16 H :    0.120928
  17 H :    0.108250
  18 H :    0.133921
  19 H :    0.128207
  20 H :    0.127592
  21 H :    0.125228
  22 H :    0.119985
  23 H :    0.110977
  24 H :    0.120437
  25 H :    0.129360
  26 H :    0.134287
Sum of atomic charges:    0.0000000

LOEWDIN ATOMIC CHARGES
----------------------
   0 C :   -0.322044
   1 C :   -0.288331
   2 C :   -0.224587
   3 C :   -0.233434
   4 C :   -0.249706
   5 C :   -0.313272
   6 C :   -0.194619
   7 C :   -0.217441
   8 C :   -0.297213
   9 H :    0.119952
  10 H :    0.119981
  11 H :    0.119441
  12 H :    0.133915
  13 H :    0.136808
  14 H :    0.142338
  15 H :    0.140859
  16 H :    0.137560
  17 H :    0.141547
  18 H :    0.120404
  19 H :    0.122048
  20 H :    0.119306
  21 H :    0.130734
  22 H :    0.134783
  23 H :    0.149140
  24 H :    0.121821
  25 H :    0.124319
  26 H :    0.125689

  Mayer bond orders larger than 0.1
B(  0-C ,  1-C ) :   0.9169 B(  0-C ,  9-H ) :   0.9443 B(  0-C , 10-H ) :   0.9383
B(  0-C , 11-H ) :   0.9421 B(  1-C ,  2-C ) :   0.9241 B(  1-C , 12-H ) :   0.9329
B(  1-C , 13-H ) :   0.9345 B(  2-C ,  3-C ) :   0.9096 B(  2-C , 14-H ) :   0.9294
B(  2-C , 15-H ) :   0.9338 B(  3-C ,  4-C ) :   0.8963 B(  3-C ,  6-C ) :   0.8633
B(  3-C ,  7-C ) :   0.8471 B(  4-C ,  5-C ) :   0.9156 B(  4-C , 16-H ) :   0.9396
B(  4-C , 17-H ) :   0.9235 B(  5-C , 18-H ) :   0.9401 B(  5-C , 19-H ) :   0.9389
B(  5-C , 20-H ) :   0.9391 B(  6-C ,  7-C ) :   0.9160 B(  6-C , 21-H ) :   0.9221
B(  6-C , 22-H ) :   0.9237 B(  7-C ,  8-C ) :   0.9012 B(  7-C , 23-H ) :   0.9308
B(  8-C , 24-H ) :   0.9369 B(  8-C , 25-H ) :   0.9408 B(  8-C , 26-H ) :   0.9387

MP2 TOTAL ENERGY:     -352.909521515 Eh
FINAL SINGLE POINT ENERGY      -352.909521514533

DIPOLE MOMENT
-------------
                                X             Y             Z
Electronic contribution:     -1.22935      -3.15609       0.71896
Nuclear contribution   :      1.24409       3.15713      -0.74532
                        -----------------------------------------
Total Dipole Moment    :      0.01474       0.00105      -0.02636
                        -----------------------------------------
Magnitude (a.u.)       :      0.03022
Magnitude (Debye)      :      0.07680

                             ****ORCA TERMINATED NORMALLY****
TOTAL RUN TIME: 0 days 0 hours 23 minutes 33 seconds 369 msec
