                         Program Version 3.0.3 - RELEASE   -
|  1> ! RI-MP2 RIJK def2-TZVP def2-TZVP/C def2-TZVP/JK TIGHTSCF
|  2> % maxcore 2000
|  3> % mp2 density relaxed end
|  4> *xyz 0 1
|  5>  O       -0.5443718227     0.5680567980     0.6084221297
|  6>  C        0.2271166782     0.8781303166    -0.2607216412
|  7>  C        1.3492543985     1.8968687805    -0.0738245886
|  8>  C        1.3196165228     2.9531257988    -1.1324632307
|  9>  C        1.0083150171     4.2504932784    -1.0576489464
| 10>  C        1.1269508605     4.9035688448    -2.4105964070
| 11>  N        1.5469133744     3.8006843375    -3.2441745173
| 12>  C        1.6669645922     2.6205514966    -2.5537884730
| 13>  O        1.9853476256     1.5350032646    -2.9997698071
| 14>  H        0.1839417265     0.4320170271    -1.2753981651
| 15>  H        1.2766654590     2.3155156290     0.9321381736
| 16>  H        2.2915005803     1.3379233598    -0.1657414737
| 17>  H        0.7144176783     4.8036706212    -0.1748941156
| 18>  H        0.1685481684     5.3326170274    -2.7377479903
| 19>  H        1.8614662870     5.7219005917    -2.4023470796
| 20>  H        1.7010866539     3.8583309379    -4.2361243176
| 21> *
| 22>
| 23>                          ****END OF INPUT****

CARTESIAN COORDINATES (ANGSTROEM)
---------------------------------
  O     -0.544372    0.568057    0.608422
  C      0.227117    0.878130   -0.260722
  C      1.349254    1.896869   -0.073825
  C      1.319617    2.953126   -1.132463
  C      1.008315    4.250493   -1.057649
  C      1.126951    4.903569   -2.410596
  N      1.546913    3.800684   -3.244175
  C      1.666965    2.620551   -2.553788
  O      1.985348    1.535003   -2.999770
  H      0.183942    0.432017   -1.275398
  H      1.276665    2.315516    0.932138
  H      2.291501    1.337923   -0.165741
  H      0.714418    4.803671   -0.174894
  H      0.168548    5.332617   -2.737748
  H      1.861466    5.721901   -2.402347
  H      1.701087    3.858331   -4.236124

 Total Charge           Charge          ....    0
 Multiplicity           Mult            ....    1
 Number of Electrons    NEL             ....   66
 Basis Dimension        Dim             ....  321

ORBITAL ENERGIES
----------------

  NO   OCC          E(Eh)            E(eV)
   0   2.0000     -20.555937      -559.3555
   1   2.0000     -20.528879      -558.6192
   2   2.0000     -15.594643      -424.3518
   3   2.0000     -11.359965      -309.1204
   4   2.0000     -11.331188      -308.3373
   5   2.0000     -11.298720      -307.4538
   6   2.0000     -11.274253      -306.7880
   7   2.0000     -11.266104      -306.5663
   8   2.0000     -11.254220      -306.2429
   9   2.0000      -1.395670       -37.9781
  10   2.0000      -1.391608       -37.8676
  11   2.0000      -1.271790       -34.6072
  12   2.0000      -1.113847       -30.3093
  13   2.0000      -1.025308       -27.9000
  14   2.0000      -0.963057       -26.2061
  15   2.0000      -0.838875       -22.8269
  16   2.0000      -0.808532       -22.0013
  17   2.0000      -0.763261       -20.7694
  18   2.0000      -0.713750       -19.4221
  19   2.0000      -0.668786       -18.1986
  20   2.0000      -0.662305       -18.0222
  21   2.0000      -0.644205       -17.5297
  22   2.0000      -0.626532       -17.0488
  23   2.0000      -0.614730       -16.7277
  24   2.0000      -0.610373       -16.6091
  25   2.0000      -0.562081       -15.2950
  26   2.0000      -0.556322       -15.1383
  27   2.0000      -0.551824       -15.0159
  28   2.0000      -0.505412       -13.7530
  29   2.0000      -0.438519       -11.9327
  30   2.0000      -0.432641       -11.7728
  31   2.0000      -0.408596       -11.1185
  32   2.0000      -0.381590       -10.3836
  33   0.0000       0.094325         2.5667
  34   0.0000       0.123243         3.3536
  35   0.0000       0.142227         3.8702
  36   0.0000       0.148616         4.0440
  37   0.0000       0.159520         4.3408

MULLIKEN ATOMIC CHARGES
-----------------------
   0 O :   -0.264621
   1 C :    0.079625
   2 C :   -0.173351
   3 C :   -0.004623
   4 C :   -0.209543
   5 C :   -0.031119
   6 N :   -0.309786
   7 C :    0.197502
   8 O :   -0.355115
   9 H :    0.116784
  10 H :    0.135505
  11 H :    0.148789
  12 H :    0.151210
  13 H :    0.137074
  14 H :    0.136152
  15 H :    0.245519
Sum of atomic charges:   -0.0000000

LOEWDIN ATOMIC CHARGES
----------------------
   0 O :    0.133572
   1 C :   -0.277645
   2 C :   -0.213162
   3 C :   -0.135163
   4 C :   -0.102218
   5 C :   -0.252732
   6 N :    0.127570
   7 C :   -0.416932
   8 O :    0.078627
   9 H :    0.121497
  10 H :    0.152556
  11 H :    0.169492
  12 H :    0.145041
  13 H :    0.142638
  14 H :    0.142161
  15 H :    0.184698

  Mayer bond orders larger than 0.1
B(  0-O ,  1-C ) :   1.9892 B(  1-C ,  2-C ) :   0.8763 B(  1-C ,  9-H ) :   0.9281
B(  2-C ,  3-C ) :   0.8491 B(  2-C , 10-H ) :   0.9235 B(  2-C , 11-H ) :   0.9045
B(  3-C ,  4-C ) :   1.7001 B(  3-C ,  7-C ) :   0.9228 B(  4-C ,  5-C ) :   0.9908
B(  4-C , 12-H ) :   0.9157 B(  5-C ,  6-N ) :   0.9025 B(  5-C , 13-H ) :   0.9090
B(  5-C , 14-H ) :   0.9071 B(  6-N ,  7-C ) :   1.1898 B(  6-N , 15-H ) :   0.8637
B(  7-C ,  8-O ) :   1.9749

MP2 TOTAL ENERGY:     -437.212609202 Eh
FINAL SINGLE POINT ENERGY      -437.212609202416

DIPOLE MOMENT
-------------
                                X             Y             Z
Electronic contribution:     -0.37827      -3.49148      -0.59703
Nuclear contribution   :      0.67984       5.43961       0.20637
                        -----------------------------------------
Total Dipole Moment    :      0.30157       1.94814      -0.39066
                        -----------------------------------------
Magnitude (a.u.)       :      2.00967
Magnitude (Debye)      :      5.10819

                             ****ORCA TERMINATED NORMALLY****
TOTAL RUN TIME: 0 days 0 hours 14 minutes 48 seconds 316 msec
