                         Program Version 3.0.3 - RELEASE   -
|  1> ! RI-MP2 RIJK def2-TZVP def2-TZVP/C def2-TZVP/JK TIGHTSCF
|  2> % maxcore 2000
|  3> % mp2 density relaxed end
|  4> *xyz 0 1
|  5>  C       -0.0571959630     1.5455284468    -0.0728182117
|  6>  C       -0.0044126084     0.0352201154     0.0184005169
|  7>  N        1.3078341023    -0.5933511121    -0.1948015439
|  8>  C        0.7116642237    -0.6765888750     1.1459404284
|  9>  C        1.3527985685     0.0752625274     2.1978430554
| 10>  N        1.8409006431     0.6766174011     3.0554365484
| 11>  C       -1.1661928482    -0.6643762282    -0.4929339600
| 12>  N       -2.0837691257    -1.2220434425    -0.9220893033
| 13>  H        0.8527994548     1.9724219510     0.3516175171
| 14>  H       -0.1350709941     1.8532990467    -1.1188270404
| 15>  H       -0.9223566200     1.9337364653     0.4709397411
| 16>  H        1.2224967908    -1.4893830641    -0.6694602308
| 17>  H        0.2889198562    -1.6230255619     1.4705712328
| 18> *
| 19>
| 20>                          ****END OF INPUT****

CARTESIAN COORDINATES (ANGSTROEM)
---------------------------------
  C     -0.057196    1.545528   -0.072818
  C     -0.004413    0.035220    0.018401
  N      1.307834   -0.593351   -0.194802
  C      0.711664   -0.676589    1.145940
  C      1.352799    0.075263    2.197843
  N      1.840901    0.676617    3.055437
  C     -1.166193   -0.664376   -0.492934
  N     -2.083769   -1.222043   -0.922089
  H      0.852799    1.972422    0.351618
  H     -0.135071    1.853299   -1.118827
  H     -0.922357    1.933736    0.470940
  H      1.222497   -1.489383   -0.669460
  H      0.288920   -1.623026    1.470571

 Total Charge           Charge          ....    0
 Multiplicity           Mult            ....    1
 Number of Electrons    NEL             ....   56
 Basis Dimension        Dim             ....  278

ORBITAL ENERGIES
----------------

  NO   OCC          E(Eh)            E(eV)
   0   2.0000     -15.630573      -425.3295
   1   2.0000     -15.604445      -424.6185
   2   2.0000     -15.597091      -424.4184
   3   2.0000     -11.360854      -309.1446
   4   2.0000     -11.352682      -308.9222
   5   2.0000     -11.303352      -307.5798
   6   2.0000     -11.297564      -307.4223
   7   2.0000     -11.263576      -306.4975
   8   2.0000      -1.347811       -36.6758
   9   2.0000      -1.246561       -33.9206
  10   2.0000      -1.237963       -33.6867
  11   2.0000      -1.058763       -28.8104
  12   2.0000      -0.995750       -27.0957
  13   2.0000      -0.923747       -25.1364
  14   2.0000      -0.804372       -21.8881
  15   2.0000      -0.746150       -20.3038
  16   2.0000      -0.640601       -17.4316
  17   2.0000      -0.635051       -17.2806
  18   2.0000      -0.616740       -16.7823
  19   2.0000      -0.595755       -16.2113
  20   2.0000      -0.577551       -15.7160
  21   2.0000      -0.566069       -15.4035
  22   2.0000      -0.546940       -14.8830
  23   2.0000      -0.515498       -14.0274
  24   2.0000      -0.501509       -13.6468
  25   2.0000      -0.490625       -13.3506
  26   2.0000      -0.478287       -13.0148
  27   2.0000      -0.434000       -11.8097
  28   0.0000       0.099339         2.7032
  29   0.0000       0.117516         3.1978
  30   0.0000       0.128065         3.4848
  31   0.0000       0.147313         4.0086
  32   0.0000       0.164666         4.4808

MULLIKEN ATOMIC CHARGES
-----------------------
   0 C :   -0.394090
   1 C :    0.215851
   2 N :   -0.329977
   3 C :    0.017784
   4 C :   -0.161486
   5 N :   -0.043907
   6 C :   -0.172287
   7 N :   -0.041307
   8 H :    0.169621
   9 H :    0.155185
  10 H :    0.153262
  11 H :    0.247657
  12 H :    0.183693
Sum of atomic charges:    0.0000000

LOEWDIN ATOMIC CHARGES
----------------------
   0 C :   -0.230513
   1 C :   -0.284122
   2 N :    0.085470
   3 C :   -0.206104
   4 C :   -0.164646
   5 N :    0.087969
   6 C :   -0.153786
   7 N :    0.086362
   8 H :    0.144757
   9 H :    0.140439
  10 H :    0.140623
  11 H :    0.183909
  12 H :    0.169642

  Mayer bond orders larger than 0.1
B(  0-C ,  1-C ) :   0.9387 B(  0-C ,  8-H ) :   0.9224 B(  0-C ,  9-H ) :   0.9267
B(  0-C , 10-H ) :   0.9282 B(  1-C ,  2-N ) :   0.8996 B(  1-C ,  3-C ) :   0.8664
B(  1-C ,  6-C ) :   0.9202 B(  2-N ,  3-C ) :   0.9884 B(  2-N , 11-H ) :   0.8607
B(  3-C ,  4-C ) :   0.9294 B(  3-C , 12-H ) :   0.8974 B(  4-C ,  5-N ) :   2.8198
B(  6-C ,  7-N ) :   2.8231

MP2 TOTAL ENERGY:     -357.020692109 Eh
FINAL SINGLE POINT ENERGY      -357.020692109286

DIPOLE MOMENT
-------------
                                X             Y             Z
Electronic contribution:     -0.03260      -3.11588       1.71168
Nuclear contribution   :      0.07679       2.89456      -2.20744
                        -----------------------------------------
Total Dipole Moment    :      0.04420      -0.22132      -0.49576
                        -----------------------------------------
Magnitude (a.u.)       :      0.54471
Magnitude (Debye)      :      1.38455

                             ****ORCA TERMINATED NORMALLY****
TOTAL RUN TIME: 0 days 0 hours 9 minutes 16 seconds 973 msec
