                         Program Version 3.0.3 - RELEASE   -
|  1> ! RI-MP2 RIJK def2-TZVP def2-TZVP/C def2-TZVP/JK TIGHTSCF
|  2> % maxcore 2000
|  3> % mp2 density relaxed end
|  4> *xyz 0 1
|  5>  C       -0.0507035862     1.5742831752    -0.1022630750
|  6>  C        0.0350230206     0.0581978516     0.1304956861
|  7>  O        0.6851911749    -0.2270445016     1.3347830770
|  8>  C       -1.3415648258    -0.5873172723     0.1267949434
|  9>  O       -1.7565899816    -1.2314628636     1.0608688810
| 10>  C       -2.1497190000    -0.4076449436    -1.0886751086
| 11>  N       -2.7661199247    -0.2596531332    -2.0556942737
| 12>  H        0.9609324319     1.9849097455    -0.0826951373
| 13>  H       -0.5040072004     1.8051943191    -1.0700977563
| 14>  H       -0.6320618377     2.0492974571     0.6927008360
| 15>  H        0.5792585278    -0.3925237128    -0.7199787660
| 16>  H        0.0995968512    -0.8095970716     1.8413276735
| 17> *
| 18>
| 19>                          ****END OF INPUT****

CARTESIAN COORDINATES (ANGSTROEM)
---------------------------------
  C     -0.050704    1.574283   -0.102263
  C      0.035023    0.058198    0.130496
  O      0.685191   -0.227045    1.334783
  C     -1.341565   -0.587317    0.126795
  O     -1.756590   -1.231463    1.060869
  C     -2.149719   -0.407645   -1.088675
  N     -2.766120   -0.259653   -2.055694
  H      0.960932    1.984910   -0.082695
  H     -0.504007    1.805194   -1.070098
  H     -0.632062    2.049297    0.692701
  H      0.579259   -0.392524   -0.719979
  H      0.099597   -0.809597    1.841328

 Total Charge           Charge          ....    0
 Multiplicity           Mult            ....    1
 Number of Electrons    NEL             ....   52
 Basis Dimension        Dim             ....  247

ORBITAL ENERGIES
----------------

  NO   OCC          E(Eh)            E(eV)
   0   2.0000     -20.620741      -561.1189
   1   2.0000     -20.582716      -560.0842
   2   2.0000     -15.625919      -425.2029
   3   2.0000     -11.411679      -310.5276
   4   2.0000     -11.332986      -308.3862
   5   2.0000     -11.312752      -307.8356
   6   2.0000     -11.251429      -306.1670
   7   2.0000      -1.467805       -39.9410
   8   2.0000      -1.393772       -37.9265
   9   2.0000      -1.261157       -34.3178
  10   2.0000      -1.082483       -29.4559
  11   2.0000      -0.967745       -26.3337
  12   2.0000      -0.873934       -23.7809
  13   2.0000      -0.780043       -21.2260
  14   2.0000      -0.730334       -19.8734
  15   2.0000      -0.689195       -18.7539
  16   2.0000      -0.628066       -17.0905
  17   2.0000      -0.609489       -16.5850
  18   2.0000      -0.593889       -16.1606
  19   2.0000      -0.585220       -15.9247
  20   2.0000      -0.575955       -15.6725
  21   2.0000      -0.561175       -15.2703
  22   2.0000      -0.510637       -13.8951
  23   2.0000      -0.504301       -13.7227
  24   2.0000      -0.490218       -13.3395
  25   2.0000      -0.474243       -12.9048
  26   0.0000       0.044079         1.1995
  27   0.0000       0.123327         3.3559
  28   0.0000       0.145437         3.9575
  29   0.0000       0.162528         4.4226
  30   0.0000       0.178998         4.8708

MULLIKEN ATOMIC CHARGES
-----------------------
   0 C :   -0.380506
   1 C :    0.080842
   2 O :   -0.462727
   3 C :    0.320384
   4 O :   -0.259148
   5 C :   -0.160630
   6 N :   -0.030806
   7 H :    0.154479
   8 H :    0.148618
   9 H :    0.134538
  10 H :    0.116118
  11 H :    0.338838
Sum of atomic charges:   -0.0000000

LOEWDIN ATOMIC CHARGES
----------------------
   0 C :   -0.274562
   1 C :   -0.356305
   2 O :    0.009355
   3 C :   -0.303687
   4 O :    0.199450
   5 C :   -0.130862
   6 N :    0.112661
   7 H :    0.135622
   8 H :    0.132866
   9 H :    0.130758
  10 H :    0.159730
  11 H :    0.184975

  Mayer bond orders larger than 0.1
B(  0-C ,  1-C ) :   0.8820 B(  0-C ,  7-H ) :   0.9285 B(  0-C ,  8-H ) :   0.9177
B(  0-C ,  9-H ) :   0.9251 B(  1-C ,  2-O ) :   1.0712 B(  1-C ,  3-C ) :   0.9406
B(  1-C , 10-H ) :   0.9036 B(  2-O , 11-H ) :   0.8069 B(  3-C ,  4-O ) :   1.9038
B(  3-C ,  5-C ) :   0.8867 B(  5-C ,  6-N ) :   2.7736

MP2 TOTAL ENERGY:     -359.952261603 Eh
FINAL SINGLE POINT ENERGY      -359.952261603440

DIPOLE MOMENT
-------------
                                X             Y             Z
Electronic contribution:     -4.56464      -4.73094      -0.56349
Nuclear contribution   :      5.09172       5.02583       0.69283
                        -----------------------------------------
Total Dipole Moment    :      0.52708       0.29489       0.12933
                        -----------------------------------------
Magnitude (a.u.)       :      0.61766
Magnitude (Debye)      :      1.56996

                             ****ORCA TERMINATED NORMALLY****
TOTAL RUN TIME: 0 days 0 hours 6 minutes 27 seconds 690 msec
