                         Program Version 3.0.3 - RELEASE   -
|  1> ! RI-MP2 RIJK def2-TZVP def2-TZVP/C def2-TZVP/JK TIGHTSCF
|  2> % maxcore 2000
|  3> % mp2 density relaxed end
|  4> *xyz 0 1
|  5>  C       -0.0463990845     1.4579769935    -0.0405603746
|  6>  C       -0.0533697126    -0.0327860782    -0.0065930477
|  7>  O        0.8514193218    -0.7374920931    -0.8668146909
|  8>  C       -0.0340383858    -1.9081200061    -0.8361552742
|  9>  C        0.5442988689    -2.9063035229     0.1595441931
| 10>  C        0.6018992977    -2.0831947822     1.4810777368
| 11>  C       -0.3452644714    -0.9090766204     1.2271266317
| 12>  C       -1.1055015800    -1.0859205835    -0.0726421134
| 13>  O       -2.4617139368    -1.0113315443    -0.2997285963
| 14>  H        0.9052273797     1.8523263447     0.3322488132
| 15>  H       -0.1910543352     1.8202252072    -1.0630700138
| 16>  H       -0.8505129480     1.8553212536     0.5851398118
| 17>  H       -0.2618584535    -2.2687768929    -1.8407529378
| 18>  H       -0.1290544641    -3.7678035769     0.2532076189
| 19>  H        1.5242135431    -3.2773611246    -0.1525952195
| 20>  H        0.2841605164    -2.6743289524     2.3449980242
| 21>  H        1.6197887968    -1.7364904304     1.6811325854
| 22>  H       -0.8416396716    -0.4004673917     2.0474195668
| 23>  H       -2.9060896610    -1.6355863294     0.2849197862
| 24> *
| 25>
| 26>                          ****END OF INPUT****

CARTESIAN COORDINATES (ANGSTROEM)
---------------------------------
  C     -0.046399    1.457977   -0.040560
  C     -0.053370   -0.032786   -0.006593
  O      0.851419   -0.737492   -0.866815
  C     -0.034038   -1.908120   -0.836155
  C      0.544299   -2.906304    0.159544
  C      0.601899   -2.083195    1.481078
  C     -0.345264   -0.909077    1.227127
  C     -1.105502   -1.085921   -0.072642
  O     -2.461714   -1.011332   -0.299729
  H      0.905227    1.852326    0.332249
  H     -0.191054    1.820225   -1.063070
  H     -0.850513    1.855321    0.585140
  H     -0.261858   -2.268777   -1.840753
  H     -0.129054   -3.767804    0.253208
  H      1.524214   -3.277361   -0.152595
  H      0.284161   -2.674329    2.344998
  H      1.619789   -1.736490    1.681133
  H     -0.841640   -0.400467    2.047420
  H     -2.906090   -1.635586    0.284920

 Total Charge           Charge          ....    0
 Multiplicity           Mult            ....    1
 Number of Electrons    NEL             ....   68
 Basis Dimension        Dim             ....  339

ORBITAL ENERGIES
----------------

  NO   OCC          E(Eh)            E(eV)
   0   2.0000     -20.578557      -559.9710
   1   2.0000     -20.546063      -559.0868
   2   2.0000     -11.286743      -307.1279
   3   2.0000     -11.284064      -307.0550
   4   2.0000     -11.282340      -307.0081
   5   2.0000     -11.232359      -305.6480
   6   2.0000     -11.226451      -305.4873
   7   2.0000     -11.225181      -305.4527
   8   2.0000     -11.221995      -305.3660
   9   2.0000      -1.402386       -38.1609
  10   2.0000      -1.372328       -37.3429
  11   2.0000      -1.129846       -30.7447
  12   2.0000      -1.050115       -28.5751
  13   2.0000      -0.972505       -26.4632
  14   2.0000      -0.941851       -25.6291
  15   2.0000      -0.806962       -21.9586
  16   2.0000      -0.789547       -21.4847
  17   2.0000      -0.745159       -20.2768
  18   2.0000      -0.696279       -18.9467
  19   2.0000      -0.665889       -18.1198
  20   2.0000      -0.649137       -17.6639
  21   2.0000      -0.617764       -16.8102
  22   2.0000      -0.587467       -15.9858
  23   2.0000      -0.575823       -15.6690
  24   2.0000      -0.564401       -15.3581
  25   2.0000      -0.550123       -14.9696
  26   2.0000      -0.533702       -14.5228
  27   2.0000      -0.521086       -14.1795
  28   2.0000      -0.502477       -13.6731
  29   2.0000      -0.498453       -13.5636
  30   2.0000      -0.473541       -12.8857
  31   2.0000      -0.430713       -11.7203
  32   2.0000      -0.386309       -10.5120
  33   2.0000      -0.360321        -9.8048
  34   0.0000       0.125529         3.4158
  35   0.0000       0.153588         4.1793
  36   0.0000       0.161417         4.3924
  37   0.0000       0.173117         4.7107
  38   0.0000       0.182895         4.9768

MULLIKEN ATOMIC CHARGES
-----------------------
   0 C :   -0.443038
   1 C :    0.180257
   2 O :   -0.326384
   3 C :    0.119906
   4 C :   -0.246907
   5 C :   -0.209639
   6 C :   -0.183451
   7 C :    0.079209
   8 O :   -0.447584
   9 H :    0.143377
  10 H :    0.144706
  11 H :    0.137644
  12 H :    0.122516
  13 H :    0.106671
  14 H :    0.120985
  15 H :    0.118985
  16 H :    0.116160
  17 H :    0.136357
  18 H :    0.330229
Sum of atomic charges:    0.0000000

LOEWDIN ATOMIC CHARGES
----------------------
   0 C :   -0.264732
   1 C :   -0.270732
   2 O :    0.183662
   3 C :   -0.205575
   4 C :   -0.232642
   5 C :   -0.227664
   6 C :   -0.153938
   7 C :   -0.294357
   8 O :    0.034946
   9 H :    0.133956
  10 H :    0.134664
  11 H :    0.137237
  12 H :    0.137785
  13 H :    0.137865
  14 H :    0.138428
  15 H :    0.134466
  16 H :    0.140047
  17 H :    0.150419
  18 H :    0.186166

  Mayer bond orders larger than 0.1
B(  0-C ,  1-C ) :   0.8666 B(  0-C ,  9-H ) :   0.9408 B(  0-C , 10-H ) :   0.9414
B(  0-C , 11-H ) :   0.9336 B(  1-C ,  2-O ) :   0.9910 B(  1-C ,  6-C ) :   0.8469
B(  1-C ,  7-C ) :   0.9103 B(  2-O ,  3-C ) :   0.9236 B(  3-C ,  4-C ) :   0.9245
B(  3-C ,  7-C ) :   0.9197 B(  3-C , 12-H ) :   0.9049 B(  4-C ,  5-C ) :   0.9933
B(  4-C , 13-H ) :   0.9149 B(  4-C , 14-H ) :   0.9118 B(  5-C ,  6-C ) :   0.8795
B(  5-C , 15-H ) :   0.9286 B(  5-C , 16-H ) :   0.9124 B(  6-C ,  7-C ) :   0.8505
B(  6-C , 17-H ) :   0.9255 B(  7-C ,  8-O ) :   1.0542 B(  8-O , 18-H ) :   0.8320

MP2 TOTAL ENERGY:     -422.294293510 Eh
FINAL SINGLE POINT ENERGY      -422.294293509875

DIPOLE MOMENT
-------------
                                X             Y             Z
Electronic contribution:     -1.97629      -0.38296      -2.78742
Nuclear contribution   :      1.56016      -0.07827       3.52183
                        -----------------------------------------
Total Dipole Moment    :     -0.41613      -0.46123       0.73441
                        -----------------------------------------
Magnitude (a.u.)       :      0.96190
Magnitude (Debye)      :      2.44494

                             ****ORCA TERMINATED NORMALLY****
TOTAL RUN TIME: 0 days 0 hours 18 minutes 4 seconds 909 msec
