                         Program Version 3.0.3 - RELEASE   -
|  1> ! RI-MP2 RIJK def2-TZVP def2-TZVP/C def2-TZVP/JK TIGHTSCF
|  2> % maxcore 2000
|  3> % mp2 density relaxed end
|  4> *xyz 0 1
|  5>  C       -0.1155303644    -1.2044591246    -0.0016621820
|  6>  C       -0.0611341063    -0.0095933863     0.1177886602
|  7>  C        0.0378844246     1.4385522088     0.2492357004
|  8>  C        1.3686392007     2.0010357899    -0.2973150708
|  9>  C        1.4448255492     3.5042830227    -0.1594467446
| 10>  C        1.8815029359     4.1429663292     1.1284384853
| 11>  C        2.7868056182     4.2267687261    -0.0935600684
| 12>  C        4.0236869767     3.5029508427    -0.1307252944
| 13>  C        5.0671273013     2.9049209998    -0.1715324186
| 14>  H       -0.1747276388    -2.2595963765    -0.1026555215
| 15>  H       -0.8027811352     1.9109321722    -0.2761766756
| 16>  H       -0.0685196891     1.7212547636     1.3043412846
| 17>  H        2.2043708821     1.5334738377     0.2317640710
| 18>  H        1.4723093589     1.7151924564    -1.3501618540
| 19>  H        0.6837015708     4.0456480562    -0.7168728877
| 20>  H        1.4005652138     5.0567501009     1.4586609786
| 21>  H        2.2113604316     3.4891588263     1.9284914219
| 22>  H        2.8185017842     5.1923100063    -0.5901712902
| 23>  H        5.9877814356     2.3774253686    -0.2052728442
| 24> *
| 25>
| 26>                          ****END OF INPUT****

CARTESIAN COORDINATES (ANGSTROEM)
---------------------------------
  C     -0.115530   -1.204459   -0.001662
  C     -0.061134   -0.009593    0.117789
  C      0.037884    1.438552    0.249236
  C      1.368639    2.001036   -0.297315
  C      1.444826    3.504283   -0.159447
  C      1.881503    4.142966    1.128438
  C      2.786806    4.226769   -0.093560
  C      4.023687    3.502951   -0.130725
  C      5.067127    2.904921   -0.171532
  H     -0.174728   -2.259596   -0.102656
  H     -0.802781    1.910932   -0.276177
  H     -0.068520    1.721255    1.304341
  H      2.204371    1.533474    0.231764
  H      1.472309    1.715192   -1.350162
  H      0.683702    4.045648   -0.716873
  H      1.400565    5.056750    1.458661
  H      2.211360    3.489159    1.928491
  H      2.818502    5.192310   -0.590171
  H      5.987781    2.377425   -0.205273

 Total Charge           Charge          ....    0
 Multiplicity           Mult            ....    1
 Number of Electrons    NEL             ....   64
 Basis Dimension        Dim             ....  339

ORBITAL ENERGIES
----------------

  NO   OCC          E(Eh)            E(eV)
   0   2.0000     -11.260471      -306.4130
   1   2.0000     -11.253081      -306.2119
   2   2.0000     -11.249685      -306.1195
   3   2.0000     -11.241477      -305.8961
   4   2.0000     -11.234847      -305.7157
   5   2.0000     -11.234591      -305.7088
   6   2.0000     -11.231494      -305.6245
   7   2.0000     -11.219702      -305.3036
   8   2.0000     -11.217685      -305.2487
   9   2.0000      -1.172318       -31.9004
  10   2.0000      -1.080943       -29.4140
  11   2.0000      -1.025254       -27.8986
  12   2.0000      -0.996930       -27.1279
  13   2.0000      -0.902112       -24.5477
  14   2.0000      -0.866972       -23.5915
  15   2.0000      -0.796400       -21.6711
  16   2.0000      -0.719738       -19.5851
  17   2.0000      -0.713275       -19.4092
  18   2.0000      -0.688623       -18.7384
  19   2.0000      -0.661840       -18.0096
  20   2.0000      -0.630569       -17.1586
  21   2.0000      -0.611215       -16.6320
  22   2.0000      -0.557849       -15.1799
  23   2.0000      -0.552519       -15.0348
  24   2.0000      -0.525894       -14.3103
  25   2.0000      -0.501651       -13.6506
  26   2.0000      -0.475205       -12.9310
  27   2.0000      -0.446296       -12.1443
  28   2.0000      -0.385152       -10.4805
  29   2.0000      -0.383603       -10.4384
  30   2.0000      -0.379669       -10.3313
  31   2.0000      -0.358920        -9.7667
  32   0.0000       0.133182         3.6241
  33   0.0000       0.149665         4.0726
  34   0.0000       0.160574         4.3695
  35   0.0000       0.164092         4.4652
  36   0.0000       0.170563         4.6413

MULLIKEN ATOMIC CHARGES
-----------------------
   0 C :   -0.120300
   1 C :   -0.007050
   2 C :   -0.395710
   3 C :   -0.216366
   4 C :   -0.065687
   5 C :   -0.260208
   6 C :   -0.266986
   7 C :   -0.010738
   8 C :   -0.132956
   9 H :    0.189159
  10 H :    0.140346
  11 H :    0.147500
  12 H :    0.138777
  13 H :    0.131025
  14 H :    0.122554
  15 H :    0.138390
  16 H :    0.140341
  17 H :    0.138967
  18 H :    0.188943
Sum of atomic charges:   -0.0000000

LOEWDIN ATOMIC CHARGES
----------------------
   0 C :   -0.109184
   1 C :   -0.112542
   2 C :   -0.243844
   3 C :   -0.223973
   4 C :   -0.195116
   5 C :   -0.183489
   6 C :   -0.191405
   7 C :   -0.097791
   8 C :   -0.101102
   9 H :    0.125618
  10 H :    0.156239
  11 H :    0.157493
  12 H :    0.152979
  13 H :    0.148165
  14 H :    0.151429
  15 H :    0.133726
  16 H :    0.142067
  17 H :    0.164407
  18 H :    0.126323

  Mayer bond orders larger than 0.1
B(  0-C ,  1-C ) :   2.6129 B(  0-C ,  2-C ) :  -0.1233 B(  0-C ,  9-H ) :   0.8949
B(  1-C ,  2-C ) :   1.1227 B(  2-C ,  3-C ) :   0.9261 B(  2-C , 10-H ) :   0.9201
B(  2-C , 11-H ) :   0.9277 B(  3-C ,  4-C ) :   0.9293 B(  3-C , 12-H ) :   0.9261
B(  3-C , 13-H ) :   0.9303 B(  4-C ,  5-C ) :   0.8849 B(  4-C ,  6-C ) :   0.8505
B(  4-C , 14-H ) :   0.9206 B(  5-C ,  6-C ) :   0.8441 B(  5-C , 15-H ) :   0.9243
B(  5-C , 16-H ) :   0.9274 B(  6-C ,  7-C ) :   1.1947 B(  6-C ,  8-C ) :  -0.1316
B(  6-C , 17-H ) :   0.9387 B(  7-C ,  8-C ) :   2.5541 B(  8-C , 18-H ) :   0.9006

MP2 TOTAL ENERGY:     -348.009394575 Eh
FINAL SINGLE POINT ENERGY      -348.009394574651

DIPOLE MOMENT
-------------
                                X             Y             Z
Electronic contribution:      1.95801      -1.38596      -0.79086
Nuclear contribution   :     -2.16875       1.71333       0.83196
                        -----------------------------------------
Total Dipole Moment    :     -0.21074       0.32737       0.04110
                        -----------------------------------------
Magnitude (a.u.)       :      0.39150
Magnitude (Debye)      :      0.99510

                             ****ORCA TERMINATED NORMALLY****
TOTAL RUN TIME: 0 days 0 hours 15 minutes 56 seconds 902 msec
