                         Program Version 3.0.3 - RELEASE   -
|  1> ! RI-MP2 RIJK def2-TZVP def2-TZVP/C def2-TZVP/JK TIGHTSCF
|  2> % maxcore 2000
|  3> % mp2 density relaxed end
|  4> *xyz 0 1
|  5>  O       -0.4143610209     0.1988069690     0.2397558964
|  6>  C        0.0116510330     1.3239404630     0.1953148464
|  7>  C        1.4146485101     1.6995640690    -0.2446015795
|  8>  C        1.3967001014     2.7606643104    -1.3218797717
|  9>  C        0.9203346564     2.4087422598    -2.7268963082
| 10>  O        1.3106690704     3.5063651746    -3.5451967212
| 11>  C        2.5246086064     4.0357843331    -3.0147252421
| 12>  C        2.4241507961     3.8184868553    -1.5165422614
| 13>  N        1.1325744661     4.1457990059    -0.8991647962
| 14>  H       -0.6183949253     2.1944728699     0.4847137633
| 15>  H        1.9332039692     2.1061992547     0.6326333528
| 16>  H        1.9355717945     0.7950952573    -0.5733776612
| 17>  H        1.3931800069     1.4683667388    -3.0543871297
| 18>  H       -0.1654994142     2.2982438844    -2.8213099327
| 19>  H        3.4067710296     3.5091488131    -3.4132936158
| 20>  H        2.5819417099     5.0867164593    -3.3165919427
| 21>  H        3.3059047129     3.9216703770    -0.8922584712
| 22>  H        0.5343653876     4.6125188954    -1.5802210154
| 23> *
| 24>
| 25>                          ****END OF INPUT****

CARTESIAN COORDINATES (ANGSTROEM)
---------------------------------
  O     -0.414361    0.198807    0.239756
  C      0.011651    1.323940    0.195315
  C      1.414649    1.699564   -0.244602
  C      1.396700    2.760664   -1.321880
  C      0.920335    2.408742   -2.726896
  O      1.310669    3.506365   -3.545197
  C      2.524609    4.035784   -3.014725
  C      2.424151    3.818487   -1.516542
  N      1.132574    4.145799   -0.899165
  H     -0.618395    2.194473    0.484714
  H      1.933204    2.106199    0.632633
  H      1.935572    0.795095   -0.573378
  H      1.393180    1.468367   -3.054387
  H     -0.165499    2.298244   -2.821310
  H      3.406771    3.509149   -3.413294
  H      2.581942    5.086716   -3.316592
  H      3.305905    3.921670   -0.892258
  H      0.534365    4.612519   -1.580221

 Total Charge           Charge          ....    0
 Multiplicity           Mult            ....    1
 Number of Electrons    NEL             ....   68
 Basis Dimension        Dim             ....  333

ORBITAL ENERGIES
----------------

  NO   OCC          E(Eh)            E(eV)
   0   2.0000     -20.574252      -559.8539
   1   2.0000     -20.561028      -559.4940
   2   2.0000     -15.572971      -423.7621
   3   2.0000     -11.335069      -308.4429
   4   2.0000     -11.295388      -307.3631
   5   2.0000     -11.295038      -307.3536
   6   2.0000     -11.286219      -307.1136
   7   2.0000     -11.276337      -306.8447
   8   2.0000     -11.252440      -306.1945
   9   2.0000      -1.405048       -38.2333
  10   2.0000      -1.399503       -38.0824
  11   2.0000      -1.277423       -34.7604
  12   2.0000      -1.059340       -28.8261
  13   2.0000      -1.001483       -27.2517
  14   2.0000      -0.956095       -26.0167
  15   2.0000      -0.843519       -22.9533
  16   2.0000      -0.812037       -22.0967
  17   2.0000      -0.780345       -21.2343
  18   2.0000      -0.721878       -19.6433
  19   2.0000      -0.681794       -18.5526
  20   2.0000      -0.668138       -18.1809
  21   2.0000      -0.651676       -17.7330
  22   2.0000      -0.635655       -17.2970
  23   2.0000      -0.629923       -17.1411
  24   2.0000      -0.581896       -15.8342
  25   2.0000      -0.565925       -15.3996
  26   2.0000      -0.548537       -14.9265
  27   2.0000      -0.539029       -14.6677
  28   2.0000      -0.505230       -13.7480
  29   2.0000      -0.478476       -13.0200
  30   2.0000      -0.462777       -12.5928
  31   2.0000      -0.453481       -12.3399
  32   2.0000      -0.429425       -11.6852
  33   2.0000      -0.395747       -10.7688
  34   0.0000       0.123594         3.3632
  35   0.0000       0.139807         3.8043
  36   0.0000       0.152948         4.1619
  37   0.0000       0.161811         4.4031
  38   0.0000       0.167642         4.5618

MULLIKEN ATOMIC CHARGES
-----------------------
   0 O :   -0.262104
   1 C :    0.074352
   2 C :   -0.148299
   3 C :    0.035602
   4 C :   -0.033512
   5 O :   -0.329530
   6 C :   -0.024042
   7 C :   -0.128581
   8 N :   -0.374405
   9 H :    0.097581
  10 H :    0.139427
  11 H :    0.122876
  12 H :    0.103693
  13 H :    0.131788
  14 H :    0.101984
  15 H :    0.127625
  16 H :    0.134553
  17 H :    0.230993
Sum of atomic charges:    0.0000000

LOEWDIN ATOMIC CHARGES
----------------------
   0 O :    0.132118
   1 C :   -0.285985
   2 C :   -0.219488
   3 C :   -0.295570
   4 C :   -0.265520
   5 O :    0.148882
   6 C :   -0.289534
   7 C :   -0.239377
   8 N :    0.040685
   9 H :    0.116187
  10 H :    0.164112
  11 H :    0.151477
  12 H :    0.131440
  13 H :    0.134521
  14 H :    0.127834
  15 H :    0.131385
  16 H :    0.142876
  17 H :    0.173955

  Mayer bond orders larger than 0.1
B(  0-O ,  1-C ) :   1.9935 B(  1-C ,  2-C ) :   0.8755 B(  1-C ,  9-H ) :   0.9381
B(  2-C ,  3-C ) :   0.8727 B(  2-C , 10-H ) :   0.9118 B(  2-C , 11-H ) :   0.9075
B(  3-C ,  4-C ) :   0.9699 B(  3-C ,  7-C ) :   0.8828 B(  3-C ,  8-N ) :   0.8489
B(  4-C ,  5-O ) :   0.9164 B(  4-C , 12-H ) :   0.9188 B(  4-C , 13-H ) :   0.9160
B(  5-O ,  6-C ) :   0.9206 B(  6-C ,  7-C ) :   0.9671 B(  6-C , 14-H ) :   0.9239
B(  6-C , 15-H ) :   0.9147 B(  7-C ,  8-N ) :   0.9612 B(  7-C , 16-H ) :   0.9047
B(  8-N , 17-H ) :   0.8625

MP2 TOTAL ENERGY:     -438.350369174 Eh
FINAL SINGLE POINT ENERGY      -438.350369174442

DIPOLE MOMENT
-------------
                                X             Y             Z
Electronic contribution:     -2.60387      -1.47715       1.17159
Nuclear contribution   :      3.50404       2.03708      -1.43410
                        -----------------------------------------
Total Dipole Moment    :      0.90018       0.55994      -0.26251
                        -----------------------------------------
Magnitude (a.u.)       :      1.09213
Magnitude (Debye)      :      2.77598

                             ****ORCA TERMINATED NORMALLY****
TOTAL RUN TIME: 0 days 0 hours 17 minutes 14 seconds 137 msec
