                         Program Version 3.0.3 - RELEASE   -
|  1> ! RI-MP2 RIJK def2-TZVP def2-TZVP/C def2-TZVP/JK TIGHTSCF
|  2> % maxcore 2000
|  3> % mp2 density relaxed end
|  4> *xyz 0 1
|  5>  C       -0.1001400410     1.5253681700     0.1300638841
|  6>  C        0.0476906233     0.0038190552    -0.0406963915
|  7>  C        0.8522351671    -0.6064662938     1.1131602724
|  8>  C       -1.3307944534    -0.6141254775    -0.2066230996
|  9>  C       -1.7291085858    -1.9434436504     0.2727980903
| 10>  O       -2.1358181088    -0.7619177247     0.9685109671
| 11>  H        0.8791152920     2.0112037541     0.1807366575
| 12>  H       -0.6535311633     1.9696058797    -0.7041169783
| 13>  H       -0.6430890319     1.7561041429     1.0525973811
| 14>  H        0.5849544692    -0.1821922122    -0.9819798752
| 15>  H        1.7868552397    -0.0569234133     1.2591262097
| 16>  H        0.2795907514    -0.5586596572     2.0442970320
| 17>  H        1.1115608601    -1.6521035687     0.9226157296
| 18>  H       -1.8888084881    -0.2167108846    -1.0582653639
| 19>  H       -2.5266673916    -2.4813064569    -0.2388936911
| 20>  H       -1.0177982188    -2.5724214628     0.8032975159
| 21> *
| 22>
| 23>                          ****END OF INPUT****

CARTESIAN COORDINATES (ANGSTROEM)
---------------------------------
  C     -0.100140    1.525368    0.130064
  C      0.047691    0.003819   -0.040696
  C      0.852235   -0.606466    1.113160
  C     -1.330794   -0.614125   -0.206623
  C     -1.729109   -1.943444    0.272798
  O     -2.135818   -0.761918    0.968511
  H      0.879115    2.011204    0.180737
  H     -0.653531    1.969606   -0.704117
  H     -0.643089    1.756104    1.052597
  H      0.584954   -0.182192   -0.981980
  H      1.786855   -0.056923    1.259126
  H      0.279591   -0.558660    2.044297
  H      1.111561   -1.652104    0.922616
  H     -1.888808   -0.216711   -1.058265
  H     -2.526667   -2.481306   -0.238894
  H     -1.017798   -2.572421    0.803298

 Total Charge           Charge          ....    0
 Multiplicity           Mult            ....    1
 Number of Electrons    NEL             ....   48
 Basis Dimension        Dim             ....  246

ORBITAL ENERGIES
----------------

  NO   OCC          E(Eh)            E(eV)
   0   2.0000     -20.562285      -559.5282
   1   2.0000     -11.282750      -307.0192
   2   2.0000     -11.278235      -306.8964
   3   2.0000     -11.236009      -305.7474
   4   2.0000     -11.214306      -305.1568
   5   2.0000     -11.213520      -305.1354
   6   2.0000      -1.405313       -38.2405
   7   2.0000      -1.077455       -29.3190
   8   2.0000      -0.933826       -25.4107
   9   2.0000      -0.925206       -25.1761
  10   2.0000      -0.869221       -23.6527
  11   2.0000      -0.766523       -20.8582
  12   2.0000      -0.696274       -18.9466
  13   2.0000      -0.653915       -17.7939
  14   2.0000      -0.616878       -16.7861
  15   2.0000      -0.567842       -15.4518
  16   2.0000      -0.558905       -15.2086
  17   2.0000      -0.538853       -14.6629
  18   2.0000      -0.533825       -14.5261
  19   2.0000      -0.502049       -13.6615
  20   2.0000      -0.482932       -13.1413
  21   2.0000      -0.474878       -12.9221
  22   2.0000      -0.437288       -11.8992
  23   2.0000      -0.427024       -11.6199
  24   0.0000       0.139212         3.7882
  25   0.0000       0.166046         4.5183
  26   0.0000       0.169561         4.6140
  27   0.0000       0.180432         4.9098
  28   0.0000       0.201075         5.4715

MULLIKEN ATOMIC CHARGES
-----------------------
   0 C :   -0.419933
   1 C :    0.008358
   2 C :   -0.437301
   3 C :    0.008924
   4 C :   -0.066054
   5 O :   -0.343071
   6 H :    0.130745
   7 H :    0.126662
   8 H :    0.142646
   9 H :    0.085730
  10 H :    0.134848
  11 H :    0.151343
  12 H :    0.125132
  13 H :    0.118713
  14 H :    0.115583
  15 H :    0.117676
Sum of atomic charges:   -0.0000000

LOEWDIN ATOMIC CHARGES
----------------------
   0 C :   -0.289400
   1 C :   -0.297196
   2 C :   -0.292550
   3 C :   -0.275854
   4 C :   -0.267079
   5 O :    0.140294
   6 H :    0.122267
   7 H :    0.122613
   8 H :    0.129046
   9 H :    0.155413
  10 H :    0.124997
  11 H :    0.130521
  12 H :    0.120575
  13 H :    0.138800
  14 H :    0.118074
  15 H :    0.119478

  Mayer bond orders larger than 0.1
B(  0-C ,  1-C ) :   0.9087 B(  0-C ,  6-H ) :   0.9399 B(  0-C ,  7-H ) :   0.9370
B(  0-C ,  8-H ) :   0.9334 B(  1-C ,  2-C ) :   0.9117 B(  1-C ,  3-C ) :   0.9234
B(  1-C ,  9-H ) :   0.9215 B(  2-C , 10-H ) :   0.9386 B(  2-C , 11-H ) :   0.9310
B(  2-C , 12-H ) :   0.9371 B(  3-C ,  4-C ) :   0.9834 B(  3-C ,  5-O ) :   0.8772
B(  3-C , 13-H ) :   0.9201 B(  4-C ,  5-O ) :   0.9036 B(  4-C , 14-H ) :   0.9221
B(  4-C , 15-H ) :   0.9089

MP2 TOTAL ENERGY:     -271.151507354 Eh
FINAL SINGLE POINT ENERGY      -271.151507354193

DIPOLE MOMENT
-------------
                                X             Y             Z
Electronic contribution:     -4.49040      -2.05323       0.09168
Nuclear contribution   :      4.92849       1.81803      -0.62243
                        -----------------------------------------
Total Dipole Moment    :      0.43809      -0.23520      -0.53075
                        -----------------------------------------
Magnitude (a.u.)       :      0.72728
Magnitude (Debye)      :      1.84860

                             ****ORCA TERMINATED NORMALLY****
TOTAL RUN TIME: 0 days 0 hours 5 minutes 39 seconds 452 msec
