                         Program Version 3.0.3 - RELEASE   -
|  1> ! RI-MP2 RIJK def2-TZVP def2-TZVP/C def2-TZVP/JK TIGHTSCF
|  2> % maxcore 2000
|  3> % mp2 density relaxed end
|  4> *xyz 0 1
|  5>  C        0.0025273760     1.5133249032    -0.2137947169
|  6>  C       -0.1018408484     0.0393587346     0.2080345528
|  7>  C       -1.4999017646    -0.4841330205     0.1389593653
|  8>  N       -2.1511363947    -0.9175839422     1.2034899106
|  9>  N       -3.3690083389    -1.2859456988     0.6859123163
| 10>  C       -4.4152868576    -1.8306767720     1.5191594730
| 11>  C       -3.3582936320    -1.0476526537    -0.6361009169
| 12>  O       -4.4278277630    -1.3183125832    -1.3962206757
| 13>  N       -2.2117621728    -0.5445536008    -1.0343030829
| 14>  H        1.0430866665     1.8505436829    -0.1880378401
| 15>  H       -0.3794289146     1.6510336209    -1.2289618217
| 16>  H       -0.5795025498     2.1539925396     0.4560609847
| 17>  H        0.5348189915    -0.5686236605    -0.4462322094
| 18>  H        0.2597384799    -0.0958723384     1.2312293996
| 19>  H       -4.6906135688    -1.1136206682     2.2972271807
| 20>  H       -5.2833400744    -2.0383775876     0.8925162813
| 21>  H       -4.0786562024    -2.7564884899     1.9936333591
| 22>  H       -4.1923666921    -1.0697518756    -2.2988965198
| 23> *
| 24>
| 25>                          ****END OF INPUT****

CARTESIAN COORDINATES (ANGSTROEM)
---------------------------------
  C      0.002527    1.513325   -0.213795
  C     -0.101841    0.039359    0.208035
  C     -1.499902   -0.484133    0.138959
  N     -2.151136   -0.917584    1.203490
  N     -3.369008   -1.285946    0.685912
  C     -4.415287   -1.830677    1.519159
  C     -3.358294   -1.047653   -0.636101
  O     -4.427828   -1.318313   -1.396221
  N     -2.211762   -0.544554   -1.034303
  H      1.043087    1.850544   -0.188038
  H     -0.379429    1.651034   -1.228962
  H     -0.579503    2.153993    0.456061
  H      0.534819   -0.568624   -0.446232
  H      0.259738   -0.095872    1.231229
  H     -4.690614   -1.113621    2.297227
  H     -5.283340   -2.038378    0.892516
  H     -4.078656   -2.756488    1.993633
  H     -4.192367   -1.069752   -2.298897

 Total Charge           Charge          ....    0
 Multiplicity           Mult            ....    1
 Number of Electrons    NEL             ....   68
 Basis Dimension        Dim             ....  333

ORBITAL ENERGIES
----------------

  NO   OCC          E(Eh)            E(eV)
   0   2.0000     -20.624460      -561.2201
   1   2.0000     -15.635156      -425.4542
   2   2.0000     -15.574411      -423.8013
   3   2.0000     -15.543991      -422.9735
   4   2.0000     -11.373871      -309.4988
   5   2.0000     -11.288100      -307.1648
   6   2.0000     -11.274928      -306.8064
   7   2.0000     -11.227072      -305.5042
   8   2.0000     -11.213031      -305.1221
   9   2.0000      -1.464284       -39.8452
  10   2.0000      -1.385594       -37.7039
  11   2.0000      -1.205641       -32.8071
  12   2.0000      -1.118960       -30.4484
  13   2.0000      -1.037028       -28.2190
  14   2.0000      -0.965275       -26.2665
  15   2.0000      -0.882209       -24.0061
  16   2.0000      -0.823872       -22.4187
  17   2.0000      -0.791101       -21.5269
  18   2.0000      -0.739133       -20.1128
  19   2.0000      -0.684416       -18.6239
  20   2.0000      -0.675162       -18.3721
  21   2.0000      -0.628608       -17.1053
  22   2.0000      -0.603899       -16.4329
  23   2.0000      -0.603133       -16.4121
  24   2.0000      -0.582981       -15.8637
  25   2.0000      -0.571691       -15.5565
  26   2.0000      -0.550825       -14.9887
  27   2.0000      -0.517666       -14.0864
  28   2.0000      -0.504179       -13.7194
  29   2.0000      -0.491904       -13.3854
  30   2.0000      -0.484650       -13.1880
  31   2.0000      -0.440246       -11.9797
  32   2.0000      -0.398396       -10.8409
  33   2.0000      -0.345087        -9.3903
  34   0.0000       0.132807         3.6139
  35   0.0000       0.150036         4.0827
  36   0.0000       0.157199         4.2776
  37   0.0000       0.174742         4.7550
  38   0.0000       0.189948         5.1687

MULLIKEN ATOMIC CHARGES
-----------------------
   0 C :   -0.392443
   1 C :   -0.212079
   2 C :    0.142063
   3 N :   -0.259439
   4 N :    0.058375
   5 C :   -0.315054
   6 C :    0.301100
   7 O :   -0.436428
   8 N :   -0.358512
   9 H :    0.127492
  10 H :    0.138350
  11 H :    0.125401
  12 H :    0.117802
  13 H :    0.128931
  14 H :    0.154951
  15 H :    0.165845
  16 H :    0.154713
  17 H :    0.358932
Sum of atomic charges:    0.0000000

LOEWDIN ATOMIC CHARGES
----------------------
   0 C :   -0.309338
   1 C :   -0.256886
   2 C :   -0.355368
   3 N :    0.058797
   4 N :    0.175600
   5 C :   -0.273388
   6 C :   -0.472531
   7 O :    0.086702
   8 N :    0.088547
   9 H :    0.119419
  10 H :    0.124718
  11 H :    0.121823
  12 H :    0.146553
  13 H :    0.147182
  14 H :    0.126768
  15 H :    0.133047
  16 H :    0.126683
  17 H :    0.211671

  Mayer bond orders larger than 0.1
B(  0-C ,  1-C ) :   0.9135 B(  0-C ,  9-H ) :   0.9370 B(  0-C , 10-H ) :   0.9353
B(  0-C , 11-H ) :   0.9373 B(  1-C ,  2-C ) :   0.9090 B(  1-C , 12-H ) :   0.9295
B(  1-C , 13-H ) :   0.9450 B(  2-C ,  3-N ) :   1.6265 B(  2-C ,  8-N ) :   1.2731
B(  3-N ,  4-N ) :   0.9277 B(  4-N ,  5-C ) :   0.8687 B(  4-N ,  6-C ) :   1.2622
B(  5-C , 14-H ) :   0.9299 B(  5-C , 15-H ) :   0.9251 B(  5-C , 16-H ) :   0.9301
B(  6-C ,  7-O ) :   1.1084 B(  6-C ,  8-N ) :   1.5089 B(  7-O , 17-H ) :   0.8098

MP2 TOTAL ENERGY:     -434.590556431 Eh
FINAL SINGLE POINT ENERGY      -434.590556431017

DIPOLE MOMENT
-------------
                                X             Y             Z
Electronic contribution:     -4.93470      -3.90243      -2.32610
Nuclear contribution   :      4.21040       3.65499       2.22016
                        -----------------------------------------
Total Dipole Moment    :     -0.72430      -0.24744      -0.10594
                        -----------------------------------------
Magnitude (a.u.)       :      0.77270
Magnitude (Debye)      :      1.96404

                             ****ORCA TERMINATED NORMALLY****
TOTAL RUN TIME: 0 days 0 hours 17 minutes 1 seconds 811 msec
