                         Program Version 3.0.3 - RELEASE   -
|  1> ! RI-MP2 RIJK def2-TZVP def2-TZVP/C def2-TZVP/JK TIGHTSCF
|  2> % maxcore 2000
|  3> % mp2 density relaxed end
|  4> *xyz 0 1
|  5>  C        0.0066979823     1.6214182290    -0.0967680524
|  6>  O        1.3900353755     1.9219141776    -0.2388259764
|  7>  C        2.0749203898     0.7132812691    -0.5895021168
|  8>  O        1.0761016038    -0.2640102179    -0.8103088804
|  9>  C       -0.0152753470     0.0953375884     0.0382778876
| 10>  C        0.1577150863    -0.4350032877     1.4695692879
| 11>  C        1.2812041451     0.1957805272     2.3167557741
| 12>  C        2.6843082937     0.0845724133     1.7639217632
| 13>  C        3.0463706446     0.3176739115     0.5037166238
| 14>  H       -0.3832076944     2.1471547859     0.7811494175
| 15>  H       -0.5528494964     1.9458057510    -0.9847122097
| 16>  H        2.5981033627     0.8592955480    -1.5419030480
| 17>  H       -0.9142700126    -0.3441015340    -0.4031665882
| 18>  H       -0.7945802486    -0.2951774395     1.9976438438
| 19>  H        0.3234535028    -1.5156073950     1.3973571870
| 20>  H        1.0604304966     1.2588959951     2.4886207538
| 21>  H        1.2518386149    -0.2723792583     3.3063043258
| 22>  H        3.4580990898    -0.1820751729     2.4803455465
| 23>  H        4.0891664511     0.2273866091     0.2127403508
| 24> *
| 25>
| 26>                          ****END OF INPUT****

CARTESIAN COORDINATES (ANGSTROEM)
---------------------------------
  C      0.006698    1.621418   -0.096768
  O      1.390035    1.921914   -0.238826
  C      2.074920    0.713281   -0.589502
  O      1.076102   -0.264010   -0.810309
  C     -0.015275    0.095338    0.038278
  C      0.157715   -0.435003    1.469569
  C      1.281204    0.195781    2.316756
  C      2.684308    0.084572    1.763922
  C      3.046371    0.317674    0.503717
  H     -0.383208    2.147155    0.781149
  H     -0.552849    1.945806   -0.984712
  H      2.598103    0.859296   -1.541903
  H     -0.914270   -0.344102   -0.403167
  H     -0.794580   -0.295177    1.997644
  H      0.323454   -1.515607    1.397357
  H      1.060430    1.258896    2.488621
  H      1.251839   -0.272379    3.306304
  H      3.458099   -0.182075    2.480346
  H      4.089166    0.227387    0.212740

 Total Charge           Charge          ....    0
 Multiplicity           Mult            ....    1
 Number of Electrons    NEL             ....   68
 Basis Dimension        Dim             ....  339

ORBITAL ENERGIES
----------------

  NO   OCC          E(Eh)            E(eV)
   0   2.0000     -20.560767      -559.4869
   1   2.0000     -20.557299      -559.3926
   2   2.0000     -11.333073      -308.3886
   3   2.0000     -11.286071      -307.1096
   4   2.0000     -11.278671      -306.9082
   5   2.0000     -11.233786      -305.6868
   6   2.0000     -11.233108      -305.6684
   7   2.0000     -11.230886      -305.6080
   8   2.0000     -11.220937      -305.3372
   9   2.0000      -1.434834       -39.0438
  10   2.0000      -1.327173       -36.1142
  11   2.0000      -1.090583       -29.6763
  12   2.0000      -1.071399       -29.1542
  13   2.0000      -0.958419       -26.0799
  14   2.0000      -0.920683       -25.0531
  15   2.0000      -0.856638       -23.3103
  16   2.0000      -0.794993       -21.6329
  17   2.0000      -0.733508       -19.9598
  18   2.0000      -0.723126       -19.6773
  19   2.0000      -0.674108       -18.3434
  20   2.0000      -0.645241       -17.5579
  21   2.0000      -0.628685       -17.1074
  22   2.0000      -0.608148       -16.5486
  23   2.0000      -0.595291       -16.1987
  24   2.0000      -0.570034       -15.5114
  25   2.0000      -0.543449       -14.7880
  26   2.0000      -0.529916       -14.4197
  27   2.0000      -0.522626       -14.2214
  28   2.0000      -0.504596       -13.7308
  29   2.0000      -0.485592       -13.2136
  30   2.0000      -0.473642       -12.8885
  31   2.0000      -0.433608       -11.7991
  32   2.0000      -0.414155       -11.2697
  33   2.0000      -0.355269        -9.6674
  34   0.0000       0.128151         3.4872
  35   0.0000       0.143848         3.9143
  36   0.0000       0.163776         4.4566
  37   0.0000       0.170432         4.6377
  38   0.0000       0.174661         4.7528

MULLIKEN ATOMIC CHARGES
-----------------------
   0 C :   -0.065277
   1 O :   -0.341911
   2 C :    0.328980
   3 O :   -0.326196
   4 C :    0.072494
   5 C :   -0.262069
   6 C :   -0.192496
   7 C :   -0.155642
   8 C :   -0.246438
   9 H :    0.109540
  10 H :    0.105323
  11 H :    0.106227
  12 H :    0.118563
  13 H :    0.119970
  14 H :    0.119596
  15 H :    0.129261
  16 H :    0.134832
  17 H :    0.123604
  18 H :    0.121639
Sum of atomic charges:   -0.0000000

LOEWDIN ATOMIC CHARGES
----------------------
   0 C :   -0.288670
   1 O :    0.163315
   2 C :   -0.357757
   3 O :    0.199889
   4 C :   -0.316466
   5 C :   -0.242890
   6 C :   -0.249981
   7 C :   -0.155792
   8 C :   -0.158904
   9 H :    0.127819
  10 H :    0.122632
  11 H :    0.135238
  12 H :    0.146822
  13 H :    0.143427
  14 H :    0.146840
  15 H :    0.152081
  16 H :    0.144299
  17 H :    0.144846
  18 H :    0.143253

  Mayer bond orders larger than 0.1
B(  0-C ,  1-O ) :   0.9310 B(  0-C ,  4-C ) :   0.9404 B(  0-C ,  9-H ) :   0.9166
B(  0-C , 10-H ) :   0.9227 B(  1-O ,  2-C ) :   0.9447 B(  2-C ,  3-O ) :   0.9705
B(  2-C ,  8-C ) :   0.9088 B(  2-C , 11-H ) :   0.9338 B(  3-O ,  4-C ) :   0.9093
B(  4-C ,  5-C ) :   0.9404 B(  4-C , 12-H ) :   0.9286 B(  5-C ,  6-C ) :   0.9150
B(  5-C , 13-H ) :   0.9235 B(  5-C , 14-H ) :   0.9225 B(  6-C ,  7-C ) :   0.9317
B(  6-C , 15-H ) :   0.9167 B(  6-C , 16-H ) :   0.9330 B(  7-C ,  8-C ) :   1.8054
B(  7-C , 17-H ) :   0.9251 B(  8-C , 18-H ) :   0.9245

MP2 TOTAL ENERGY:     -422.325552883 Eh
FINAL SINGLE POINT ENERGY      -422.325552882706

DIPOLE MOMENT
-------------
                                X             Y             Z
Electronic contribution:      2.01176       0.83713      -4.28580
Nuclear contribution   :     -2.43543      -0.97323       4.79328
                        -----------------------------------------
Total Dipole Moment    :     -0.42367      -0.13611       0.50748
                        -----------------------------------------
Magnitude (a.u.)       :      0.67495
Magnitude (Debye)      :      1.71559

                             ****ORCA TERMINATED NORMALLY****
TOTAL RUN TIME: 0 days 0 hours 18 minutes 6 seconds 74 msec
