                         Program Version 3.0.3 - RELEASE   -
|  1> ! RI-MP2 RIJK def2-TZVP def2-TZVP/C def2-TZVP/JK TIGHTSCF
|  2> % maxcore 2000
|  3> % mp2 density relaxed end
|  4> *xyz 0 1
|  5>  C        0.0290155679     1.5001925228     0.0133842628
|  6>  C       -0.0157098482     0.0002540157    -0.0069298670
|  7>  C       -1.1838188848    -0.6940262540    -0.1265662554
|  8>  C       -1.1990952765    -2.1377822457    -0.1435483490
|  9>  O       -2.1494402475    -2.8875995138    -0.2427997605
| 10>  N        0.1126775705    -2.6762528842    -0.0233163711
| 11>  C        1.2137360408    -1.9061297604     0.0906225717
| 12>  O        2.3564579451    -2.5955979537     0.1926428072
| 13>  N        1.2162434499    -0.6104482039     0.1046570417
| 14>  H        0.6570537689     1.8673174472    -0.8053095645
| 15>  H       -0.9671447739     1.9364330969    -0.0779713865
| 16>  H        0.4884952449     1.8486715667     0.9444417031
| 17>  H       -2.1383283453    -0.1926350655    -0.2128426469
| 18>  H        0.1947775958    -3.6842771961    -0.0262178988
| 19>  H        3.0597509121    -1.9348184019     0.2673818932
| 20> *
| 21>
| 22>                          ****END OF INPUT****

CARTESIAN COORDINATES (ANGSTROEM)
---------------------------------
  C      0.029016    1.500193    0.013384
  C     -0.015710    0.000254   -0.006930
  C     -1.183819   -0.694026   -0.126566
  C     -1.199095   -2.137782   -0.143548
  O     -2.149440   -2.887600   -0.242800
  N      0.112678   -2.676253   -0.023316
  C      1.213736   -1.906130    0.090623
  O      2.356458   -2.595598    0.192643
  N      1.216243   -0.610448    0.104657
  H      0.657054    1.867317   -0.805310
  H     -0.967145    1.936433   -0.077971
  H      0.488495    1.848672    0.944442
  H     -2.138328   -0.192635   -0.212843
  H      0.194778   -3.684277   -0.026218
  H      3.059751   -1.934818    0.267382

 Total Charge           Charge          ....    0
 Multiplicity           Mult            ....    1
 Number of Electrons    NEL             ....   66
 Basis Dimension        Dim             ....  315

ORBITAL ENERGIES
----------------

  NO   OCC          E(Eh)            E(eV)
   0   2.0000     -20.638540      -561.6032
   1   2.0000     -20.524380      -558.4968
   2   2.0000     -15.632623      -425.3853
   3   2.0000     -15.564417      -423.5293
   4   2.0000     -11.416720      -310.6648
   5   2.0000     -11.365580      -309.2732
   6   2.0000     -11.311725      -307.8077
   7   2.0000     -11.238520      -305.8157
   8   2.0000     -11.227504      -305.5159
   9   2.0000      -1.481679       -40.3185
  10   2.0000      -1.392878       -37.9021
  11   2.0000      -1.306868       -35.5617
  12   2.0000      -1.226293       -33.3691
  13   2.0000      -1.078289       -29.3417
  14   2.0000      -0.992004       -26.9938
  15   2.0000      -0.909411       -24.7463
  16   2.0000      -0.858441       -23.3594
  17   2.0000      -0.779741       -21.2178
  18   2.0000      -0.764867       -20.8131
  19   2.0000      -0.724513       -19.7150
  20   2.0000      -0.677886       -18.4462
  21   2.0000      -0.652144       -17.7457
  22   2.0000      -0.632494       -17.2110
  23   2.0000      -0.611241       -16.6327
  24   2.0000      -0.595432       -16.2025
  25   2.0000      -0.578151       -15.7323
  26   2.0000      -0.560719       -15.2580
  27   2.0000      -0.554793       -15.0967
  28   2.0000      -0.493770       -13.4362
  29   2.0000      -0.464298       -12.6342
  30   2.0000      -0.444550       -12.0968
  31   2.0000      -0.439703       -11.9649
  32   2.0000      -0.341600        -9.2954
  33   0.0000       0.105528         2.8716
  34   0.0000       0.128008         3.4833
  35   0.0000       0.147398         4.0109
  36   0.0000       0.157637         4.2895
  37   0.0000       0.157885         4.2963

MULLIKEN ATOMIC CHARGES
-----------------------
   0 C :   -0.409507
   1 C :    0.199399
   2 C :   -0.276501
   3 C :    0.257379
   4 O :   -0.343209
   5 N :   -0.254555
   6 C :    0.388942
   7 O :   -0.405779
   8 N :   -0.351844
   9 H :    0.147068
  10 H :    0.138444
  11 H :    0.147066
  12 H :    0.140780
  13 H :    0.264631
  14 H :    0.357686
Sum of atomic charges:   -0.0000000

LOEWDIN ATOMIC CHARGES
----------------------
   0 C :   -0.259132
   1 C :   -0.234048
   2 C :   -0.127654
   3 C :   -0.420817
   4 O :    0.088346
   5 N :    0.207937
   6 C :   -0.451101
   7 O :    0.102676
   8 N :    0.109290
   9 H :    0.137226
  10 H :    0.130042
  11 H :    0.137218
  12 H :    0.158488
  13 H :    0.210159
  14 H :    0.211371

  Mayer bond orders larger than 0.1
B(  0-C ,  1-C ) :   0.8892 B(  0-C ,  9-H ) :   0.9258 B(  0-C , 10-H ) :   0.9510
B(  0-C , 11-H ) :   0.9258 B(  1-C ,  2-C ) :   1.5061 B(  1-C ,  8-N ) :   1.1529
B(  2-C ,  3-C ) :   1.0937 B(  2-C , 12-H ) :   0.9293 B(  3-C ,  4-O ) :   1.9777
B(  3-C ,  5-N ) :   0.9822 B(  5-N ,  6-C ) :   1.1915 B(  5-N , 13-H ) :   0.8414
B(  6-C ,  7-O ) :   1.1531 B(  6-C ,  8-N ) :   1.5761 B(  7-O , 14-H ) :   0.8032

MP2 TOTAL ENERGY:     -453.299091702 Eh
FINAL SINGLE POINT ENERGY      -453.299091701903

DIPOLE MOMENT
-------------
                                X             Y             Z
Electronic contribution:      0.36816      -6.96915      -0.03924
Nuclear contribution   :      0.80469       7.52017       0.15789
                        -----------------------------------------
Total Dipole Moment    :      1.17285       0.55102       0.11866
                        -----------------------------------------
Magnitude (a.u.)       :      1.30126
Magnitude (Debye)      :      3.30755

                             ****ORCA TERMINATED NORMALLY****
TOTAL RUN TIME: 0 days 0 hours 13 minutes 58 seconds 882 msec
