                         Program Version 3.0.3 - RELEASE   -
|  1> ! RI-MP2 RIJK def2-TZVP def2-TZVP/C def2-TZVP/JK TIGHTSCF
|  2> % maxcore 2000
|  3> % mp2 density relaxed end
|  4> *xyz 0 1
|  5>  C        0.0074867156     1.5424944720    -0.0531764593
|  6>  N        1.3915930224     2.0029539783     0.1267015287
|  7>  C        2.3482736829     1.2024266751     0.2725050611
|  8>  O        2.3298428037    -0.1875193760     0.2966836757
|  9>  C        1.0749872968    -0.6584396618     0.1344991439
| 10>  C       -0.0658763550     0.0441807666    -0.0345659931
| 11>  C       -1.0881582784    -0.9609049978    -0.1549441112
| 12>  C       -0.4601586775    -2.1605598584    -0.0461876418
| 13>  O        0.8947921574    -1.9845565745     0.1352633718
| 14>  H       -0.6007456374     2.0021788347     0.7378766922
| 15>  H       -0.3645563490     1.9690767136    -0.9947844088
| 16>  H        3.3711782753     1.5403703522     0.4055661730
| 17>  H       -2.1464567991    -0.8101179387    -0.3022783140
| 18>  H       -0.7886736678    -3.1846802954    -0.0713581682
| 19> *
| 20>
| 21>                          ****END OF INPUT****

CARTESIAN COORDINATES (ANGSTROEM)
---------------------------------
  C      0.007487    1.542494   -0.053176
  N      1.391593    2.002954    0.126702
  C      2.348274    1.202427    0.272505
  O      2.329843   -0.187519    0.296684
  C      1.074987   -0.658440    0.134499
  C     -0.065876    0.044181   -0.034566
  C     -1.088158   -0.960905   -0.154944
  C     -0.460159   -2.160560   -0.046188
  O      0.894792   -1.984557    0.135263
  H     -0.600746    2.002179    0.737877
  H     -0.364556    1.969077   -0.994784
  H      3.371178    1.540370    0.405566
  H     -2.146457   -0.810118   -0.302278
  H     -0.788674   -3.184680   -0.071358

 Total Charge           Charge          ....    0
 Multiplicity           Mult            ....    1
 Number of Electrons    NEL             ....   64
 Basis Dimension        Dim             ....  309

ORBITAL ENERGIES
----------------

  NO   OCC          E(Eh)            E(eV)
   0   2.0000     -20.636658      -561.5520
   1   2.0000     -20.633311      -561.4609
   2   2.0000     -15.568837      -423.6496
   3   2.0000     -11.354958      -308.9841
   4   2.0000     -11.351521      -308.8906
   5   2.0000     -11.293532      -307.3126
   6   2.0000     -11.277961      -306.8889
   7   2.0000     -11.245006      -305.9922
   8   2.0000     -11.232899      -305.6627
   9   2.0000      -1.502315       -40.8801
  10   2.0000      -1.444245       -39.2999
  11   2.0000      -1.238396       -33.6985
  12   2.0000      -1.110003       -30.2047
  13   2.0000      -1.032731       -28.1020
  14   2.0000      -0.949245       -25.8303
  15   2.0000      -0.883209       -24.0333
  16   2.0000      -0.829956       -22.5842
  17   2.0000      -0.750496       -20.4220
  18   2.0000      -0.716654       -19.5012
  19   2.0000      -0.693713       -18.8769
  20   2.0000      -0.690218       -18.7818
  21   2.0000      -0.647162       -17.6102
  22   2.0000      -0.619748       -16.8642
  23   2.0000      -0.617960       -16.8155
  24   2.0000      -0.595863       -16.2142
  25   2.0000      -0.579904       -15.7800
  26   2.0000      -0.577318       -15.7096
  27   2.0000      -0.528326       -14.3765
  28   2.0000      -0.434055       -11.8112
  29   2.0000      -0.432564       -11.7707
  30   2.0000      -0.399321       -10.8661
  31   2.0000      -0.307995        -8.3810
  32   0.0000       0.134683         3.6649
  33   0.0000       0.148223         4.0333
  34   0.0000       0.167741         4.5645
  35   0.0000       0.171418         4.6645
  36   0.0000       0.179994         4.8979

MULLIKEN ATOMIC CHARGES
-----------------------
   0 C :   -0.104409
   1 N :   -0.237644
   2 C :    0.088567
   3 O :   -0.243042
   4 C :    0.291872
   5 C :   -0.059017
   6 C :   -0.265304
   7 C :    0.007291
   8 O :   -0.204668
   9 H :    0.137748
  10 H :    0.137747
  11 H :    0.149839
  12 H :    0.144744
  13 H :    0.156276
Sum of atomic charges:    0.0000000

LOEWDIN ATOMIC CHARGES
----------------------
   0 C :   -0.239998
   1 N :    0.100989
   2 C :   -0.304295
   3 O :    0.291823
   4 C :   -0.348030
   5 C :   -0.176746
   6 C :   -0.161664
   7 C :   -0.226831
   8 O :    0.363939
   9 H :    0.141248
  10 H :    0.141248
  11 H :    0.138311
  12 H :    0.146258
  13 H :    0.133750

  Mayer bond orders larger than 0.1
B(  0-C ,  1-N ) :   0.9157 B(  0-C ,  5-C ) :   0.9064 B(  0-C ,  9-H ) :   0.9265
B(  0-C , 10-H ) :   0.9265 B(  1-N ,  2-C ) :   1.8912 B(  2-C ,  3-O ) :   0.9541
B(  2-C , 11-H ) :   0.9284 B(  3-O ,  4-C ) :   1.0311 B(  4-C ,  5-C ) :   1.5418
B(  4-C ,  8-O ) :   1.1003 B(  5-C ,  6-C ) :   1.1072 B(  6-C ,  7-C ) :   1.5921
B(  6-C , 12-H ) :   0.9164 B(  7-C ,  8-O ) :   0.9953 B(  7-C , 13-H ) :   0.9337

MP2 TOTAL ENERGY:     -435.980679684 Eh
FINAL SINGLE POINT ENERGY      -435.980679684319

DIPOLE MOMENT
-------------
                                X             Y             Z
Electronic contribution:      3.46562      -2.23851       0.51555
Nuclear contribution   :     -3.98699       2.05713      -0.58316
                        -----------------------------------------
Total Dipole Moment    :     -0.52138      -0.18138      -0.06761
                        -----------------------------------------
Magnitude (a.u.)       :      0.55615
Magnitude (Debye)      :      1.41363

                             ****ORCA TERMINATED NORMALLY****
TOTAL RUN TIME: 0 days 0 hours 14 minutes 38 seconds 44 msec
