                         Program Version 3.0.3 - RELEASE   -
|  1> ! RI-MP2 RIJK def2-TZVP def2-TZVP/C def2-TZVP/JK TIGHTSCF
|  2> % maxcore 2000
|  3> % mp2 density relaxed end
|  4> *xyz 0 1
|  5>  N       -0.0119858110     1.4433231654     0.1469296041
|  6>  C       -0.0604690691     0.0783720869     0.0247988242
|  7>  N        1.0017422967    -0.6834911293     0.0073044580
|  8>  H        1.9284207212    -0.2601293166     0.0138052635
|  9>  C        1.0839034391    -2.0573674384    -0.0108876759
| 10>  C        2.3218842053    -2.7292194870    -0.0481723876
| 11>  O        3.4852390047    -2.3761669549    -0.0688017102
| 12>  O        1.9096670905    -4.0986525096    -0.0587177660
| 13>  C        0.5543571724    -4.0769500343    -0.0289325708
| 14>  N        0.0019222234    -2.9064296806    -0.0006856286
| 15>  H        0.8576634584     1.9059388395    -0.0789817139
| 16>  H       -0.8206759563     1.9377030991    -0.1978035853
| 17>  H       -1.0242494460    -0.4118119656     0.0245340508
| 18>  H        0.0492860706    -5.0309933847    -0.0317282023
| 19> *
| 20>
| 21>                          ****END OF INPUT****

CARTESIAN COORDINATES (ANGSTROEM)
---------------------------------
  N     -0.011986    1.443323    0.146930
  C     -0.060469    0.078372    0.024799
  N      1.001742   -0.683491    0.007304
  H      1.928421   -0.260129    0.013805
  C      1.083903   -2.057367   -0.010888
  C      2.321884   -2.729219   -0.048172
  O      3.485239   -2.376167   -0.068802
  O      1.909667   -4.098653   -0.058718
  C      0.554357   -4.076950   -0.028933
  N      0.001922   -2.906430   -0.000686
  H      0.857663    1.905939   -0.078982
  H     -0.820676    1.937703   -0.197804
  H     -1.024249   -0.411812    0.024534
  H      0.049286   -5.030993   -0.031728

 Total Charge           Charge          ....    0
 Multiplicity           Mult            ....    1
 Number of Electrons    NEL             ....   66
 Basis Dimension        Dim             ....  309

ORBITAL ENERGIES
----------------

  NO   OCC          E(Eh)            E(eV)
   0   2.0000     -20.593810      -560.3861
   1   2.0000     -20.483189      -557.3759
   2   2.0000     -15.684188      -426.7885
   3   2.0000     -15.644001      -425.6949
   4   2.0000     -15.556513      -423.3142
   5   2.0000     -11.388782      -309.9045
   6   2.0000     -11.334178      -308.4187
   7   2.0000     -11.308633      -307.7235
   8   2.0000     -11.249772      -306.1219
   9   2.0000      -1.445793       -39.3420
  10   2.0000      -1.364252       -37.1232
  11   2.0000      -1.325499       -36.0687
  12   2.0000      -1.265147       -34.4264
  13   2.0000      -1.204455       -32.7749
  14   2.0000      -1.003737       -27.3131
  15   2.0000      -0.924694       -25.1622
  16   2.0000      -0.844837       -22.9892
  17   2.0000      -0.820292       -22.3213
  18   2.0000      -0.767877       -20.8950
  19   2.0000      -0.748187       -20.3592
  20   2.0000      -0.707637       -19.2558
  21   2.0000      -0.657824       -17.9003
  22   2.0000      -0.651992       -17.7416
  23   2.0000      -0.625933       -17.0325
  24   2.0000      -0.611447       -16.6383
  25   2.0000      -0.588335       -16.0094
  26   2.0000      -0.564996       -15.3743
  27   2.0000      -0.513709       -13.9787
  28   2.0000      -0.483985       -13.1699
  29   2.0000      -0.472534       -12.8583
  30   2.0000      -0.422644       -11.5007
  31   2.0000      -0.401030       -10.9126
  32   2.0000      -0.240140        -6.5345
  33   0.0000       0.078734         2.1425
  34   0.0000       0.088487         2.4079
  35   0.0000       0.121549         3.3075
  36   0.0000       0.164753         4.4832
  37   0.0000       0.182307         4.9608

MULLIKEN ATOMIC CHARGES
-----------------------
   0 N :   -0.482526
   1 C :    0.123896
   2 N :   -0.203616
   3 H :    0.262528
   4 C :    0.079022
   5 C :    0.192582
   6 O :   -0.407164
   7 O :   -0.204529
   8 C :    0.109763
   9 N :   -0.341759
  10 H :    0.261733
  11 H :    0.278356
  12 H :    0.184763
  13 H :    0.146951
Sum of atomic charges:    0.0000000

LOEWDIN ATOMIC CHARGES
----------------------
   0 N :   -0.058123
   1 C :   -0.272363
   2 N :    0.246351
   3 H :    0.229476
   4 C :   -0.366022
   5 C :   -0.480207
   6 O :    0.037705
   7 O :    0.286684
   8 C :   -0.342575
   9 N :    0.081887
  10 H :    0.175299
  11 H :    0.182607
  12 H :    0.151507
  13 H :    0.127774

  Mayer bond orders larger than 0.1
B(  0-N ,  1-C ) :   1.1017 B(  0-N , 10-H ) :   0.8722 B(  0-N , 11-H ) :   0.8672
B(  1-C ,  2-N ) :   1.3850 B(  1-C , 12-H ) :   0.9143 B(  2-N ,  3-H ) :   0.8400
B(  2-N ,  4-C ) :   1.0253 B(  4-C ,  5-C ) :   1.1828 B(  4-C ,  9-N ) :   1.1480
B(  5-C ,  6-O ) :   1.8873 B(  5-C ,  7-O ) :   0.9758 B(  7-O ,  8-C ) :   1.0820
B(  8-C ,  9-N ) :   1.6231 B(  8-C , 13-H ) :   0.9283

MP2 TOTAL ENERGY:     -469.265886872 Eh
FINAL SINGLE POINT ENERGY      -469.265886872136

DIPOLE MOMENT
-------------
                                X             Y             Z
Electronic contribution:      2.77525      -4.49508      -0.04463
Nuclear contribution   :     -4.50285       7.13176      -0.22019
                        -----------------------------------------
Total Dipole Moment    :     -1.72760       2.63668      -0.26482
                        -----------------------------------------
Magnitude (a.u.)       :      3.16336
Magnitude (Debye)      :      8.04062

                             ****ORCA TERMINATED NORMALLY****
TOTAL RUN TIME: 0 days 0 hours 13 minutes 34 seconds 638 msec
