                         Program Version 3.0.3 - RELEASE   -
|  1> ! RI-MP2 RIJK def2-TZVP def2-TZVP/C def2-TZVP/JK TIGHTSCF
|  2> % maxcore 2000
|  3> % mp2 density relaxed end
|  4> *xyz 0 1
|  5>  C        0.0397545811     1.5596284886    -0.0112825243
|  6>  C        0.0687431675     0.0565406017     0.1159138813
|  7>  N        1.2640343095    -0.7780711153    -0.1843981637
|  8>  C        2.4222413437    -0.0657382228     0.3347012345
|  9>  N        3.4161059452     0.2855189157    -0.3441921377
| 10>  C        1.9525235102    -0.0673160902     1.7888373767
| 11>  C        0.6677081552    -0.7052062152     1.2442325702
| 12>  C        0.0181899428    -1.8251767453     1.8535376438
| 13>  N       -0.5188197385    -2.7044257057     2.3796584729
| 14>  H        0.9007482557     2.0489449123     0.4472418701
| 15>  H        0.0235868277     1.8371064457    -1.0696268713
| 16>  H       -0.8690221799     1.9503567379     0.4563324458
| 17>  H       -0.8095081129    -0.4308846109    -0.3015188092
| 18>  H        4.1232481075     0.7353311656     0.2391927073
| 19>  H        2.5296359753    -0.7610137377     2.4045575195
| 20>  H        1.8613714100     0.8895075454     2.3081576341
| 21> *
| 22>
| 23>                          ****END OF INPUT****

CARTESIAN COORDINATES (ANGSTROEM)
---------------------------------
  C      0.039755    1.559628   -0.011283
  C      0.068743    0.056541    0.115914
  N      1.264034   -0.778071   -0.184398
  C      2.422241   -0.065738    0.334701
  N      3.416106    0.285519   -0.344192
  C      1.952524   -0.067316    1.788837
  C      0.667708   -0.705206    1.244233
  C      0.018190   -1.825177    1.853538
  N     -0.518820   -2.704426    2.379658
  H      0.900748    2.048945    0.447242
  H      0.023587    1.837106   -1.069627
  H     -0.869022    1.950357    0.456332
  H     -0.809508   -0.430885   -0.301519
  H      4.123248    0.735331    0.239193
  H      2.529636   -0.761014    2.404558
  H      1.861371    0.889508    2.308158

 Total Charge           Charge          ....    0
 Multiplicity           Mult            ....    1
 Number of Electrons    NEL             ....   64
 Basis Dimension        Dim             ....  321

ORBITAL ENERGIES
----------------

  NO   OCC          E(Eh)            E(eV)
   0   2.0000     -15.610474      -424.7826
   1   2.0000     -15.587920      -424.1689
   2   2.0000     -15.565712      -423.5646
   3   2.0000     -11.339531      -308.5643
   4   2.0000     -11.334150      -308.4179
   5   2.0000     -11.317318      -307.9599
   6   2.0000     -11.288544      -307.1769
   7   2.0000     -11.286045      -307.1089
   8   2.0000     -11.254609      -306.2535
   9   2.0000      -1.354229       -36.8504
  10   2.0000      -1.233260       -33.5587
  11   2.0000      -1.217348       -33.1257
  12   2.0000      -1.056630       -28.7524
  13   2.0000      -1.023283       -27.8449
  14   2.0000      -0.975150       -26.5352
  15   2.0000      -0.853494       -23.2248
  16   2.0000      -0.754998       -20.5445
  17   2.0000      -0.742674       -20.2092
  18   2.0000      -0.688487       -18.7347
  19   2.0000      -0.656101       -17.8534
  20   2.0000      -0.633318       -17.2334
  21   2.0000      -0.615769       -16.7559
  22   2.0000      -0.593216       -16.1422
  23   2.0000      -0.571628       -15.5548
  24   2.0000      -0.549892       -14.9633
  25   2.0000      -0.543432       -14.7875
  26   2.0000      -0.527027       -14.3411
  27   2.0000      -0.504765       -13.7354
  28   2.0000      -0.472230       -12.8500
  29   2.0000      -0.439823       -11.9682
  30   2.0000      -0.428875       -11.6703
  31   2.0000      -0.403654       -10.9840
  32   0.0000       0.112272         3.0551
  33   0.0000       0.117859         3.2071
  34   0.0000       0.131787         3.5861
  35   0.0000       0.145916         3.9706
  36   0.0000       0.162909         4.4330

MULLIKEN ATOMIC CHARGES
-----------------------
   0 C :   -0.375499
   1 C :   -0.035222
   2 N :   -0.177903
   3 C :    0.000717
   4 N :   -0.285013
   5 C :   -0.227159
   6 C :    0.245111
   7 C :   -0.248428
   8 N :   -0.042166
   9 H :    0.139147
  10 H :    0.156293
  11 H :    0.150022
  12 H :    0.148136
  13 H :    0.232649
  14 H :    0.163274
  15 H :    0.156040
Sum of atomic charges:    0.0000000

LOEWDIN ATOMIC CHARGES
----------------------
   0 C :   -0.276406
   1 C :   -0.208359
   2 N :    0.210458
   3 C :   -0.336408
   4 N :   -0.009903
   5 C :   -0.160387
   6 C :   -0.205908
   7 C :   -0.149920
   8 N :    0.085079
   9 H :    0.132070
  10 H :    0.139687
  11 H :    0.136847
  12 H :    0.164270
  13 H :    0.175639
  14 H :    0.159746
  15 H :    0.143493

  Mayer bond orders larger than 0.1
B(  0-C ,  1-C ) :   0.9074 B(  0-C ,  9-H ) :   0.9283 B(  0-C , 10-H ) :   0.9311
B(  0-C , 11-H ) :   0.9243 B(  1-C ,  2-N ) :   0.8823 B(  1-C ,  6-C ) :   0.9160
B(  1-C , 12-H ) :   0.9183 B(  2-N ,  3-C ) :   0.9585 B(  2-N ,  6-C ) :   0.8018
B(  3-C ,  4-N ) :   2.0546 B(  3-C ,  5-C ) :   0.9500 B(  4-N , 13-H ) :   0.8422
B(  5-C ,  6-C ) :   0.8820 B(  5-C , 14-H ) :   0.8961 B(  5-C , 15-H ) :   0.9004
B(  6-C ,  7-C ) :   0.8849 B(  7-C ,  8-N ) :   2.8557

MP2 TOTAL ENERGY:     -396.206111855 Eh
FINAL SINGLE POINT ENERGY      -396.206111854560

DIPOLE MOMENT
-------------
                                X             Y             Z
Electronic contribution:     -0.10204      -6.87008       1.40713
Nuclear contribution   :      0.33613       8.63798      -0.91404
                        -----------------------------------------
Total Dipole Moment    :      0.23409       1.76790       0.49309
                        -----------------------------------------
Magnitude (a.u.)       :      1.85025
Magnitude (Debye)      :      4.70296

                             ****ORCA TERMINATED NORMALLY****
TOTAL RUN TIME: 0 days 0 hours 18 minutes 24 seconds 877 msec
