                         Program Version 3.0.3 - RELEASE   -
|  1> ! RI-MP2 RIJK def2-TZVP def2-TZVP/C def2-TZVP/JK TIGHTSCF
|  2> % maxcore 2000
|  3> % mp2 density relaxed end
|  4> *xyz 0 1
|  5>  C       -0.0637190408     1.4978732667    -0.0580864054
|  6>  C        0.0385249200    -0.0091098379     0.0190460840
|  7>  C        1.3699227710    -0.7173368092    -0.2171767443
|  8>  C        0.7526257798    -0.6860397399     1.1474389673
|  9>  C        1.3053795937    -0.1012464145     2.4580102145
| 10>  C        0.7415623941    -1.3883694213     3.1125215616
| 11>  O        0.6932965569    -1.8627804663     4.2179635862
| 12>  N        0.2782522906    -1.8375934686     1.8986329947
| 13>  C       -0.4272150237    -3.0350687048     1.5317063166
| 14>  H        0.8357416841     1.9756889456     0.3437348127
| 15>  H       -0.1804481038     1.8326170638    -1.0946133475
| 16>  H       -0.9213985519     1.8706187215     0.5126385837
| 17>  H       -0.8293425938    -0.5413304516    -0.3650890940
| 18>  H        1.3593768959    -1.6492538433    -0.7734450535
| 19>  H        2.2504198613    -0.1054497814    -0.3896732089
| 20>  H        2.3915192415    -0.0080808175     2.5162219955
| 21>  H        0.8339157710     0.8201392020     2.8058208781
| 22>  H       -0.5590100759    -3.6270575398     2.4405612402
| 23>  H       -1.4158839215    -2.8133526289     1.1110022390
| 24>  H        0.1365168514    -3.6308556847     0.8032175995
| 25> *
| 26>
| 27>                          ****END OF INPUT****

CARTESIAN COORDINATES (ANGSTROEM)
---------------------------------
  C     -0.063719    1.497873   -0.058086
  C      0.038525   -0.009110    0.019046
  C      1.369923   -0.717337   -0.217177
  C      0.752626   -0.686040    1.147439
  C      1.305380   -0.101246    2.458010
  C      0.741562   -1.388369    3.112522
  O      0.693297   -1.862780    4.217964
  N      0.278252   -1.837593    1.898633
  C     -0.427215   -3.035069    1.531706
  H      0.835742    1.975689    0.343735
  H     -0.180448    1.832617   -1.094613
  H     -0.921399    1.870619    0.512639
  H     -0.829343   -0.541330   -0.365089
  H      1.359377   -1.649254   -0.773445
  H      2.250420   -0.105450   -0.389673
  H      2.391519   -0.008081    2.516222
  H      0.833916    0.820139    2.805821
  H     -0.559010   -3.627058    2.440561
  H     -1.415884   -2.813353    1.111002
  H      0.136517   -3.630856    0.803218

 Total Charge           Charge          ....    0
 Multiplicity           Mult            ....    1
 Number of Electrons    NEL             ....   68
 Basis Dimension        Dim             ....  345

ORBITAL ENERGIES
----------------

  NO   OCC          E(Eh)            E(eV)
   0   2.0000     -20.518834      -558.3459
   1   2.0000     -15.584533      -424.0767
   2   2.0000     -11.345404      -308.7241
   3   2.0000     -11.287399      -307.1457
   4   2.0000     -11.266416      -306.5748
   5   2.0000     -11.246855      -306.0425
   6   2.0000     -11.243653      -305.9553
   7   2.0000     -11.234535      -305.7072
   8   2.0000     -11.230054      -305.5853
   9   2.0000      -1.382789       -37.6276
  10   2.0000      -1.282618       -34.9018
  11   2.0000      -1.143631       -31.1198
  12   2.0000      -1.045478       -28.4489
  13   2.0000      -0.972694       -26.4684
  14   2.0000      -0.915510       -24.9123
  15   2.0000      -0.823259       -22.4020
  16   2.0000      -0.786124       -21.3915
  17   2.0000      -0.717762       -19.5313
  18   2.0000      -0.701966       -19.1015
  19   2.0000      -0.659117       -17.9355
  20   2.0000      -0.653612       -17.7857
  21   2.0000      -0.616558       -16.7774
  22   2.0000      -0.596965       -16.2442
  23   2.0000      -0.593668       -16.1545
  24   2.0000      -0.572307       -15.5733
  25   2.0000      -0.565984       -15.4012
  26   2.0000      -0.547430       -14.8963
  27   2.0000      -0.517873       -14.0920
  28   2.0000      -0.514847       -14.0097
  29   2.0000      -0.500668       -13.6239
  30   2.0000      -0.465631       -12.6705
  31   2.0000      -0.423281       -11.5181
  32   2.0000      -0.409933       -11.1548
  33   2.0000      -0.351628        -9.5683
  34   0.0000       0.125251         3.4083
  35   0.0000       0.140801         3.8314
  36   0.0000       0.159307         4.3350
  37   0.0000       0.172434         4.6922
  38   0.0000       0.175750         4.7824

MULLIKEN ATOMIC CHARGES
-----------------------
   0 C :   -0.428239
   1 C :   -0.074928
   2 C :   -0.307180
   3 C :    0.061361
   4 C :   -0.211938
   5 C :    0.167922
   6 O :   -0.333718
   7 N :   -0.060388
   8 C :   -0.344805
   9 H :    0.131684
  10 H :    0.139076
  11 H :    0.139956
  12 H :    0.125431
  13 H :    0.139839
  14 H :    0.132978
  15 H :    0.132812
  16 H :    0.135859
  17 H :    0.176009
  18 H :    0.138526
  19 H :    0.139743
Sum of atomic charges:   -0.0000000

LOEWDIN ATOMIC CHARGES
----------------------
   0 C :   -0.291934
   1 C :   -0.215268
   2 C :   -0.189672
   3 C :   -0.225512
   4 C :   -0.156810
   5 C :   -0.413710
   6 O :    0.091342
   7 N :    0.227442
   8 C :   -0.296662
   9 H :    0.128101
  10 H :    0.126958
  11 H :    0.127401
  12 H :    0.150549
  13 H :    0.135790
  14 H :    0.137781
  15 H :    0.143421
  16 H :    0.144157
  17 H :    0.138543
  18 H :    0.118691
  19 H :    0.119390

  Mayer bond orders larger than 0.1
B(  0-C ,  1-C ) :   0.8994 B(  0-C ,  9-H ) :   0.9348 B(  0-C , 10-H ) :   0.9375
B(  0-C , 11-H ) :   0.9407 B(  1-C ,  2-C ) :   0.8615 B(  1-C ,  3-C ) :   0.8264
B(  1-C , 12-H ) :   0.9251 B(  2-C ,  3-C ) :   0.8489 B(  2-C , 13-H ) :   0.9216
B(  2-C , 14-H ) :   0.9177 B(  3-C ,  4-C ) :   0.9045 B(  3-C ,  7-N ) :   0.9407
B(  4-C ,  5-C ) :   0.9047 B(  4-C ,  7-N ) :  -0.1113 B(  4-C , 15-H ) :   0.9035
B(  4-C , 16-H ) :   0.9058 B(  5-C ,  6-O ) :   2.0024 B(  5-C ,  7-N ) :   1.1364
B(  7-N ,  8-C ) :   0.8750 B(  8-C , 17-H ) :   0.9248 B(  8-C , 18-H ) :   0.9290
B(  8-C , 19-H ) :   0.9301

MP2 TOTAL ENERGY:     -402.458442771 Eh
FINAL SINGLE POINT ENERGY      -402.458442771133

DIPOLE MOMENT
-------------
                                X             Y             Z
Electronic contribution:      1.39371      -3.60717       7.35236
Nuclear contribution   :     -1.57929       3.93161      -8.86739
                        -----------------------------------------
Total Dipole Moment    :     -0.18558       0.32445      -1.51502
                        -----------------------------------------
Magnitude (a.u.)       :      1.56045
Magnitude (Debye)      :      3.96635

                             ****ORCA TERMINATED NORMALLY****
TOTAL RUN TIME: 0 days 0 hours 19 minutes 52 seconds 41 msec
