                         Program Version 3.0.3 - RELEASE   -
|  1> ! RI-MP2 RIJK def2-TZVP def2-TZVP/C def2-TZVP/JK TIGHTSCF
|  2> % maxcore 2000
|  3> % mp2 density relaxed end
|  4> *xyz 0 1
|  5>  O       -0.4425148804     0.2318134784    -0.1416468758
|  6>  C       -0.0085788140     1.3112685204    -0.4415611954
|  7>  C        1.3280308406     1.8603659856     0.0106381605
|  8>  C        1.2341252866     2.7300562678     1.2956975543
|  9>  C        2.0192865944     1.5714483735     1.9396045166
| 10>  C        3.2757193441     1.7637654215     2.8026604042
| 11>  O        2.6454304950     1.1221493843     3.9288135732
| 12>  C        1.4928931081     0.7608365312     3.1371945353
| 13>  O        2.1548175365     0.9018323980     0.6769467608
| 14>  H       -0.5916151057     2.0293496533    -1.0664001481
| 15>  H        1.8343011469     2.3325690018    -0.8421099854
| 16>  H        1.7789653358     3.6736050204     1.2416797555
| 17>  H        0.2319922996     2.9071505165     1.6907689359
| 18>  H        4.1413649174     1.2033281507     2.4261622773
| 19>  H        3.5719104786     2.7969597328     3.0225529905
| 20>  H        0.5538335429     1.0969722317     3.5925031711
| 21>  H        1.4410082737    -0.3146959381     2.9295660595
| 22> *
| 23>
| 24>                          ****END OF INPUT****

CARTESIAN COORDINATES (ANGSTROEM)
---------------------------------
  O     -0.442515    0.231813   -0.141647
  C     -0.008579    1.311269   -0.441561
  C      1.328031    1.860366    0.010638
  C      1.234125    2.730056    1.295698
  C      2.019287    1.571448    1.939605
  C      3.275719    1.763765    2.802660
  O      2.645430    1.122149    3.928814
  C      1.492893    0.760837    3.137195
  O      2.154818    0.901832    0.676947
  H     -0.591615    2.029350   -1.066400
  H      1.834301    2.332569   -0.842110
  H      1.778965    3.673605    1.241680
  H      0.231992    2.907151    1.690769
  H      4.141365    1.203328    2.426162
  H      3.571910    2.796960    3.022553
  H      0.553834    1.096972    3.592503
  H      1.441008   -0.314696    2.929566

 Total Charge           Charge          ....    0
 Multiplicity           Mult            ....    1
 Number of Electrons    NEL             ....   68
 Basis Dimension        Dim             ....  327

ORBITAL ENERGIES
----------------

  NO   OCC          E(Eh)            E(eV)
   0   2.0000     -20.573654      -559.8376
   1   2.0000     -20.570275      -559.7456
   2   2.0000     -20.555579      -559.3457
   3   2.0000     -11.342932      -308.6569
   4   2.0000     -11.314734      -307.8896
   5   2.0000     -11.308636      -307.7236
   6   2.0000     -11.285447      -307.0926
   7   2.0000     -11.282072      -307.0008
   8   2.0000     -11.262164      -306.4590
   9   2.0000      -1.424694       -38.7679
  10   2.0000      -1.401785       -38.1445
  11   2.0000      -1.378531       -37.5117
  12   2.0000      -1.052022       -28.6270
  13   2.0000      -1.020422       -27.7671
  14   2.0000      -0.945939       -25.7403
  15   2.0000      -0.911614       -24.8063
  16   2.0000      -0.793836       -21.6014
  17   2.0000      -0.744998       -20.2724
  18   2.0000      -0.721161       -19.6238
  19   2.0000      -0.702156       -19.1066
  20   2.0000      -0.691255       -18.8100
  21   2.0000      -0.660272       -17.9669
  22   2.0000      -0.632437       -17.2095
  23   2.0000      -0.605861       -16.4863
  24   2.0000      -0.589553       -16.0426
  25   2.0000      -0.577946       -15.7267
  26   2.0000      -0.556532       -15.1440
  27   2.0000      -0.538089       -14.6421
  28   2.0000      -0.523957       -14.2576
  29   2.0000      -0.486601       -13.2411
  30   2.0000      -0.468163       -12.7394
  31   2.0000      -0.444871       -12.1056
  32   2.0000      -0.422030       -11.4840
  33   2.0000      -0.412938       -11.2366
  34   0.0000       0.112538         3.0623
  35   0.0000       0.134686         3.6650
  36   0.0000       0.146840         3.9957
  37   0.0000       0.162680         4.4267
  38   0.0000       0.164138         4.4664

MULLIKEN ATOMIC CHARGES
-----------------------
   0 O :   -0.247487
   1 C :    0.048517
   2 C :    0.167121
   3 C :   -0.330651
   4 C :    0.146166
   5 C :   -0.025011
   6 O :   -0.328226
   7 C :   -0.029356
   8 O :   -0.309452
   9 H :    0.079592
  10 H :    0.120094
  11 H :    0.141225
  12 H :    0.145978
  13 H :    0.108019
  14 H :    0.097794
  15 H :    0.099359
  16 H :    0.116319
Sum of atomic charges:   -0.0000000

LOEWDIN ATOMIC CHARGES
----------------------
   0 O :    0.151871
   1 C :   -0.284964
   2 C :   -0.285625
   3 C :   -0.169936
   4 C :   -0.302778
   5 C :   -0.235498
   6 O :    0.113236
   7 C :   -0.229989
   8 O :    0.209599
   9 H :    0.113448
  10 H :    0.144214
  11 H :    0.139123
  12 H :    0.139988
  13 H :    0.126953
  14 H :    0.120028
  15 H :    0.120704
  16 H :    0.129628

  Mayer bond orders larger than 0.1
B(  0-O ,  1-C ) :   2.0233 B(  1-C ,  2-C ) :   0.8425 B(  1-C ,  9-H ) :   0.9297
B(  2-C ,  3-C ) :   0.9230 B(  2-C ,  8-O ) :   0.9486 B(  2-C , 10-H ) :   0.8946
B(  3-C ,  4-C ) :   0.9048 B(  3-C , 11-H ) :   0.9208 B(  3-C , 12-H ) :   0.9201
B(  4-C ,  5-C ) :   0.9710 B(  4-C ,  7-C ) :   0.9545 B(  4-C ,  8-O ) :   0.9845
B(  5-C ,  6-O ) :   0.9675 B(  5-C , 13-H ) :   0.8992 B(  5-C , 14-H ) :   0.9075
B(  6-O ,  7-C ) :   0.9555 B(  7-C , 15-H ) :   0.9076 B(  7-C , 16-H ) :   0.9014

MP2 TOTAL ENERGY:     -458.178470171 Eh
FINAL SINGLE POINT ENERGY      -458.178470170738

DIPOLE MOMENT
-------------
                                X             Y             Z
Electronic contribution:     -0.77746      -3.17727      -1.63424
Nuclear contribution   :      0.73552       4.65001       1.08846
                        -----------------------------------------
Total Dipole Moment    :     -0.04194       1.47274      -0.54578
                        -----------------------------------------
Magnitude (a.u.)       :      1.57118
Magnitude (Debye)      :      3.99363

                             ****ORCA TERMINATED NORMALLY****
TOTAL RUN TIME: 0 days 0 hours 15 minutes 29 seconds 814 msec
