                         Program Version 3.0.3 - RELEASE   -
|  1> ! RI-MP2 RIJK def2-TZVP def2-TZVP/C def2-TZVP/JK TIGHTSCF
|  2> % maxcore 2000
|  3> % mp2 density relaxed end
|  4> *xyz 0 1
|  5>  C        0.2532794915     1.6162565962    -0.2943639259
|  6>  C       -0.0140552898     0.1566436319    -0.0217828811
|  7>  N        0.1502222459    -0.6970518736    -0.9387433587
|  8>  C       -0.0165493526    -2.1359078719    -0.8672525426
|  9>  C       -1.4816692892    -2.6130561966    -0.9013041600
| 10>  O       -2.0890808108    -2.7870027672     0.3626973218
| 11>  C       -2.2683101089    -1.6313053878     1.1442447089
| 12>  C       -0.9961820446    -1.1261569895     1.8515638712
| 13>  O       -0.4035476948     0.0414404322     1.2833621109
| 14>  H        1.0033104097     1.9977467329     0.4058519231
| 15>  H        0.6063306325     1.7395884174    -1.3166661163
| 16>  H       -0.6565865380     2.2054889029    -0.1407246480
| 17>  H        0.4701306255    -2.5421495098    -1.7616029338
| 18>  H        0.4868070058    -2.6007611354    -0.0100495781
| 19>  H       -2.0654911818    -1.9169319713    -1.5239328753
| 20>  H       -1.5240504760    -3.6032588793    -1.3646940041
| 21>  H       -2.7092008748    -0.8062077402     0.5621961969
| 22>  H       -2.9922443095    -1.9200308054     1.9132353720
| 23>  H       -1.2541651649    -0.8016870713     2.8634302230
| 24>  H       -0.2766573051    -1.9455813643     1.9394470160
| 25> *
| 26>
| 27>                          ****END OF INPUT****

CARTESIAN COORDINATES (ANGSTROEM)
---------------------------------
  C      0.253279    1.616257   -0.294364
  C     -0.014055    0.156644   -0.021783
  N      0.150222   -0.697052   -0.938743
  C     -0.016549   -2.135908   -0.867253
  C     -1.481669   -2.613056   -0.901304
  O     -2.089081   -2.787003    0.362697
  C     -2.268310   -1.631305    1.144245
  C     -0.996182   -1.126157    1.851564
  O     -0.403548    0.041440    1.283362
  H      1.003310    1.997747    0.405852
  H      0.606331    1.739588   -1.316666
  H     -0.656587    2.205489   -0.140725
  H      0.470131   -2.542150   -1.761603
  H      0.486807   -2.600761   -0.010050
  H     -2.065491   -1.916932   -1.523933
  H     -1.524050   -3.603259   -1.364694
  H     -2.709201   -0.806208    0.562196
  H     -2.992244   -1.920031    1.913235
  H     -1.254165   -0.801687    2.863430
  H     -0.276657   -1.945581    1.939447

 Total Charge           Charge          ....    0
 Multiplicity           Mult            ....    1
 Number of Electrons    NEL             ....   70
 Basis Dimension        Dim             ....  345

ORBITAL ENERGIES
----------------

  NO   OCC          E(Eh)            E(eV)
   0   2.0000     -20.589108      -560.2581
   1   2.0000     -20.559382      -559.4492
   2   2.0000     -15.533658      -422.6923
   3   2.0000     -11.336721      -308.4878
   4   2.0000     -11.292617      -307.2877
   5   2.0000     -11.286018      -307.1082
   6   2.0000     -11.276299      -306.8437
   7   2.0000     -11.252812      -306.2046
   8   2.0000     -11.221518      -305.3530
   9   2.0000      -1.418878       -38.6096
  10   2.0000      -1.381119       -37.5821
  11   2.0000      -1.212433       -32.9920
  12   2.0000      -1.041276       -28.3346
  13   2.0000      -1.028942       -27.9989
  14   2.0000      -0.950946       -25.8765
  15   2.0000      -0.882270       -24.0078
  16   2.0000      -0.836281       -22.7564
  17   2.0000      -0.757572       -20.6146
  18   2.0000      -0.695158       -18.9162
  19   2.0000      -0.678341       -18.4586
  20   2.0000      -0.666405       -18.1338
  21   2.0000      -0.643590       -17.5130
  22   2.0000      -0.634915       -17.2769
  23   2.0000      -0.608310       -16.5530
  24   2.0000      -0.591462       -16.0945
  25   2.0000      -0.559999       -15.2383
  26   2.0000      -0.554168       -15.0797
  27   2.0000      -0.537121       -14.6158
  28   2.0000      -0.527434       -14.3522
  29   2.0000      -0.511667       -13.9232
  30   2.0000      -0.491548       -13.3757
  31   2.0000      -0.473583       -12.8869
  32   2.0000      -0.426240       -11.5986
  33   2.0000      -0.390107       -10.6153
  34   2.0000      -0.382345       -10.4041
  35   0.0000       0.143288         3.8991
  36   0.0000       0.152120         4.1394
  37   0.0000       0.163970         4.4618
  38   0.0000       0.164699         4.4817
  39   0.0000       0.184605         5.0234

MULLIKEN ATOMIC CHARGES
-----------------------
   0 C :   -0.355589
   1 C :    0.178878
   2 N :   -0.280040
   3 C :   -0.112931
   4 C :   -0.084221
   5 O :   -0.308936
   6 C :   -0.086109
   7 C :   -0.080688
   8 O :   -0.263317
   9 H :    0.138030
  10 H :    0.143696
  11 H :    0.130852
  12 H :    0.132847
  13 H :    0.112914
  14 H :    0.104540
  15 H :    0.126300
  16 H :    0.114592
  17 H :    0.133710
  18 H :    0.137105
  19 H :    0.118367
Sum of atomic charges:   -0.0000000

LOEWDIN ATOMIC CHARGES
----------------------
   0 C :   -0.268961
   1 C :   -0.408615
   2 N :    0.094518
   3 C :   -0.308760
   4 C :   -0.322931
   5 O :    0.156066
   6 C :   -0.328704
   7 C :   -0.299477
   8 O :    0.238078
   9 H :    0.132896
  10 H :    0.132522
  11 H :    0.130608
  12 H :    0.138109
  13 H :    0.129889
  14 H :    0.124304
  15 H :    0.132538
  16 H :    0.128699
  17 H :    0.135340
  18 H :    0.135765
  19 H :    0.128118

  Mayer bond orders larger than 0.1
B(  0-C ,  1-C ) :   0.9144 B(  0-C ,  9-H ) :   0.9243 B(  0-C , 10-H ) :   0.9433
B(  0-C , 11-H ) :   0.9222 B(  1-C ,  2-N ) :   1.9105 B(  1-C ,  8-O ) :   1.0605
B(  2-N ,  3-C ) :   0.8913 B(  3-C ,  4-C ) :   0.8896 B(  3-C , 12-H ) :   0.9307
B(  3-C , 13-H ) :   0.9228 B(  4-C ,  5-O ) :   0.9352 B(  4-C , 14-H ) :   0.9379
B(  4-C , 15-H ) :   0.9295 B(  5-O ,  6-C ) :   0.9535 B(  6-C ,  7-C ) :   0.8837
B(  6-C , 16-H ) :   0.9333 B(  6-C , 17-H ) :   0.9263 B(  7-C ,  8-O ) :   0.8812
B(  7-C , 18-H ) :   0.9254 B(  7-C , 19-H ) :   0.9362

MP2 TOTAL ENERGY:     -439.552829362 Eh
FINAL SINGLE POINT ENERGY      -439.552829362103

DIPOLE MOMENT
-------------
                                X             Y             Z
Electronic contribution:      0.08932      -1.05268       0.96783
Nuclear contribution   :     -0.29223       1.04137      -0.57231
                        -----------------------------------------
Total Dipole Moment    :     -0.20291      -0.01131       0.39552
                        -----------------------------------------
Magnitude (a.u.)       :      0.44467
Magnitude (Debye)      :      1.13027

                             ****ORCA TERMINATED NORMALLY****
TOTAL RUN TIME: 0 days 0 hours 18 minutes 2 seconds 280 msec
