                         Program Version 3.0.3 - RELEASE   -
|  1> ! RI-MP2 RIJK def2-TZVP def2-TZVP/C def2-TZVP/JK TIGHTSCF
|  2> % maxcore 2000
|  3> % mp2 density relaxed end
|  4> *xyz 0 1
|  5>  C        0.0112305096     1.4834144522     0.0411734134
|  6>  C        0.0191281921    -0.0135225707    -0.0126479741
|  7>  C       -0.0752897184    -0.7642592834    -1.1153172454
|  8>  C        0.0564485814    -2.2486692693    -0.8999478581
|  9>  C        1.4656851751    -2.4662169965    -0.2432969510
| 10>  C        0.7733634719    -2.2212143536     1.0990555191
| 11>  C       -0.5822525865    -2.7008473004     0.4935954082
| 12>  C       -1.3234241389    -1.6167689562     1.2791391757
| 13>  C        0.0277736821    -0.8189190775     1.2682845501
| 14>  H        0.9298349822     1.8698144303     0.5018183430
| 15>  H       -0.0762834644     1.9205380455    -0.9577087834
| 16>  H       -0.8212719621     1.8586922886     0.6510916142
| 17>  H       -0.1491954989    -0.3501374584    -2.1161795837
| 18>  H       -0.1967188474    -2.8466762886    -1.7759281728
| 19>  H        1.7819290111    -3.5131088972    -0.3050597332
| 20>  H        2.2772795270    -1.8125937525    -0.5753735956
| 21>  H        1.1890463959    -2.6153304499     2.0281769395
| 22>  H       -0.9145777696    -3.7401931683     0.5153890723
| 23>  H       -2.1992503855    -1.1235184133     0.8476677786
| 24>  H       -1.5618545885    -1.9879806239     2.2815097274
| 25>  H        0.2788850618    -0.2295221069     2.1518804458
| 26> *
| 27>
| 28>                          ****END OF INPUT****

CARTESIAN COORDINATES (ANGSTROEM)
---------------------------------
  C      0.011231    1.483414    0.041173
  C      0.019128   -0.013523   -0.012648
  C     -0.075290   -0.764259   -1.115317
  C      0.056449   -2.248669   -0.899948
  C      1.465685   -2.466217   -0.243297
  C      0.773363   -2.221214    1.099056
  C     -0.582253   -2.700847    0.493595
  C     -1.323424   -1.616769    1.279139
  C      0.027774   -0.818919    1.268285
  H      0.929835    1.869814    0.501818
  H     -0.076283    1.920538   -0.957709
  H     -0.821272    1.858692    0.651092
  H     -0.149195   -0.350137   -2.116180
  H     -0.196719   -2.846676   -1.775928
  H      1.781929   -3.513109   -0.305060
  H      2.277280   -1.812594   -0.575374
  H      1.189046   -2.615330    2.028177
  H     -0.914578   -3.740193    0.515389
  H     -2.199250   -1.123518    0.847668
  H     -1.561855   -1.987981    2.281510
  H      0.278885   -0.229522    2.151880

 Total Charge           Charge          ....    0
 Multiplicity           Mult            ....    1
 Number of Electrons    NEL             ....   66
 Basis Dimension        Dim             ....  351

ORBITAL ENERGIES
----------------

  NO   OCC          E(Eh)            E(eV)
   0   2.0000     -11.228610      -305.5460
   1   2.0000     -11.227358      -305.5119
   2   2.0000     -11.224371      -305.4307
   3   2.0000     -11.223360      -305.4031
   4   2.0000     -11.222121      -305.3694
   5   2.0000     -11.218214      -305.2631
   6   2.0000     -11.216693      -305.2217
   7   2.0000     -11.214765      -305.1693
   8   2.0000     -11.206271      -304.9381
   9   2.0000      -1.190833       -32.4042
  10   2.0000      -1.054250       -28.6876
  11   2.0000      -1.021132       -27.7864
  12   2.0000      -0.942892       -25.6574
  13   2.0000      -0.904497       -24.6126
  14   2.0000      -0.825278       -22.4570
  15   2.0000      -0.801442       -21.8083
  16   2.0000      -0.755265       -20.5518
  17   2.0000      -0.687040       -18.6953
  18   2.0000      -0.647780       -17.6270
  19   2.0000      -0.604045       -16.4369
  20   2.0000      -0.593819       -16.1586
  21   2.0000      -0.590612       -16.0714
  22   2.0000      -0.570094       -15.5131
  23   2.0000      -0.555491       -15.1157
  24   2.0000      -0.549785       -14.9604
  25   2.0000      -0.504512       -13.7285
  26   2.0000      -0.491209       -13.3665
  27   2.0000      -0.472018       -12.8443
  28   2.0000      -0.459764       -12.5108
  29   2.0000      -0.413560       -11.2535
  30   2.0000      -0.408417       -11.1136
  31   2.0000      -0.394410       -10.7324
  32   2.0000      -0.318939        -8.6788
  33   0.0000       0.139127         3.7858
  34   0.0000       0.153998         4.1905
  35   0.0000       0.158120         4.3027
  36   0.0000       0.168258         4.5785
  37   0.0000       0.171504         4.6669

MULLIKEN ATOMIC CHARGES
-----------------------
   0 C :   -0.466731
   1 C :   -0.023099
   2 C :   -0.282730
   3 C :    0.059664
   4 C :   -0.237657
   5 C :   -0.143611
   6 C :   -0.138711
   7 C :   -0.249899
   8 C :    0.040911
   9 H :    0.140155
  10 H :    0.135444
  11 H :    0.137484
  12 H :    0.112719
  13 H :    0.121060
  14 H :    0.110829
  15 H :    0.110139
  16 H :    0.113002
  17 H :    0.113386
  18 H :    0.112927
  19 H :    0.111479
  20 H :    0.123241
Sum of atomic charges:    0.0000000

LOEWDIN ATOMIC CHARGES
----------------------
   0 C :   -0.274725
   1 C :   -0.172289
   2 C :   -0.128233
   3 C :   -0.170127
   4 C :   -0.200725
   5 C :   -0.155705
   6 C :   -0.155924
   7 C :   -0.198167
   8 C :   -0.142615
   9 H :    0.129955
  10 H :    0.129085
  11 H :    0.130098
  12 H :    0.138439
  13 H :    0.137490
  14 H :    0.138390
  15 H :    0.125150
  16 H :    0.132303
  17 H :    0.132150
  18 H :    0.126739
  19 H :    0.138660
  20 H :    0.140049

  Mayer bond orders larger than 0.1
B(  0-C ,  1-C ) :   0.8800 B(  0-C ,  9-H ) :   0.9406 B(  0-C , 10-H ) :   0.9504
B(  0-C , 11-H ) :   0.9286 B(  1-C ,  2-C ) :   1.7624 B(  1-C ,  8-C ) :   0.9096
B(  2-C ,  3-C ) :   0.9261 B(  2-C , 12-H ) :   0.9352 B(  3-C ,  4-C ) :   0.8958
B(  3-C ,  6-C ) :   0.8901 B(  3-C , 13-H ) :   0.9149 B(  4-C ,  5-C ) :   0.9646
B(  4-C , 14-H ) :   0.9159 B(  4-C , 15-H ) :   0.9102 B(  5-C ,  6-C ) :   0.9258
B(  5-C ,  8-C ) :   0.8885 B(  5-C , 16-H ) :   0.9135 B(  6-C ,  7-C ) :   0.9612
B(  6-C , 17-H ) :   0.9139 B(  7-C ,  8-C ) :   0.8875 B(  7-C , 18-H ) :   0.9087
B(  7-C , 19-H ) :   0.9163 B(  8-C , 20-H ) :   0.9159

MP2 TOTAL ENERGY:     -349.283574854 Eh
FINAL SINGLE POINT ENERGY      -349.283574853758

DIPOLE MOMENT
-------------
                                X             Y             Z
Electronic contribution:     -0.02159      -2.19142      -0.48497
Nuclear contribution   :      0.03454       2.18196       0.59111
                        -----------------------------------------
Total Dipole Moment    :      0.01296      -0.00946       0.10614
                        -----------------------------------------
Magnitude (a.u.)       :      0.10735
Magnitude (Debye)      :      0.27286

                             ****ORCA TERMINATED NORMALLY****
TOTAL RUN TIME: 0 days 0 hours 22 minutes 36 seconds 939 msec
