                         Program Version 3.0.3 - RELEASE   -
|  1> ! RI-MP2 RIJK def2-TZVP def2-TZVP/C def2-TZVP/JK TIGHTSCF
|  2> % maxcore 2000
|  3> % mp2 density relaxed end
|  4> *xyz 0 1
|  5>  O       -0.1766792797     0.1687722208    -0.3567251822
|  6>  C        0.0960496411     1.1869165964     0.2286218293
|  7>  C        1.3831110196     1.9227768374     0.0402000645
|  8>  C        2.7495153571     1.2580799770    -0.2381047144
|  9>  C        3.1149429132     2.6688886462    -0.7136141449
| 10>  C        2.5873827236     3.6759324893     0.4000215673
| 11>  C        1.6614098286     4.3212942265    -0.6538599306
| 12>  C        1.6448560033     2.8962689852    -1.2172565808
| 13>  O        1.6778458434     2.8201040216     1.1167273032
| 14>  H       -0.6086292716     1.6686564215     0.9410163316
| 15>  H        3.2570328657     0.8181219986     0.6232432318
| 16>  H        2.6980829969     0.5544393704    -1.0713759996
| 17>  H        4.0004704944     2.9319212887    -1.2887113868
| 18>  H        3.2230794016     4.2320986901     1.0860797639
| 19>  H        0.7419405773     4.7871453632    -0.2918894706
| 20>  H        2.2004855045     4.9919042957    -1.3289896378
| 21>  H        1.2672332010     2.5894412815    -2.1898346440
| 22> *
| 23>
| 24>                          ****END OF INPUT****

CARTESIAN COORDINATES (ANGSTROEM)
---------------------------------
  O     -0.176679    0.168772   -0.356725
  C      0.096050    1.186917    0.228622
  C      1.383111    1.922777    0.040200
  C      2.749515    1.258080   -0.238105
  C      3.114943    2.668889   -0.713614
  C      2.587383    3.675932    0.400022
  C      1.661410    4.321294   -0.653860
  C      1.644856    2.896269   -1.217257
  O      1.677846    2.820104    1.116727
  H     -0.608629    1.668656    0.941016
  H      3.257033    0.818122    0.623243
  H      2.698083    0.554439   -1.071376
  H      4.000470    2.931921   -1.288711
  H      3.223079    4.232099    1.086080
  H      0.741941    4.787145   -0.291889
  H      2.200486    4.991904   -1.328990
  H      1.267233    2.589441   -2.189835

 Total Charge           Charge          ....    0
 Multiplicity           Mult            ....    1
 Number of Electrons    NEL             ....   66
 Basis Dimension        Dim             ....  327

ORBITAL ENERGIES
----------------

  NO   OCC          E(Eh)            E(eV)
   0   2.0000     -20.569565      -559.7263
   1   2.0000     -20.562515      -559.5345
   2   2.0000     -11.334583      -308.4297
   3   2.0000     -11.304889      -307.6217
   4   2.0000     -11.299603      -307.4778
   5   2.0000     -11.257396      -306.3293
   6   2.0000     -11.252445      -306.1946
   7   2.0000     -11.238182      -305.8065
   8   2.0000     -11.236950      -305.7730
   9   2.0000      -1.417176       -38.5633
  10   2.0000      -1.396955       -38.0131
  11   2.0000      -1.156870       -31.4800
  12   2.0000      -1.052272       -28.6338
  13   2.0000      -0.963687       -26.2232
  14   2.0000      -0.863669       -23.5016
  15   2.0000      -0.847383       -23.0585
  16   2.0000      -0.782892       -21.3036
  17   2.0000      -0.754906       -20.5420
  18   2.0000      -0.716245       -19.4900
  19   2.0000      -0.663431       -18.0529
  20   2.0000      -0.659136       -17.9360
  21   2.0000      -0.645629       -17.5685
  22   2.0000      -0.608257       -16.5515
  23   2.0000      -0.580922       -15.8077
  24   2.0000      -0.547147       -14.8886
  25   2.0000      -0.541478       -14.7344
  26   2.0000      -0.516312       -14.0496
  27   2.0000      -0.504531       -13.7290
  28   2.0000      -0.486962       -13.2509
  29   2.0000      -0.449356       -12.2276
  30   2.0000      -0.437842       -11.9143
  31   2.0000      -0.413499       -11.2519
  32   2.0000      -0.410460       -11.1692
  33   0.0000       0.112363         3.0576
  34   0.0000       0.143069         3.8931
  35   0.0000       0.161796         4.4027
  36   0.0000       0.169389         4.6093
  37   0.0000       0.175965         4.7882

MULLIKEN ATOMIC CHARGES
-----------------------
   0 O :   -0.263744
   1 C :    0.020595
   2 C :    0.220640
   3 C :   -0.230586
   4 C :   -0.137834
   5 C :    0.046942
   6 C :   -0.246088
   7 C :   -0.125446
   8 O :   -0.318929
   9 H :    0.100632
  10 H :    0.128004
  11 H :    0.132806
  12 H :    0.138624
  13 H :    0.136371
  14 H :    0.125720
  15 H :    0.123265
  16 H :    0.149028
Sum of atomic charges:    0.0000000

LOEWDIN ATOMIC CHARGES
----------------------
   0 O :    0.144122
   1 C :   -0.251407
   2 C :   -0.284127
   3 C :   -0.177344
   4 C :   -0.158852
   5 C :   -0.225961
   6 C :   -0.210903
   7 C :   -0.129578
   8 O :    0.210879
   9 H :    0.119193
  10 H :    0.132517
  11 H :    0.150769
  12 H :    0.135633
  13 H :    0.129653
  14 H :    0.129419
  15 H :    0.145989
  16 H :    0.139997

  Mayer bond orders larger than 0.1
B(  0-O ,  1-C ) :   2.0139 B(  1-C ,  2-C ) :   0.7617 B(  1-C ,  9-H ) :   0.9798
B(  2-C ,  3-C ) :   0.9076 B(  2-C ,  7-C ) :   0.8421 B(  2-C ,  8-O ) :   0.9354
B(  2-C ,  9-H ) :  -0.1021 B(  3-C ,  4-C ) :   0.9557 B(  3-C , 10-H ) :   0.9183
B(  3-C , 11-H ) :   0.9137 B(  4-C ,  5-C ) :   0.8827 B(  4-C ,  7-C ) :   0.8606
B(  4-C , 12-H ) :   0.9118 B(  5-C ,  6-C ) :   0.9308 B(  5-C ,  8-O ) :   0.8988
B(  5-C , 13-H ) :   0.9130 B(  6-C ,  7-C ) :   0.9320 B(  6-C , 14-H ) :   0.9169
B(  6-C , 15-H ) :   0.9201 B(  7-C , 16-H ) :   0.9072

MP2 TOTAL ENERGY:     -421.082358802 Eh
FINAL SINGLE POINT ENERGY      -421.082358801777

DIPOLE MOMENT
-------------
                                X             Y             Z
Electronic contribution:     -2.94718      -2.96799       1.92999
Nuclear contribution   :      3.62953       3.86681      -2.24387
                        -----------------------------------------
Total Dipole Moment    :      0.68235       0.89882      -0.31388
                        -----------------------------------------
Magnitude (a.u.)       :      1.17133
Magnitude (Debye)      :      2.97728

                             ****ORCA TERMINATED NORMALLY****
TOTAL RUN TIME: 0 days 0 hours 18 minutes 4 seconds 404 msec
