                         Program Version 3.0.3 - RELEASE   -
|  1> ! RI-MP2 RIJK def2-TZVP def2-TZVP/C def2-TZVP/JK TIGHTSCF
|  2> % maxcore 2000
|  3> % mp2 density relaxed end
|  4> *xyz 0 1
|  5>  C       -0.2603407660     1.5150444927     0.0641741167
|  6>  C        0.1303008948     0.0523939859    -0.0184757610
|  7>  O        1.3524349247    -0.1503664275    -0.7735132784
|  8>  C        1.9836449776    -0.8777576121     0.3040637568
|  9>  C        0.7776344128    -0.6280653035     1.1985543022
| 10>  C        0.6792926185    -0.2723236050     2.6336953798
| 11>  N        0.2230600256    -1.5742196373     2.1392267572
| 12>  C       -1.2156793486    -1.8000393862     2.1116965966
| 13>  H        0.5304977525     2.1032585105     0.5383867484
| 14>  H       -0.4334640681     1.9138137337    -0.9405416410
| 15>  H       -1.1834536913     1.6381264580     0.6412242066
| 16>  H       -0.6903167855    -0.5368146836    -0.4548204848
| 17>  H        2.1511757154    -1.9335983321     0.0559715469
| 18>  H        2.9321230296    -0.4194745500     0.6097444833
| 19>  H        1.5591629423    -0.2872946206     3.2725613861
| 20>  H       -0.0767703978     0.4602483903     2.9169515694
| 21>  H       -1.8058673993    -0.8961013956     1.8868152761
| 22>  H       -1.4510873518    -2.5588846123     1.3587046026
| 23>  H       -1.5344174754    -2.1792514653     3.0872754966
| 24> *
| 25>
| 26>                          ****END OF INPUT****

CARTESIAN COORDINATES (ANGSTROEM)
---------------------------------
  C     -0.260341    1.515044    0.064174
  C      0.130301    0.052394   -0.018476
  O      1.352435   -0.150366   -0.773513
  C      1.983645   -0.877758    0.304064
  C      0.777634   -0.628065    1.198554
  C      0.679293   -0.272324    2.633695
  N      0.223060   -1.574220    2.139227
  C     -1.215679   -1.800039    2.111697
  H      0.530498    2.103259    0.538387
  H     -0.433464    1.913814   -0.940542
  H     -1.183454    1.638126    0.641224
  H     -0.690317   -0.536815   -0.454820
  H      2.151176   -1.933598    0.055972
  H      2.932123   -0.419475    0.609744
  H      1.559163   -0.287295    3.272561
  H     -0.076770    0.460248    2.916952
  H     -1.805867   -0.896101    1.886815
  H     -1.451087   -2.558885    1.358705
  H     -1.534417   -2.179251    3.087275

 Total Charge           Charge          ....    0
 Multiplicity           Mult            ....    1
 Number of Electrons    NEL             ....   62
 Basis Dimension        Dim             ....  314

ORBITAL ENERGIES
----------------

  NO   OCC          E(Eh)            E(eV)
   0   2.0000     -20.546643      -559.1026
   1   2.0000     -15.565219      -423.5511
   2   2.0000     -11.287148      -307.1389
   3   2.0000     -11.274867      -306.8047
   4   2.0000     -11.267572      -306.6062
   5   2.0000     -11.258770      -306.3667
   6   2.0000     -11.253440      -306.2217
   7   2.0000     -11.221312      -305.3474
   8   2.0000      -1.378952       -37.5232
   9   2.0000      -1.278320       -34.7849
  10   2.0000      -1.023486       -27.8505
  11   2.0000      -1.004037       -27.3212
  12   2.0000      -0.935436       -25.4545
  13   2.0000      -0.872061       -23.7300
  14   2.0000      -0.835918       -22.7465
  15   2.0000      -0.727591       -19.7988
  16   2.0000      -0.683324       -18.5942
  17   2.0000      -0.672413       -18.2973
  18   2.0000      -0.653427       -17.7807
  19   2.0000      -0.605505       -16.4766
  20   2.0000      -0.598516       -16.2864
  21   2.0000      -0.575090       -15.6490
  22   2.0000      -0.559121       -15.2144
  23   2.0000      -0.541158       -14.7256
  24   2.0000      -0.529276       -14.4023
  25   2.0000      -0.520565       -14.1653
  26   2.0000      -0.485974       -13.2240
  27   2.0000      -0.457083       -12.4379
  28   2.0000      -0.436017       -11.8646
  29   2.0000      -0.411445       -11.1960
  30   2.0000      -0.373462       -10.1624
  31   0.0000       0.132479         3.6049
  32   0.0000       0.158630         4.3166
  33   0.0000       0.166465         4.5297
  34   0.0000       0.174554         4.7499
  35   0.0000       0.196589         5.3495

MULLIKEN ATOMIC CHARGES
-----------------------
   0 C :   -0.398740
   1 C :    0.128445
   2 O :   -0.331894
   3 C :   -0.005287
   4 C :   -0.023710
   5 C :   -0.177015
   6 N :   -0.215722
   7 C :   -0.307060
   8 H :    0.131130
   9 H :    0.143000
  10 H :    0.121026
  11 H :    0.089471
  12 H :    0.099113
  13 H :    0.099062
  14 H :    0.128602
  15 H :    0.122467
  16 H :    0.108686
  17 H :    0.143738
  18 H :    0.144689
Sum of atomic charges:    0.0000000

LOEWDIN ATOMIC CHARGES
----------------------
   0 C :   -0.294376
   1 C :   -0.272109
   2 O :    0.136221
   3 C :   -0.226985
   4 C :   -0.267839
   5 C :   -0.222382
   6 N :    0.109804
   7 C :   -0.326392
   8 H :    0.127417
   9 H :    0.130151
  10 H :    0.124779
  11 H :    0.138123
  12 H :    0.122767
  13 H :    0.120063
  14 H :    0.127388
  15 H :    0.127229
  16 H :    0.106337
  17 H :    0.119739
  18 H :    0.120066

  Mayer bond orders larger than 0.1
B(  0-C ,  1-C ) :   0.9015 B(  0-C ,  8-H ) :   0.9370 B(  0-C ,  9-H ) :   0.9298
B(  0-C , 10-H ) :   0.9280 B(  1-C ,  2-O ) :   0.9634 B(  1-C ,  4-C ) :   0.9477
B(  1-C , 11-H ) :   0.9128 B(  2-O ,  3-C ) :   0.9553 B(  3-C ,  4-C ) :   0.9709
B(  3-C , 12-H ) :   0.9063 B(  3-C , 13-H ) :   0.9164 B(  4-C ,  5-C ) :   0.9072
B(  4-C ,  6-N ) :   0.8896 B(  5-C ,  6-N ) :   0.9315 B(  5-C , 14-H ) :   0.9103
B(  5-C , 15-H ) :   0.9192 B(  6-N ,  7-C ) :   0.8722 B(  7-C , 16-H ) :   0.9242
B(  7-C , 17-H ) :   0.9387 B(  7-C , 18-H ) :   0.9373

MP2 TOTAL ENERGY:     -364.385906675 Eh
FINAL SINGLE POINT ENERGY      -364.385906675207

DIPOLE MOMENT
-------------
                                X             Y             Z
Electronic contribution:      4.00559      -1.89562      -1.90626
Nuclear contribution   :     -4.54266       2.14969       2.46102
                        -----------------------------------------
Total Dipole Moment    :     -0.53707       0.25407       0.55476
                        -----------------------------------------
Magnitude (a.u.)       :      0.81287
Magnitude (Debye)      :      2.06615

                             ****ORCA TERMINATED NORMALLY****
TOTAL RUN TIME: 0 days 0 hours 13 minutes 30 seconds 358 msec
