                         Program Version 3.0.3 - RELEASE   -
|  1> ! RI-MP2 RIJK def2-TZVP def2-TZVP/C def2-TZVP/JK TIGHTSCF
|  2> % maxcore 2000
|  3> % mp2 density relaxed end
|  4> *xyz 0 1
|  5>  C        0.0421145171     1.5591770631     0.0541823140
|  6>  C        0.0736956719     0.0429351994    -0.0183231860
|  7>  C        0.7799689343    -0.5546697418    -1.2618279838
|  8>  C        1.3100176895    -1.8963601134    -0.7332552573
|  9>  C        2.8210533564    -2.1693129862    -0.5810499240
| 10>  C        3.5133203842    -1.0757645055     0.1812043125
| 11>  C        2.7108090002    -2.0826618657     0.9492620994
| 12>  C        1.2112664686    -1.7784947067     0.8161837898
| 13>  O        0.7978955587    -0.4574567570     1.1132405326
| 14>  H        1.0574091627     1.9663734174     0.0130684140
| 15>  H       -0.5316159699     1.9697611153    -0.7826911137
| 16>  H       -0.4232745643     1.8911958518     0.9863620790
| 17>  H       -0.9597517423    -0.3431477218     0.0207510127
| 18>  H        0.0903091666    -0.6632579468    -2.1032172989
| 19>  H        1.5947787427     0.1026424610    -1.5818189715
| 20>  H        0.7744059219    -2.7569192121    -1.1373312590
| 21>  H        3.3767690688    -2.8856355341    -1.1738326352
| 22>  H        4.5892982771    -1.1897150021     0.2640989810
| 23>  H        3.1780192649    -0.0447843123     0.1299536522
| 24>  H        3.1495127980    -2.7201775760     1.7063063533
| 25>  H        0.5653908929    -2.5174049264     1.3052180591
| 26> *
| 27>
| 28>                          ****END OF INPUT****

CARTESIAN COORDINATES (ANGSTROEM)
---------------------------------
  C      0.042115    1.559177    0.054182
  C      0.073696    0.042935   -0.018323
  C      0.779969   -0.554670   -1.261828
  C      1.310018   -1.896360   -0.733255
  C      2.821053   -2.169313   -0.581050
  C      3.513320   -1.075765    0.181204
  C      2.710809   -2.082662    0.949262
  C      1.211266   -1.778495    0.816184
  O      0.797896   -0.457457    1.113241
  H      1.057409    1.966373    0.013068
  H     -0.531616    1.969761   -0.782691
  H     -0.423275    1.891196    0.986362
  H     -0.959752   -0.343148    0.020751
  H      0.090309   -0.663258   -2.103217
  H      1.594779    0.102642   -1.581819
  H      0.774406   -2.756919   -1.137331
  H      3.376769   -2.885636   -1.173833
  H      4.589298   -1.189715    0.264099
  H      3.178019   -0.044784    0.129954
  H      3.149513   -2.720178    1.706306
  H      0.565391   -2.517405    1.305218

 Total Charge           Charge          ....    0
 Multiplicity           Mult            ....    1
 Number of Electrons    NEL             ....   68
 Basis Dimension        Dim             ....  351

ORBITAL ENERGIES
----------------

  NO   OCC          E(Eh)            E(eV)
   0   2.0000     -20.542686      -558.9949
   1   2.0000     -11.275434      -306.8201
   2   2.0000     -11.272753      -306.7472
   3   2.0000     -11.233415      -305.6768
   4   2.0000     -11.228774      -305.5505
   5   2.0000     -11.227011      -305.5025
   6   2.0000     -11.224213      -305.4264
   7   2.0000     -11.218559      -305.2725
   8   2.0000     -11.211716      -305.0863
   9   2.0000      -1.371957       -37.3329
  10   2.0000      -1.179728       -32.1020
  11   2.0000      -1.050162       -28.5764
  12   2.0000      -1.003365       -27.3030
  13   2.0000      -0.920848       -25.0575
  14   2.0000      -0.856195       -23.2982
  15   2.0000      -0.806598       -21.9487
  16   2.0000      -0.769583       -20.9414
  17   2.0000      -0.725900       -19.7528
  18   2.0000      -0.709218       -19.2988
  19   2.0000      -0.645768       -17.5722
  20   2.0000      -0.644727       -17.5439
  21   2.0000      -0.611058       -16.6277
  22   2.0000      -0.585174       -15.9234
  23   2.0000      -0.556357       -15.1392
  24   2.0000      -0.545378       -14.8405
  25   2.0000      -0.534476       -14.5438
  26   2.0000      -0.515520       -14.0280
  27   2.0000      -0.505122       -13.7451
  28   2.0000      -0.470077       -12.7914
  29   2.0000      -0.461238       -12.5509
  30   2.0000      -0.441054       -12.0017
  31   2.0000      -0.423815       -11.5326
  32   2.0000      -0.402295       -10.9470
  33   2.0000      -0.367778       -10.0078
  34   0.0000       0.140464         3.8222
  35   0.0000       0.151314         4.1175
  36   0.0000       0.168337         4.5807
  37   0.0000       0.171369         4.6632
  38   0.0000       0.190016         5.1706

MULLIKEN ATOMIC CHARGES
-----------------------
   0 C :   -0.381512
   1 C :    0.090446
   2 C :   -0.311041
   3 C :   -0.025853
   4 C :   -0.163463
   5 C :   -0.272636
   6 C :   -0.138595
   7 C :    0.078648
   8 O :   -0.319420
   9 H :    0.123170
  10 H :    0.125536
  11 H :    0.140013
  12 H :    0.071547
  13 H :    0.126877
  14 H :    0.128612
  15 H :    0.112011
  16 H :    0.127209
  17 H :    0.128854
  18 H :    0.138983
  19 H :    0.133877
  20 H :    0.086738
Sum of atomic charges:   -0.0000000

LOEWDIN ATOMIC CHARGES
----------------------
   0 C :   -0.294868
   1 C :   -0.327910
   2 C :   -0.219242
   3 C :   -0.181778
   4 C :   -0.162081
   5 C :   -0.205236
   6 C :   -0.163491
   7 C :   -0.247507
   8 O :    0.190324
   9 H :    0.124132
  10 H :    0.126819
  11 H :    0.127389
  12 H :    0.133732
  13 H :    0.136131
  14 H :    0.141751
  15 H :    0.148503
  16 H :    0.133489
  17 H :    0.140550
  18 H :    0.132258
  19 H :    0.133706
  20 H :    0.133329

  Mayer bond orders larger than 0.1
B(  0-C ,  1-C ) :   0.9089 B(  0-C ,  9-H ) :   0.9371 B(  0-C , 10-H ) :   0.9341
B(  0-C , 11-H ) :   0.9380 B(  1-C ,  2-C ) :   0.9340 B(  1-C ,  8-O ) :   0.9516
B(  1-C , 12-H ) :   0.9285 B(  2-C ,  3-C ) :   0.9208 B(  2-C , 13-H ) :   0.9207
B(  2-C , 14-H ) :   0.9237 B(  3-C ,  4-C ) :   0.9182 B(  3-C ,  7-C ) :   0.9946
B(  3-C , 15-H ) :   0.9243 B(  4-C ,  5-C ) :   0.8984 B(  4-C ,  6-C ) :   0.8341
B(  4-C , 16-H ) :   0.9247 B(  5-C ,  6-C ) :   0.8834 B(  5-C , 17-H ) :   0.9303
B(  5-C , 18-H ) :   0.9171 B(  6-C ,  7-C ) :   0.9149 B(  6-C , 19-H ) :   0.9273
B(  7-C ,  8-O ) :   0.9872 B(  7-C , 20-H ) :   0.9418

MP2 TOTAL ENERGY:     -386.392672696 Eh
FINAL SINGLE POINT ENERGY      -386.392672695883

DIPOLE MOMENT
-------------
                                X             Y             Z
Electronic contribution:      0.73758      -3.51584       2.43029
Nuclear contribution   :     -0.79751       3.24277      -2.94543
                        -----------------------------------------
Total Dipole Moment    :     -0.05993      -0.27307      -0.51514
                        -----------------------------------------
Magnitude (a.u.)       :      0.58611
Magnitude (Debye)      :      1.48978

                             ****ORCA TERMINATED NORMALLY****
TOTAL RUN TIME: 0 days 0 hours 19 minutes 16 seconds 580 msec
