                         Program Version 3.0.3 - RELEASE   -
|  1> ! RI-MP2 RIJK def2-TZVP def2-TZVP/C def2-TZVP/JK TIGHTSCF
|  2> % maxcore 2000
|  3> % mp2 density relaxed end
|  4> *xyz 0 1
|  5>  C       -0.0103996958     1.4928124532     0.0054765127
|  6>  C       -0.0143883722    -0.0091310747    -0.0321576344
|  7>  C       -0.9133888806    -0.8479398993     0.8116430062
|  8>  O       -1.8572522152    -1.7660840749     0.3260078146
|  9>  C        0.5720544169    -1.0388269566     0.9768484830
| 10>  C        1.3243449668    -1.7309631479    -0.1868043148
| 11>  C        0.4601371480    -2.2222971548    -1.3206165602
| 12>  C        0.7367871113    -0.7482156337    -1.1793750060
| 13>  H        1.0003704557     1.8908955384    -0.1431299924
| 14>  H       -0.6465870814     1.9063831232    -0.7875680228
| 15>  H       -0.3822934061     1.8704043442     0.9630974062
| 16>  H       -1.3060590284    -0.2544887340     1.6432648114
| 17>  H       -1.9115638998    -2.4875071060     0.9627196454
| 18>  H        1.0525207507    -0.8438962393     1.9294799182
| 19>  H        2.3600874186    -2.0278570104    -0.0844568412
| 20>  H        1.0305476779    -2.6870584805    -2.1211807545
| 21>  H       -0.5262181780    -2.6309442426    -1.1627237138
| 22>  H        1.2580412715    -0.1829554842    -1.9418542575
| 23> *
| 24>
| 25>                          ****END OF INPUT****

CARTESIAN COORDINATES (ANGSTROEM)
---------------------------------
  C     -0.010400    1.492812    0.005477
  C     -0.014388   -0.009131   -0.032158
  C     -0.913389   -0.847940    0.811643
  O     -1.857252   -1.766084    0.326008
  C      0.572054   -1.038827    0.976848
  C      1.324345   -1.730963   -0.186804
  C      0.460137   -2.222297   -1.320617
  C      0.736787   -0.748216   -1.179375
  H      1.000370    1.890896   -0.143130
  H     -0.646587    1.906383   -0.787568
  H     -0.382293    1.870404    0.963097
  H     -1.306059   -0.254489    1.643265
  H     -1.911564   -2.487507    0.962720
  H      1.052521   -0.843896    1.929480
  H      2.360087   -2.027857   -0.084457
  H      1.030548   -2.687058   -2.121181
  H     -0.526218   -2.630944   -1.162724
  H      1.258041   -0.182955   -1.941854

 Total Charge           Charge          ....    0
 Multiplicity           Mult            ....    1
 Number of Electrons    NEL             ....   60
 Basis Dimension        Dim             ....  308

ORBITAL ENERGIES
----------------

  NO   OCC          E(Eh)            E(eV)
   0   2.0000     -20.558614      -559.4283
   1   2.0000     -11.286412      -307.1189
   2   2.0000     -11.241065      -305.8849
   3   2.0000     -11.231156      -305.6153
   4   2.0000     -11.230524      -305.5981
   5   2.0000     -11.227480      -305.5153
   6   2.0000     -11.219651      -305.3022
   7   2.0000     -11.218908      -305.2820
   8   2.0000      -1.367486       -37.2112
   9   2.0000      -1.205873       -32.8135
  10   2.0000      -1.073508       -29.2116
  11   2.0000      -0.970331       -26.4041
  12   2.0000      -0.860716       -23.4213
  13   2.0000      -0.838884       -22.8272
  14   2.0000      -0.763671       -20.7805
  15   2.0000      -0.724034       -19.7020
  16   2.0000      -0.688754       -18.7420
  17   2.0000      -0.666844       -18.1457
  18   2.0000      -0.612678       -16.6718
  19   2.0000      -0.610300       -16.6071
  20   2.0000      -0.574816       -15.6416
  21   2.0000      -0.561242       -15.2722
  22   2.0000      -0.550634       -14.9835
  23   2.0000      -0.540555       -14.7093
  24   2.0000      -0.478243       -13.0136
  25   2.0000      -0.466472       -12.6934
  26   2.0000      -0.437968       -11.9177
  27   2.0000      -0.428540       -11.6612
  28   2.0000      -0.393829       -10.7166
  29   2.0000      -0.313924        -8.5423
  30   0.0000       0.141620         3.8537
  31   0.0000       0.148668         4.0455
  32   0.0000       0.167066         4.5461
  33   0.0000       0.175494         4.7754
  34   0.0000       0.191528         5.2117

MULLIKEN ATOMIC CHARGES
-----------------------
   0 C :   -0.411606
   1 C :    0.136754
   2 C :   -0.031807
   3 O :   -0.468022
   4 C :   -0.133686
   5 C :   -0.157449
   6 C :   -0.222423
   7 C :   -0.200305
   8 H :    0.131906
   9 H :    0.139631
  10 H :    0.126304
  11 H :    0.095410
  12 H :    0.321852
  13 H :    0.128516
  14 H :    0.132301
  15 H :    0.119382
  16 H :    0.156550
  17 H :    0.136692
Sum of atomic charges:   -0.0000000

LOEWDIN ATOMIC CHARGES
----------------------
   0 C :   -0.272496
   1 C :   -0.179661
   2 C :   -0.287134
   3 O :   -0.009532
   4 C :   -0.135572
   5 C :   -0.168400
   6 C :   -0.200472
   7 C :   -0.145298
   8 H :    0.127793
   9 H :    0.131408
  10 H :    0.128118
  11 H :    0.146197
  12 H :    0.178960
  13 H :    0.136793
  14 H :    0.137012
  15 H :    0.139886
  16 H :    0.132647
  17 H :    0.139753

  Mayer bond orders larger than 0.1
B(  0-C ,  1-C ) :   0.8879 B(  0-C ,  8-H ) :   0.9415 B(  0-C ,  9-H ) :   0.9392
B(  0-C , 10-H ) :   0.9355 B(  1-C ,  2-C ) :   0.8620 B(  1-C ,  3-O ) :  -0.1265
B(  1-C ,  4-C ) :   0.8430 B(  1-C ,  7-C ) :   0.8565 B(  2-C ,  3-O ) :   1.0526
B(  2-C ,  4-C ) :   0.8959 B(  2-C , 11-H ) :   0.9771 B(  3-O , 12-H ) :   0.8394
B(  4-C ,  5-C ) :   0.8781 B(  4-C , 13-H ) :   0.9151 B(  5-C ,  6-C ) :   0.9043
B(  5-C ,  7-C ) :   0.9158 B(  5-C , 14-H ) :   0.9280 B(  6-C ,  7-C ) :   0.8882
B(  6-C , 15-H ) :   0.9283 B(  6-C , 16-H ) :   0.9023 B(  7-C , 17-H ) :   0.9291

MP2 TOTAL ENERGY:     -347.116259794 Eh
FINAL SINGLE POINT ENERGY      -347.116259793856

DIPOLE MOMENT
-------------
                                X             Y             Z
Electronic contribution:     -1.56852      -2.95500       0.59446
Nuclear contribution   :      1.94288       2.97219      -0.12502
                        -----------------------------------------
Total Dipole Moment    :      0.37436       0.01719       0.46944
                        -----------------------------------------
Magnitude (a.u.)       :      0.60068
Magnitude (Debye)      :      1.52681

                             ****ORCA TERMINATED NORMALLY****
TOTAL RUN TIME: 0 days 0 hours 12 minutes 52 seconds 656 msec
