                         Program Version 3.0.3 - RELEASE   -
|  1> ! RI-MP2 RIJK def2-TZVP def2-TZVP/C def2-TZVP/JK TIGHTSCF
|  2> % maxcore 2000
|  3> % mp2 density relaxed end
|  4> *xyz 0 1
|  5>  O       -0.0355775483    -0.0466451263     0.0031499637
|  6>  C        0.0050710077     1.1661262943     0.0094199731
|  7>  N       -1.0835472401     2.0208384995     0.0289762194
|  8>  C       -0.7013838058     3.3959595707     0.0313989849
|  9>  C       -1.4952441100     4.4589693803    -0.7049495029
| 10>  C       -1.4748729783     4.4506473733     0.8006643762
| 11>  C        0.7773730155     3.3453434323     0.0111311361
| 12>  C        1.1907635834     2.0732401723    -0.0015247880
| 13>  H       -2.0302024728     1.6820980531     0.0396410295
| 14>  H       -0.9443854125     5.2304269244    -1.2315552990
| 15>  H       -2.3997079903     4.1319840967    -1.2061900046
| 16>  H       -2.3654900279     4.1180008720     1.3225474330
| 17>  H       -0.9098484708     5.2163205410     1.3206618598
| 18>  H        1.3840169108     4.2418248773     0.0079344835
| 19>  H        2.2029450294     1.6966992290    -0.0172902948
| 20> *
| 21>
| 22>                          ****END OF INPUT****

CARTESIAN COORDINATES (ANGSTROEM)
---------------------------------
  O     -0.035578   -0.046645    0.003150
  C      0.005071    1.166126    0.009420
  N     -1.083547    2.020838    0.028976
  C     -0.701384    3.395960    0.031399
  C     -1.495244    4.458969   -0.704950
  C     -1.474873    4.450647    0.800664
  C      0.777373    3.345343    0.011131
  C      1.190764    2.073240   -0.001525
  H     -2.030202    1.682098    0.039641
  H     -0.944385    5.230427   -1.231555
  H     -2.399708    4.131984   -1.206190
  H     -2.365490    4.118001    1.322547
  H     -0.909848    5.216321    1.320662
  H      1.384017    4.241825    0.007934
  H      2.202945    1.696699   -0.017290

 Total Charge           Charge          ....    0
 Multiplicity           Mult            ....    1
 Number of Electrons    NEL             ....   58
 Basis Dimension        Dim             ....  290

ORBITAL ENERGIES
----------------

  NO   OCC          E(Eh)            E(eV)
   0   2.0000     -20.511590      -558.1487
   1   2.0000     -15.581598      -423.9968
   2   2.0000     -11.346090      -308.7428
   3   2.0000     -11.299445      -307.4735
   4   2.0000     -11.266847      -306.5865
   5   2.0000     -11.252609      -306.1991
   6   2.0000     -11.251943      -306.1809
   7   2.0000     -11.242797      -305.9321
   8   2.0000      -1.375236       -37.4221
   9   2.0000      -1.270901       -34.5830
  10   2.0000      -1.139051       -30.9952
  11   2.0000      -1.074226       -29.2312
  12   2.0000      -0.896281       -24.3890
  13   2.0000      -0.851456       -23.1693
  14   2.0000      -0.809548       -22.0289
  15   2.0000      -0.786010       -21.3884
  16   2.0000      -0.704382       -19.1672
  17   2.0000      -0.657123       -17.8812
  18   2.0000      -0.643639       -17.5143
  19   2.0000      -0.617176       -16.7942
  20   2.0000      -0.601791       -16.3756
  21   2.0000      -0.588838       -16.0231
  22   2.0000      -0.556667       -15.1477
  23   2.0000      -0.543051       -14.7772
  24   2.0000      -0.494946       -13.4682
  25   2.0000      -0.461152       -12.5486
  26   2.0000      -0.417965       -11.3734
  27   2.0000      -0.393407       -10.7051
  28   2.0000      -0.354489        -9.6461
  29   0.0000       0.101034         2.7493
  30   0.0000       0.130640         3.5549
  31   0.0000       0.151060         4.1106
  32   0.0000       0.173065         4.7093
  33   0.0000       0.174611         4.7514

MULLIKEN ATOMIC CHARGES
-----------------------
   0 O :   -0.349335
   1 C :    0.229146
   2 N :   -0.286774
   3 C :    0.203385
   4 C :   -0.278120
   5 C :   -0.278096
   6 C :   -0.154752
   7 C :   -0.185809
   8 H :    0.235274
   9 H :    0.141094
  10 H :    0.142243
  11 H :    0.142242
  12 H :    0.141092
  13 H :    0.147920
  14 H :    0.150491
Sum of atomic charges:    0.0000000

LOEWDIN ATOMIC CHARGES
----------------------
   0 O :    0.078338
   1 C :   -0.430801
   2 N :    0.170744
   3 C :   -0.264800
   4 C :   -0.192003
   5 C :   -0.191999
   6 C :   -0.093505
   7 C :   -0.108513
   8 H :    0.186585
   9 H :    0.137775
  10 H :    0.138420
  11 H :    0.138421
  12 H :    0.137775
  13 H :    0.146661
  14 H :    0.146903

  Mayer bond orders larger than 0.1
B(  0-O ,  1-C ) :   1.9815 B(  1-C ,  2-N ) :   1.1243 B(  1-C ,  7-C ) :   0.9760
B(  2-N ,  3-C ) :   0.9271 B(  2-N ,  8-H ) :   0.8623 B(  3-C ,  4-C ) :   0.8329
B(  3-C ,  5-C ) :   0.8329 B(  3-C ,  6-C ) :   0.9732 B(  4-C ,  5-C ) :   0.8815
B(  4-C ,  9-H ) :   0.9222 B(  4-C , 10-H ) :   0.9213 B(  5-C , 11-H ) :   0.9213
B(  5-C , 12-H ) :   0.9222 B(  6-C ,  7-C ) :   1.7135 B(  6-C , 13-H ) :   0.9082
B(  7-C , 14-H ) :   0.9335

MP2 TOTAL ENERGY:     -362.063752235 Eh
FINAL SINGLE POINT ENERGY      -362.063752235382

DIPOLE MOMENT
-------------
                                X             Y             Z
Electronic contribution:      1.84219      -5.93415      -0.05785
Nuclear contribution   :     -2.26624       7.73943       0.07353
                        -----------------------------------------
Total Dipole Moment    :     -0.42405       1.80528       0.01568
                        -----------------------------------------
Magnitude (a.u.)       :      1.85448
Magnitude (Debye)      :      4.71371

                             ****ORCA TERMINATED NORMALLY****
TOTAL RUN TIME: 0 days 0 hours 10 minutes 43 seconds 330 msec
