                         Program Version 3.0.3 - RELEASE   -
|  1> ! RI-MP2 RIJK def2-TZVP def2-TZVP/C def2-TZVP/JK TIGHTSCF
|  2> % maxcore 2000
|  3> % mp2 density relaxed end
|  4> *xyz 0 1
|  5>  C       -0.2205548525     1.3279334629    -0.2714256014
|  6>  C        1.2339312616     1.0361354309     0.0018715722
|  7>  C        0.2197568965    -0.0816618511     0.0430584891
|  8>  C       -0.1619059943    -0.7168756206     1.3524081745
|  9>  C       -1.4462320615    -1.6171763739     1.3971819217
| 10>  C       -0.6003068751    -2.7815253177     1.9558667067
| 11>  O       -0.0965295618    -3.6500664843     0.9180194445
| 12>  C        1.1685891438    -2.9475739855     0.8827653664
| 13>  C        0.6861721511    -1.9090293048     1.9073175000
| 14>  H       -0.7810346385     1.8635964426     0.4881349460
| 15>  H       -0.5177089772     1.5617516496    -1.2876749355
| 16>  H        1.9320710859     1.0712380627    -0.8271275365
| 17>  H        1.6497916395     1.3767796257     0.9447744811
| 18>  H        0.2324616306    -0.7621209126    -0.8044736785
| 19>  H       -0.2204358218     0.0658251200     2.1165022143
| 20>  H       -2.2243315114    -1.2497414620     2.0716865143
| 21>  H       -1.8954315844    -1.8471636756     0.4278761231
| 22>  H       -0.9646459029    -3.3376274641     2.8238886382
| 23>  H        1.9851016009    -3.5854833199     1.2459392766
| 24>  H        1.4238550769    -2.5902102075    -0.1218452755
| 25>  H        1.3363504843    -1.7067131848     2.7577494887
| 26> *
| 27>
| 28>                          ****END OF INPUT****

CARTESIAN COORDINATES (ANGSTROEM)
---------------------------------
  C     -0.220555    1.327933   -0.271426
  C      1.233931    1.036135    0.001872
  C      0.219757   -0.081662    0.043058
  C     -0.161906   -0.716876    1.352408
  C     -1.446232   -1.617176    1.397182
  C     -0.600307   -2.781525    1.955867
  O     -0.096530   -3.650066    0.918019
  C      1.168589   -2.947574    0.882765
  C      0.686172   -1.909029    1.907317
  H     -0.781035    1.863596    0.488135
  H     -0.517709    1.561752   -1.287675
  H      1.932071    1.071238   -0.827128
  H      1.649792    1.376780    0.944774
  H      0.232462   -0.762121   -0.804474
  H     -0.220436    0.065825    2.116502
  H     -2.224332   -1.249741    2.071687
  H     -1.895432   -1.847164    0.427876
  H     -0.964646   -3.337627    2.823889
  H      1.985102   -3.585483    1.245939
  H      1.423855   -2.590210   -0.121845
  H      1.336350   -1.706713    2.757749

 Total Charge           Charge          ....    0
 Multiplicity           Mult            ....    1
 Number of Electrons    NEL             ....   68
 Basis Dimension        Dim             ....  351

ORBITAL ENERGIES
----------------

  NO   OCC          E(Eh)            E(eV)
   0   2.0000     -20.541985      -558.9758
   1   2.0000     -11.276986      -306.8624
   2   2.0000     -11.274318      -306.7898
   3   2.0000     -11.234852      -305.7159
   4   2.0000     -11.230276      -305.5914
   5   2.0000     -11.228731      -305.5493
   6   2.0000     -11.225626      -305.4648
   7   2.0000     -11.224954      -305.4465
   8   2.0000     -11.218468      -305.2700
   9   2.0000      -1.373848       -37.3843
  10   2.0000      -1.151036       -31.3213
  11   2.0000      -1.094661       -29.7872
  12   2.0000      -0.967636       -26.3307
  13   2.0000      -0.907030       -24.6815
  14   2.0000      -0.852017       -23.1845
  15   2.0000      -0.821992       -22.3675
  16   2.0000      -0.787003       -21.4155
  17   2.0000      -0.718407       -19.5489
  18   2.0000      -0.692071       -18.8322
  19   2.0000      -0.661123       -17.9901
  20   2.0000      -0.642289       -17.4776
  21   2.0000      -0.635184       -17.2842
  22   2.0000      -0.589699       -16.0465
  23   2.0000      -0.579138       -15.7591
  24   2.0000      -0.533280       -14.5113
  25   2.0000      -0.521845       -14.2001
  26   2.0000      -0.516983       -14.0678
  27   2.0000      -0.500670       -13.6239
  28   2.0000      -0.484903       -13.1949
  29   2.0000      -0.444548       -12.0968
  30   2.0000      -0.434135       -11.8134
  31   2.0000      -0.405934       -11.0460
  32   2.0000      -0.395626       -10.7655
  33   2.0000      -0.390336       -10.6216
  34   0.0000       0.139989         3.8093
  35   0.0000       0.154021         4.1911
  36   0.0000       0.157816         4.2944
  37   0.0000       0.167096         4.5469
  38   0.0000       0.184191         5.0121

MULLIKEN ATOMIC CHARGES
-----------------------
   0 C :   -0.261025
   1 C :   -0.259322
   2 C :   -0.139125
   3 C :   -0.098388
   4 C :   -0.215128
   5 C :    0.051542
   6 O :   -0.338790
   7 C :   -0.049862
   8 C :   -0.073797
   9 H :    0.125090
  10 H :    0.130555
  11 H :    0.129792
  12 H :    0.124313
  13 H :    0.128972
  14 H :    0.098400
  15 H :    0.115642
  16 H :    0.109707
  17 H :    0.102847
  18 H :    0.097325
  19 H :    0.099813
  20 H :    0.121438
Sum of atomic charges:   -0.0000000

LOEWDIN ATOMIC CHARGES
----------------------
   0 C :   -0.226450
   1 C :   -0.228341
   2 C :   -0.218070
   3 C :   -0.195776
   4 C :   -0.193027
   5 C :   -0.236174
   6 O :    0.128472
   7 C :   -0.251132
   8 C :   -0.170919
   9 H :    0.132236
  10 H :    0.130631
  11 H :    0.130524
  12 H :    0.132346
  13 H :    0.150244
  14 H :    0.154878
  15 H :    0.130686
  16 H :    0.138189
  17 H :    0.122842
  18 H :    0.118283
  19 H :    0.116196
  20 H :    0.134364

  Mayer bond orders larger than 0.1
B(  0-C ,  1-C ) :   0.9148 B(  0-C ,  2-C ) :   0.8789 B(  0-C ,  9-H ) :   0.9286
B(  0-C , 10-H ) :   0.9286 B(  1-C ,  2-C ) :   0.8743 B(  1-C , 11-H ) :   0.9293
B(  1-C , 12-H ) :   0.9282 B(  2-C ,  3-C ) :   0.9074 B(  2-C , 13-H ) :   0.9217
B(  3-C ,  4-C ) :   0.9497 B(  3-C ,  8-C ) :   0.9279 B(  3-C , 14-H ) :   0.8988
B(  4-C ,  5-C ) :   0.9273 B(  4-C , 15-H ) :   0.9124 B(  4-C , 16-H ) :   0.8952
B(  5-C ,  6-O ) :   0.9480 B(  5-C ,  8-C ) :   0.9391 B(  5-C , 17-H ) :   0.9346
B(  6-O ,  7-C ) :   0.9393 B(  7-C ,  8-C ) :   0.9561 B(  7-C , 18-H ) :   0.9193
B(  7-C , 19-H ) :   0.9080 B(  8-C , 20-H ) :   0.9111

MP2 TOTAL ENERGY:     -386.354290349 Eh
FINAL SINGLE POINT ENERGY      -386.354290349351

DIPOLE MOMENT
-------------
                                X             Y             Z
Electronic contribution:     -0.60112      -5.25605       1.23887
Nuclear contribution   :      0.83602       5.89294      -0.91786
                        -----------------------------------------
Total Dipole Moment    :      0.23490       0.63689       0.32101
                        -----------------------------------------
Magnitude (a.u.)       :      0.75091
Magnitude (Debye)      :      1.90865

                             ****ORCA TERMINATED NORMALLY****
TOTAL RUN TIME: 0 days 0 hours 17 minutes 58 seconds 643 msec
