                         Program Version 3.0.3 - RELEASE   -
|  1> ! RI-MP2 RIJK def2-TZVP def2-TZVP/C def2-TZVP/JK TIGHTSCF
|  2> % maxcore 2000
|  3> % mp2 density relaxed end
|  4> *xyz 0 1
|  5>  C       -0.2591373224     1.4878488148    -0.1165886460
|  6>  C        0.0668860625     0.0217297150     0.0468721570
|  7>  N        1.4710540141    -0.4062403401    -0.1118421179
|  8>  C        0.8111380078    -0.5726187036     1.1936395176
|  9>  C        1.4346251274     0.2351576346     2.3248048870
| 10>  O        2.2224111700     1.2806654177     1.8334215223
| 11>  C        0.4455714738     0.6359719927     3.4439896010
| 12>  O        0.9345096284    -0.4134296964     4.3042770891
| 13>  C        2.0670101103    -0.6454718270     3.4422184042
| 14>  H       -0.2857988317     1.7560335237    -1.1781724160
| 15>  H       -1.2464325100     1.7029611425     0.3063015403
| 16>  H        0.4758927944     2.1173098886     0.3860496476
| 17>  H       -0.6731734191    -0.6454193113    -0.3947169151
| 18>  H        1.5529416427    -1.2826384795    -0.6167734438
| 19>  H        0.5089765904    -1.5757888256     1.4873618873
| 20>  H        2.4876443997     1.0046131613     0.9392343448
| 21>  H        0.6559966625     1.6369695419     3.8420799739
| 22>  H       -0.6257793032     0.5352046965     3.2353861746
| 23>  H        2.2212850130    -1.7123086726     3.2401744690
| 24>  H        2.9907376192    -0.2027616934     3.8361396431
| 25> *
| 26>
| 27>                          ****END OF INPUT****

CARTESIAN COORDINATES (ANGSTROEM)
---------------------------------
  C     -0.259137    1.487849   -0.116589
  C      0.066886    0.021730    0.046872
  N      1.471054   -0.406240   -0.111842
  C      0.811138   -0.572619    1.193640
  C      1.434625    0.235158    2.324805
  O      2.222411    1.280665    1.833422
  C      0.445571    0.635972    3.443990
  O      0.934510   -0.413430    4.304277
  C      2.067010   -0.645472    3.442218
  H     -0.285799    1.756034   -1.178172
  H     -1.246433    1.702961    0.306302
  H      0.475893    2.117310    0.386050
  H     -0.673173   -0.645419   -0.394717
  H      1.552942   -1.282638   -0.616773
  H      0.508977   -1.575789    1.487362
  H      2.487644    1.004613    0.939234
  H      0.655997    1.636970    3.842080
  H     -0.625779    0.535205    3.235386
  H      2.221285   -1.712309    3.240174
  H      2.990738   -0.202762    3.836140

 Total Charge           Charge          ....    0
 Multiplicity           Mult            ....    1
 Number of Electrons    NEL             ....   70
 Basis Dimension        Dim             ....  345

ORBITAL ENERGIES
----------------

  NO   OCC          E(Eh)            E(eV)
   0   2.0000     -20.552883      -559.2724
   1   2.0000     -20.548289      -559.1474
   2   2.0000     -15.575541      -423.8320
   3   2.0000     -11.294098      -307.3280
   4   2.0000     -11.276543      -306.8503
   5   2.0000     -11.274644      -306.7987
   6   2.0000     -11.274158      -306.7854
   7   2.0000     -11.273324      -306.7627
   8   2.0000     -11.223071      -305.3953
   9   2.0000      -1.390634       -37.8411
  10   2.0000      -1.359053       -36.9817
  11   2.0000      -1.274637       -34.6846
  12   2.0000      -1.012221       -27.5439
  13   2.0000      -1.000558       -27.2266
  14   2.0000      -0.934938       -25.4409
  15   2.0000      -0.887344       -24.1459
  16   2.0000      -0.818524       -22.2732
  17   2.0000      -0.752169       -20.4676
  18   2.0000      -0.730808       -19.8863
  19   2.0000      -0.698690       -19.0123
  20   2.0000      -0.668627       -18.1943
  21   2.0000      -0.642869       -17.4934
  22   2.0000      -0.618295       -16.8247
  23   2.0000      -0.583841       -15.8871
  24   2.0000      -0.576767       -15.6946
  25   2.0000      -0.561431       -15.2773
  26   2.0000      -0.551942       -15.0191
  27   2.0000      -0.537084       -14.6148
  28   2.0000      -0.511566       -13.9204
  29   2.0000      -0.489750       -13.3268
  30   2.0000      -0.474449       -12.9104
  31   2.0000      -0.458899       -12.4873
  32   2.0000      -0.435038       -11.8380
  33   2.0000      -0.415698       -11.3117
  34   2.0000      -0.394053       -10.7227
  35   0.0000       0.121603         3.3090
  36   0.0000       0.151034         4.1098
  37   0.0000       0.161980         4.4077
  38   0.0000       0.171893         4.6774
  39   0.0000       0.193871         5.2755

MULLIKEN ATOMIC CHARGES
-----------------------
   0 C :   -0.418298
   1 C :    0.039514
   2 N :   -0.448028
   3 C :   -0.180799
   4 C :    0.273221
   5 O :   -0.477488
   6 C :   -0.059016
   7 O :   -0.335515
   8 C :   -0.048576
   9 H :    0.133339
  10 H :    0.127035
  11 H :    0.158242
  12 H :    0.126129
  13 H :    0.224865
  14 H :    0.141446
  15 H :    0.343292
  16 H :    0.104508
  17 H :    0.102427
  18 H :    0.095614
  19 H :    0.098089
Sum of atomic charges:   -0.0000000

LOEWDIN ATOMIC CHARGES
----------------------
   0 C :   -0.296024
   1 C :   -0.271888
   2 N :   -0.002805
   3 C :   -0.229272
   4 C :   -0.370178
   5 O :    0.023056
   6 C :   -0.231893
   7 O :    0.111194
   8 C :   -0.238076
   9 H :    0.127461
  10 H :    0.128258
  11 H :    0.132347
  12 H :    0.139993
  13 H :    0.166907
  14 H :    0.149332
  15 H :    0.179912
  16 H :    0.125176
  17 H :    0.119220
  18 H :    0.115149
  19 H :    0.122130

  Mayer bond orders larger than 0.1
B(  0-C ,  1-C ) :   0.8930 B(  0-C ,  9-H ) :   0.9309 B(  0-C , 10-H ) :   0.9340
B(  0-C , 11-H ) :   0.9341 B(  1-C ,  2-N ) :   0.8318 B(  1-C ,  3-C ) :   0.9051
B(  1-C , 12-H ) :   0.9281 B(  2-N ,  3-C ) :   0.9095 B(  2-N , 13-H ) :   0.8714
B(  3-C ,  4-C ) :   0.8943 B(  3-C , 14-H ) :   0.9205 B(  4-C ,  5-O ) :   1.0292
B(  4-C ,  6-C ) :   0.9363 B(  4-C ,  8-C ) :   0.9398 B(  5-O , 15-H ) :   0.7902
B(  6-C ,  7-O ) :   0.9497 B(  6-C , 16-H ) :   0.9042 B(  6-C , 17-H ) :   0.9127
B(  7-O ,  8-C ) :   0.9471 B(  8-C , 18-H ) :   0.9118 B(  8-C , 19-H ) :   0.9011

MP2 TOTAL ENERGY:     -439.520732269 Eh
FINAL SINGLE POINT ENERGY      -439.520732268866

DIPOLE MOMENT
-------------
                                X             Y             Z
Electronic contribution:      2.68355      -1.70178       3.58454
Nuclear contribution   :     -3.13114       1.09345      -4.67739
                        -----------------------------------------
Total Dipole Moment    :     -0.44758      -0.60833      -1.09285
                        -----------------------------------------
Magnitude (a.u.)       :      1.32842
Magnitude (Debye)      :      3.37658

                             ****ORCA TERMINATED NORMALLY****
TOTAL RUN TIME: 0 days 0 hours 16 minutes 30 seconds 221 msec
