                         Program Version 3.0.3 - RELEASE   -
|  1> ! RI-MP2 RIJK def2-TZVP def2-TZVP/C def2-TZVP/JK TIGHTSCF
|  2> % maxcore 2000
|  3> % mp2 density relaxed end
|  4> *xyz 0 1
|  5>  O       -0.1847758914     0.0169944001    -0.2716079726
|  6>  C       -0.1096314577     1.1550504045     0.1312629930
|  7>  C        1.1436151701     1.9407238120     0.0971396289
|  8>  C        1.2399664997     3.4424193164    -0.1915001045
|  9>  C        0.0107582018     4.3375148691    -0.0801440040
| 10>  C       -0.5503808892     4.1288677272     1.3511723543
| 11>  C        0.5988976143     3.4973958924     2.1803150973
| 12>  C        1.5945577686     2.9358993993     1.1714197660
| 13>  H       -1.0051416750     1.6576365029     0.5504527378
| 14>  H        1.9529614410     1.3562064271    -0.3305718955
| 15>  H        2.0035511568     3.7210339857    -0.9095153680
| 16>  H        0.3384244915     5.3744171106    -0.2149133752
| 17>  H       -0.7398796112     4.1432706950    -0.8527983604
| 18>  H       -0.8903465496     5.0707249503     1.7896802800
| 19>  H       -1.4230479048     3.4710121789     1.3337356058
| 20>  H        1.1142355694     4.2662237958     2.7668500512
| 21>  H        0.2348224526     2.7509759733     2.8934021580
| 22>  H        2.6269443832     2.8304541995     1.4865236578
| 23> *
| 24>
| 25>                          ****END OF INPUT****

CARTESIAN COORDINATES (ANGSTROEM)
---------------------------------
  O     -0.184776    0.016994   -0.271608
  C     -0.109631    1.155050    0.131263
  C      1.143615    1.940724    0.097140
  C      1.239966    3.442419   -0.191500
  C      0.010758    4.337515   -0.080144
  C     -0.550381    4.128868    1.351172
  C      0.598898    3.497396    2.180315
  C      1.594558    2.935899    1.171420
  H     -1.005142    1.657637    0.550453
  H      1.952961    1.356206   -0.330572
  H      2.003551    3.721034   -0.909515
  H      0.338424    5.374417   -0.214913
  H     -0.739880    4.143271   -0.852798
  H     -0.890347    5.070725    1.789680
  H     -1.423048    3.471012    1.333736
  H      1.114236    4.266224    2.766850
  H      0.234822    2.750976    2.893402
  H      2.626944    2.830454    1.486524

 Total Charge           Charge          ....    0
 Multiplicity           Mult            ....    1
 Number of Electrons    NEL             ....   60
 Basis Dimension        Dim             ....  308

ORBITAL ENERGIES
----------------

  NO   OCC          E(Eh)            E(eV)
   0   2.0000     -20.544375      -559.0409
   1   2.0000     -11.324774      -308.1628
   2   2.0000     -11.250268      -306.1354
   3   2.0000     -11.249517      -306.1149
   4   2.0000     -11.242807      -305.9323
   5   2.0000     -11.237259      -305.7814
   6   2.0000     -11.237222      -305.7803
   7   2.0000     -11.234113      -305.6958
   8   2.0000      -1.382831       -37.6287
   9   2.0000      -1.188979       -32.3538
  10   2.0000      -1.046944       -28.4888
  11   2.0000      -0.977338       -26.5947
  12   2.0000      -0.918731       -24.9999
  13   2.0000      -0.820443       -22.3254
  14   2.0000      -0.768870       -20.9220
  15   2.0000      -0.760852       -20.7038
  16   2.0000      -0.698244       -19.0002
  17   2.0000      -0.663938       -18.0667
  18   2.0000      -0.627458       -17.0740
  19   2.0000      -0.618724       -16.8363
  20   2.0000      -0.582939       -15.8626
  21   2.0000      -0.577180       -15.7059
  22   2.0000      -0.529427       -14.4065
  23   2.0000      -0.512703       -13.9514
  24   2.0000      -0.498202       -13.5568
  25   2.0000      -0.491434       -13.3726
  26   2.0000      -0.488521       -13.2933
  27   2.0000      -0.437331       -11.9004
  28   2.0000      -0.406855       -11.0711
  29   2.0000      -0.399522       -10.8715
  30   0.0000       0.126523         3.4429
  31   0.0000       0.128711         3.5024
  32   0.0000       0.149223         4.0606
  33   0.0000       0.172938         4.7059
  34   0.0000       0.173781         4.7288

MULLIKEN ATOMIC CHARGES
-----------------------
   0 O :   -0.274948
   1 C :    0.073376
   2 C :   -0.107901
   3 C :   -0.085785
   4 C :   -0.253901
   5 C :   -0.256750
   6 C :   -0.253854
   7 C :   -0.085832
   8 H :    0.080668
   9 H :    0.132019
  10 H :    0.136162
  11 H :    0.122922
  12 H :    0.130014
  13 H :    0.125993
  14 H :    0.128726
  15 H :    0.122921
  16 H :    0.130010
  17 H :    0.136162
Sum of atomic charges:   -0.0000000

LOEWDIN ATOMIC CHARGES
----------------------
   0 O :    0.121838
   1 C :   -0.286845
   2 C :   -0.177245
   3 C :   -0.172032
   4 C :   -0.232513
   5 C :   -0.250051
   6 C :   -0.232516
   7 C :   -0.172019
   8 H :    0.116575
   9 H :    0.161745
  10 H :    0.148384
  11 H :    0.142856
  12 H :    0.138575
  13 H :    0.134362
  14 H :    0.129065
  15 H :    0.142858
  16 H :    0.138578
  17 H :    0.148385

  Mayer bond orders larger than 0.1
B(  0-O ,  1-C ) :   1.9785 B(  1-C ,  2-C ) :   0.9230 B(  1-C ,  8-H ) :   0.9468
B(  2-C ,  3-C ) :   0.8108 B(  2-C ,  7-C ) :   0.8108 B(  2-C ,  9-H ) :   0.9199
B(  3-C ,  4-C ) :   0.9338 B(  3-C ,  7-C ) :   0.8512 B(  3-C , 10-H ) :   0.9220
B(  4-C ,  5-C ) :   0.9256 B(  4-C , 11-H ) :   0.9261 B(  4-C , 12-H ) :   0.9342
B(  5-C ,  6-C ) :   0.9256 B(  5-C , 13-H ) :   0.9323 B(  5-C , 14-H ) :   0.9414
B(  6-C ,  7-C ) :   0.9338 B(  6-C , 15-H ) :   0.9261 B(  6-C , 16-H ) :   0.9341
B(  7-C , 17-H ) :   0.9220

MP2 TOTAL ENERGY:     -347.205792576 Eh
FINAL SINGLE POINT ENERGY      -347.205792576132

DIPOLE MOMENT
-------------
                                X             Y             Z
Electronic contribution:      0.50757      -6.19367      -2.43321
Nuclear contribution   :     -0.18495       7.53415       2.84711
                        -----------------------------------------
Total Dipole Moment    :      0.32262       1.34048       0.41389
                        -----------------------------------------
Magnitude (a.u.)       :      1.43954
Magnitude (Debye)      :      3.65902

                             ****ORCA TERMINATED NORMALLY****
TOTAL RUN TIME: 0 days 0 hours 13 minutes 49 seconds 7 msec
