                         Program Version 3.0.3 - RELEASE   -
|  1> ! RI-MP2 RIJK def2-TZVP def2-TZVP/C def2-TZVP/JK TIGHTSCF
|  2> % maxcore 2000
|  3> % mp2 density relaxed end
|  4> *xyz 0 1
|  5>  N       -0.1602375205     1.3848236345    -0.0356279756
|  6>  C       -0.1411178005     0.0150806174    -0.0518910265
|  7>  N       -1.1087211702    -0.7639217850     0.2350483693
|  8>  C       -0.6335704557    -2.1267857615    -0.0234976583
|  9>  C       -1.3679653076    -2.8025970550    -1.2035549472
| 10>  C       -0.5588286004    -2.3923223664    -2.4455338127
| 11>  C        0.8986206749    -2.4637844670    -1.9543327920
| 12>  C        0.8473697373    -1.9440730740    -0.5114094975
| 13>  O        1.0436685976    -0.5083228193    -0.4675165172
| 14>  H        0.7366081981     1.8237904296     0.1046603458
| 15>  H       -0.9116808336     1.7745830443     0.5116501125
| 16>  H       -0.7160678453    -2.7236916267     0.8906984692
| 17>  H       -1.3385327051    -3.8926386978    -1.0821285916
| 18>  H       -2.4156320434    -2.4966343764    -1.2395771957
| 19>  H       -0.7463230061    -3.0317336234    -3.3122121011
| 20>  H       -0.8094534234    -1.3660465311    -2.7353907188
| 21>  H        1.2384802322    -3.5066506950    -1.9392448217
| 22>  H        1.6067549374    -1.8942762669    -2.5615550967
| 23>  H        1.6078509943    -2.3890945101     0.1342250859
| 24> *
| 25>
| 26>                          ****END OF INPUT****

CARTESIAN COORDINATES (ANGSTROEM)
---------------------------------
  N     -0.160238    1.384824   -0.035628
  C     -0.141118    0.015081   -0.051891
  N     -1.108721   -0.763922    0.235048
  C     -0.633570   -2.126786   -0.023498
  C     -1.367965   -2.802597   -1.203555
  C     -0.558829   -2.392322   -2.445534
  C      0.898621   -2.463784   -1.954333
  C      0.847370   -1.944073   -0.511409
  O      1.043669   -0.508323   -0.467517
  H      0.736608    1.823790    0.104660
  H     -0.911681    1.774583    0.511650
  H     -0.716068   -2.723692    0.890698
  H     -1.338533   -3.892639   -1.082129
  H     -2.415632   -2.496634   -1.239577
  H     -0.746323   -3.031734   -3.312212
  H     -0.809453   -1.366047   -2.735391
  H      1.238480   -3.506651   -1.939245
  H      1.606755   -1.894276   -2.561555
  H      1.607851   -2.389095    0.134225

 Total Charge           Charge          ....    0
 Multiplicity           Mult            ....    1
 Number of Electrons    NEL             ....   68
 Basis Dimension        Dim             ....  339

ORBITAL ENERGIES
----------------

  NO   OCC          E(Eh)            E(eV)
   0   2.0000     -20.588494      -560.2414
   1   2.0000     -15.577001      -423.8717
   2   2.0000     -15.516127      -422.2153
   3   2.0000     -11.356770      -309.0334
   4   2.0000     -11.285482      -307.0936
   5   2.0000     -11.252046      -306.1837
   6   2.0000     -11.222667      -305.3843
   7   2.0000     -11.217209      -305.2358
   8   2.0000     -11.213236      -305.1277
   9   2.0000      -1.438168       -39.1345
  10   2.0000      -1.234934       -33.6043
  11   2.0000      -1.186116       -32.2759
  12   2.0000      -1.099253       -29.9122
  13   2.0000      -0.963605       -26.2210
  14   2.0000      -0.950893       -25.8751
  15   2.0000      -0.812677       -22.1141
  16   2.0000      -0.792143       -21.5553
  17   2.0000      -0.769585       -20.9415
  18   2.0000      -0.705016       -19.1845
  19   2.0000      -0.695446       -18.9240
  20   2.0000      -0.679062       -18.4782
  21   2.0000      -0.622779       -16.9467
  22   2.0000      -0.607392       -16.5280
  23   2.0000      -0.593160       -16.1407
  24   2.0000      -0.574914       -15.6442
  25   2.0000      -0.532573       -14.4921
  26   2.0000      -0.513427       -13.9711
  27   2.0000      -0.497159       -13.5284
  28   2.0000      -0.482016       -13.1163
  29   2.0000      -0.473468       -12.8837
  30   2.0000      -0.464608       -12.6426
  31   2.0000      -0.441872       -12.0240
  32   2.0000      -0.413278       -11.2459
  33   2.0000      -0.350482        -9.5371
  34   0.0000       0.135295         3.6816
  35   0.0000       0.142311         3.8725
  36   0.0000       0.171173         4.6579
  37   0.0000       0.180255         4.9050
  38   0.0000       0.191006         5.1975

MULLIKEN ATOMIC CHARGES
-----------------------
   0 N :   -0.509633
   1 C :    0.311964
   2 N :   -0.350098
   3 C :    0.057516
   4 C :   -0.233624
   5 C :   -0.262110
   6 C :   -0.228903
   7 C :    0.047651
   8 O :   -0.304708
   9 H :    0.263958
  10 H :    0.268711
  11 H :    0.103265
  12 H :    0.105853
  13 H :    0.128784
  14 H :    0.122849
  15 H :    0.126912
  16 H :    0.109962
  17 H :    0.129256
  18 H :    0.112394
Sum of atomic charges:    0.0000000

LOEWDIN ATOMIC CHARGES
----------------------
   0 N :   -0.045130
   1 C :   -0.502777
   2 N :    0.063342
   3 C :   -0.250682
   4 C :   -0.237468
   5 C :   -0.257926
   6 C :   -0.241168
   7 C :   -0.230284
   8 O :    0.240688
   9 H :    0.175132
  10 H :    0.179419
  11 H :    0.139613
  12 H :    0.136098
  13 H :    0.139892
  14 H :    0.132550
  15 H :    0.141422
  16 H :    0.141543
  17 H :    0.139371
  18 H :    0.136365

  Mayer bond orders larger than 0.1
B(  0-N ,  1-C ) :   1.1076 B(  0-N ,  9-H ) :   0.8671 B(  0-N , 10-H ) :   0.8692
B(  1-C ,  2-N ) :   1.7979 B(  1-C ,  8-O ) :   1.0860 B(  2-N ,  3-C ) :   0.9451
B(  3-C ,  4-C ) :   0.9110 B(  3-C ,  7-C ) :   0.9186 B(  3-C , 11-H ) :   0.9282
B(  4-C ,  5-C ) :   0.9284 B(  4-C , 12-H ) :   0.9287 B(  4-C , 13-H ) :   0.9277
B(  5-C ,  6-C ) :   0.9364 B(  5-C , 14-H ) :   0.9269 B(  5-C , 15-H ) :   0.9280
B(  6-C ,  7-C ) :   0.9308 B(  6-C , 16-H ) :   0.9238 B(  6-C , 17-H ) :   0.9217
B(  7-C ,  8-O ) :   0.8376 B(  7-C , 18-H ) :   0.9248

MP2 TOTAL ENERGY:     -418.557097160 Eh
FINAL SINGLE POINT ENERGY      -418.557097160009

DIPOLE MOMENT
-------------
                                X             Y             Z
Electronic contribution:      1.11642       4.82519       3.89212
Nuclear contribution   :     -0.56402      -4.83146      -3.80272
                        -----------------------------------------
Total Dipole Moment    :      0.55240      -0.00627       0.08940
                        -----------------------------------------
Magnitude (a.u.)       :      0.55962
Magnitude (Debye)      :      1.42245

                             ****ORCA TERMINATED NORMALLY****
TOTAL RUN TIME: 0 days 0 hours 18 minutes 30 seconds 141 msec
