                         Program Version 3.0.3 - RELEASE   -
|  1> ! RI-MP2 RIJK def2-TZVP def2-TZVP/C def2-TZVP/JK TIGHTSCF
|  2> % maxcore 2000
|  3> % mp2 density relaxed end
|  4> *xyz 0 1
|  5>  C       -0.1733924755     1.8154928988     0.7564315329
|  6>  C       -0.5018977487     0.3228840246     0.7192209633
|  7>  O       -0.3450025874    -0.2203417509    -0.6001414124
|  8>  C        0.9028637200    -0.8988970614    -0.7048975229
|  9>  C        1.3388459926    -1.2610138532     0.7074845468
| 10>  C        2.8007565708    -1.5321428991     0.9640145117
| 11>  C        0.4222603943    -0.4927332684     1.6082242259
| 12>  N        0.3690220108    -1.9472475213     1.5551408379
| 13>  C       -0.7829099394    -2.6690785626     1.0241966032
| 14>  H        0.8831199491     1.9926691016     0.5296715075
| 15>  H       -0.7779929250     2.3494978943     0.0186793421
| 16>  H       -0.3855363731     2.2351703068     1.7455842790
| 17>  H       -1.5590926779     0.1784295273     0.9794023680
| 18>  H        0.7516793047    -1.7710256853    -1.3534809940
| 19>  H        1.6684256275    -0.2617836933    -1.1752371225
| 20>  H        3.4217431543    -0.6812437030     0.6627758245
| 21>  H        2.9653813139    -1.7309765139     2.0252029326
| 22>  H        3.1428283717    -2.4098384654     0.4029254149
| 23>  H        0.7415992193    -0.0556597371     2.5518623951
| 24>  H       -1.2599037562    -2.2093848751     0.1502740689
| 25>  H       -0.4613095329    -3.6807280711     0.7564838412
| 26>  H       -1.5281101028    -2.7624396223     1.8208399763
| 27> *
| 28>
| 29>                          ****END OF INPUT****

CARTESIAN COORDINATES (ANGSTROEM)
---------------------------------
  C     -0.173392    1.815493    0.756432
  C     -0.501898    0.322884    0.719221
  O     -0.345003   -0.220342   -0.600141
  C      0.902864   -0.898897   -0.704898
  C      1.338846   -1.261014    0.707485
  C      2.800757   -1.532143    0.964015
  C      0.422260   -0.492733    1.608224
  N      0.369022   -1.947248    1.555141
  C     -0.782910   -2.669079    1.024197
  H      0.883120    1.992669    0.529672
  H     -0.777993    2.349498    0.018679
  H     -0.385536    2.235170    1.745584
  H     -1.559093    0.178430    0.979402
  H      0.751679   -1.771026   -1.353481
  H      1.668426   -0.261784   -1.175237
  H      3.421743   -0.681244    0.662776
  H      2.965381   -1.730977    2.025203
  H      3.142828   -2.409838    0.402925
  H      0.741599   -0.055660    2.551862
  H     -1.259904   -2.209385    0.150274
  H     -0.461310   -3.680728    0.756484
  H     -1.528110   -2.762440    1.820840

 Total Charge           Charge          ....    0
 Multiplicity           Mult            ....    1
 Number of Electrons    NEL             ....   70
 Basis Dimension        Dim             ....  357

ORBITAL ENERGIES
----------------

  NO   OCC          E(Eh)            E(eV)
   0   2.0000     -20.551061      -559.2228
   1   2.0000     -15.553588      -423.2347
   2   2.0000     -11.282624      -307.0158
   3   2.0000     -11.276306      -306.8439
   4   2.0000     -11.263060      -306.4835
   5   2.0000     -11.253479      -306.2227
   6   2.0000     -11.237495      -305.7878
   7   2.0000     -11.220592      -305.3278
   8   2.0000     -11.218622      -305.2742
   9   2.0000      -1.381359       -37.5887
  10   2.0000      -1.265006       -34.4226
  11   2.0000      -1.042192       -28.3595
  12   2.0000      -1.028138       -27.9771
  13   2.0000      -0.955031       -25.9877
  14   2.0000      -0.925407       -25.1816
  15   2.0000      -0.864670       -23.5289
  16   2.0000      -0.778785       -21.1918
  17   2.0000      -0.748370       -20.3642
  18   2.0000      -0.678328       -18.4582
  19   2.0000      -0.674910       -18.3652
  20   2.0000      -0.627187       -17.0666
  21   2.0000      -0.609852       -16.5949
  22   2.0000      -0.590524       -16.0690
  23   2.0000      -0.565850       -15.3976
  24   2.0000      -0.561842       -15.2885
  25   2.0000      -0.559196       -15.2165
  26   2.0000      -0.548189       -14.9170
  27   2.0000      -0.543489       -14.7891
  28   2.0000      -0.523473       -14.2444
  29   2.0000      -0.504987       -13.7414
  30   2.0000      -0.489125       -13.3098
  31   2.0000      -0.436500       -11.8778
  32   2.0000      -0.432196       -11.7606
  33   2.0000      -0.409138       -11.1332
  34   2.0000      -0.361333        -9.8324
  35   0.0000       0.130580         3.5532
  36   0.0000       0.155357         4.2275
  37   0.0000       0.158287         4.3072
  38   0.0000       0.180518         4.9121
  39   0.0000       0.193565         5.2672

MULLIKEN ATOMIC CHARGES
-----------------------
   0 C :   -0.416082
   1 C :    0.132155
   2 O :   -0.343929
   3 C :   -0.024730
   4 C :    0.096002
   5 C :   -0.418437
   6 C :   -0.135368
   7 N :   -0.220588
   8 C :   -0.330551
   9 H :    0.128664
  10 H :    0.143744
  11 H :    0.127007
  12 H :    0.101732
  13 H :    0.117515
  14 H :    0.097534
  15 H :    0.125941
  16 H :    0.146384
  17 H :    0.131331
  18 H :    0.126743
  19 H :    0.141417
  20 H :    0.136883
  21 H :    0.136636
Sum of atomic charges:   -0.0000000

LOEWDIN ATOMIC CHARGES
----------------------
   0 C :   -0.289831
   1 C :   -0.318183
   2 O :    0.164002
   3 C :   -0.269495
   4 C :   -0.292705
   5 C :   -0.267594
   6 C :   -0.205664
   7 N :    0.136707
   8 C :   -0.325824
   9 H :    0.125514
  10 H :    0.127527
  11 H :    0.126201
  12 H :    0.143419
  13 H :    0.130990
  14 H :    0.127945
  15 H :    0.126833
  16 H :    0.134083
  17 H :    0.128938
  18 H :    0.144498
  19 H :    0.115218
  20 H :    0.118567
  21 H :    0.118852

  Mayer bond orders larger than 0.1
B(  0-C ,  1-C ) :   0.9001 B(  0-C ,  9-H ) :   0.9358 B(  0-C , 10-H ) :   0.9401
B(  0-C , 11-H ) :   0.9344 B(  1-C ,  2-O ) :   0.8744 B(  1-C ,  6-C ) :   0.9236
B(  1-C , 12-H ) :   0.9155 B(  2-O ,  3-C ) :   0.9281 B(  3-C ,  4-C ) :   0.9657
B(  3-C , 13-H ) :   0.9210 B(  3-C , 14-H ) :   0.9107 B(  4-C ,  5-C ) :   0.8684
B(  4-C ,  6-C ) :   0.8831 B(  4-C ,  7-N ) :   0.8758 B(  5-C , 15-H ) :   0.9351
B(  5-C , 16-H ) :   0.9447 B(  5-C , 17-H ) :   0.9368 B(  6-C ,  7-N ) :   0.9351
B(  6-C , 18-H ) :   0.9100 B(  7-N ,  8-C ) :   0.8738 B(  8-C , 19-H ) :   0.9160
B(  8-C , 20-H ) :   0.9373 B(  8-C , 21-H ) :   0.9372

MP2 TOTAL ENERGY:     -403.641221543 Eh
FINAL SINGLE POINT ENERGY      -403.641221542785

DIPOLE MOMENT
-------------
                                X             Y             Z
Electronic contribution:     -1.55538      -0.76844      -0.57079
Nuclear contribution   :      1.80505       0.97455       0.64404
                        -----------------------------------------
Total Dipole Moment    :      0.24967       0.20611       0.07324
                        -----------------------------------------
Magnitude (a.u.)       :      0.33193
Magnitude (Debye)      :      0.84371

                             ****ORCA TERMINATED NORMALLY****
TOTAL RUN TIME: 0 days 0 hours 19 minutes 56 seconds 537 msec
