                         Program Version 3.0.3 - RELEASE   -
|  1> ! RI-MP2 RIJK def2-TZVP def2-TZVP/C def2-TZVP/JK TIGHTSCF
|  2> % maxcore 2000
|  3> % mp2 density relaxed end
|  4> *xyz 0 1
|  5>  C        0.0425036386     1.4474799826     0.1111426604
|  6>  C       -0.0040757333    -0.0272709199    -0.0359186173
|  7>  N       -0.1432821832    -0.7293845505    -1.1104344774
|  8>  N       -0.1235024878    -2.0713702289    -0.7106645333
|  9>  C        0.0259883118    -2.0671169226     0.5717398963
| 10>  C        0.1112872065    -3.2192002801     1.5013176014
| 11>  O        0.1103022023    -0.8041641670     1.0788214332
| 12>  H        0.9906354322     1.7680202801     0.5544231033
| 13>  H       -0.0632728871     1.9021473884    -0.8741240446
| 14>  H       -0.7649261624     1.8030638479     0.7590730726
| 15>  H        1.0641148751    -3.2191437718     2.0401282192
| 16>  H       -0.6914593722    -3.1840850610     2.2446624570
| 17>  H        0.0258683895    -4.1415039873     0.9262339591
| 18> *
| 19>
| 20>                          ****END OF INPUT****

CARTESIAN COORDINATES (ANGSTROEM)
---------------------------------
  C      0.042504    1.447480    0.111143
  C     -0.004076   -0.027271   -0.035919
  N     -0.143282   -0.729385   -1.110434
  N     -0.123502   -2.071370   -0.710665
  C      0.025988   -2.067117    0.571740
  C      0.111287   -3.219200    1.501318
  O      0.110302   -0.804164    1.078821
  H      0.990635    1.768020    0.554423
  H     -0.063273    1.902147   -0.874124
  H     -0.764926    1.803064    0.759073
  H      1.064115   -3.219144    2.040128
  H     -0.691459   -3.184085    2.244662
  H      0.025868   -4.141504    0.926234

 Total Charge           Charge          ....    0
 Multiplicity           Mult            ....    1
 Number of Electrons    NEL             ....   52
 Basis Dimension        Dim             ....  253

ORBITAL ENERGIES
----------------

  NO   OCC          E(Eh)            E(eV)
   0   2.0000     -20.647317      -561.8421
   1   2.0000     -15.586609      -424.1332
   2   2.0000     -15.586023      -424.1172
   3   2.0000     -11.340539      -308.5918
   4   2.0000     -11.340498      -308.5906
   5   2.0000     -11.252803      -306.2043
   6   2.0000     -11.252802      -306.2043
   7   2.0000      -1.511700       -41.1354
   8   2.0000      -1.292692       -35.1760
   9   2.0000      -1.144112       -31.1329
  10   2.0000      -1.022735       -27.8300
  11   2.0000      -0.982998       -26.7487
  12   2.0000      -0.843973       -22.9657
  13   2.0000      -0.804268       -21.8852
  14   2.0000      -0.702403       -19.1134
  15   2.0000      -0.693298       -18.8656
  16   2.0000      -0.609878       -16.5956
  17   2.0000      -0.606847       -16.5131
  18   2.0000      -0.601758       -16.3747
  19   2.0000      -0.575150       -15.6506
  20   2.0000      -0.572404       -15.5759
  21   2.0000      -0.565077       -15.3765
  22   2.0000      -0.481673       -13.1070
  23   2.0000      -0.480940       -13.0870
  24   2.0000      -0.451077       -12.2744
  25   2.0000      -0.367781       -10.0078
  26   0.0000       0.132874         3.6157
  27   0.0000       0.143485         3.9044
  28   0.0000       0.145498         3.9592
  29   0.0000       0.197396         5.3714
  30   0.0000       0.208946         5.6857

MULLIKEN ATOMIC CHARGES
-----------------------
   0 C :   -0.424677
   1 C :    0.226683
   2 N :   -0.168510
   3 N :   -0.168510
   4 C :    0.226684
   5 C :   -0.424677
   6 O :   -0.228128
   7 H :    0.154192
   8 H :    0.172184
   9 H :    0.154192
  10 H :    0.154192
  11 H :    0.154191
  12 H :    0.172184
Sum of atomic charges:    0.0000000

LOEWDIN ATOMIC CHARGES
----------------------
   0 C :   -0.266087
   1 C :   -0.384158
   2 N :    0.049931
   3 N :    0.049931
   4 C :   -0.384158
   5 C :   -0.266087
   6 O :    0.347744
   7 H :    0.139607
   8 H :    0.147228
   9 H :    0.139607
  10 H :    0.139607
  11 H :    0.139607
  12 H :    0.147228

  Mayer bond orders larger than 0.1
B(  0-C ,  1-C ) :   0.8646 B(  0-C ,  7-H ) :   0.9274 B(  0-C ,  8-H ) :   0.9486
B(  0-C ,  9-H ) :   0.9274 B(  1-C ,  2-N ) :   1.7534 B(  1-C ,  6-O ) :   1.0384
B(  2-N ,  3-N ) :   0.9881 B(  3-N ,  4-C ) :   1.7534 B(  4-C ,  5-C ) :   0.8646
B(  4-C ,  6-O ) :   1.0384 B(  5-C , 10-H ) :   0.9274 B(  5-C , 11-H ) :   0.9274
B(  5-C , 12-H ) :   0.9486

MP2 TOTAL ENERGY:     -340.098815127 Eh
FINAL SINGLE POINT ENERGY      -340.098815127028

DIPOLE MOMENT
-------------
                                X             Y             Z
Electronic contribution:     -0.32016      -0.78336      -2.61384
Nuclear contribution   :      0.48588       1.18885       3.96681
                        -----------------------------------------
Total Dipole Moment    :      0.16572       0.40548       1.35297
                        -----------------------------------------
Magnitude (a.u.)       :      1.42212
Magnitude (Debye)      :      3.61473

                             ****ORCA TERMINATED NORMALLY****
TOTAL RUN TIME: 0 days 0 hours 6 minutes 45 seconds 424 msec
