                         Program Version 3.0.3 - RELEASE   -
|  1> ! RI-MP2 RIJK def2-TZVP def2-TZVP/C def2-TZVP/JK TIGHTSCF
|  2> % maxcore 2000
|  3> % mp2 density relaxed end
|  4> *xyz 0 1
|  5>  C       -1.0908723195     0.9552879589     0.1207775969
|  6>  C        0.0766494431    -0.0176222374     0.1549073582
|  7>  C        1.1867937550     0.0946929993    -0.9289034870
|  8>  C        2.2412453462    -0.2118954096     0.1617257366
|  9>  C        1.1839847385     0.1692100530     1.2310654597
| 10>  C        2.8429744216    -1.6519519774     0.2448926923
| 11>  C        4.2244892233    -1.0099970910     0.4503296400
| 12>  O        5.2997536868    -1.4365487396     0.7559083271
| 13>  C        3.6716816573     0.3969212565     0.1760182202
| 14>  H       -0.7366183457     1.9920433633     0.0849011564
| 15>  H       -1.7229523288     0.7887888217    -0.7587384035
| 16>  H       -1.7235711447     0.8502341401     1.0092851389
| 17>  H       -0.2976493959    -1.0470039962     0.1897038428
| 18>  H        1.1391089844    -0.5792370115    -1.7895369664
| 19>  H        1.2787054851     1.1233918382    -1.2958278782
| 20>  H        1.2760447756     1.2208738462     1.5252852464
| 21>  H        1.1333628954    -0.4427224855     2.1364899320
| 22>  H        2.4991369864    -2.2993337216     1.0573784523
| 23>  H        2.7880820955    -2.2160959337    -0.6933145147
| 24>  H        3.9994675157     0.7875523389    -0.7945159458
| 25>  H        3.8894682445     1.1489761176     0.9408429257
| 26> *
| 27>
| 28>                          ****END OF INPUT****

CARTESIAN COORDINATES (ANGSTROEM)
---------------------------------
  C     -1.090872    0.955288    0.120778
  C      0.076649   -0.017622    0.154907
  C      1.186794    0.094693   -0.928903
  C      2.241245   -0.211895    0.161726
  C      1.183985    0.169210    1.231065
  C      2.842974   -1.651952    0.244893
  C      4.224489   -1.009997    0.450330
  O      5.299754   -1.436549    0.755908
  C      3.671682    0.396921    0.176018
  H     -0.736618    1.992043    0.084901
  H     -1.722952    0.788789   -0.758738
  H     -1.723571    0.850234    1.009285
  H     -0.297649   -1.047004    0.189704
  H      1.139109   -0.579237   -1.789537
  H      1.278705    1.123392   -1.295828
  H      1.276045    1.220874    1.525285
  H      1.133363   -0.442722    2.136490
  H      2.499137   -2.299334    1.057378
  H      2.788082   -2.216096   -0.693315
  H      3.999468    0.787552   -0.794516
  H      3.889468    1.148976    0.940843

 Total Charge           Charge          ....    0
 Multiplicity           Mult            ....    1
 Number of Electrons    NEL             ....   68
 Basis Dimension        Dim             ....  351

ORBITAL ENERGIES
----------------

  NO   OCC          E(Eh)            E(eV)
   0   2.0000     -20.548383      -559.1499
   1   2.0000     -11.328710      -308.2699
   2   2.0000     -11.249462      -306.1134
   3   2.0000     -11.236833      -305.7698
   4   2.0000     -11.235718      -305.7394
   5   2.0000     -11.235544      -305.7347
   6   2.0000     -11.228234      -305.5358
   7   2.0000     -11.228093      -305.5319
   8   2.0000     -11.219698      -305.3035
   9   2.0000      -1.391152       -37.8552
  10   2.0000      -1.169175       -31.8149
  11   2.0000      -1.086268       -29.5588
  12   2.0000      -0.970381       -26.4054
  13   2.0000      -0.932056       -25.3625
  14   2.0000      -0.910256       -24.7693
  15   2.0000      -0.809602       -22.0304
  16   2.0000      -0.742015       -20.1912
  17   2.0000      -0.721100       -19.6221
  18   2.0000      -0.666256       -18.1297
  19   2.0000      -0.652092       -17.7443
  20   2.0000      -0.640084       -17.4176
  21   2.0000      -0.617076       -16.7915
  22   2.0000      -0.581677       -15.8282
  23   2.0000      -0.574418       -15.6307
  24   2.0000      -0.572053       -15.5664
  25   2.0000      -0.554009       -15.0753
  26   2.0000      -0.535731       -14.5780
  27   2.0000      -0.509032       -13.8515
  28   2.0000      -0.493125       -13.4186
  29   2.0000      -0.454857       -12.3773
  30   2.0000      -0.446884       -12.1603
  31   2.0000      -0.438561       -11.9339
  32   2.0000      -0.427626       -11.6363
  33   2.0000      -0.394230       -10.7276
  34   0.0000       0.124088         3.3766
  35   0.0000       0.129111         3.5133
  36   0.0000       0.144910         3.9432
  37   0.0000       0.153039         4.1644
  38   0.0000       0.174183         4.7397

MULLIKEN ATOMIC CHARGES
-----------------------
   0 C :   -0.425383
   1 C :    0.019719
   2 C :   -0.297491
   3 C :    0.128800
   4 C :   -0.314333
   5 C :   -0.249334
   6 C :    0.100286
   7 O :   -0.247883
   8 C :   -0.208267
   9 H :    0.120093
  10 H :    0.132410
  11 H :    0.132637
  12 H :    0.101186
  13 H :    0.119827
  14 H :    0.113437
  15 H :    0.112274
  16 H :    0.122019
  17 H :    0.135473
  18 H :    0.133925
  19 H :    0.135819
  20 H :    0.134787
Sum of atomic charges:    0.0000000

LOEWDIN ATOMIC CHARGES
----------------------
   0 C :   -0.303731
   1 C :   -0.251961
   2 C :   -0.184980
   3 C :   -0.218334
   4 C :   -0.180818
   5 C :   -0.170274
   6 C :   -0.308442
   7 O :    0.159504
   8 C :   -0.177757
   9 H :    0.122250
  10 H :    0.124647
  11 H :    0.124727
  12 H :    0.149392
  13 H :    0.126525
  14 H :    0.139090
  15 H :    0.138733
  16 H :    0.127231
  17 H :    0.142627
  18 H :    0.148597
  19 H :    0.149928
  20 H :    0.143046

  Mayer bond orders larger than 0.1
B(  0-C ,  1-C ) :   0.8757 B(  0-C ,  9-H ) :   0.9400 B(  0-C , 10-H ) :   0.9415
B(  0-C , 11-H ) :   0.9416 B(  1-C ,  2-C ) :   0.9474 B(  1-C ,  4-C ) :   0.9497
B(  1-C , 12-H ) :   0.9232 B(  2-C ,  3-C ) :   0.8978 B(  2-C , 13-H ) :   0.9230
B(  2-C , 14-H ) :   0.9172 B(  3-C ,  4-C ) :   0.9044 B(  3-C ,  5-C ) :   0.9251
B(  3-C ,  8-C ) :   0.8889 B(  4-C , 15-H ) :   0.9141 B(  4-C , 16-H ) :   0.9238
B(  5-C ,  6-C ) :   0.8975 B(  5-C ,  8-C ) :  -0.1406 B(  5-C , 17-H ) :   0.8949
B(  5-C , 18-H ) :   0.8985 B(  6-C ,  7-O ) :   2.0533 B(  6-C ,  8-C ) :   0.9011
B(  8-C , 19-H ) :   0.8986 B(  8-C , 20-H ) :   0.8943

MP2 TOTAL ENERGY:     -386.407072502 Eh
FINAL SINGLE POINT ENERGY      -386.407072501561

DIPOLE MOMENT
-------------
                                X             Y             Z
Electronic contribution:     10.68497      -4.17515       1.19540
Nuclear contribution   :    -11.80124       4.57958      -1.47815
                        -----------------------------------------
Total Dipole Moment    :     -1.11627       0.40443      -0.28275
                        -----------------------------------------
Magnitude (a.u.)       :      1.22048
Magnitude (Debye)      :      3.10222

                             ****ORCA TERMINATED NORMALLY****
TOTAL RUN TIME: 0 days 0 hours 19 minutes 0 seconds 366 msec
