                         Program Version 3.0.3 - RELEASE   -
|  1> ! RI-MP2 RIJK def2-TZVP def2-TZVP/C def2-TZVP/JK TIGHTSCF
|  2> % maxcore 2000
|  3> % mp2 density relaxed end
|  4> *xyz 0 1
|  5>  O        0.1759429105     1.3919497657     0.2610756396
|  6>  C        0.0523815853     0.0074016745     0.0875261139
|  7>  C       -1.4258977686    -0.3969876307     0.1832234715
|  8>  C       -1.6484608717    -1.8566586887     0.4513398974
|  9>  C       -1.0223744771    -2.8800657563    -0.1526200307
| 10>  C       -0.0643733921    -2.8123700142    -1.2447552213
| 11>  C        0.6344211687    -1.7701251562    -1.7435787635
| 12>  C        0.7010158220    -0.3938723277    -1.2437258531
| 13>  O        1.3181142538     0.4627529227    -1.8601189168
| 14>  H        0.7403814888     1.6835145065    -0.4756417644
| 15>  H        0.6034553904    -0.5336894879     0.8792257835
| 16>  H       -1.8618500929     0.1990715414     0.9892239373
| 17>  H       -1.9514579117    -0.0960529680    -0.7364064289
| 18>  H       -2.4040129434    -2.1012136443     1.1936045204
| 19>  H       -1.3057874694    -3.8877832520     0.1388980478
| 20>  H        0.0850754710    -3.7624636005    -1.7548769722
| 21>  H        1.2567626866    -1.9290885144    -2.6191554304
| 22> *
| 23>
| 24>                          ****END OF INPUT****

CARTESIAN COORDINATES (ANGSTROEM)
---------------------------------
  O      0.175943    1.391950    0.261076
  C      0.052382    0.007402    0.087526
  C     -1.425898   -0.396988    0.183223
  C     -1.648461   -1.856659    0.451340
  C     -1.022374   -2.880066   -0.152620
  C     -0.064373   -2.812370   -1.244755
  C      0.634421   -1.770125   -1.743579
  C      0.701016   -0.393872   -1.243726
  O      1.318114    0.462753   -1.860119
  H      0.740381    1.683515   -0.475642
  H      0.603455   -0.533689    0.879226
  H     -1.861850    0.199072    0.989224
  H     -1.951458   -0.096053   -0.736406
  H     -2.404013   -2.101214    1.193605
  H     -1.305787   -3.887783    0.138898
  H      0.085075   -3.762464   -1.754877
  H      1.256763   -1.929089   -2.619155

 Total Charge           Charge          ....    0
 Multiplicity           Mult            ....    1
 Number of Electrons    NEL             ....   66
 Basis Dimension        Dim             ....  327

ORBITAL ENERGIES
----------------

  NO   OCC          E(Eh)            E(eV)
   0   2.0000     -20.558071      -559.4136
   1   2.0000     -20.551446      -559.2333
   2   2.0000     -11.341189      -308.6094
   3   2.0000     -11.298453      -307.4465
   4   2.0000     -11.279823      -306.9396
   5   2.0000     -11.266749      -306.5838
   6   2.0000     -11.252691      -306.2013
   7   2.0000     -11.250880      -306.1520
   8   2.0000     -11.247548      -306.0613
   9   2.0000      -1.409855       -38.3641
  10   2.0000      -1.356122       -36.9020
  11   2.0000      -1.140669       -31.0392
  12   2.0000      -1.062299       -28.9066
  13   2.0000      -1.026020       -27.9194
  14   2.0000      -0.900809       -24.5123
  15   2.0000      -0.885394       -24.0928
  16   2.0000      -0.766913       -20.8688
  17   2.0000      -0.755411       -20.5558
  18   2.0000      -0.704748       -19.1772
  19   2.0000      -0.678169       -18.4539
  20   2.0000      -0.664002       -18.0684
  21   2.0000      -0.633713       -17.2442
  22   2.0000      -0.609969       -16.5981
  23   2.0000      -0.595604       -16.2072
  24   2.0000      -0.575550       -15.6615
  25   2.0000      -0.543973       -14.8023
  26   2.0000      -0.534249       -14.5377
  27   2.0000      -0.519535       -14.1373
  28   2.0000      -0.512209       -13.9379
  29   2.0000      -0.453944       -12.3524
  30   2.0000      -0.448800       -12.2125
  31   2.0000      -0.429889       -11.6979
  32   2.0000      -0.343525        -9.3478
  33   0.0000       0.047085         1.2812
  34   0.0000       0.133473         3.6320
  35   0.0000       0.143046         3.8925
  36   0.0000       0.163066         4.4373
  37   0.0000       0.177073         4.8184

MULLIKEN ATOMIC CHARGES
-----------------------
   0 O :   -0.469840
   1 C :    0.087676
   2 C :   -0.148239
   3 C :   -0.187667
   4 C :   -0.143643
   5 C :   -0.063377
   6 C :   -0.226118
   7 C :    0.208358
   8 O :   -0.330413
   9 H :    0.335848
  10 H :    0.104120
  11 H :    0.150890
  12 H :    0.134249
  13 H :    0.136379
  14 H :    0.132733
  15 H :    0.138173
  16 H :    0.140870
Sum of atomic charges:   -0.0000000

LOEWDIN ATOMIC CHARGES
----------------------
   0 O :   -0.005393
   1 C :   -0.324545
   2 C :   -0.224179
   3 C :   -0.133168
   4 C :   -0.168826
   5 C :   -0.119048
   6 C :   -0.127801
   7 C :   -0.303921
   8 O :    0.136407
   9 H :    0.181894
  10 H :    0.154570
  11 H :    0.156170
  12 H :    0.158021
  13 H :    0.149116
  14 H :    0.153253
  15 H :    0.157854
  16 H :    0.159596

  Mayer bond orders larger than 0.1
B(  0-O ,  1-C ) :   1.1060 B(  0-O ,  2-C ) :  -0.1009 B(  0-O ,  9-H ) :   0.7937
B(  1-C ,  2-C ) :   0.8408 B(  1-C ,  7-C ) :   0.9404 B(  1-C , 10-H ) :   0.9069
B(  2-C ,  3-C ) :   0.8999 B(  2-C , 11-H ) :   0.9258 B(  2-C , 12-H ) :   0.8974
B(  3-C ,  4-C ) :   1.7070 B(  3-C , 13-H ) :   0.9238 B(  4-C ,  5-C ) :   1.0256
B(  4-C , 14-H ) :   0.9244 B(  5-C ,  6-C ) :   1.6388 B(  5-C , 15-H ) :   0.9181
B(  6-C ,  7-C ) :   1.0340 B(  6-C , 16-H ) :   0.9114 B(  7-C ,  8-O ) :   1.8174

MP2 TOTAL ENERGY:     -421.139583915 Eh
FINAL SINGLE POINT ENERGY      -421.139583914506

DIPOLE MOMENT
-------------
                                X             Y             Z
Electronic contribution:      3.10593       2.26589      -1.99274
Nuclear contribution   :     -3.64934      -3.55341       2.10764
                        -----------------------------------------
Total Dipole Moment    :     -0.54341      -1.28752       0.11490
                        -----------------------------------------
Magnitude (a.u.)       :      1.40222
Magnitude (Debye)      :      3.56415

                             ****ORCA TERMINATED NORMALLY****
TOTAL RUN TIME: 0 days 0 hours 16 minutes 56 seconds 731 msec
