                         Program Version 3.0.3 - RELEASE   -
|  1> ! RI-MP2 RIJK def2-TZVP def2-TZVP/C def2-TZVP/JK TIGHTSCF
|  2> % maxcore 2000
|  3> % mp2 density relaxed end
|  4> *xyz 0 1
|  5>  C        0.0881806708     1.4475853765     0.1571084145
|  6>  C        0.0348425351    -0.0987481701     0.0765050020
|  7>  N       -1.2895039657    -0.6947628074     0.1577749832
|  8>  C       -2.1199665360    -0.2663404958     1.2683088742
|  9>  C       -3.3427776549    -1.0746005864     1.3440318044
| 10>  N       -4.3184101844    -1.6896996546     1.4021720813
| 11>  C        0.6396082594    -0.5148216461    -1.2733152892
| 12>  C        2.1385885900    -0.7065633608    -1.3283453237
| 13>  O       -0.0723844220    -0.6580253685    -2.2402648273
| 14>  H        1.1139790511     1.8156503282     0.0559664769
| 15>  H       -0.5153508679     1.8904171176    -0.6415723077
| 16>  H       -0.2899905826     1.8038458779     1.1192591518
| 17>  H        0.6557796242    -0.5074111217     0.8857365119
| 18>  H       -1.7574592511    -0.5942581118    -0.7372087568
| 19>  H       -1.5641720086    -0.4096605107     2.2043673774
| 20>  H       -2.4264930204     0.7940187966     1.2500190241
| 21>  H        2.6666623486     0.0973970409    -0.8061207211
| 22>  H        2.3932500697    -1.6408414685    -0.8129582661
| 23>  H        2.4721552944    -0.7681206255    -2.3647356398
| 24> *
| 25>
| 26>                          ****END OF INPUT****

CARTESIAN COORDINATES (ANGSTROEM)
---------------------------------
  C      0.088181    1.447585    0.157108
  C      0.034843   -0.098748    0.076505
  N     -1.289504   -0.694763    0.157775
  C     -2.119967   -0.266340    1.268309
  C     -3.342778   -1.074601    1.344032
  N     -4.318410   -1.689700    1.402172
  C      0.639608   -0.514822   -1.273315
  C      2.138589   -0.706563   -1.328345
  O     -0.072384   -0.658025   -2.240265
  H      1.113979    1.815650    0.055966
  H     -0.515351    1.890417   -0.641572
  H     -0.289991    1.803846    1.119259
  H      0.655780   -0.507411    0.885737
  H     -1.757459   -0.594258   -0.737209
  H     -1.564172   -0.409661    2.204367
  H     -2.426493    0.794019    1.250019
  H      2.666662    0.097397   -0.806121
  H      2.393250   -1.640841   -0.812958
  H      2.472155   -0.768121   -2.364736

 Total Charge           Charge          ....    0
 Multiplicity           Mult            ....    1
 Number of Electrons    NEL             ....   68
 Basis Dimension        Dim             ....  339

ORBITAL ENERGIES
----------------

  NO   OCC          E(Eh)            E(eV)
   0   2.0000     -20.561202      -559.4987
   1   2.0000     -15.572127      -423.7391
   2   2.0000     -15.571037      -423.7094
   3   2.0000     -11.346644      -308.7579
   4   2.0000     -11.316193      -307.9293
   5   2.0000     -11.292770      -307.2919
   6   2.0000     -11.273231      -306.7602
   7   2.0000     -11.249882      -306.1248
   8   2.0000     -11.248489      -306.0870
   9   2.0000      -1.407815       -38.3086
  10   2.0000      -1.250978       -34.0408
  11   2.0000      -1.212654       -32.9980
  12   2.0000      -1.073293       -29.2058
  13   2.0000      -1.015320       -27.6283
  14   2.0000      -0.979252       -26.6468
  15   2.0000      -0.878469       -23.9043
  16   2.0000      -0.773322       -21.0432
  17   2.0000      -0.721634       -19.6367
  18   2.0000      -0.694687       -18.9034
  19   2.0000      -0.659638       -17.9497
  20   2.0000      -0.652369       -17.7519
  21   2.0000      -0.634028       -17.2528
  22   2.0000      -0.615281       -16.7427
  23   2.0000      -0.602640       -16.3987
  24   2.0000      -0.581298       -15.8179
  25   2.0000      -0.571739       -15.5578
  26   2.0000      -0.557373       -15.1669
  27   2.0000      -0.549654       -14.9568
  28   2.0000      -0.530710       -14.4414
  29   2.0000      -0.507582       -13.8120
  30   2.0000      -0.467043       -12.7089
  31   2.0000      -0.462711       -12.5910
  32   2.0000      -0.430510       -11.7148
  33   2.0000      -0.397502       -10.8166
  34   0.0000       0.108656         2.9567
  35   0.0000       0.128087         3.4854
  36   0.0000       0.137480         3.7410
  37   0.0000       0.149396         4.0653
  38   0.0000       0.168227         4.5777

MULLIKEN ATOMIC CHARGES
-----------------------
   0 C :   -0.425030
   1 C :   -0.023249
   2 N :   -0.322572
   3 C :   -0.072361
   4 C :   -0.153596
   5 N :   -0.055932
   6 C :    0.262996
   7 C :   -0.434539
   8 O :   -0.299662
   9 H :    0.135899
  10 H :    0.144888
  11 H :    0.145760
  12 H :    0.106529
  13 H :    0.233426
  14 H :    0.150417
  15 H :    0.145144
  16 H :    0.141919
  17 H :    0.160284
  18 H :    0.159679
Sum of atomic charges:    0.0000000

LOEWDIN ATOMIC CHARGES
----------------------
   0 C :   -0.289726
   1 C :   -0.306850
   2 N :    0.019939
   3 C :   -0.295215
   4 C :   -0.186031
   5 N :    0.063290
   6 C :   -0.324444
   7 C :   -0.274133
   8 O :    0.155619
   9 H :    0.127436
  10 H :    0.130627
  11 H :    0.124628
  12 H :    0.152795
  13 H :    0.184118
  14 H :    0.158734
  15 H :    0.143870
  16 H :    0.134560
  17 H :    0.144695
  18 H :    0.136088

  Mayer bond orders larger than 0.1
B(  0-C ,  1-C ) :   0.8688 B(  0-C ,  9-H ) :   0.9226 B(  0-C , 10-H ) :   0.9291
B(  0-C , 11-H ) :   0.9356 B(  1-C ,  2-N ) :   0.9919 B(  1-C ,  6-C ) :   0.8629
B(  1-C , 12-H ) :   0.9220 B(  2-N ,  3-C ) :   0.9648 B(  2-N , 13-H ) :   0.8520
B(  3-C ,  4-C ) :   0.9380 B(  3-C , 14-H ) :   0.8993 B(  3-C , 15-H ) :   0.9013
B(  4-C ,  5-N ) :   2.8695 B(  6-C ,  7-C ) :   0.9234 B(  6-C ,  8-O ) :   1.9504
B(  7-C , 16-H ) :   0.9161 B(  7-C , 17-H ) :   0.9135 B(  7-C , 18-H ) :   0.9378

MP2 TOTAL ENERGY:     -418.517855572 Eh
FINAL SINGLE POINT ENERGY      -418.517855572456

DIPOLE MOMENT
-------------
                                X             Y             Z
Electronic contribution:     -8.62661      -5.19132      -0.43149
Nuclear contribution   :     10.57791       6.48075       0.93184
                        -----------------------------------------
Total Dipole Moment    :      1.95130       1.28943       0.50036
                        -----------------------------------------
Magnitude (a.u.)       :      2.39177
Magnitude (Debye)      :      6.07940

                             ****ORCA TERMINATED NORMALLY****
TOTAL RUN TIME: 0 days 0 hours 17 minutes 46 seconds 454 msec
