                         Program Version 3.0.3 - RELEASE   -
|  1> ! RI-MP2 RIJK def2-TZVP def2-TZVP/C def2-TZVP/JK TIGHTSCF
|  2> % maxcore 2000
|  3> % mp2 density relaxed end
|  4> *xyz 0 1
|  5>  C        0.0692976007     1.5538736426    -0.2624167333
|  6>  C       -0.0076881129     0.0275404439    -0.1893134984
|  7>  C       -1.4336862858    -0.5027596552    -0.0237755059
|  8>  C       -1.4853504974    -2.0327727916    -0.0587751800
|  9>  O       -1.9261215718     0.0184781509     1.2076482513
| 10>  C       -3.3169034736     0.0168928241     1.3830371668
| 11>  C       -4.0096979239    -1.1695044240     2.1184907078
| 12>  C       -4.8761039645    -0.1229124495     2.8705938878
| 13>  C       -3.8204900196     0.9552013842     2.5002200703
| 14>  H        1.1055243041     1.8934788059    -0.3537846145
| 15>  H       -0.4836508776     1.9363408191    -1.1281666290
| 16>  H       -0.3623246661     2.0019518064     0.6357070940
| 17>  H        0.4209168807    -0.4168203768    -1.0957182339
| 18>  H        0.5917917787    -0.3382411409     0.6538057388
| 19>  H       -2.0560456766    -0.1064919116    -0.8456857737
| 20>  H       -2.5099329902    -2.4010571697     0.0408891603
| 21>  H       -1.0840830338    -2.4083750019    -1.0058559791
| 22>  H       -0.8902931650    -2.4514721099     0.7593168206
| 23>  H       -3.8220714606     0.2288005768     0.4280376931
| 24>  H       -4.5174823354    -1.9306280506     1.5205590213
| 25>  H       -3.2956108289    -1.6560374655     2.7889798280
| 26>  H       -5.8325260788     0.0521209236     2.3701785015
| 27>  H       -5.0675091847    -0.2963966275     3.9310618056
| 28>  H       -3.0517176222     1.0448988527     3.2729997952
| 29>  H       -4.1619881347     1.9539371445     2.2187240354
| 30> *
| 31>
| 32>                          ****END OF INPUT****

CARTESIAN COORDINATES (ANGSTROEM)
---------------------------------
  C      0.069298    1.553874   -0.262417
  C     -0.007688    0.027540   -0.189313
  C     -1.433686   -0.502760   -0.023776
  C     -1.485350   -2.032773   -0.058775
  O     -1.926122    0.018478    1.207648
  C     -3.316903    0.016893    1.383037
  C     -4.009698   -1.169504    2.118491
  C     -4.876104   -0.122912    2.870594
  C     -3.820490    0.955201    2.500220
  H      1.105524    1.893479   -0.353785
  H     -0.483651    1.936341   -1.128167
  H     -0.362325    2.001952    0.635707
  H      0.420917   -0.416820   -1.095718
  H      0.591792   -0.338241    0.653806
  H     -2.056046   -0.106492   -0.845686
  H     -2.509933   -2.401057    0.040889
  H     -1.084083   -2.408375   -1.005856
  H     -0.890293   -2.451472    0.759317
  H     -3.822071    0.228801    0.428038
  H     -4.517482   -1.930628    1.520559
  H     -3.295611   -1.656037    2.788980
  H     -5.832526    0.052121    2.370179
  H     -5.067509   -0.296397    3.931062
  H     -3.051718    1.044899    3.273000
  H     -4.161988    1.953937    2.218724

 Total Charge           Charge          ....    0
 Multiplicity           Mult            ....    1
 Number of Electrons    NEL             ....   72
 Basis Dimension        Dim             ....  375

ORBITAL ENERGIES
----------------

  NO   OCC          E(Eh)            E(eV)
   0   2.0000     -20.544663      -559.0487
   1   2.0000     -11.274777      -306.8023
   2   2.0000     -11.273262      -306.7611
   3   2.0000     -11.219328      -305.2934
   4   2.0000     -11.215782      -305.1969
   5   2.0000     -11.214326      -305.1573
   6   2.0000     -11.214308      -305.1568
   7   2.0000     -11.211434      -305.0786
   8   2.0000     -11.204456      -304.8888
   9   2.0000      -1.369497       -37.2659
  10   2.0000      -1.121154       -30.5082
  11   2.0000      -1.054946       -28.7065
  12   2.0000      -0.980182       -26.6721
  13   2.0000      -0.896378       -24.3917
  14   2.0000      -0.890277       -24.2257
  15   2.0000      -0.849847       -23.1255
  16   2.0000      -0.784054       -21.3352
  17   2.0000      -0.758469       -20.6390
  18   2.0000      -0.679169       -18.4811
  19   2.0000      -0.656978       -17.8773
  20   2.0000      -0.627976       -17.0881
  21   2.0000      -0.600484       -16.3400
  22   2.0000      -0.591486       -16.0952
  23   2.0000      -0.573233       -15.5985
  24   2.0000      -0.557777       -15.1779
  25   2.0000      -0.536407       -14.5964
  26   2.0000      -0.530132       -14.4256
  27   2.0000      -0.520952       -14.1758
  28   2.0000      -0.499434       -13.5903
  29   2.0000      -0.483725       -13.1628
  30   2.0000      -0.478248       -13.0138
  31   2.0000      -0.467971       -12.7342
  32   2.0000      -0.450005       -12.2453
  33   2.0000      -0.447884       -12.1875
  34   2.0000      -0.431385       -11.7386
  35   2.0000      -0.395014       -10.7489
  36   0.0000       0.139291         3.7903
  37   0.0000       0.151117         4.1121
  38   0.0000       0.153590         4.1794
  39   0.0000       0.161920         4.4061
  40   0.0000       0.182651         4.9702

MULLIKEN ATOMIC CHARGES
-----------------------
   0 C :   -0.397635
   1 C :   -0.163951
   2 C :    0.047341
   3 C :   -0.375326
   4 O :   -0.288455
   5 C :    0.018172
   6 C :   -0.224281
   7 C :   -0.226887
   8 C :   -0.188455
   9 H :    0.129735
  10 H :    0.113069
  11 H :    0.143061
  12 H :    0.103490
  13 H :    0.106420
  14 H :    0.067186
  15 H :    0.131821
  16 H :    0.128553
  17 H :    0.125799
  18 H :    0.062013
  19 H :    0.113194
  20 H :    0.112039
  21 H :    0.112429
  22 H :    0.119007
  23 H :    0.114872
  24 H :    0.116788
Sum of atomic charges:   -0.0000000

LOEWDIN ATOMIC CHARGES
----------------------
   0 C :   -0.320518
   1 C :   -0.275723
   2 C :   -0.349869
   3 C :   -0.295428
   4 O :    0.206370
   5 C :   -0.316858
   6 C :   -0.236331
   7 C :   -0.246476
   8 C :   -0.223413
   9 H :    0.119554
  10 H :    0.118819
  11 H :    0.124769
  12 H :    0.138598
  13 H :    0.140244
  14 H :    0.133676
  15 H :    0.122860
  16 H :    0.125308
  17 H :    0.126284
  18 H :    0.132954
  19 H :    0.119143
  20 H :    0.138027
  21 H :    0.131728
  22 H :    0.123131
  23 H :    0.140592
  24 H :    0.122559

  Mayer bond orders larger than 0.1
B(  0-C ,  1-C ) :   0.9230 B(  0-C ,  9-H ) :   0.9405 B(  0-C , 10-H ) :   0.9370
B(  0-C , 11-H ) :   0.9380 B(  1-C ,  2-C ) :   0.9315 B(  1-C , 12-H ) :   0.9290
B(  1-C , 13-H ) :   0.9279 B(  2-C ,  3-C ) :   0.9135 B(  2-C ,  4-O ) :   0.9035
B(  2-C , 14-H ) :   0.9332 B(  3-C , 15-H ) :   0.9376 B(  3-C , 16-H ) :   0.9327
B(  3-C , 17-H ) :   0.9330 B(  4-O ,  5-C ) :   1.0114 B(  5-C ,  6-C ) :   0.9175
B(  5-C ,  8-C ) :   0.9222 B(  5-C , 18-H ) :   0.9329 B(  6-C ,  7-C ) :   0.9312
B(  6-C , 19-H ) :   0.9260 B(  6-C , 20-H ) :   0.9188 B(  7-C ,  8-C ) :   0.9224
B(  7-C , 21-H ) :   0.9282 B(  7-C , 22-H ) :   0.9308 B(  8-C , 23-H ) :   0.9227
B(  8-C , 24-H ) :   0.9295

MP2 TOTAL ENERGY:     -388.804153219 Eh
FINAL SINGLE POINT ENERGY      -388.804153218631

DIPOLE MOMENT
-------------
                                X             Y             Z
Electronic contribution:     -1.66151       0.44072       2.05089
Nuclear contribution   :      1.44319      -0.61371      -2.34553
                        -----------------------------------------
Total Dipole Moment    :     -0.21832      -0.17298      -0.29464
                        -----------------------------------------
Magnitude (a.u.)       :      0.40546
Magnitude (Debye)      :      1.03061

                             ****ORCA TERMINATED NORMALLY****
TOTAL RUN TIME: 0 days 0 hours 19 minutes 39 seconds 782 msec
