                         Program Version 3.0.3 - RELEASE   -
|  1> ! RI-MP2 RIJK def2-TZVP def2-TZVP/C def2-TZVP/JK TIGHTSCF
|  2> % maxcore 2000
|  3> % mp2 density relaxed end
|  4> *xyz 0 1
|  5>  C        0.1060530468     1.4986827129     0.0453993717
|  6>  C        0.0511831986     0.0453909388     0.0312618870
|  7>  C        0.0130280732    -1.1575834639     0.0302064977
|  8>  C       -0.0177100543    -2.5959045248    -0.0061231052
|  9>  N       -0.5357922940    -3.3049084888     1.2013331404
| 10>  C       -1.3174766907    -3.3799732822    -0.0262519999
| 11>  C       -2.6536908858    -2.6860375434    -0.0439005814
| 12>  C        1.0948775205    -3.2166246069    -0.6977908612
| 13>  N        1.9802739956    -3.7319421527    -1.2349879863
| 14>  H        1.1072909264     1.8535058078    -0.2210899333
| 15>  H       -0.6037455658     1.9319843902    -0.6673235808
| 16>  H       -0.1335687076     1.8909756599     1.0394762331
| 17>  H        0.0042518124    -4.1545945893     1.3502892847
| 18>  H       -1.2641060800    -4.3077710215    -0.5935525132
| 19>  H       -2.6053745747    -1.7399062628     0.4980866558
| 20>  H       -2.9704770414    -2.4885227195    -1.0725741807
| 21>  H       -3.4088501892    -3.3204362140     0.4312330316
| 22> *
| 23>
| 24>                          ****END OF INPUT****

CARTESIAN COORDINATES (ANGSTROEM)
---------------------------------
  C      0.106053    1.498683    0.045399
  C      0.051183    0.045391    0.031262
  C      0.013028   -1.157583    0.030206
  C     -0.017710   -2.595905   -0.006123
  N     -0.535792   -3.304908    1.201333
  C     -1.317477   -3.379973   -0.026252
  C     -2.653691   -2.686038   -0.043901
  C      1.094878   -3.216625   -0.697791
  N      1.980274   -3.731942   -1.234988
  H      1.107291    1.853506   -0.221090
  H     -0.603746    1.931984   -0.667324
  H     -0.133569    1.890976    1.039476
  H      0.004252   -4.154595    1.350289
  H     -1.264106   -4.307771   -0.593553
  H     -2.605375   -1.739906    0.498087
  H     -2.970477   -2.488523   -1.072574
  H     -3.408850   -3.320436    0.431233

 Total Charge           Charge          ....    0
 Multiplicity           Mult            ....    1
 Number of Electrons    NEL             ....   64
 Basis Dimension        Dim             ....  327

ORBITAL ENERGIES
----------------

  NO   OCC          E(Eh)            E(eV)
   0   2.0000     -15.598322      -424.4519
   1   2.0000     -15.579162      -423.9306
   2   2.0000     -11.339894      -308.5742
   3   2.0000     -11.303516      -307.5843
   4   2.0000     -11.283164      -307.0305
   5   2.0000     -11.258347      -306.3552
   6   2.0000     -11.248390      -306.0843
   7   2.0000     -11.238181      -305.8064
   8   2.0000     -11.236589      -305.7631
   9   2.0000      -1.311541       -35.6888
  10   2.0000      -1.221410       -33.2363
  11   2.0000      -1.079699       -29.3801
  12   2.0000      -1.017029       -27.6748
  13   2.0000      -1.009983       -27.4830
  14   2.0000      -0.938911       -25.5491
  15   2.0000      -0.841889       -22.9090
  16   2.0000      -0.794417       -21.6172
  17   2.0000      -0.705362       -19.1939
  18   2.0000      -0.639520       -17.4022
  19   2.0000      -0.624081       -16.9821
  20   2.0000      -0.603628       -16.4256
  21   2.0000      -0.598644       -16.2899
  22   2.0000      -0.591563       -16.0973
  23   2.0000      -0.573849       -15.6152
  24   2.0000      -0.559651       -15.2289
  25   2.0000      -0.537202       -14.6180
  26   2.0000      -0.516245       -14.0478
  27   2.0000      -0.486714       -13.2442
  28   2.0000      -0.469800       -12.7839
  29   2.0000      -0.430491       -11.7143
  30   2.0000      -0.393242       -10.7007
  31   2.0000      -0.370687       -10.0869
  32   0.0000       0.120968         3.2917
  33   0.0000       0.129301         3.5185
  34   0.0000       0.141545         3.8516
  35   0.0000       0.155135         4.2214
  36   0.0000       0.162731         4.4281

MULLIKEN ATOMIC CHARGES
-----------------------
   0 C :   -0.477864
   1 C :    0.115396
   2 C :    0.024222
   3 C :   -0.002915
   4 N :   -0.341000
   5 C :   -0.002352
   6 C :   -0.394701
   7 C :   -0.184232
   8 N :   -0.055164
   9 H :    0.170731
  10 H :    0.165898
  11 H :    0.169264
  12 H :    0.237104
  13 H :    0.146060
  14 H :    0.154007
  15 H :    0.135084
  16 H :    0.140462
Sum of atomic charges:    0.0000000

LOEWDIN ATOMIC CHARGES
----------------------
   0 C :   -0.287370
   1 C :   -0.067746
   2 C :   -0.030366
   3 C :   -0.261888
   4 N :    0.069595
   5 C :   -0.232228
   6 C :   -0.280927
   7 C :   -0.143843
   8 N :    0.073799
   9 H :    0.145793
  10 H :    0.143127
  11 H :    0.144949
  12 H :    0.177814
  13 H :    0.147758
  14 H :    0.137359
  15 H :    0.132073
  16 H :    0.132101

  Mayer bond orders larger than 0.1
B(  0-C ,  1-C ) :   0.8463 B(  0-C ,  9-H ) :   0.9463 B(  0-C , 10-H ) :   0.9448
B(  0-C , 11-H ) :   0.9423 B(  1-C ,  2-C ) :   2.6406 B(  1-C ,  3-C ) :  -0.1633
B(  2-C ,  3-C ) :   1.1774 B(  3-C ,  4-N ) :   0.9788 B(  3-C ,  5-C ) :   0.8729
B(  3-C ,  7-C ) :   0.9513 B(  4-N ,  5-C ) :   0.9419 B(  4-N , 12-H ) :   0.8647
B(  5-C ,  6-C ) :   0.9053 B(  5-C , 13-H ) :   0.9092 B(  6-C , 14-H ) :   0.9374
B(  6-C , 15-H ) :   0.9308 B(  6-C , 16-H ) :   0.9312 B(  7-C ,  8-N ) :   2.8302

MP2 TOTAL ENERGY:     -380.147437948 Eh
FINAL SINGLE POINT ENERGY      -380.147437948422

DIPOLE MOMENT
-------------
                                X             Y             Z
Electronic contribution:      6.69098      -5.12090      -0.97063
Nuclear contribution   :     -7.85267       5.71762       1.19968
                        -----------------------------------------
Total Dipole Moment    :     -1.16168       0.59672       0.22904
                        -----------------------------------------
Magnitude (a.u.)       :      1.32591
Magnitude (Debye)      :      3.37020

                             ****ORCA TERMINATED NORMALLY****
TOTAL RUN TIME: 0 days 0 hours 14 minutes 47 seconds 96 msec
