                         Program Version 3.0.3 - RELEASE   -
|  1> ! RI-MP2 RIJK def2-TZVP def2-TZVP/C def2-TZVP/JK TIGHTSCF
|  2> % maxcore 2000
|  3> % mp2 density relaxed end
|  4> *xyz 0 1
|  5>  C       -0.1374761197     1.4921755243     0.0957447298
|  6>  C       -0.0694373269    -0.0316438005    -0.0305102537
|  7>  C        0.7336629589    -0.4805798438    -1.2439561461
|  8>  O        0.7552706513    -1.8902698585    -1.2815209879
|  9>  C        1.4714494270    -2.4118732507    -2.3810986622
| 10>  C        1.4488028763    -3.9331640068    -2.2892203308
| 11>  C        2.0557618994    -4.6607405709    -3.5010868124
| 12>  C        3.5538011832    -4.3690799712    -3.6769500908
| 13>  C        1.8111813717    -6.1718758794    -3.3900372695
| 14>  H        0.8620827448     1.9296546995     0.1956253606
| 15>  H       -0.6104204043     1.9455775864    -0.7825330151
| 16>  H       -0.7179581420     1.7888456419     0.9740725573
| 17>  H        0.3844101005    -0.4680822025     0.8666653368
| 18>  H       -1.0784452994    -0.4529765338    -0.1058645333
| 19>  H        0.2850046548    -0.0776918037    -2.1697312019
| 20>  H        1.7625669844    -0.0815844555    -1.1908171775
| 21>  H        1.0119052195    -2.0792131977    -3.3294007867
| 22>  H        2.5043563572    -2.0263911340    -2.3742518390
| 23>  H        1.9696508191    -4.2403869715    -1.3728027959
| 24>  H        0.4027769371    -4.2392530885    -2.1678382796
| 25>  H        1.5350136969    -4.3032872585    -4.4018282538
| 26>  H        4.1172240515    -4.6748250520    -2.7868844441
| 27>  H        3.9613213658    -4.9200384034    -4.5312167251
| 28>  H        3.7518832953    -3.3066616005    -3.8470874660
| 29>  H        0.7431353805    -6.3980818771    -3.3055618817
| 30>  H        2.1999130236    -6.7021968587    -4.2656965751
| 31>  H        2.3090036837    -6.5844172731    -2.5042882462
| 32> *
| 33>
| 34>                          ****END OF INPUT****

CARTESIAN COORDINATES (ANGSTROEM)
---------------------------------
  C     -0.137476    1.492176    0.095745
  C     -0.069437   -0.031644   -0.030510
  C      0.733663   -0.480580   -1.243956
  O      0.755271   -1.890270   -1.281521
  C      1.471449   -2.411873   -2.381099
  C      1.448803   -3.933164   -2.289220
  C      2.055762   -4.660741   -3.501087
  C      3.553801   -4.369080   -3.676950
  C      1.811181   -6.171876   -3.390037
  H      0.862083    1.929655    0.195625
  H     -0.610420    1.945578   -0.782533
  H     -0.717958    1.788846    0.974073
  H      0.384410   -0.468082    0.866665
  H     -1.078445   -0.452977   -0.105865
  H      0.285005   -0.077692   -2.169731
  H      1.762567   -0.081584   -1.190817
  H      1.011905   -2.079213   -3.329401
  H      2.504356   -2.026391   -2.374252
  H      1.969651   -4.240387   -1.372803
  H      0.402777   -4.239253   -2.167838
  H      1.535014   -4.303287   -4.401828
  H      4.117224   -4.674825   -2.786884
  H      3.961321   -4.920038   -4.531217
  H      3.751883   -3.306662   -3.847087
  H      0.743135   -6.398082   -3.305562
  H      2.199913   -6.702197   -4.265697
  H      2.309004   -6.584417   -2.504288

 Total Charge           Charge          ....    0
 Multiplicity           Mult            ....    1
 Number of Electrons    NEL             ....   74
 Basis Dimension        Dim             ....  387

ORBITAL ENERGIES
----------------

  NO   OCC          E(Eh)            E(eV)
   0   2.0000     -20.547206      -559.1179
   1   2.0000     -11.268026      -306.6186
   2   2.0000     -11.267679      -306.6091
   3   2.0000     -11.226396      -305.4858
   4   2.0000     -11.215928      -305.2009
   5   2.0000     -11.214320      -305.1572
   6   2.0000     -11.212220      -305.1000
   7   2.0000     -11.211212      -305.0726
   8   2.0000     -11.209698      -305.0314
   9   2.0000      -1.370264       -37.2868
  10   2.0000      -1.089768       -29.6541
  11   2.0000      -1.051825       -28.6216
  12   2.0000      -0.983658       -26.7667
  13   2.0000      -0.926986       -25.2246
  14   2.0000      -0.905909       -24.6510
  15   2.0000      -0.836378       -22.7590
  16   2.0000      -0.805086       -21.9075
  17   2.0000      -0.763077       -20.7644
  18   2.0000      -0.676574       -18.4105
  19   2.0000      -0.655844       -17.8464
  20   2.0000      -0.634227       -17.2582
  21   2.0000      -0.613573       -16.6962
  22   2.0000      -0.599756       -16.3202
  23   2.0000      -0.585819       -15.9409
  24   2.0000      -0.567305       -15.4372
  25   2.0000      -0.550760       -14.9869
  26   2.0000      -0.536051       -14.5867
  27   2.0000      -0.528167       -14.3722
  28   2.0000      -0.503352       -13.6969
  29   2.0000      -0.502240       -13.6667
  30   2.0000      -0.495217       -13.4755
  31   2.0000      -0.473298       -12.8791
  32   2.0000      -0.464984       -12.6529
  33   2.0000      -0.457963       -12.4618
  34   2.0000      -0.457054       -12.4371
  35   2.0000      -0.447999       -12.1907
  36   2.0000      -0.415337       -11.3019
  37   0.0000       0.134842         3.6692
  38   0.0000       0.142500         3.8776
  39   0.0000       0.160347         4.3633
  40   0.0000       0.170944         4.6516
  41   0.0000       0.178120         4.8469

MULLIKEN ATOMIC CHARGES
-----------------------
   0 C :   -0.407908
   1 C :   -0.159053
   2 C :   -0.064270
   3 O :   -0.284044
   4 C :   -0.089497
   5 C :   -0.178963
   6 C :   -0.040289
   7 C :   -0.416832
   8 C :   -0.389124
   9 H :    0.122786
  10 H :    0.122670
  11 H :    0.137218
  12 H :    0.110671
  13 H :    0.110523
  14 H :    0.084473
  15 H :    0.084821
  16 H :    0.087412
  17 H :    0.094910
  18 H :    0.109957
  19 H :    0.117184
  20 H :    0.083025
  21 H :    0.122436
  22 H :    0.130375
  23 H :    0.131196
  24 H :    0.129746
  25 H :    0.129171
  26 H :    0.121407
Sum of atomic charges:    0.0000000

LOEWDIN ATOMIC CHARGES
----------------------
   0 C :   -0.320639
   1 C :   -0.295157
   2 C :   -0.335118
   3 O :    0.160256
   4 C :   -0.328590
   5 C :   -0.249318
   6 C :   -0.310135
   7 C :   -0.297048
   8 C :   -0.296297
   9 H :    0.120306
  10 H :    0.120285
  11 H :    0.122325
  12 H :    0.137078
  13 H :    0.136908
  14 H :    0.116839
  15 H :    0.116744
  16 H :    0.118043
  17 H :    0.117067
  18 H :    0.140909
  19 H :    0.143647
  20 H :    0.148655
  21 H :    0.123835
  22 H :    0.122861
  23 H :    0.119704
  24 H :    0.122177
  25 H :    0.121500
  26 H :    0.123165

  Mayer bond orders larger than 0.1
B(  0-C ,  1-C ) :   0.9133 B(  0-C ,  9-H ) :   0.9370 B(  0-C , 10-H ) :   0.9370
B(  0-C , 11-H ) :   0.9403 B(  1-C ,  2-C ) :   0.9527 B(  1-C , 12-H ) :   0.9303
B(  1-C , 13-H ) :   0.9306 B(  2-C ,  3-O ) :   0.9416 B(  2-C , 14-H ) :   0.9220
B(  2-C , 15-H ) :   0.9227 B(  3-O ,  4-C ) :   0.9508 B(  4-C ,  5-C ) :   0.9461
B(  4-C , 16-H ) :   0.9201 B(  4-C , 17-H ) :   0.9308 B(  5-C ,  6-C ) :   0.9136
B(  5-C , 18-H ) :   0.9230 B(  5-C , 19-H ) :   0.9260 B(  6-C ,  7-C ) :   0.9103
B(  6-C ,  8-C ) :   0.9201 B(  6-C , 20-H ) :   0.9284 B(  7-C , 21-H ) :   0.9314
B(  7-C , 22-H ) :   0.9385 B(  7-C , 23-H ) :   0.9408 B(  8-C , 24-H ) :   0.9402
B(  8-C , 25-H ) :   0.9422 B(  8-C , 26-H ) :   0.9324

MP2 TOTAL ENERGY:     -390.017755935 Eh
FINAL SINGLE POINT ENERGY      -390.017755935382

DIPOLE MOMENT
-------------
                                X             Y             Z
Electronic contribution:     -1.85389       0.50655       1.43505
Nuclear contribution   :      2.00329      -0.28552      -1.71866
                        -----------------------------------------
Total Dipole Moment    :      0.14939       0.22103      -0.28361
                        -----------------------------------------
Magnitude (a.u.)       :      0.38936
Magnitude (Debye)      :      0.98969

                             ****ORCA TERMINATED NORMALLY****
TOTAL RUN TIME: 0 days 0 hours 17 minutes 17 seconds 219 msec
