                         Program Version 3.0.3 - RELEASE   -
|  1> ! RI-MP2 RIJK def2-TZVP def2-TZVP/C def2-TZVP/JK TIGHTSCF
|  2> % maxcore 2000
|  3> % mp2 density relaxed end
|  4> *xyz 0 1
|  5>  C        0.0067988926     1.4996973638    -0.0256703020
|  6>  C       -0.0274038512    -0.0175205065    -0.1489481120
|  7>  N        1.1782666695    -0.6332429807     0.0569172062
|  8>  O       -1.0372196495    -0.6398064871    -0.4072757187
|  9>  H        0.9139028028     1.9292375546    -0.4610006733
| 10>  H       -0.8708089634     1.9112418589    -0.5234517551
| 11>  H       -0.0282612356     1.7851727063     1.0314912515
| 12>  H        1.9840513879    -0.1317586134     0.3867490606
| 13>  H        1.1904942069    -1.6391956260     0.1000620928
| 14> *
| 15>
| 16>                          ****END OF INPUT****

CARTESIAN COORDINATES (ANGSTROEM)
---------------------------------
  C      0.006799    1.499697   -0.025670
  C     -0.027404   -0.017521   -0.148948
  N      1.178267   -0.633243    0.056917
  O     -1.037220   -0.639806   -0.407276
  H      0.913903    1.929238   -0.461001
  H     -0.870809    1.911242   -0.523452
  H     -0.028261    1.785173    1.031491
  H      1.984051   -0.131759    0.386749
  H      1.190494   -1.639196    0.100062

 Total Charge           Charge          ....    0
 Multiplicity           Mult            ....    1
 Number of Electrons    NEL             ....   32
 Basis Dimension        Dim             ....  154

ORBITAL ENERGIES
----------------

  NO   OCC          E(Eh)            E(eV)
   0   2.0000     -20.515830      -558.2641
   1   2.0000     -15.582035      -424.0087
   2   2.0000     -11.351883      -308.9004
   3   2.0000     -11.238547      -305.8164
   4   2.0000      -1.380549       -37.5667
   5   2.0000      -1.209249       -32.9053
   6   2.0000      -1.001714       -27.2580
   7   2.0000      -0.797267       -21.6947
   8   2.0000      -0.722889       -19.6708
   9   2.0000      -0.663659       -18.0591
  10   2.0000      -0.614088       -16.7102
  11   2.0000      -0.587029       -15.9739
  12   2.0000      -0.560356       -15.2481
  13   2.0000      -0.525661       -14.3040
  14   2.0000      -0.425495       -11.5783
  15   2.0000      -0.415493       -11.3061
  16   0.0000       0.119091         3.2406
  17   0.0000       0.168248         4.5783
  18   0.0000       0.177114         4.8195
  19   0.0000       0.189216         5.1488
  20   0.0000       0.222992         6.0679

MULLIKEN ATOMIC CHARGES
-----------------------
   0 C :   -0.405081
   1 C :    0.299406
   2 N :   -0.490971
   3 O :   -0.354026
   4 H :    0.132912
   5 H :    0.154318
   6 H :    0.145978
   7 H :    0.256727
   8 H :    0.260736
Sum of atomic charges:   -0.0000000

LOEWDIN ATOMIC CHARGES
----------------------
   0 C :   -0.283524
   1 C :   -0.504106
   2 N :   -0.032942
   3 O :    0.079707
   4 H :    0.126819
   5 H :    0.137238
   6 H :    0.136163
   7 H :    0.168537
   8 H :    0.172107

  Mayer bond orders larger than 0.1
B(  0-C ,  1-C ) :   0.9116 B(  0-C ,  4-H ) :   0.9236 B(  0-C ,  5-H ) :   0.9374
B(  0-C ,  6-H ) :   0.9117 B(  1-C ,  2-N ) :   1.1272 B(  1-C ,  3-O ) :   1.9828
B(  2-N ,  7-H ) :   0.8729 B(  2-N ,  8-H ) :   0.8610

MP2 TOTAL ENERGY:     -208.825418017 Eh
FINAL SINGLE POINT ENERGY      -208.825418017244

DIPOLE MOMENT
-------------
                                X             Y             Z
Electronic contribution:     -1.43135      -2.92584      -0.60341
Nuclear contribution   :      2.75389       3.39751       1.07562
                        -----------------------------------------
Total Dipole Moment    :      1.32254       0.47167       0.47221
                        -----------------------------------------
Magnitude (a.u.)       :      1.48140
Magnitude (Debye)      :      3.76543

                             ****ORCA TERMINATED NORMALLY****
TOTAL RUN TIME: 0 days 0 hours 1 minutes 15 seconds 316 msec
