                         Program Version 3.0.3 - RELEASE   -
|  1> ! RI-MP2 RIJK def2-TZVP def2-TZVP/C def2-TZVP/JK TIGHTSCF
|  2> % maxcore 2000
|  3> % mp2 density relaxed end
|  4> *xyz 0 1
|  5>  N       -0.1853208740     1.4189102684    -0.2915202333
|  6>  C       -0.0509479106     0.0219567237    -0.0653234197
|  7>  C        0.7247362757    -0.7341385425     1.0206960549
|  8>  C       -0.4229063733    -1.7939262142     1.0967149116
|  9>  C       -1.2233627707    -1.0053950289     0.0472236536
| 10>  C       -2.6239678195    -0.7685962420     0.0567422517
| 11>  N       -3.7648902499    -0.5706151390     0.0886944937
| 12>  C       -0.3852645477    -0.8712072614    -1.2271673472
| 13>  O       -0.9579634206    -0.2690816854    -2.3263850186
| 14>  H       -0.5357395561     1.9143493034     0.5212759381
| 15>  H        0.6980130650     1.8389675839    -0.5663211289
| 16>  H        1.7191340119    -1.0940601643     0.7381253116
| 17>  H        0.8074640201    -0.1591861065     1.9465688880
| 18>  H       -0.1610697728    -2.8124206731     0.7965169906
| 19>  H       -0.9097462281    -1.8262227869     2.0717987517
| 20>  H        0.2571454050    -1.7085794610    -1.4971896063
| 21>  H       -1.0669086943     0.6684933060    -2.0959816515
| 22> *
| 23>
| 24>                          ****END OF INPUT****

CARTESIAN COORDINATES (ANGSTROEM)
---------------------------------
  N     -0.185321    1.418910   -0.291520
  C     -0.050948    0.021957   -0.065323
  C      0.724736   -0.734139    1.020696
  C     -0.422906   -1.793926    1.096715
  C     -1.223363   -1.005395    0.047224
  C     -2.623968   -0.768596    0.056742
  N     -3.764890   -0.570615    0.088694
  C     -0.385265   -0.871207   -1.227167
  O     -0.957963   -0.269082   -2.326385
  H     -0.535740    1.914349    0.521276
  H      0.698013    1.838968   -0.566321
  H      1.719134   -1.094060    0.738125
  H      0.807464   -0.159186    1.946569
  H     -0.161070   -2.812421    0.796517
  H     -0.909746   -1.826223    2.071799
  H      0.257145   -1.708579   -1.497190
  H     -1.066909    0.668493   -2.095982

 Total Charge           Charge          ....    0
 Multiplicity           Mult            ....    1
 Number of Electrons    NEL             ....   66
 Basis Dimension        Dim             ....  327

ORBITAL ENERGIES
----------------

  NO   OCC          E(Eh)            E(eV)
   0   2.0000     -20.571486      -559.7786
   1   2.0000     -15.585094      -424.0920
   2   2.0000     -15.562065      -423.4653
   3   2.0000     -11.314398      -307.8804
   4   2.0000     -11.302936      -307.5685
   5   2.0000     -11.279855      -306.9405
   6   2.0000     -11.268495      -306.6313
   7   2.0000     -11.259756      -306.3935
   8   2.0000     -11.256425      -306.3029
   9   2.0000      -1.394606       -37.9491
  10   2.0000      -1.252598       -34.0849
  11   2.0000      -1.208138       -32.8751
  12   2.0000      -1.165740       -31.7214
  13   2.0000      -1.005548       -27.3624
  14   2.0000      -0.941132       -25.6095
  15   2.0000      -0.858079       -23.3495
  16   2.0000      -0.810939       -22.0668
  17   2.0000      -0.730616       -19.8811
  18   2.0000      -0.712994       -19.4016
  19   2.0000      -0.685466       -18.6525
  20   2.0000      -0.653882       -17.7930
  21   2.0000      -0.626895       -17.0587
  22   2.0000      -0.597170       -16.2498
  23   2.0000      -0.567081       -15.4311
  24   2.0000      -0.557644       -15.1743
  25   2.0000      -0.552177       -15.0255
  26   2.0000      -0.529645       -14.4124
  27   2.0000      -0.527350       -14.3499
  28   2.0000      -0.490938       -13.3591
  29   2.0000      -0.462721       -12.5913
  30   2.0000      -0.446094       -12.1388
  31   2.0000      -0.402186       -10.9440
  32   2.0000      -0.375196       -10.2096
  33   0.0000       0.110841         3.0161
  34   0.0000       0.132916         3.6168
  35   0.0000       0.148639         4.0447
  36   0.0000       0.155698         4.2368
  37   0.0000       0.173171         4.7122

MULLIKEN ATOMIC CHARGES
-----------------------
   0 N :   -0.604102
   1 C :    0.075205
   2 C :   -0.197228
   3 C :   -0.218147
   4 C :    0.131516
   5 C :   -0.273232
   6 N :   -0.045114
   7 C :    0.075224
   8 O :   -0.451541
   9 H :    0.260253
  10 H :    0.253038
  11 H :    0.125555
  12 H :    0.118440
  13 H :    0.132750
  14 H :    0.138027
  15 H :    0.132344
  16 H :    0.347014
Sum of atomic charges:   -0.0000000

LOEWDIN ATOMIC CHARGES
----------------------
   0 N :   -0.101957
   1 C :   -0.269206
   2 C :   -0.193776
   3 C :   -0.166817
   4 C :   -0.172401
   5 C :   -0.165183
   6 N :    0.066638
   7 C :   -0.252296
   8 O :    0.033926
   9 H :    0.169677
  10 H :    0.170480
  11 H :    0.131169
  12 H :    0.137975
  13 H :    0.135765
  14 H :    0.142635
  15 H :    0.145019
  16 H :    0.188351

  Mayer bond orders larger than 0.1
B(  0-N ,  1-C ) :   0.9754 B(  0-N ,  9-H ) :   0.8806 B(  0-N , 10-H ) :   0.8760
B(  1-C ,  2-C ) :   0.9497 B(  1-C ,  4-C ) :   0.7128 B(  1-C ,  7-C ) :   0.8881
B(  2-C ,  3-C ) :   0.9846 B(  2-C , 11-H ) :   0.9191 B(  2-C , 12-H ) :   0.9107
B(  3-C ,  4-C ) :   0.8937 B(  3-C , 13-H ) :   0.9193 B(  3-C , 14-H ) :   0.9163
B(  4-C ,  5-C ) :   0.9795 B(  4-C ,  7-C ) :   0.7743 B(  5-C ,  6-N ) :   2.8700
B(  7-C ,  8-O ) :   1.0776 B(  7-C , 15-H ) :   0.9441 B(  8-O , 16-H ) :   0.7977

MP2 TOTAL ENERGY:     -417.285111779 Eh
FINAL SINGLE POINT ENERGY      -417.285111779256

DIPOLE MOMENT
-------------
                                X             Y             Z
Electronic contribution:     -5.69631      -0.07539      -2.51415
Nuclear contribution   :      7.86072       0.50679       3.39728
                        -----------------------------------------
Total Dipole Moment    :      2.16442       0.43140       0.88313
                        -----------------------------------------
Magnitude (a.u.)       :      2.37713
Magnitude (Debye)      :      6.04217

                             ****ORCA TERMINATED NORMALLY****
TOTAL RUN TIME: 0 days 0 hours 17 minutes 20 seconds 108 msec
