                         Program Version 3.0.3 - RELEASE   -
|  1> ! RI-MP2 RIJK def2-TZVP def2-TZVP/C def2-TZVP/JK TIGHTSCF
|  2> % maxcore 2000
|  3> % mp2 density relaxed end
|  4> *xyz 0 1
|  5>  O        0.0739748521     1.4859114424    -0.0761044179
|  6>  C        0.0385682992     0.0789604417     0.0177565605
|  7>  C        0.1370791760    -0.6278369743     1.4087586154
|  8>  C       -0.9184747007     0.1434808068     2.2202497211
|  9>  C       -2.1070369952    -0.3076027174     1.3406008769
| 10>  O       -3.3167381186     0.3704439188     1.4159432250
| 11>  C       -2.1084006450    -1.8312341361     1.5784109788
| 12>  C       -0.7847174062    -1.7729013368     0.7971550226
| 13>  C       -1.3339412041    -0.5707233998    -0.0404019199
| 14>  H        0.9920303081     1.7723295926    -0.0358369512
| 15>  H        0.7185746934    -0.3859776388    -0.7101538228
| 16>  H        1.0990393817    -0.8451414572     1.8734412353
| 17>  H       -1.0232775129    -0.1867523436     3.2570091844
| 18>  H       -0.7443876836     1.2221521041     2.1941445544
| 19>  H       -3.1403847004     1.3099615182     1.2948875105
| 20>  H       -2.1254832300    -2.1895555523     2.6124676303
| 21>  H       -2.8813295417    -2.3357427949     0.9918261714
| 22>  H       -0.3052844129    -2.6421393807     0.3529491928
| 23>  H       -1.9395747893    -0.6782812131    -0.9390619377
| 24> *
| 25>
| 26>                          ****END OF INPUT****

CARTESIAN COORDINATES (ANGSTROEM)
---------------------------------
  O      0.073975    1.485911   -0.076104
  C      0.038568    0.078960    0.017757
  C      0.137079   -0.627837    1.408759
  C     -0.918475    0.143481    2.220250
  C     -2.107037   -0.307603    1.340601
  O     -3.316738    0.370444    1.415943
  C     -2.108401   -1.831234    1.578411
  C     -0.784717   -1.772901    0.797155
  C     -1.333941   -0.570723   -0.040402
  H      0.992030    1.772330   -0.035837
  H      0.718575   -0.385978   -0.710154
  H      1.099039   -0.845141    1.873441
  H     -1.023278   -0.186752    3.257009
  H     -0.744388    1.222152    2.194145
  H     -3.140385    1.309962    1.294888
  H     -2.125483   -2.189556    2.612468
  H     -2.881330   -2.335743    0.991826
  H     -0.305284   -2.642139    0.352949
  H     -1.939575   -0.678281   -0.939062

 Total Charge           Charge          ....    0
 Multiplicity           Mult            ....    1
 Number of Electrons    NEL             ....   68
 Basis Dimension        Dim             ....  339

ORBITAL ENERGIES
----------------

  NO   OCC          E(Eh)            E(eV)
   0   2.0000     -20.560329      -559.4750
   1   2.0000     -20.555978      -559.3566
   2   2.0000     -11.287041      -307.1360
   3   2.0000     -11.281586      -306.9876
   4   2.0000     -11.235682      -305.7385
   5   2.0000     -11.235182      -305.7248
   6   2.0000     -11.226090      -305.4774
   7   2.0000     -11.218244      -305.2639
   8   2.0000     -11.216740      -305.2230
   9   2.0000      -1.371391       -37.3174
  10   2.0000      -1.365128       -37.1470
  11   2.0000      -1.206151       -32.8210
  12   2.0000      -1.006112       -27.3777
  13   2.0000      -0.973209       -26.4824
  14   2.0000      -0.892304       -24.2808
  15   2.0000      -0.825300       -22.4575
  16   2.0000      -0.767953       -20.8971
  17   2.0000      -0.725593       -19.7444
  18   2.0000      -0.709977       -19.3194
  19   2.0000      -0.691313       -18.8116
  20   2.0000      -0.647475       -17.6187
  21   2.0000      -0.636259       -17.3135
  22   2.0000      -0.623320       -16.9614
  23   2.0000      -0.569086       -15.4856
  24   2.0000      -0.552679       -15.0392
  25   2.0000      -0.531597       -14.4655
  26   2.0000      -0.521014       -14.1775
  27   2.0000      -0.504042       -13.7157
  28   2.0000      -0.485689       -13.2163
  29   2.0000      -0.455943       -12.4069
  30   2.0000      -0.437063       -11.8931
  31   2.0000      -0.417343       -11.3565
  32   2.0000      -0.408917       -11.1272
  33   2.0000      -0.391124       -10.6430
  34   0.0000       0.130828         3.5600
  35   0.0000       0.151391         4.1196
  36   0.0000       0.154623         4.2075
  37   0.0000       0.173637         4.7249
  38   0.0000       0.185887         5.0582

MULLIKEN ATOMIC CHARGES
-----------------------
   0 O :   -0.470751
   1 C :   -0.026693
   2 C :   -0.068216
   3 C :   -0.238712
   4 C :    0.147512
   5 O :   -0.453185
   6 C :   -0.206189
   7 C :   -0.192075
   8 C :   -0.086742
   9 H :    0.317428
  10 H :    0.094226
  11 H :    0.132225
  12 H :    0.124152
  13 H :    0.119436
  14 H :    0.324978
  15 H :    0.111774
  16 H :    0.117592
  17 H :    0.124616
  18 H :    0.128622
Sum of atomic charges:    0.0000000

LOEWDIN ATOMIC CHARGES
----------------------
   0 O :   -0.018162
   1 C :   -0.307391
   2 C :   -0.165977
   3 C :   -0.195834
   4 C :   -0.328741
   5 O :    0.024745
   6 C :   -0.183036
   7 C :   -0.144601
   8 C :   -0.124388
   9 H :    0.176228
  10 H :    0.137641
  11 H :    0.129227
  12 H :    0.136953
  13 H :    0.137172
  14 H :    0.184714
  15 H :    0.125935
  16 H :    0.144924
  17 H :    0.133180
  18 H :    0.137411

  Mayer bond orders larger than 0.1
B(  0-O ,  1-C ) :   1.1368 B(  0-O ,  8-C ) :  -0.1115 B(  0-O ,  9-H ) :   0.8434
B(  1-C ,  2-C ) :   0.8855 B(  1-C ,  8-C ) :   0.8798 B(  1-C , 10-H ) :   0.9561
B(  2-C ,  3-C ) :   0.9228 B(  2-C ,  7-C ) :   0.8524 B(  2-C , 11-H ) :   0.9003
B(  3-C ,  4-C ) :   0.9325 B(  3-C , 12-H ) :   0.9281 B(  3-C , 13-H ) :   0.9097
B(  4-C ,  5-O ) :   1.0315 B(  4-C ,  6-C ) :   0.9277 B(  4-C ,  8-C ) :   0.8209
B(  5-O , 14-H ) :   0.8361 B(  6-C ,  7-C ) :   0.9416 B(  6-C , 15-H ) :   0.9202
B(  6-C , 16-H ) :   0.9148 B(  7-C ,  8-C ) :   0.8751 B(  7-C , 17-H ) :   0.9154
B(  8-C , 18-H ) :   0.9136

MP2 TOTAL ENERGY:     -422.302329193 Eh
FINAL SINGLE POINT ENERGY      -422.302329193137

DIPOLE MOMENT
-------------
                                X             Y             Z
Electronic contribution:     -1.09585       2.09665      -1.30015
Nuclear contribution   :      2.09471      -2.08813       1.25867
                        -----------------------------------------
Total Dipole Moment    :      0.99886       0.00853      -0.04149
                        -----------------------------------------
Magnitude (a.u.)       :      0.99976
Magnitude (Debye)      :      2.54118

                             ****ORCA TERMINATED NORMALLY****
TOTAL RUN TIME: 0 days 0 hours 18 minutes 1 seconds 257 msec
