                         Program Version 3.0.3 - RELEASE   -
|  1> ! RI-MP2 RIJK def2-TZVP def2-TZVP/C def2-TZVP/JK TIGHTSCF
|  2> % maxcore 2000
|  3> % mp2 density relaxed end
|  4> *xyz 0 1
|  5>  C        0.0592676884     1.4024326978    -0.1104005595
|  6>  C        0.0385675314    -0.0495791064    -0.0498693833
|  7>  C        0.0275980772    -1.2521977888     0.0165016571
|  8>  C        0.0016897568    -2.7149251284     0.0341889182
|  9>  O       -1.2952939053    -3.2447648010    -0.1816813688
| 10>  C        0.8264848797    -3.1947203394    -1.2013168709
| 11>  O        1.9504472307    -3.5915933433    -1.1553485683
| 12>  C        0.5907104492    -3.2322547740     1.2888628063
| 13>  N        1.0116081900    -3.6412116736     2.2829849758
| 14>  H        0.9835444566     1.7579969170    -0.5775270694
| 15>  H       -0.7829979312     1.7833093151    -0.6971248814
| 16>  H       -0.0005525723     1.8373550177     0.8925271202
| 17>  H       -1.9101267450    -2.7793766945     0.3976675856
| 18>  H        0.2297210638    -3.0990467883    -2.1301164016
| 19> *
| 20>
| 21>                          ****END OF INPUT****

CARTESIAN COORDINATES (ANGSTROEM)
---------------------------------
  C      0.059268    1.402433   -0.110401
  C      0.038568   -0.049579   -0.049869
  C      0.027598   -1.252198    0.016502
  C      0.001690   -2.714925    0.034189
  O     -1.295294   -3.244765   -0.181681
  C      0.826485   -3.194720   -1.201317
  O      1.950447   -3.591593   -1.155349
  C      0.590710   -3.232255    1.288863
  N      1.011608   -3.641212    2.282985
  H      0.983544    1.757997   -0.577527
  H     -0.782998    1.783309   -0.697125
  H     -0.000553    1.837355    0.892527
  H     -1.910127   -2.779377    0.397668
  H      0.229721   -3.099047   -2.130116

 Total Charge           Charge          ....    0
 Multiplicity           Mult            ....    1
 Number of Electrons    NEL             ....   64
 Basis Dimension        Dim             ....  309

ORBITAL ENERGIES
----------------

  NO   OCC          E(Eh)            E(eV)
   0   2.0000     -20.617628      -561.0342
   1   2.0000     -20.593250      -560.3708
   2   2.0000     -15.588693      -424.1899
   3   2.0000     -11.394517      -310.0606
   4   2.0000     -11.369108      -309.3691
   5   2.0000     -11.286795      -307.1293
   6   2.0000     -11.280172      -306.9491
   7   2.0000     -11.276450      -306.8478
   8   2.0000     -11.261512      -306.4413
   9   2.0000      -1.442521       -39.2530
  10   2.0000      -1.424244       -38.7556
  11   2.0000      -1.231744       -33.5175
  12   2.0000      -1.118148       -30.4264
  13   2.0000      -1.063333       -28.9348
  14   2.0000      -0.978508       -26.6265
  15   2.0000      -0.877889       -23.8886
  16   2.0000      -0.789037       -21.4708
  17   2.0000      -0.762159       -20.7394
  18   2.0000      -0.711694       -19.3662
  19   2.0000      -0.669521       -18.2186
  20   2.0000      -0.664879       -18.0923
  21   2.0000      -0.620652       -16.8888
  22   2.0000      -0.617980       -16.8161
  23   2.0000      -0.611826       -16.6486
  24   2.0000      -0.580602       -15.7990
  25   2.0000      -0.564031       -15.3481
  26   2.0000      -0.536410       -14.5965
  27   2.0000      -0.495002       -13.4697
  28   2.0000      -0.483236       -13.1495
  29   2.0000      -0.460916       -12.5422
  30   2.0000      -0.419920       -11.4266
  31   2.0000      -0.411045       -11.1851
  32   0.0000       0.089016         2.4222
  33   0.0000       0.109456         2.9784
  34   0.0000       0.127949         3.4817
  35   0.0000       0.145964         3.9719
  36   0.0000       0.148875         4.0511

MULLIKEN ATOMIC CHARGES
-----------------------
   0 C :   -0.483477
   1 C :    0.102132
   2 C :   -0.175325
   3 C :    0.370887
   4 O :   -0.442175
   5 C :    0.083412
   6 O :   -0.211322
   7 C :   -0.181481
   8 N :   -0.043474
   9 H :    0.176431
  10 H :    0.172156
  11 H :    0.175983
  12 H :    0.339142
  13 H :    0.117110
Sum of atomic charges:    0.0000000

LOEWDIN ATOMIC CHARGES
----------------------
   0 C :   -0.280788
   1 C :   -0.055274
   2 C :   -0.041829
   3 C :   -0.374153
   4 O :    0.053952
   5 C :   -0.219380
   6 O :    0.189325
   7 C :   -0.130303
   8 N :    0.092337
   9 H :    0.148764
  10 H :    0.146857
  11 H :    0.148055
  12 H :    0.192711
  13 H :    0.129728

  Mayer bond orders larger than 0.1
B(  0-C ,  1-C ) :   0.8409 B(  0-C ,  9-H ) :   0.9435 B(  0-C , 10-H ) :   0.9423
B(  0-C , 11-H ) :   0.9441 B(  1-C ,  2-C ) :   2.6195 B(  2-C ,  3-C ) :   1.1012
B(  3-C ,  4-O ) :   0.9237 B(  3-C ,  5-C ) :   0.7426 B(  3-C ,  7-C ) :   0.9032
B(  4-O , 12-H ) :   0.8281 B(  5-C ,  6-O ) :   2.0430 B(  5-C , 13-H ) :   0.9294
B(  7-C ,  8-N ) :   2.8383

MP2 TOTAL ENERGY:     -435.929950087 Eh
FINAL SINGLE POINT ENERGY      -435.929950086603

DIPOLE MOMENT
-------------
                                X             Y             Z
Electronic contribution:      1.76744      -7.94780       1.52370
Nuclear contribution   :     -2.97471       9.75457      -2.30546
                        -----------------------------------------
Total Dipole Moment    :     -1.20726       1.80676      -0.78176
                        -----------------------------------------
Magnitude (a.u.)       :      2.30934
Magnitude (Debye)      :      5.86987

                             ****ORCA TERMINATED NORMALLY****
TOTAL RUN TIME: 0 days 0 hours 11 minutes 44 seconds 543 msec
