                         Program Version 3.0.3 - RELEASE   -
|  1> ! RI-MP2 RIJK def2-TZVP def2-TZVP/C def2-TZVP/JK TIGHTSCF
|  2> % maxcore 2000
|  3> % mp2 density relaxed end
|  4> *xyz 0 1
|  5>  C       -0.7258301004     1.3301112068    -0.2376323466
|  6>  O       -0.6902141682    -0.0643948971    -0.4509983686
|  7>  C       -0.7563077126    -0.8099613448     0.7397510167
|  8>  C       -0.8978614923    -2.2643878713     0.3370323006
|  9>  O       -0.9450980749    -3.1440833742     1.4759593469
| 10>  C       -2.2332878616    -3.6655865154     1.1059292869
| 11>  C       -2.2960696840    -2.7576299545    -0.1547686174
| 12>  C       -3.3742130382    -1.7862918546    -0.2021722953
| 13>  N       -4.2441057612    -1.0248167347    -0.2150108519
| 14>  H       -0.6746451028     1.8085786710    -1.2180694781
| 15>  H       -1.6561239920     1.6368680551     0.2622094163
| 16>  H        0.1272275439     1.6688958351     0.3702620648
| 17>  H        0.1566865389    -0.6951477226     1.3479791101
| 18>  H       -1.6117847220    -0.5020064240     1.3611494017
| 19>  H       -0.0909737918    -2.5325358697    -0.3548643569
| 20>  H       -2.2007074615    -4.7388259419     0.8896824428
| 21>  H       -2.9968976162    -3.4663052353     1.8643915393
| 22>  H       -2.2580034231    -3.3035440380    -1.0984745913
| 23> *
| 24>
| 25>                          ****END OF INPUT****

CARTESIAN COORDINATES (ANGSTROEM)
---------------------------------
  C     -0.725830    1.330111   -0.237632
  O     -0.690214   -0.064395   -0.450998
  C     -0.756308   -0.809961    0.739751
  C     -0.897861   -2.264388    0.337032
  O     -0.945098   -3.144083    1.475959
  C     -2.233288   -3.665587    1.105929
  C     -2.296070   -2.757630   -0.154769
  C     -3.374213   -1.786292   -0.202172
  N     -4.244106   -1.024817   -0.215011
  H     -0.674645    1.808579   -1.218069
  H     -1.656124    1.636868    0.262209
  H      0.127228    1.668896    0.370262
  H      0.156687   -0.695148    1.347979
  H     -1.611785   -0.502006    1.361149
  H     -0.090974   -2.532536   -0.354864
  H     -2.200707   -4.738826    0.889682
  H     -2.996898   -3.466305    1.864392
  H     -2.258003   -3.303544   -1.098475

 Total Charge           Charge          ....    0
 Multiplicity           Mult            ....    1
 Number of Electrons    NEL             ....   68
 Basis Dimension        Dim             ....  333

ORBITAL ENERGIES
----------------

  NO   OCC          E(Eh)            E(eV)
   0   2.0000     -20.575059      -559.8758
   1   2.0000     -20.568773      -559.7048
   2   2.0000     -15.574255      -423.7970
   3   2.0000     -11.313936      -307.8678
   4   2.0000     -11.312404      -307.8262
   5   2.0000     -11.293007      -307.2983
   6   2.0000     -11.289265      -307.1965
   7   2.0000     -11.278002      -306.8900
   8   2.0000     -11.276945      -306.8613
   9   2.0000      -1.411866       -38.4188
  10   2.0000      -1.388537       -37.7840
  11   2.0000      -1.222943       -33.2780
  12   2.0000      -1.075912       -29.2771
  13   2.0000      -1.026818       -27.9411
  14   2.0000      -0.932775       -25.3821
  15   2.0000      -0.879745       -23.9391
  16   2.0000      -0.829454       -22.5706
  17   2.0000      -0.729088       -19.8395
  18   2.0000      -0.720183       -19.5972
  19   2.0000      -0.680843       -18.5267
  20   2.0000      -0.663489       -18.0545
  21   2.0000      -0.637469       -17.3464
  22   2.0000      -0.619387       -16.8544
  23   2.0000      -0.610943       -16.6246
  24   2.0000      -0.580173       -15.7873
  25   2.0000      -0.561213       -15.2714
  26   2.0000      -0.546536       -14.8720
  27   2.0000      -0.520239       -14.1564
  28   2.0000      -0.513779       -13.9806
  29   2.0000      -0.498186       -13.5563
  30   2.0000      -0.455880       -12.4051
  31   2.0000      -0.451076       -12.2744
  32   2.0000      -0.441251       -12.0070
  33   2.0000      -0.432305       -11.7636
  34   0.0000       0.127497         3.4694
  35   0.0000       0.143597         3.9075
  36   0.0000       0.149766         4.0753
  37   0.0000       0.158458         4.3119
  38   0.0000       0.173511         4.7215

MULLIKEN ATOMIC CHARGES
-----------------------
   0 C :   -0.221285
   1 O :   -0.316886
   2 C :   -0.082956
   3 C :    0.122807
   4 O :   -0.326154
   5 C :   -0.025216
   6 C :    0.017879
   7 C :   -0.231925
   8 N :   -0.055342
   9 H :    0.141347
  10 H :    0.130314
  11 H :    0.115458
  12 H :    0.119644
  13 H :    0.114826
  14 H :    0.105735
  15 H :    0.111604
  16 H :    0.122986
  17 H :    0.157164
Sum of atomic charges:    0.0000000

LOEWDIN ATOMIC CHARGES
----------------------
   0 C :   -0.351026
   1 O :    0.142923
   2 C :   -0.312904
   3 C :   -0.245091
   4 O :    0.148360
   5 C :   -0.224941
   6 C :   -0.196703
   7 C :   -0.176930
   8 N :    0.066070
   9 H :    0.115287
  10 H :    0.107251
  11 H :    0.103049
  12 H :    0.128929
  13 H :    0.130287
  14 H :    0.143407
  15 H :    0.122774
  16 H :    0.127253
  17 H :    0.172004

  Mayer bond orders larger than 0.1
B(  0-C ,  1-O ) :   0.9040 B(  0-C ,  9-H ) :   0.9387 B(  0-C , 10-H ) :   0.9366
B(  0-C , 11-H ) :   0.9363 B(  1-O ,  2-C ) :   0.9306 B(  2-C ,  3-C ) :   0.9410
B(  2-C , 12-H ) :   0.9168 B(  2-C , 13-H ) :   0.9202 B(  3-C ,  4-O ) :   0.9444
B(  3-C ,  6-C ) :   0.9253 B(  3-C , 14-H ) :   0.9085 B(  4-O ,  5-C ) :   0.9509
B(  5-C ,  6-C ) :   0.9246 B(  5-C , 15-H ) :   0.9172 B(  5-C , 16-H ) :   0.9059
B(  6-C ,  7-C ) :   0.9405 B(  6-C , 17-H ) :   0.8956 B(  7-C ,  8-N ) :   2.8477

MP2 TOTAL ENERGY:     -438.338746264 Eh
FINAL SINGLE POINT ENERGY      -438.338746263769

DIPOLE MOMENT
-------------
                                X             Y             Z
Electronic contribution:     -3.42669      -3.94768      -0.83055
Nuclear contribution   :      4.13901       3.48236       0.83161
                        -----------------------------------------
Total Dipole Moment    :      0.71232      -0.46533       0.00106
                        -----------------------------------------
Magnitude (a.u.)       :      0.85084
Magnitude (Debye)      :      2.16267

                             ****ORCA TERMINATED NORMALLY****
TOTAL RUN TIME: 0 days 0 hours 15 minutes 34 seconds 544 msec
