                         Program Version 3.0.3 - RELEASE   -
|  1> ! RI-MP2 RIJK def2-TZVP def2-TZVP/C def2-TZVP/JK TIGHTSCF
|  2> % maxcore 2000
|  3> % mp2 density relaxed end
|  4> *xyz 0 1
|  5>  C        0.0839692648    -1.1749140062    -0.0051111400
|  6>  C       -0.0131223531     0.0245736071     0.0029444588
|  7>  C       -0.0832376059     1.4359669280     0.0118303102
|  8>  N       -1.1732265585     2.1798890247     0.0308292683
|  9>  C       -0.7329092070     3.4862478036     0.0321835335
| 10>  C        0.6495081728     3.5222312376     0.0135943511
| 11>  N        1.0484872226     2.2183789561     0.0008330631
| 12>  C       -1.6126816896     4.5956255647     0.0503776679
| 13>  C       -2.3457124392     5.5499243827     0.0657062828
| 14>  H        0.1492259045    -2.2349974127    -0.0119489393
| 15>  H        1.3455563607     4.3437115007     0.0087419784
| 16>  H        1.9960308535     1.8783331661    -0.0139375296
| 17>  H       -3.0012349556     6.3848557376     0.0793106050
| 18> *
| 19>
| 20>                          ****END OF INPUT****

CARTESIAN COORDINATES (ANGSTROEM)
---------------------------------
  C      0.083969   -1.174914   -0.005111
  C     -0.013122    0.024574    0.002944
  C     -0.083238    1.435967    0.011830
  N     -1.173227    2.179889    0.030829
  C     -0.732909    3.486248    0.032184
  C      0.649508    3.522231    0.013594
  N      1.048487    2.218379    0.000833
  C     -1.612682    4.595626    0.050378
  C     -2.345712    5.549924    0.065706
  H      0.149226   -2.234997   -0.011949
  H      1.345556    4.343712    0.008742
  H      1.996031    1.878333   -0.013938
  H     -3.001235    6.384856    0.079311

 Total Charge           Charge          ....    0
 Multiplicity           Mult            ....    1
 Number of Electrons    NEL             ....   60
 Basis Dimension        Dim             ....  303

ORBITAL ENERGIES
----------------

  NO   OCC          E(Eh)            E(eV)
   0   2.0000     -15.642700      -425.6595
   1   2.0000     -15.569401      -423.6649
   2   2.0000     -11.332978      -308.3860
   3   2.0000     -11.288378      -307.1724
   4   2.0000     -11.280685      -306.9630
   5   2.0000     -11.258880      -306.3697
   6   2.0000     -11.254151      -306.2410
   7   2.0000     -11.236502      -305.7608
   8   2.0000     -11.226565      -305.4904
   9   2.0000      -1.365594       -37.1597
  10   2.0000      -1.193437       -32.4751
  11   2.0000      -1.091502       -29.7013
  12   2.0000      -1.043013       -28.3818
  13   2.0000      -0.997227       -27.1359
  14   2.0000      -0.872094       -23.7309
  15   2.0000      -0.863652       -23.5012
  16   2.0000      -0.804780       -21.8992
  17   2.0000      -0.732125       -19.9221
  18   2.0000      -0.714459       -19.4414
  19   2.0000      -0.657773       -17.8989
  20   2.0000      -0.642410       -17.4809
  21   2.0000      -0.631428       -17.1820
  22   2.0000      -0.630488       -17.1565
  23   2.0000      -0.463909       -12.6236
  24   2.0000      -0.462295       -12.5797
  25   2.0000      -0.449563       -12.2332
  26   2.0000      -0.424054       -11.5391
  27   2.0000      -0.396732       -10.7956
  28   2.0000      -0.385233       -10.4827
  29   2.0000      -0.306713        -8.3461
  30   0.0000       0.100363         2.7310
  31   0.0000       0.119368         3.2482
  32   0.0000       0.129588         3.5263
  33   0.0000       0.150771         4.1027
  34   0.0000       0.157649         4.2898

MULLIKEN ATOMIC CHARGES
-----------------------
   0 C :   -0.071894
   1 C :    0.023448
   2 C :    0.022857
   3 N :   -0.267958
   4 C :   -0.108722
   5 C :   -0.073209
   6 N :   -0.271180
   7 C :    0.040394
   8 C :   -0.111352
   9 H :    0.201318
  10 H :    0.164776
  11 H :    0.258509
  12 H :    0.193012
Sum of atomic charges:    0.0000000

LOEWDIN ATOMIC CHARGES
----------------------
   0 C :   -0.057026
   1 C :   -0.075107
   2 C :   -0.304554
   3 N :    0.175790
   4 C :   -0.248487
   5 C :   -0.177278
   6 N :    0.223266
   7 C :   -0.068769
   8 C :   -0.072544
   9 H :    0.131007
  10 H :    0.143093
  11 H :    0.202753
  12 H :    0.127857

  Mayer bond orders larger than 0.1
B(  0-C ,  1-C ) :   2.6455 B(  0-C ,  2-C ) :  -0.1733 B(  0-C ,  9-H ) :   0.8618
B(  1-C ,  2-C ) :   1.2219 B(  2-C ,  3-N ) :   1.5310 B(  2-C ,  6-N ) :   1.1416
B(  3-N ,  4-C ) :   1.2858 B(  4-C ,  5-C ) :   1.4383 B(  4-C ,  7-C ) :   1.2230
B(  4-C ,  8-C ) :  -0.1868 B(  5-C ,  6-N ) :   1.1769 B(  5-C , 10-H ) :   0.8955
B(  6-N , 11-H ) :   0.8617 B(  7-C ,  8-C ) :   2.6194 B(  8-C , 12-H ) :   0.8713

MP2 TOTAL ENERGY:     -377.748035189 Eh
FINAL SINGLE POINT ENERGY      -377.748035189203

DIPOLE MOMENT
-------------
                                X             Y             Z
Electronic contribution:     -0.47554      -0.69943       0.00253
Nuclear contribution   :      2.07753       0.63012      -0.02468
                        -----------------------------------------
Total Dipole Moment    :      1.60199      -0.06931      -0.02216
                        -----------------------------------------
Magnitude (a.u.)       :      1.60364
Magnitude (Debye)      :      4.07612

                             ****ORCA TERMINATED NORMALLY****
TOTAL RUN TIME: 0 days 0 hours 13 minutes 39 seconds 255 msec
