                         Program Version 3.0.3 - RELEASE   -
|  1> ! RI-MP2 RIJK def2-TZVP def2-TZVP/C def2-TZVP/JK TIGHTSCF
|  2> % maxcore 2000
|  3> % mp2 density relaxed end
|  4> *xyz 0 1
|  5>  C       -0.3528573901     1.2409199050     0.0296922542
|  6>  N        0.2366050232    -0.0972798071     0.0394764168
|  7>  C        0.8229383627    -0.5492521826    -1.1906321161
|  8>  C        1.9826983343     0.2305748328    -1.7848347317
|  9>  C        0.7725783676    -2.0534595795    -1.3850383462
| 10>  N        0.2329101217    -2.9703035723    -0.4246233986
| 11>  C       -0.1723194552    -1.1715667552    -2.1922004963
| 12>  C       -1.5771681047    -1.1781814898    -1.9084145908
| 13>  N       -2.7158179909    -1.1789442389    -1.7000453905
| 14>  H        0.3533058821     2.0503095543    -0.2130226683
| 15>  H       -1.1714047517     1.2690724169    -0.6944565150
| 16>  H       -0.7776429661     1.4455718961     1.0162394355
| 17>  H        0.9156410731    -0.1791081681     0.7892915207
| 18>  H        2.8078983204     0.2945540978    -1.0655046598
| 19>  H        2.3666146903    -0.2536851139    -2.6883350661
| 20>  H        1.6915080279     1.2510235945    -2.0554379283
| 21>  H        1.5809372900    -2.4853396196    -1.9687105736
| 22>  H        0.9740044400    -3.3061678983     0.1836115436
| 23>  H       -0.4378593129    -2.4843811943     0.1652745268
| 24>  H        0.0572214884    -1.0444153479    -3.2451207462
| 25> *
| 26>
| 27>                          ****END OF INPUT****

CARTESIAN COORDINATES (ANGSTROEM)
---------------------------------
  C     -0.352857    1.240920    0.029692
  N      0.236605   -0.097280    0.039476
  C      0.822938   -0.549252   -1.190632
  C      1.982698    0.230575   -1.784835
  C      0.772578   -2.053460   -1.385038
  N      0.232910   -2.970304   -0.424623
  C     -0.172319   -1.171567   -2.192200
  C     -1.577168   -1.178181   -1.908415
  N     -2.715818   -1.178944   -1.700045
  H      0.353306    2.050310   -0.213023
  H     -1.171405    1.269072   -0.694457
  H     -0.777643    1.445572    1.016239
  H      0.915641   -0.179108    0.789292
  H      2.807898    0.294554   -1.065505
  H      2.366615   -0.253685   -2.688335
  H      1.691508    1.251024   -2.055438
  H      1.580937   -2.485340   -1.968711
  H      0.974004   -3.306168    0.183612
  H     -0.437859   -2.484381    0.165275
  H      0.057221   -1.044415   -3.245121

 Total Charge           Charge          ....    0
 Multiplicity           Mult            ....    1
 Number of Electrons    NEL             ....   68
 Basis Dimension        Dim             ....  345

ORBITAL ENERGIES
----------------

  NO   OCC          E(Eh)            E(eV)
   0   2.0000     -15.563251      -423.4976
   1   2.0000     -15.556442      -423.3123
   2   2.0000     -15.553959      -423.2447
   3   2.0000     -11.290674      -307.2349
   4   2.0000     -11.286911      -307.1325
   5   2.0000     -11.272685      -306.7454
   6   2.0000     -11.264886      -306.5331
   7   2.0000     -11.252501      -306.1961
   8   2.0000     -11.239653      -305.8465
   9   2.0000      -1.263172       -34.3727
  10   2.0000      -1.203843       -32.7582
  11   2.0000      -1.191211       -32.4145
  12   2.0000      -1.108139       -30.1540
  13   2.0000      -0.990521       -26.9535
  14   2.0000      -0.925318       -25.1792
  15   2.0000      -0.881211       -23.9790
  16   2.0000      -0.789740       -21.4899
  17   2.0000      -0.715906       -19.4808
  18   2.0000      -0.699406       -19.0318
  19   2.0000      -0.656852       -17.8738
  20   2.0000      -0.637755       -17.3542
  21   2.0000      -0.601668       -16.3722
  22   2.0000      -0.593763       -16.1571
  23   2.0000      -0.581490       -15.8231
  24   2.0000      -0.570163       -15.5149
  25   2.0000      -0.557165       -15.1612
  26   2.0000      -0.541686       -14.7400
  27   2.0000      -0.529467       -14.4075
  28   2.0000      -0.517947       -14.0940
  29   2.0000      -0.497050       -13.5254
  30   2.0000      -0.454892       -12.3782
  31   2.0000      -0.412411       -11.2223
  32   2.0000      -0.386400       -10.5145
  33   2.0000      -0.370530       -10.0826
  34   0.0000       0.113001         3.0749
  35   0.0000       0.142751         3.8845
  36   0.0000       0.147779         4.0213
  37   0.0000       0.167367         4.5543
  38   0.0000       0.176435         4.8011

MULLIKEN ATOMIC CHARGES
-----------------------
   0 C :   -0.295048
   1 N :   -0.376788
   2 C :    0.147192
   3 C :   -0.406835
   4 C :   -0.048463
   5 N :   -0.513975
   6 C :   -0.020516
   7 C :   -0.229988
   8 N :   -0.053269
   9 H :    0.115796
  10 H :    0.153480
  11 H :    0.140987
  12 H :    0.203590
  13 H :    0.130377
  14 H :    0.130297
  15 H :    0.146674
  16 H :    0.132095
  17 H :    0.227404
  18 H :    0.258551
  19 H :    0.158439
Sum of atomic charges:   -0.0000000

LOEWDIN ATOMIC CHARGES
----------------------
   0 C :   -0.333525
   1 N :    0.010439
   2 C :   -0.304493
   3 C :   -0.271153
   4 C :   -0.242794
   5 N :   -0.123441
   6 C :   -0.164698
   7 C :   -0.181959
   8 N :    0.058553
   9 H :    0.100789
  10 H :    0.124822
  11 H :    0.118808
  12 H :    0.173768
  13 H :    0.127845
  14 H :    0.131023
  15 H :    0.128612
  16 H :    0.149492
  17 H :    0.160304
  18 H :    0.166704
  19 H :    0.170904

  Mayer bond orders larger than 0.1
B(  0-C ,  1-N ) :   0.9056 B(  0-C ,  9-H ) :   0.9310 B(  0-C , 10-H ) :   0.9344
B(  0-C , 11-H ) :   0.9367 B(  1-N ,  2-C ) :   1.0082 B(  1-N , 12-H ) :   0.8792
B(  2-C ,  3-C ) :   0.9106 B(  2-C ,  4-C ) :   0.8657 B(  2-C ,  6-C ) :   0.8056
B(  3-C , 13-H ) :   0.9339 B(  3-C , 14-H ) :   0.9228 B(  3-C , 15-H ) :   0.9395
B(  4-C ,  5-N ) :   1.0496 B(  4-C ,  6-C ) :   0.8146 B(  4-C , 16-H ) :   0.9351
B(  5-N , 17-H ) :   0.8835 B(  5-N , 18-H ) :   0.8672 B(  6-C ,  7-C ) :   0.9840
B(  6-C , 19-H ) :   0.9041 B(  7-C ,  8-N ) :   2.8530

MP2 TOTAL ENERGY:     -398.627464112 Eh
FINAL SINGLE POINT ENERGY      -398.627464112245

DIPOLE MOMENT
-------------
                                X             Y             Z
Electronic contribution:     -6.14526      -4.73632      -2.06306
Nuclear contribution   :      8.26949       5.39764       2.40477
                        -----------------------------------------
Total Dipole Moment    :      2.12423       0.66132       0.34171
                        -----------------------------------------
Magnitude (a.u.)       :      2.25088
Magnitude (Debye)      :      5.72128

                             ****ORCA TERMINATED NORMALLY****
TOTAL RUN TIME: 0 days 0 hours 20 minutes 36 seconds 513 msec
