                         Program Version 3.0.3 - RELEASE   -
|  1> ! RI-MP2 RIJK def2-TZVP def2-TZVP/C def2-TZVP/JK TIGHTSCF
|  2> % maxcore 2000
|  3> % mp2 density relaxed end
|  4> *xyz 0 1
|  5>  O        0.0052786612     0.0313757075     0.2998853339
|  6>  C       -0.0436608571     1.2038907614     0.0268545147
|  7>  C       -1.3264954550     1.9707761115    -0.3429908929
|  8>  C       -0.9073218658     3.3665418980    -0.8645613379
|  9>  C        0.5989795939     3.5346104864    -0.5334357459
| 10>  C        1.0348805687     4.1921018822     0.7936967375
| 11>  C        0.4121393047     3.5290157301     1.9895519477
| 12>  C        1.5632809857     2.8477664173     1.3038271993
| 13>  C        1.1357541418     2.1688043938    -0.0204829812
| 14>  H       -1.8975973121     1.3852923350    -1.0694109812
| 15>  H       -1.9512447876     2.0240840648     0.5567117842
| 16>  H       -1.0561344681     3.4196556221    -1.9471832960
| 17>  H       -1.5070521249     4.1683915999    -0.4246142980
| 18>  H        1.1616376818     3.9367382622    -1.3773371044
| 19>  H        1.4932958836     5.1709371907     0.8682409887
| 20>  H        0.6704344601     3.9852050949     2.9402128566
| 21>  H       -0.5964565268     3.1278245928     1.9695459869
| 22>  H        2.4831147194     2.6207804385     1.8273764028
| 23>  H        1.9753604464     1.7362852510    -0.5668483748
| 24> *
| 25>
| 26>                          ****END OF INPUT****

CARTESIAN COORDINATES (ANGSTROEM)
---------------------------------
  O      0.005279    0.031376    0.299885
  C     -0.043661    1.203891    0.026855
  C     -1.326495    1.970776   -0.342991
  C     -0.907322    3.366542   -0.864561
  C      0.598980    3.534610   -0.533436
  C      1.034881    4.192102    0.793697
  C      0.412139    3.529016    1.989552
  C      1.563281    2.847766    1.303827
  C      1.135754    2.168804   -0.020483
  H     -1.897597    1.385292   -1.069411
  H     -1.951245    2.024084    0.556712
  H     -1.056134    3.419656   -1.947183
  H     -1.507052    4.168392   -0.424614
  H      1.161638    3.936738   -1.377337
  H      1.493296    5.170937    0.868241
  H      0.670434    3.985205    2.940213
  H     -0.596457    3.127825    1.969546
  H      2.483115    2.620780    1.827376
  H      1.975360    1.736285   -0.566848

 Total Charge           Charge          ....    0
 Multiplicity           Mult            ....    1
 Number of Electrons    NEL             ....   66
 Basis Dimension        Dim             ....  339

ORBITAL ENERGIES
----------------

  NO   OCC          E(Eh)            E(eV)
   0   2.0000     -20.539715      -558.9141
   1   2.0000     -11.322237      -308.0937
   2   2.0000     -11.247071      -306.0484
   3   2.0000     -11.242379      -305.9207
   4   2.0000     -11.241762      -305.9039
   5   2.0000     -11.239499      -305.8423
   6   2.0000     -11.238135      -305.8052
   7   2.0000     -11.234501      -305.7063
   8   2.0000     -11.232925      -305.6634
   9   2.0000      -1.383073       -37.6353
  10   2.0000      -1.206825       -32.8394
  11   2.0000      -1.082833       -29.4654
  12   2.0000      -0.982383       -26.7320
  13   2.0000      -0.949479       -25.8366
  14   2.0000      -0.846645       -23.0384
  15   2.0000      -0.819857       -22.3095
  16   2.0000      -0.747766       -20.3477
  17   2.0000      -0.710387       -19.3306
  18   2.0000      -0.708413       -19.2769
  19   2.0000      -0.655981       -17.8501
  20   2.0000      -0.642460       -17.4822
  21   2.0000      -0.598530       -16.2868
  22   2.0000      -0.589084       -16.0298
  23   2.0000      -0.567432       -15.4406
  24   2.0000      -0.556197       -15.1349
  25   2.0000      -0.537166       -14.6170
  26   2.0000      -0.513058       -13.9610
  27   2.0000      -0.480940       -13.0870
  28   2.0000      -0.471124       -12.8199
  29   2.0000      -0.457943       -12.4613
  30   2.0000      -0.425250       -11.5716
  31   2.0000      -0.413132       -11.2419
  32   2.0000      -0.363938        -9.9033
  33   0.0000       0.122929         3.3451
  34   0.0000       0.135373         3.6837
  35   0.0000       0.155688         4.2365
  36   0.0000       0.162654         4.4260
  37   0.0000       0.170749         4.6463

MULLIKEN ATOMIC CHARGES
-----------------------
   0 O :   -0.265662
   1 C :    0.097187
   2 C :   -0.250555
   3 C :   -0.263311
   4 C :   -0.042340
   5 C :   -0.158131
   6 C :   -0.263847
   7 C :   -0.155997
   8 C :   -0.010766
   9 H :    0.141304
  10 H :    0.137146
  11 H :    0.126666
  12 H :    0.128739
  13 H :    0.116130
  14 H :    0.131445
  15 H :    0.133568
  16 H :    0.131927
  17 H :    0.137364
  18 H :    0.129133
Sum of atomic charges:   -0.0000000

LOEWDIN ATOMIC CHARGES
----------------------
   0 O :    0.153396
   1 C :   -0.293884
   2 C :   -0.228661
   3 C :   -0.230029
   4 C :   -0.171197
   5 C :   -0.160579
   6 C :   -0.201501
   7 C :   -0.147293
   8 C :   -0.148222
   9 H :    0.147527
  10 H :    0.148599
  11 H :    0.137835
  12 H :    0.139139
  13 H :    0.148865
  14 H :    0.134698
  15 H :    0.142952
  16 H :    0.132006
  17 H :    0.137292
  18 H :    0.159058

  Mayer bond orders larger than 0.1
B(  0-O ,  1-C ) :   2.0645 B(  1-C ,  2-C ) :   0.9135 B(  1-C ,  8-C ) :   0.8564
B(  2-C ,  3-C ) :   0.9232 B(  2-C ,  8-C ) :  -0.1194 B(  2-C ,  9-H ) :   0.9127
B(  2-C , 10-H ) :   0.9138 B(  3-C ,  4-C ) :   0.8810 B(  3-C , 11-H ) :   0.9272
B(  3-C , 12-H ) :   0.9238 B(  4-C ,  5-C ) :   0.9210 B(  4-C ,  8-C ) :   0.9541
B(  4-C , 13-H ) :   0.9214 B(  5-C ,  6-C ) :   0.8918 B(  5-C ,  7-C ) :   0.8268
B(  5-C , 14-H ) :   0.9233 B(  6-C ,  7-C ) :   0.8852 B(  6-C , 15-H ) :   0.9319
B(  6-C , 16-H ) :   0.9162 B(  7-C ,  8-C ) :   0.8925 B(  7-C , 17-H ) :   0.9270
B(  8-C , 18-H ) :   0.9126

MP2 TOTAL ENERGY:     -385.203828946 Eh
FINAL SINGLE POINT ENERGY      -385.203828945580

DIPOLE MOMENT
-------------
                                X             Y             Z
Electronic contribution:      1.68249      -4.89310      -0.07039
Nuclear contribution   :     -1.61872       6.06101      -0.14813
                        -----------------------------------------
Total Dipole Moment    :      0.06377       1.16791      -0.21851
                        -----------------------------------------
Magnitude (a.u.)       :      1.18989
Magnitude (Debye)      :      3.02445

                             ****ORCA TERMINATED NORMALLY****
TOTAL RUN TIME: 0 days 0 hours 19 minutes 56 seconds 362 msec
