                         Program Version 3.0.3 - RELEASE   -
|  1> ! RI-MP2 RIJK def2-TZVP def2-TZVP/C def2-TZVP/JK TIGHTSCF
|  2> % maxcore 2000
|  3> % mp2 density relaxed end
|  4> *xyz 0 1
|  5>  C       -0.2148429281     1.3258791313     0.1426887830
|  6>  C       -0.0789521010    -0.1212155495     0.0645318668
|  7>  C        0.0359938714    -1.3180921980    -0.0038082703
|  8>  C        0.1744715451    -2.7896339918    -0.0838833082
|  9>  C        1.0326341312    -3.2270206521    -1.2589861480
| 10>  O        0.7311591867    -3.3030876887     1.1166848812
| 11>  C       -0.3442544424    -3.4252728615     2.0392633160
| 12>  C       -1.6088677416    -3.4953767528     1.1418556942
| 13>  O       -1.1009241018    -3.4047376771    -0.1834247508
| 14>  H        0.3371610580     1.8189256413    -0.6648862352
| 15>  H       -1.2639182369     1.6309124581     0.0623997508
| 16>  H        0.1724570810     1.7101859841     1.0926133511
| 17>  H        2.0335866714    -2.8012490865    -1.1651923954
| 18>  H        1.0960465056    -4.3170450752    -1.2631259074
| 19>  H        0.5851763132    -2.8816060176    -2.1930390974
| 20>  H       -0.1800090116    -4.3307827227     2.6290581964
| 21>  H       -0.3823986027    -2.5617818946     2.7149705757
| 22>  H       -2.1516407003    -4.4400506847     1.2300010976
| 23>  H       -2.2964004572    -2.6678456121     1.3566664401
| 24> *
| 25>
| 26>                          ****END OF INPUT****

CARTESIAN COORDINATES (ANGSTROEM)
---------------------------------
  C     -0.214843    1.325879    0.142689
  C     -0.078952   -0.121216    0.064532
  C      0.035994   -1.318092   -0.003808
  C      0.174472   -2.789634   -0.083883
  C      1.032634   -3.227021   -1.258986
  O      0.731159   -3.303088    1.116685
  C     -0.344254   -3.425273    2.039263
  C     -1.608868   -3.495377    1.141856
  O     -1.100924   -3.404738   -0.183425
  H      0.337161    1.818926   -0.664886
  H     -1.263918    1.630912    0.062400
  H      0.172457    1.710186    1.092613
  H      2.033587   -2.801249   -1.165192
  H      1.096047   -4.317045   -1.263126
  H      0.585176   -2.881606   -2.193039
  H     -0.180009   -4.330783    2.629058
  H     -0.382399   -2.561782    2.714971
  H     -2.151641   -4.440051    1.230001
  H     -2.296400   -2.667846    1.356666

 Total Charge           Charge          ....    0
 Multiplicity           Mult            ....    1
 Number of Electrons    NEL             ....   68
 Basis Dimension        Dim             ....  339

ORBITAL ENERGIES
----------------

  NO   OCC          E(Eh)            E(eV)
   0   2.0000     -20.564318      -559.5835
   1   2.0000     -20.564293      -559.5829
   2   2.0000     -11.359832      -309.1168
   3   2.0000     -11.281428      -306.9833
   4   2.0000     -11.280860      -306.9678
   5   2.0000     -11.250743      -306.1483
   6   2.0000     -11.232506      -305.6520
   7   2.0000     -11.217383      -305.2405
   8   2.0000     -11.216762      -305.2236
   9   2.0000      -1.442998       -39.2660
  10   2.0000      -1.333143       -36.2767
  11   2.0000      -1.079241       -29.3676
  12   2.0000      -1.045947       -28.4617
  13   2.0000      -0.967884       -26.3375
  14   2.0000      -0.950101       -25.8536
  15   2.0000      -0.853204       -23.2169
  16   2.0000      -0.843562       -22.9545
  17   2.0000      -0.727565       -19.7981
  18   2.0000      -0.685133       -18.6434
  19   2.0000      -0.656306       -17.8590
  20   2.0000      -0.643966       -17.5232
  21   2.0000      -0.628969       -17.1151
  22   2.0000      -0.591882       -16.1059
  23   2.0000      -0.591035       -16.0829
  24   2.0000      -0.588462       -16.0129
  25   2.0000      -0.551877       -15.0173
  26   2.0000      -0.536080       -14.5875
  27   2.0000      -0.534719       -14.5505
  28   2.0000      -0.512766       -13.9531
  29   2.0000      -0.491343       -13.3701
  30   2.0000      -0.446720       -12.1559
  31   2.0000      -0.446401       -12.1472
  32   2.0000      -0.379002       -10.3132
  33   2.0000      -0.377167       -10.2632
  34   0.0000       0.130688         3.5562
  35   0.0000       0.158683         4.3180
  36   0.0000       0.165309         4.4983
  37   0.0000       0.177942         4.8420
  38   0.0000       0.181444         4.9373

MULLIKEN ATOMIC CHARGES
-----------------------
   0 C :   -0.487040
   1 C :    0.000734
   2 C :   -0.076124
   3 C :    0.360692
   4 C :   -0.371489
   5 O :   -0.311807
   6 C :   -0.081668
   7 C :   -0.081687
   8 O :   -0.311802
   9 H :    0.165268
  10 H :    0.164575
  11 H :    0.164546
  12 H :    0.137745
  13 H :    0.136068
  14 H :    0.137745
  15 H :    0.121839
  16 H :    0.105278
  17 H :    0.121844
  18 H :    0.105284
Sum of atomic charges:    0.0000000

LOEWDIN ATOMIC CHARGES
----------------------
   0 C :   -0.292663
   1 C :   -0.089444
   2 C :   -0.034854
   3 C :   -0.461157
   4 C :   -0.245063
   5 O :    0.202340
   6 C :   -0.300602
   7 C :   -0.300605
   8 O :    0.202344
   9 H :    0.142691
  10 H :    0.142114
  11 H :    0.142106
  12 H :    0.134883
  13 H :    0.132098
  14 H :    0.134883
  15 H :    0.124790
  16 H :    0.120674
  17 H :    0.124791
  18 H :    0.120674

  Mayer bond orders larger than 0.1
B(  0-C ,  1-C ) :   0.8603 B(  0-C ,  9-H ) :   0.9507 B(  0-C , 10-H ) :   0.9451
B(  0-C , 11-H ) :   0.9451 B(  1-C ,  2-C ) :   2.7211 B(  2-C ,  3-C ) :   1.1208
B(  3-C ,  4-C ) :   0.8940 B(  3-C ,  5-O ) :   0.9450 B(  3-C ,  8-O ) :   0.9450
B(  4-C , 12-H ) :   0.9355 B(  4-C , 13-H ) :   0.9404 B(  4-C , 14-H ) :   0.9355
B(  5-O ,  6-C ) :   0.9367 B(  6-C ,  7-C ) :   0.9451 B(  6-C , 15-H ) :   0.9274
B(  6-C , 16-H ) :   0.9299 B(  7-C ,  8-O ) :   0.9367 B(  7-C , 17-H ) :   0.9274
B(  7-C , 18-H ) :   0.9299

MP2 TOTAL ENERGY:     -422.291309127 Eh
FINAL SINGLE POINT ENERGY      -422.291309127411

DIPOLE MOMENT
-------------
                                X             Y             Z
Electronic contribution:      0.12547      -2.84262       0.04587
Nuclear contribution   :     -0.43373       3.34206       0.34936
                        -----------------------------------------
Total Dipole Moment    :     -0.30826       0.49943       0.39523
                        -----------------------------------------
Magnitude (a.u.)       :      0.70758
Magnitude (Debye)      :      1.79852

                             ****ORCA TERMINATED NORMALLY****
TOTAL RUN TIME: 0 days 0 hours 16 minutes 15 seconds 443 msec
