                         Program Version 3.0.3 - RELEASE   -
|  1> ! RI-MP2 RIJK def2-TZVP def2-TZVP/C def2-TZVP/JK TIGHTSCF
|  2> % maxcore 2000
|  3> % mp2 density relaxed end
|  4> *xyz 0 1
|  5>  C       -0.0176353661     1.5030968544     0.0697699522
|  6>  C        1.3944055857     2.1190546146    -0.0613262462
|  7>  C        2.1849595945     1.3748279108    -1.0931176254
|  8>  N        3.1861312390     1.8529744672    -1.8164663101
|  9>  N        3.6114807465     0.7833987847    -2.5314534818
| 10>  C        2.9079377303    -0.3498228527    -2.2769019491
| 11>  C        1.9566119458    -0.0062781956    -1.3365843462
| 12>  C        0.8915894482    -0.7140128574    -0.6495127591
| 13>  C       -0.0226451377    -0.0118446775     0.0353326633
| 14>  H       -0.4896027722     1.8625932135     0.9899464434
| 15>  H       -0.6513076838     1.8690195386    -0.7533420949
| 16>  H        1.3359232733     3.1848460891    -0.2983182498
| 17>  H        1.9113681949     2.0382699905     0.9055455958
| 18>  H        4.3686081216     0.9045810026    -3.1812752054
| 19>  H        3.1272150162    -1.2783281730    -2.7805418527
| 20>  H        0.8425545360    -1.7974791006    -0.7019102574
| 21>  H       -0.8362594922    -0.5228936191     0.5413021735
| 22> *
| 23>
| 24>                          ****END OF INPUT****

CARTESIAN COORDINATES (ANGSTROEM)
---------------------------------
  C     -0.017635    1.503097    0.069770
  C      1.394406    2.119055   -0.061326
  C      2.184960    1.374828   -1.093118
  N      3.186131    1.852974   -1.816466
  N      3.611481    0.783399   -2.531453
  C      2.907938   -0.349823   -2.276902
  C      1.956612   -0.006278   -1.336584
  C      0.891589   -0.714013   -0.649513
  C     -0.022645   -0.011845    0.035333
  H     -0.489603    1.862593    0.989946
  H     -0.651308    1.869020   -0.753342
  H      1.335923    3.184846   -0.298318
  H      1.911368    2.038270    0.905546
  H      4.368608    0.904581   -3.181275
  H      3.127215   -1.278328   -2.780542
  H      0.842555   -1.797479   -0.701910
  H     -0.836259   -0.522894    0.541302

 Total Charge           Charge          ....    0
 Multiplicity           Mult            ....    1
 Number of Electrons    NEL             ....   64
 Basis Dimension        Dim             ....  327

ORBITAL ENERGIES
----------------

  NO   OCC          E(Eh)            E(eV)
   0   2.0000     -15.629598      -425.3030
   1   2.0000     -15.578856      -423.9222
   2   2.0000     -11.275190      -306.8135
   3   2.0000     -11.249071      -306.1028
   4   2.0000     -11.230908      -305.6085
   5   2.0000     -11.229416      -305.5679
   6   2.0000     -11.227757      -305.5228
   7   2.0000     -11.226421      -305.4864
   8   2.0000     -11.218321      -305.2660
   9   2.0000      -1.365258       -37.1506
  10   2.0000      -1.130580       -30.7646
  11   2.0000      -1.090159       -29.6647
  12   2.0000      -1.030522       -28.0419
  13   2.0000      -0.994494       -27.0616
  14   2.0000      -0.885930       -24.1074
  15   2.0000      -0.814187       -22.1552
  16   2.0000      -0.781324       -21.2609
  17   2.0000      -0.730968       -19.8907
  18   2.0000      -0.692826       -18.8527
  19   2.0000      -0.656144       -17.8546
  20   2.0000      -0.625718       -17.0267
  21   2.0000      -0.593957       -16.1624
  22   2.0000      -0.586082       -15.9481
  23   2.0000      -0.574675       -15.6377
  24   2.0000      -0.552316       -15.0293
  25   2.0000      -0.514438       -13.9986
  26   2.0000      -0.496830       -13.5194
  27   2.0000      -0.478257       -13.0140
  28   2.0000      -0.440430       -11.9847
  29   2.0000      -0.418424       -11.3859
  30   2.0000      -0.348535        -9.4841
  31   2.0000      -0.293583        -7.9888
  32   0.0000       0.128156         3.4873
  33   0.0000       0.139206         3.7880
  34   0.0000       0.147601         4.0164
  35   0.0000       0.159025         4.3273
  36   0.0000       0.168575         4.5871

MULLIKEN ATOMIC CHARGES
-----------------------
   0 C :   -0.199428
   1 C :   -0.228134
   2 C :    0.016980
   3 N :   -0.198966
   4 N :   -0.097979
   5 C :   -0.113202
   6 C :    0.051221
   7 C :   -0.261592
   8 C :   -0.118663
   9 H :    0.127274
  10 H :    0.119675
  11 H :    0.137566
  12 H :    0.119579
  13 H :    0.254175
  14 H :    0.149373
  15 H :    0.118281
  16 H :    0.123840
Sum of atomic charges:    0.0000000

LOEWDIN ATOMIC CHARGES
----------------------
   0 C :   -0.239315
   1 C :   -0.212998
   2 C :   -0.245028
   3 N :    0.047177
   4 N :    0.129084
   5 C :   -0.210738
   6 C :   -0.167929
   7 C :   -0.139096
   8 C :   -0.155586
   9 H :    0.140913
  10 H :    0.148324
  11 H :    0.146654
  12 H :    0.149018
  13 H :    0.185932
  14 H :    0.137429
  15 H :    0.146173
  16 H :    0.139984

  Mayer bond orders larger than 0.1
B(  0-C ,  1-C ) :   0.9386 B(  0-C ,  8-C ) :   0.9285 B(  0-C ,  9-H ) :   0.9350
B(  0-C , 10-H ) :   0.9064 B(  1-C ,  2-C ) :   0.9270 B(  1-C , 11-H ) :   0.9344
B(  1-C , 12-H ) :   0.9179 B(  2-C ,  3-N ) :   1.6223 B(  2-C ,  6-C ) :   1.2312
B(  3-N ,  4-N ) :   1.0597 B(  3-N ,  5-C ) :   0.1103 B(  4-N ,  5-C ) :   1.2118
B(  4-N , 13-H ) :   0.8747 B(  5-C ,  6-C ) :   1.3744 B(  5-C , 14-H ) :   0.9005
B(  6-C ,  7-C ) :   0.9863 B(  7-C ,  8-C ) :   1.7617 B(  7-C , 15-H ) :   0.9326
B(  8-C , 16-H ) :   0.9287

MP2 TOTAL ENERGY:     -380.230708961 Eh
FINAL SINGLE POINT ENERGY      -380.230708960655

DIPOLE MOMENT
-------------
                                X             Y             Z
Electronic contribution:      4.59176      -0.81262      -3.49133
Nuclear contribution   :     -4.49427       0.24166       3.15789
                        -----------------------------------------
Total Dipole Moment    :      0.09749      -0.57097      -0.33345
                        -----------------------------------------
Magnitude (a.u.)       :      0.66835
Magnitude (Debye)      :      1.69882

                             ****ORCA TERMINATED NORMALLY****
TOTAL RUN TIME: 0 days 0 hours 17 minutes 26 seconds 486 msec
