                         Program Version 3.0.3 - RELEASE   -
|  1> ! RI-MP2 RIJK def2-TZVP def2-TZVP/C def2-TZVP/JK TIGHTSCF
|  2> % maxcore 2000
|  3> % mp2 density relaxed end
|  4> *xyz 0 1
|  5>  C        0.2198207379     1.5420301739    -0.2868887176
|  6>  C        0.0221958361     0.0582167261    -0.0403832961
|  7>  C        0.8687812403    -0.9886819949    -0.7782843768
|  8>  C        2.1245217711    -0.6602937850    -1.1438092616
|  9>  C        3.1077675142    -1.1099512735    -0.0639340475
| 10>  C        2.1017258573    -1.3811154018     1.0701458359
| 11>  C        0.8708442508    -1.9341480486     0.4390809522
| 12>  C        0.6619783040    -0.6828081785     1.2109918262
| 13>  O        0.0835068717    -0.6246479039     2.4694952169
| 14>  H        1.2798361530     1.8135973859    -0.2627394718
| 15>  H       -0.1828582648     1.8397592773    -1.2610105583
| 16>  H       -0.3059937870     2.1272267550     0.4757587517
| 17>  H       -1.0477191775    -0.1831304675     0.0108014050
| 18>  H        2.3538447154     0.2003095371    -1.7650158943
| 19>  H        3.7166580356    -2.0035180154    -0.2681271992
| 20>  H        3.8092074370    -0.2890898001     0.1335170392
| 21>  H        2.4371596398    -1.7727347775     2.0286002044
| 22>  H        0.4088423492    -2.9087867495     0.5280271826
| 23>  H        0.4205834559     0.1576327107     2.9194562694
| 24> *
| 25>
| 26>                          ****END OF INPUT****

CARTESIAN COORDINATES (ANGSTROEM)
---------------------------------
  C      0.219821    1.542030   -0.286889
  C      0.022196    0.058217   -0.040383
  C      0.868781   -0.988682   -0.778284
  C      2.124522   -0.660294   -1.143809
  C      3.107768   -1.109951   -0.063934
  C      2.101726   -1.381115    1.070146
  C      0.870844   -1.934148    0.439081
  C      0.661978   -0.682808    1.210992
  O      0.083507   -0.624648    2.469495
  H      1.279836    1.813597   -0.262739
  H     -0.182858    1.839759   -1.261011
  H     -0.305994    2.127227    0.475759
  H     -1.047719   -0.183130    0.010801
  H      2.353845    0.200310   -1.765016
  H      3.716658   -2.003518   -0.268127
  H      3.809207   -0.289090    0.133517
  H      2.437160   -1.772735    2.028600
  H      0.408842   -2.908787    0.528027
  H      0.420583    0.157633    2.919456

 Total Charge           Charge          ....    0
 Multiplicity           Mult            ....    1
 Number of Electrons    NEL             ....   66
 Basis Dimension        Dim             ....  339

ORBITAL ENERGIES
----------------

  NO   OCC          E(Eh)            E(eV)
   0   2.0000     -20.569572      -559.7265
   1   2.0000     -11.297775      -307.4281
   2   2.0000     -11.256055      -306.2928
   3   2.0000     -11.245020      -305.9926
   4   2.0000     -11.238812      -305.8236
   5   2.0000     -11.232574      -305.6539
   6   2.0000     -11.230953      -305.6098
   7   2.0000     -11.220965      -305.3380
   8   2.0000     -11.219071      -305.2864
   9   2.0000      -1.380374       -37.5619
  10   2.0000      -1.215752       -33.0823
  11   2.0000      -1.042683       -28.3728
  12   2.0000      -1.022577       -27.8257
  13   2.0000      -0.950056       -25.8523
  14   2.0000      -0.854855       -23.2618
  15   2.0000      -0.794863       -21.6293
  16   2.0000      -0.772575       -21.0228
  17   2.0000      -0.708118       -19.2689
  18   2.0000      -0.685846       -18.6628
  19   2.0000      -0.645385       -17.5618
  20   2.0000      -0.624957       -17.0059
  21   2.0000      -0.596035       -16.2189
  22   2.0000      -0.584352       -15.9010
  23   2.0000      -0.575207       -15.6522
  24   2.0000      -0.558409       -15.1951
  25   2.0000      -0.528487       -14.3809
  26   2.0000      -0.501312       -13.6414
  27   2.0000      -0.498899       -13.5757
  28   2.0000      -0.476659       -12.9705
  29   2.0000      -0.448269       -12.1980
  30   2.0000      -0.392996       -10.6940
  31   2.0000      -0.382837       -10.4175
  32   2.0000      -0.310249        -8.4423
  33   0.0000       0.100461         2.7337
  34   0.0000       0.128858         3.5064
  35   0.0000       0.157261         4.2793
  36   0.0000       0.163862         4.4589
  37   0.0000       0.172074         4.6824

MULLIKEN ATOMIC CHARGES
-----------------------
   0 C :   -0.426592
   1 C :   -0.021660
   2 C :    0.064767
   3 C :   -0.256558
   4 C :   -0.123949
   5 C :   -0.250341
   6 C :   -0.111243
   7 C :    0.110846
   8 O :   -0.452105
   9 H :    0.129813
  10 H :    0.143113
  11 H :    0.131313
  12 H :    0.102461
  13 H :    0.128999
  14 H :    0.118551
  15 H :    0.111213
  16 H :    0.116471
  17 H :    0.154825
  18 H :    0.330076
Sum of atomic charges:    0.0000000

LOEWDIN ATOMIC CHARGES
----------------------
   0 C :   -0.295606
   1 C :   -0.176472
   2 C :   -0.107485
   3 C :   -0.113419
   4 C :   -0.224760
   5 C :   -0.150919
   6 C :   -0.121851
   7 C :   -0.266501
   8 O :    0.031054
   9 H :    0.124779
  10 H :    0.129520
  11 H :    0.126113
  12 H :    0.158154
  13 H :    0.135326
  14 H :    0.138265
  15 H :    0.138216
  16 H :    0.146489
  17 H :    0.142733
  18 H :    0.186365

  Mayer bond orders larger than 0.1
B(  0-C ,  1-C ) :   0.8860 B(  0-C ,  9-H ) :   0.9381 B(  0-C , 10-H ) :   0.9332
B(  0-C , 11-H ) :   0.9344 B(  1-C ,  2-C ) :   0.9296 B(  1-C ,  7-C ) :   0.8957
B(  1-C , 12-H ) :   0.9039 B(  2-C ,  3-C ) :   1.6539 B(  2-C ,  6-C ) :   0.8847
B(  3-C ,  4-C ) :   0.9460 B(  3-C , 13-H ) :   0.9413 B(  4-C ,  5-C ) :   0.9262
B(  4-C , 14-H ) :   0.8901 B(  4-C , 15-H ) :   0.9170 B(  5-C ,  6-C ) :   0.8814
B(  5-C ,  7-C ) :   0.8644 B(  5-C , 16-H ) :   0.9291 B(  6-C ,  7-C ) :   0.8376
B(  6-C , 17-H ) :   0.8788 B(  7-C ,  8-O ) :   1.0205 B(  8-O , 18-H ) :   0.8373

MP2 TOTAL ENERGY:     -385.110627890 Eh
FINAL SINGLE POINT ENERGY      -385.110627890002

DIPOLE MOMENT
-------------
                                X             Y             Z
Electronic contribution:     -1.39807      -4.04063       1.45948
Nuclear contribution   :      1.77414       4.64665      -1.19289
                        -----------------------------------------
Total Dipole Moment    :      0.37606       0.60602       0.26659
                        -----------------------------------------
Magnitude (a.u.)       :      0.76141
Magnitude (Debye)      :      1.93536

                             ****ORCA TERMINATED NORMALLY****
TOTAL RUN TIME: 0 days 0 hours 21 minutes 18 seconds 808 msec
