                         Program Version 3.0.3 - RELEASE   -
|  1> ! RI-MP2 RIJK def2-TZVP def2-TZVP/C def2-TZVP/JK TIGHTSCF
|  2> % maxcore 2000
|  3> % mp2 density relaxed end
|  4> *xyz 0 1
|  5>  C        0.0547067550     1.4725249568    -0.3054478744
|  6>  C        0.0161891114    -0.0077678947     0.0213454898
|  7>  C        1.2736551973    -0.8348955929    -0.0977318844
|  8>  C        0.7088480011    -0.5046537368     1.2628088324
|  9>  N       -1.1979386521    -0.6868613708    -0.3496167990
| 10>  C       -2.3782483113    -0.4849192295     0.3290879404
| 11>  N       -3.4772518719    -1.1311281450    -0.2320862013
| 12>  O       -2.4550369708     0.1484189669     1.3654549707
| 13>  H        1.0055236695     1.9171871543     0.0034138816
| 14>  H       -0.0642226795     1.6423861001    -1.3819832770
| 15>  H       -0.7531467824     1.9890906051     0.2203751307
| 16>  H        1.1765167783    -1.8569145227    -0.4481790331
| 17>  H        2.1768631695    -0.3311576526    -0.4243731971
| 18>  H        1.2248984691     0.2262547640     1.8748980959
| 19>  H        0.2218432436    -1.2964730627     1.8173163598
| 20>  H       -1.2199226806    -1.1432807638    -1.2474590230
| 21>  H       -3.4975876165    -1.2684263673    -1.2312799411
| 22>  H       -4.3489818696    -0.8009592183     0.1529180691
| 23> *
| 24>
| 25>                          ****END OF INPUT****

CARTESIAN COORDINATES (ANGSTROEM)
---------------------------------
  C      0.054707    1.472525   -0.305448
  C      0.016189   -0.007768    0.021345
  C      1.273655   -0.834896   -0.097732
  C      0.708848   -0.504654    1.262809
  N     -1.197939   -0.686861   -0.349617
  C     -2.378248   -0.484919    0.329088
  N     -3.477252   -1.131128   -0.232086
  O     -2.455037    0.148419    1.365455
  H      1.005524    1.917187    0.003414
  H     -0.064223    1.642386   -1.381983
  H     -0.753147    1.989091    0.220375
  H      1.176517   -1.856915   -0.448179
  H      2.176863   -0.331158   -0.424373
  H      1.224898    0.226255    1.874898
  H      0.221843   -1.296473    1.817316
  H     -1.219923   -1.143281   -1.247459
  H     -3.497588   -1.268426   -1.231280
  H     -4.348982   -0.800959    0.152918

 Total Charge           Charge          ....    0
 Multiplicity           Mult            ....    1
 Number of Electrons    NEL             ....   62
 Basis Dimension        Dim             ....  308

ORBITAL ENERGIES
----------------

  NO   OCC          E(Eh)            E(eV)
   0   2.0000     -20.504028      -557.9430
   1   2.0000     -15.578708      -423.9182
   2   2.0000     -15.576471      -423.8573
   3   2.0000     -11.371097      -309.4233
   4   2.0000     -11.272793      -306.7483
   5   2.0000     -11.227937      -305.5277
   6   2.0000     -11.221436      -305.3508
   7   2.0000     -11.214416      -305.1598
   8   2.0000      -1.386815       -37.7372
   9   2.0000      -1.245840       -33.9010
  10   2.0000      -1.197599       -32.5883
  11   2.0000      -1.114094       -30.3160
  12   2.0000      -0.964629       -26.2489
  13   2.0000      -0.845006       -22.9938
  14   2.0000      -0.827028       -22.5046
  15   2.0000      -0.760755       -20.7012
  16   2.0000      -0.734627       -19.9902
  17   2.0000      -0.695747       -18.9322
  18   2.0000      -0.658283       -17.9128
  19   2.0000      -0.636346       -17.3158
  20   2.0000      -0.608282       -16.5522
  21   2.0000      -0.591332       -16.0910
  22   2.0000      -0.564582       -15.3631
  23   2.0000      -0.541339       -14.7306
  24   2.0000      -0.536987       -14.6122
  25   2.0000      -0.513911       -13.9842
  26   2.0000      -0.449597       -12.2341
  27   2.0000      -0.444461       -12.0944
  28   2.0000      -0.418505       -11.3881
  29   2.0000      -0.407338       -11.0842
  30   2.0000      -0.382203       -10.4003
  31   0.0000       0.115882         3.1533
  32   0.0000       0.152329         4.1451
  33   0.0000       0.164158         4.4670
  34   0.0000       0.181489         4.9386
  35   0.0000       0.191119         5.2006

MULLIKEN ATOMIC CHARGES
-----------------------
   0 C :   -0.412735
   1 C :    0.248523
   2 C :   -0.319191
   3 C :   -0.255077
   4 N :   -0.408517
   5 C :    0.400325
   6 N :   -0.522903
   7 O :   -0.396126
   8 H :    0.120951
   9 H :    0.114421
  10 H :    0.162209
  11 H :    0.134208
  12 H :    0.131151
  13 H :    0.133000
  14 H :    0.138629
  15 H :    0.225690
  16 H :    0.240177
  17 H :    0.265266
Sum of atomic charges:   -0.0000000

LOEWDIN ATOMIC CHARGES
----------------------
   0 C :   -0.267418
   1 C :   -0.316608
   2 C :   -0.214258
   3 C :   -0.196181
   4 N :    0.128796
   5 C :   -0.566477
   6 N :   -0.073057
   7 O :    0.059510
   8 H :    0.128534
   9 H :    0.121907
  10 H :    0.134932
  11 H :    0.132738
  12 H :    0.133569
  13 H :    0.135386
  14 H :    0.139962
  15 H :    0.182842
  16 H :    0.161043
  17 H :    0.174779

  Mayer bond orders larger than 0.1
B(  0-C ,  1-C ) :   0.9181 B(  0-C ,  8-H ) :   0.9272 B(  0-C ,  9-H ) :   0.9334
B(  0-C , 10-H ) :   0.9383 B(  1-C ,  2-C ) :   0.8734 B(  1-C ,  3-C ) :   0.8773
B(  1-C ,  4-N ) :   0.7931 B(  2-C ,  3-C ) :   0.8984 B(  2-C , 11-H ) :   0.9254
B(  2-C , 12-H ) :   0.9281 B(  3-C , 13-H ) :   0.9318 B(  3-C , 14-H ) :   0.9293
B(  4-N ,  5-C ) :   1.1059 B(  4-N , 15-H ) :   0.8713 B(  5-C ,  6-N ) :   1.0761
B(  5-C ,  7-O ) :   1.9332 B(  6-N , 16-H ) :   0.8752 B(  6-N , 17-H ) :   0.8693

MP2 TOTAL ENERGY:     -380.520153320 Eh
FINAL SINGLE POINT ENERGY      -380.520153319664

DIPOLE MOMENT
-------------
                                X             Y             Z
Electronic contribution:     -5.30160      -1.79010       1.44169
Nuclear contribution   :      5.40636       1.46258      -2.87786
                        -----------------------------------------
Total Dipole Moment    :      0.10477      -0.32752      -1.43617
                        -----------------------------------------
Magnitude (a.u.)       :      1.47676
Magnitude (Debye)      :      3.75362

                             ****ORCA TERMINATED NORMALLY****
TOTAL RUN TIME: 0 days 0 hours 12 minutes 15 seconds 343 msec
