                         Program Version 3.0.3 - RELEASE   -
|  1> ! RI-MP2 RIJK def2-TZVP def2-TZVP/C def2-TZVP/JK TIGHTSCF
|  2> % maxcore 2000
|  3> % mp2 density relaxed end
|  4> *xyz 0 1
|  5>  N       -0.8325598479    -0.2113341314    -1.2705896878
|  6>  C       -0.2815474895     0.2858910148    -0.3854441846
|  7>  C        0.4249641165     0.9326602439     0.7225475127
|  8>  C        1.6003170708     1.7440983074     0.2633978332
|  9>  C        1.7375456509     3.0622869104    -0.5450005155
| 10>  C        3.1958136140     2.6896397491    -0.8468801581
| 11>  C        2.8413412027     3.4465366999     0.4056885409
| 12>  N        2.6822240166     2.1602961696     1.2194285530
| 13>  C        3.0119288760     1.3847323919    -0.0358086027
| 14>  H       -0.2824621097     1.5657347518     1.2724425876
| 15>  H        0.7778310170     0.1680448299     1.4241462823
| 16>  H        1.0484117755     3.6565396145    -1.1269059887
| 17>  H        3.8046260503     2.9586543512    -1.6971455253
| 18>  H        3.1660506541     4.3959788829     0.8111164394
| 19>  H        3.5369176426     0.4373742740    -0.0083388964
| 20> *
| 21>
| 22>                          ****END OF INPUT****

CARTESIAN COORDINATES (ANGSTROEM)
---------------------------------
  N     -0.832560   -0.211334   -1.270590
  C     -0.281547    0.285891   -0.385444
  C      0.424964    0.932660    0.722548
  C      1.600317    1.744098    0.263398
  C      1.737546    3.062287   -0.545001
  C      3.195814    2.689640   -0.846880
  C      2.841341    3.446537    0.405689
  N      2.682224    2.160296    1.219429
  C      3.011929    1.384732   -0.035809
  H     -0.282462    1.565735    1.272443
  H      0.777831    0.168045    1.424146
  H      1.048412    3.656540   -1.126906
  H      3.804626    2.958654   -1.697146
  H      3.166051    4.395979    0.811116
  H      3.536918    0.437374   -0.008339

 Total Charge           Charge          ....    0
 Multiplicity           Mult            ....    1
 Number of Electrons    NEL             ....   62
 Basis Dimension        Dim             ....  315

ORBITAL ENERGIES
----------------

  NO   OCC          E(Eh)            E(eV)
   0   2.0000     -15.578931      -423.9243
   1   2.0000     -15.573758      -423.7835
   2   2.0000     -11.299557      -307.4766
   3   2.0000     -11.294744      -307.3456
   4   2.0000     -11.285909      -307.1052
   5   2.0000     -11.284776      -307.0744
   6   2.0000     -11.278444      -306.9021
   7   2.0000     -11.262194      -306.4599
   8   2.0000     -11.261580      -306.4432
   9   2.0000      -1.363280       -37.0967
  10   2.0000      -1.223226       -33.2857
  11   2.0000      -1.094097       -29.7719
  12   2.0000      -1.056487       -28.7485
  13   2.0000      -0.940007       -25.5789
  14   2.0000      -0.898693       -24.4547
  15   2.0000      -0.751944       -20.4614
  16   2.0000      -0.744319       -20.2540
  17   2.0000      -0.732374       -19.9289
  18   2.0000      -0.688350       -18.7310
  19   2.0000      -0.662535       -18.0285
  20   2.0000      -0.612477       -16.6664
  21   2.0000      -0.607444       -16.5294
  22   2.0000      -0.592728       -16.1290
  23   2.0000      -0.559118       -15.2144
  24   2.0000      -0.513399       -13.9703
  25   2.0000      -0.472589       -12.8598
  26   2.0000      -0.466811       -12.7026
  27   2.0000      -0.461599       -12.5608
  28   2.0000      -0.442754       -12.0479
  29   2.0000      -0.391292       -10.6476
  30   2.0000      -0.355300        -9.6682
  31   0.0000       0.124904         3.3988
  32   0.0000       0.155347         4.2272
  33   0.0000       0.162654         4.4260
  34   0.0000       0.167906         4.5690
  35   0.0000       0.171664         4.6712

MULLIKEN ATOMIC CHARGES
-----------------------
   0 N :   -0.059374
   1 C :   -0.191385
   2 C :   -0.123821
   3 C :    0.091799
   4 C :   -0.188515
   5 C :   -0.154826
   6 C :   -0.033577
   7 N :   -0.216319
   8 C :   -0.083967
   9 H :    0.166378
  10 H :    0.174868
  11 H :    0.159734
  12 H :    0.157731
  13 H :    0.149684
  14 H :    0.151590
Sum of atomic charges:   -0.0000000

LOEWDIN ATOMIC CHARGES
----------------------
   0 N :    0.061421
   1 C :   -0.181912
   2 C :   -0.206300
   3 C :   -0.196682
   4 C :   -0.112785
   5 C :   -0.132071
   6 C :   -0.151827
   7 N :    0.155777
   8 C :   -0.133302
   9 H :    0.173202
  10 H :    0.178415
  11 H :    0.140614
  12 H :    0.137920
  13 H :    0.132419
  14 H :    0.135111

  Mayer bond orders larger than 0.1
B(  0-N ,  1-C ) :   2.8617 B(  1-C ,  2-C ) :   0.9171 B(  2-C ,  3-C ) :   0.8566
B(  2-C ,  9-H ) :   0.9037 B(  2-C , 10-H ) :   0.9103 B(  3-C ,  4-C ) :   0.8834
B(  3-C ,  7-N ) :   0.8715 B(  3-C ,  8-C ) :   0.9838 B(  4-C ,  5-C ) :   0.8284
B(  4-C ,  6-C ) :   0.8838 B(  4-C , 11-H ) :   0.9103 B(  5-C ,  6-C ) :   0.9057
B(  5-C ,  8-C ) :   0.8961 B(  5-C , 12-H ) :   0.9088 B(  6-C ,  7-N ) :   0.8961
B(  6-C , 13-H ) :   0.9132 B(  7-N ,  8-C ) :   0.9429 B(  8-C , 14-H ) :   0.9030

MP2 TOTAL ENERGY:     -378.874254837 Eh
FINAL SINGLE POINT ENERGY      -378.874254837395

DIPOLE MOMENT
-------------
                                X             Y             Z
Electronic contribution:     -1.59830      -1.78758      -0.55291
Nuclear contribution   :      2.31455       2.67301       0.87669
                        -----------------------------------------
Total Dipole Moment    :      0.71625       0.88542       0.32378
                        -----------------------------------------
Magnitude (a.u.)       :      1.18398
Magnitude (Debye)      :      3.00945

                             ****ORCA TERMINATED NORMALLY****
TOTAL RUN TIME: 0 days 0 hours 15 minutes 38 seconds 251 msec
