                         Program Version 3.0.3 - RELEASE   -
|  1> ! RI-MP2 RIJK def2-TZVP def2-TZVP/C def2-TZVP/JK TIGHTSCF
|  2> % maxcore 2000
|  3> % mp2 density relaxed end
|  4> *xyz 0 1
|  5>  O        0.0623945120     1.4075219236     0.1528086391
|  6>  C        0.0063280297    -0.0056221240     0.2613592034
|  7>  C       -1.3626103604    -0.5719331902    -0.1398561827
|  8>  C       -1.4196279360    -2.0569483212    -0.0436064455
|  9>  C       -1.4557138059    -3.0308380153     1.1134604709
| 10>  C       -0.6042495273    -3.9930254036     0.2514040057
| 11>  C       -1.6545666694    -4.0239026993    -0.7987496964
| 12>  C       -2.5435083566    -3.0607534323     0.0252226404
| 13>  N       -0.5480304372    -3.0055768247    -0.8851067566
| 14>  H        0.0090257477     1.6324373715    -0.7814224796
| 15>  H        0.7936369534    -0.4916685774    -0.3329063062
| 16>  H        0.2056331905    -0.2338715575     1.3134799532
| 17>  H       -2.1386095657    -0.1318539684     0.4982087197
| 18>  H       -1.5905131062    -0.2709733920    -1.1728216901
| 19>  H       -1.5614448788    -2.8706981281     2.1771020820
| 20>  H        0.2169408796    -4.6641635517     0.4730668400
| 21>  H       -1.8574478430    -4.7255926611    -1.5990600530
| 22>  H       -3.6109665565    -2.9234970082     0.1252239656
| 23> *
| 24>
| 25>                          ****END OF INPUT****

CARTESIAN COORDINATES (ANGSTROEM)
---------------------------------
  O      0.062395    1.407522    0.152809
  C      0.006328   -0.005622    0.261359
  C     -1.362610   -0.571933   -0.139856
  C     -1.419628   -2.056948   -0.043606
  C     -1.455714   -3.030838    1.113460
  C     -0.604250   -3.993025    0.251404
  C     -1.654567   -4.023903   -0.798750
  C     -2.543508   -3.060753    0.025223
  N     -0.548030   -3.005577   -0.885107
  H      0.009026    1.632437   -0.781422
  H      0.793637   -0.491669   -0.332906
  H      0.205633   -0.233872    1.313480
  H     -2.138610   -0.131854    0.498209
  H     -1.590513   -0.270973   -1.172822
  H     -1.561445   -2.870698    2.177102
  H      0.216941   -4.664164    0.473067
  H     -1.857448   -4.725593   -1.599060
  H     -3.610967   -2.923497    0.125224

 Total Charge           Charge          ....    0
 Multiplicity           Mult            ....    1
 Number of Electrons    NEL             ....   66
 Basis Dimension        Dim             ....  333

ORBITAL ENERGIES
----------------

  NO   OCC          E(Eh)            E(eV)
   0   2.0000     -20.553519      -559.2897
   1   2.0000     -15.560970      -423.4355
   2   2.0000     -11.275566      -306.8238
   3   2.0000     -11.272576      -306.7424
   4   2.0000     -11.270628      -306.6894
   5   2.0000     -11.269875      -306.6689
   6   2.0000     -11.247401      -306.0573
   7   2.0000     -11.246792      -306.0408
   8   2.0000     -11.232494      -305.6517
   9   2.0000      -1.357622       -36.9428
  10   2.0000      -1.344071       -36.5740
  11   2.0000      -1.075943       -29.2779
  12   2.0000      -1.029562       -28.0158
  13   2.0000      -0.917263       -24.9600
  14   2.0000      -0.900028       -24.4910
  15   2.0000      -0.849784       -23.1238
  16   2.0000      -0.734550       -19.9881
  17   2.0000      -0.716572       -19.4989
  18   2.0000      -0.698374       -19.0037
  19   2.0000      -0.692526       -18.8446
  20   2.0000      -0.631959       -17.1965
  21   2.0000      -0.615176       -16.7398
  22   2.0000      -0.603936       -16.4339
  23   2.0000      -0.573410       -15.6033
  24   2.0000      -0.555097       -15.1049
  25   2.0000      -0.542204       -14.7541
  26   2.0000      -0.498380       -13.5616
  27   2.0000      -0.485721       -13.2172
  28   2.0000      -0.453625       -12.3438
  29   2.0000      -0.443265       -12.0619
  30   2.0000      -0.426262       -11.5992
  31   2.0000      -0.366742        -9.9796
  32   2.0000      -0.338640        -9.2149
  33   0.0000       0.137780         3.7492
  34   0.0000       0.156390         4.2556
  35   0.0000       0.160864         4.3773
  36   0.0000       0.170470         4.6387
  37   0.0000       0.180647         4.9157

MULLIKEN ATOMIC CHARGES
-----------------------
   0 O :   -0.467750
   1 C :   -0.053015
   2 C :   -0.209821
   3 C :    0.054708
   4 C :   -0.170318
   5 C :   -0.062103
   6 C :   -0.105287
   7 C :   -0.138711
   8 N :   -0.224433
   9 H :    0.314750
  10 H :    0.125616
  11 H :    0.110964
  12 H :    0.118340
  13 H :    0.111666
  14 H :    0.154837
  15 H :    0.144131
  16 H :    0.144629
  17 H :    0.151796
Sum of atomic charges:   -0.0000000

LOEWDIN ATOMIC CHARGES
----------------------
   0 O :   -0.051194
   1 C :   -0.337921
   2 C :   -0.246174
   3 C :   -0.193459
   4 C :   -0.121304
   5 C :   -0.165441
   6 C :   -0.164312
   7 C :   -0.120223
   8 N :    0.147038
   9 H :    0.173102
  10 H :    0.121873
  11 H :    0.128846
  12 H :    0.151513
  13 H :    0.145207
  14 H :    0.136557
  15 H :    0.129713
  16 H :    0.129649
  17 H :    0.136530

  Mayer bond orders larger than 0.1
B(  0-O ,  1-C ) :   0.9436 B(  0-O ,  9-H ) :   0.8480 B(  1-C ,  2-C ) :   0.9236
B(  1-C , 10-H ) :   0.9431 B(  1-C , 11-H ) :   0.9231 B(  2-C ,  3-C ) :   0.8709
B(  2-C , 12-H ) :   0.9148 B(  2-C , 13-H ) :   0.9207 B(  3-C ,  4-C ) :   0.8992
B(  3-C ,  7-C ) :   0.8375 B(  3-C ,  8-N ) :   0.8995 B(  4-C ,  5-C ) :   0.8968
B(  4-C ,  7-C ) :   0.8553 B(  4-C , 14-H ) :   0.9039 B(  5-C ,  6-C ) :   0.9637
B(  5-C ,  8-N ) :   0.8833 B(  5-C , 15-H ) :   0.9097 B(  6-C ,  7-C ) :   0.8898
B(  6-C ,  8-N ) :   0.9417 B(  6-C , 16-H ) :   0.9043 B(  7-C , 17-H ) :   0.9077

MP2 TOTAL ENERGY:     -401.123771915 Eh
FINAL SINGLE POINT ENERGY      -401.123771914934

DIPOLE MOMENT
-------------
                                X             Y             Z
Electronic contribution:     -0.23120      -2.88488      -0.72169
Nuclear contribution   :     -0.36985       2.41528       0.73796
                        -----------------------------------------
Total Dipole Moment    :     -0.60106      -0.46960       0.01627
                        -----------------------------------------
Magnitude (a.u.)       :      0.76293
Magnitude (Debye)      :      1.93920

                             ****ORCA TERMINATED NORMALLY****
TOTAL RUN TIME: 0 days 0 hours 16 minutes 19 seconds 772 msec
