                         Program Version 3.0.3 - RELEASE   -
|  1> ! RI-MP2 RIJK def2-TZVP def2-TZVP/C def2-TZVP/JK TIGHTSCF
|  2> % maxcore 2000
|  3> % mp2 density relaxed end
|  4> *xyz 0 1
|  5>  C       -0.2039803160     1.3923992759    -0.1909716916
|  6>  O       -0.1225112294     0.0964736900     0.3570490382
|  7>  C       -1.3028739099    -0.6605461676     0.1810795900
|  8>  C       -1.4556417451    -1.2997000960    -1.2308065152
|  9>  C       -0.8662363095    -2.6209716261    -0.6720553326
| 10>  C        0.6083637523    -2.8194984180    -1.0139254062
| 11>  C       -1.1060322251    -2.0723336720     0.7751319746
| 12>  O       -1.6746899956    -3.7175746425    -1.0582967171
| 13>  C       -1.3998075889    -4.9374213033    -0.4060342966
| 14>  H        0.7445115992     1.8934734712     0.0172861101
| 15>  H       -0.3631054403     1.3769376091    -1.2795115268
| 16>  H       -1.0212893532     1.9722329377     0.2661689733
| 17>  H       -2.1681168526    -0.0891279940     0.5451567852
| 18>  H       -2.5022332578    -1.4390557219    -1.5109473067
| 19>  H       -0.9173318271    -0.8226833607    -2.0536134175
| 20>  H        1.1628114059    -1.9055099604    -0.7876150417
| 21>  H        1.0550386216    -3.6330709674    -0.4334950362
| 22>  H        0.7215029178    -3.0486765161    -2.0788597040
| 23>  H       -0.2947828712    -2.1604930572     1.5010515182
| 24>  H       -2.0322667257    -2.4671210892     1.1991402154
| 25>  H       -2.1912577094    -5.6350116461    -0.6920362775
| 26>  H       -0.4336245149    -5.3690339822    -0.7028438774
| 27>  H       -1.4075217254    -4.8304846632     0.6892417120
| 28> *
| 29>
| 30>                          ****END OF INPUT****

CARTESIAN COORDINATES (ANGSTROEM)
---------------------------------
  C     -0.203980    1.392399   -0.190972
  O     -0.122511    0.096474    0.357049
  C     -1.302874   -0.660546    0.181080
  C     -1.455642   -1.299700   -1.230807
  C     -0.866236   -2.620972   -0.672055
  C      0.608364   -2.819498   -1.013925
  C     -1.106032   -2.072334    0.775132
  O     -1.674690   -3.717575   -1.058297
  C     -1.399808   -4.937421   -0.406034
  H      0.744512    1.893473    0.017286
  H     -0.363105    1.376938   -1.279512
  H     -1.021289    1.972233    0.266169
  H     -2.168117   -0.089128    0.545157
  H     -2.502233   -1.439056   -1.510947
  H     -0.917332   -0.822683   -2.053613
  H      1.162811   -1.905510   -0.787615
  H      1.055039   -3.633071   -0.433495
  H      0.721503   -3.048677   -2.078860
  H     -0.294783   -2.160493    1.501052
  H     -2.032267   -2.467121    1.199140
  H     -2.191258   -5.635012   -0.692036
  H     -0.433625   -5.369034   -0.702844
  H     -1.407522   -4.830485    0.689242

 Total Charge           Charge          ....    0
 Multiplicity           Mult            ....    1
 Number of Electrons    NEL             ....   72
 Basis Dimension        Dim             ....  363

ORBITAL ENERGIES
----------------

  NO   OCC          E(Eh)            E(eV)
   0   2.0000     -20.554519      -559.3169
   1   2.0000     -20.547767      -559.1332
   2   2.0000     -11.280714      -306.9638
   3   2.0000     -11.277341      -306.8721
   4   2.0000     -11.269798      -306.6668
   5   2.0000     -11.265586      -306.5522
   6   2.0000     -11.215264      -305.1828
   7   2.0000     -11.213846      -305.1443
   8   2.0000     -11.208096      -304.9878
   9   2.0000      -1.377215       -37.4759
  10   2.0000      -1.368404       -37.2362
  11   2.0000      -1.118853       -30.4455
  12   2.0000      -0.980733       -26.6871
  13   2.0000      -0.936971       -25.4963
  14   2.0000      -0.918157       -24.9843
  15   2.0000      -0.902236       -24.5511
  16   2.0000      -0.814567       -22.1655
  17   2.0000      -0.730218       -19.8702
  18   2.0000      -0.689345       -18.7580
  19   2.0000      -0.661273       -17.9942
  20   2.0000      -0.644639       -17.5415
  21   2.0000      -0.630892       -17.1674
  22   2.0000      -0.624255       -16.9869
  23   2.0000      -0.613531       -16.6950
  24   2.0000      -0.580494       -15.7960
  25   2.0000      -0.566348       -15.4111
  26   2.0000      -0.540978       -14.7208
  27   2.0000      -0.531421       -14.4607
  28   2.0000      -0.526042       -14.3143
  29   2.0000      -0.498335       -13.5604
  30   2.0000      -0.486770       -13.2457
  31   2.0000      -0.482287       -13.1237
  32   2.0000      -0.454480       -12.3670
  33   2.0000      -0.424260       -11.5447
  34   2.0000      -0.416258       -11.3270
  35   2.0000      -0.391924       -10.6648
  36   0.0000       0.140381         3.8200
  37   0.0000       0.152513         4.1501
  38   0.0000       0.164982         4.4894
  39   0.0000       0.183910         5.0045
  40   0.0000       0.192643         5.2421

MULLIKEN ATOMIC CHARGES
-----------------------
   0 C :   -0.218802
   1 O :   -0.313605
   2 C :    0.048107
   3 C :   -0.255229
   4 C :    0.276653
   5 C :   -0.479627
   6 C :   -0.243191
   7 O :   -0.310168
   8 C :   -0.228063
   9 H :    0.140674
  10 H :    0.110891
  11 H :    0.112936
  12 H :    0.084486
  13 H :    0.123353
  14 H :    0.121164
  15 H :    0.153720
  16 H :    0.126956
  17 H :    0.132463
  18 H :    0.119491
  19 H :    0.124788
  20 H :    0.141461
  21 H :    0.119583
  22 H :    0.111959
Sum of atomic charges:   -0.0000000

LOEWDIN ATOMIC CHARGES
----------------------
   0 C :   -0.358039
   1 O :    0.154717
   2 C :   -0.299957
   3 C :   -0.183656
   4 C :   -0.362482
   5 C :   -0.276639
   6 C :   -0.186708
   7 O :    0.172036
   8 C :   -0.356334
   9 H :    0.113461
  10 H :    0.101076
  11 H :    0.102475
  12 H :    0.123806
  13 H :    0.143029
  14 H :    0.131846
  15 H :    0.134818
  16 H :    0.123517
  17 H :    0.127850
  18 H :    0.134858
  19 H :    0.142015
  20 H :    0.113334
  21 H :    0.101774
  22 H :    0.103204

  Mayer bond orders larger than 0.1
B(  0-C ,  1-O ) :   0.9105 B(  0-C ,  9-H ) :   0.9406 B(  0-C , 10-H ) :   0.9323
B(  0-C , 11-H ) :   0.9363 B(  1-O ,  2-C ) :   0.9584 B(  2-C ,  3-C ) :   0.9273
B(  2-C ,  6-C ) :   0.9405 B(  2-C , 12-H ) :   0.9299 B(  3-C ,  4-C ) :   0.8739
B(  3-C , 13-H ) :   0.9054 B(  3-C , 14-H ) :   0.9217 B(  4-C ,  5-C ) :   0.8920
B(  4-C ,  6-C ) :   0.9320 B(  4-C ,  7-O ) :   1.0170 B(  5-C , 15-H ) :   0.9236
B(  5-C , 16-H ) :   0.9321 B(  5-C , 17-H ) :   0.9416 B(  6-C , 18-H ) :   0.9118
B(  6-C , 19-H ) :   0.9082 B(  7-O ,  8-C ) :   0.9066 B(  8-C , 20-H ) :   0.9419
B(  8-C , 21-H ) :   0.9345 B(  8-C , 22-H ) :   0.9304

MP2 TOTAL ENERGY:     -424.690684456 Eh
FINAL SINGLE POINT ENERGY      -424.690684456250

DIPOLE MOMENT
-------------
                                X             Y             Z
Electronic contribution:     -1.78056       0.40642       0.32116
Nuclear contribution   :      1.76753      -0.25924      -0.21930
                        -----------------------------------------
Total Dipole Moment    :     -0.01303       0.14718       0.10186
                        -----------------------------------------
Magnitude (a.u.)       :      0.17946
Magnitude (Debye)      :      0.45615

                             ****ORCA TERMINATED NORMALLY****
TOTAL RUN TIME: 0 days 0 hours 31 minutes 33 seconds 57 msec
