                         Program Version 3.0.3 - RELEASE   -
|  1> ! RI-MP2 RIJK def2-TZVP def2-TZVP/C def2-TZVP/JK TIGHTSCF
|  2> % maxcore 2000
|  3> % mp2 density relaxed end
|  4> *xyz 0 1
|  5>  N       -0.0138037316    -1.1298307947    -0.3130250251
|  6>  C       -0.0188390261     0.0096930723    -0.1206650750
|  7>  C       -0.0006820733     1.4509747188     0.1192097171
|  8>  C        1.4124599712     2.0566526775     0.0057242605
|  9>  C        1.4125231929     3.5684493249     0.2627461519
| 10>  C        2.7936943624     4.1798689399     0.1626915863
| 11>  C        3.3498818913     4.5929803080    -1.1779904587
| 12>  C        2.9627739755     5.6413571542    -0.1632434639
| 13>  H       -0.6776084078     1.9299810015    -0.5982771574
| 14>  H       -0.4166847940     1.6418507499     1.1156311595
| 15>  H        2.0739304355     1.5552271685     0.7211822391
| 16>  H        1.8163934793     1.8476142617    -0.9905101081
| 17>  H        0.7459464047     4.0616785485    -0.4579818061
| 18>  H        0.9894833212     3.7695416272     1.2570393471
| 19>  H        3.5143101093     3.7665015701     0.8646302602
| 20>  H        4.4032641611     4.4301823645    -1.3764113305
| 21>  H        2.7123573099     4.4740200003    -2.0485114634
| 22>  H        2.0672399368     6.2238736324    -0.3542707521
| 23>  H        3.7520380117     6.1935129943     0.3345245986
| 24> *
| 25>
| 26>                          ****END OF INPUT****

CARTESIAN COORDINATES (ANGSTROEM)
---------------------------------
  N     -0.013804   -1.129831   -0.313025
  C     -0.018839    0.009693   -0.120665
  C     -0.000682    1.450975    0.119210
  C      1.412460    2.056653    0.005724
  C      1.412523    3.568449    0.262746
  C      2.793694    4.179869    0.162692
  C      3.349882    4.592980   -1.177990
  C      2.962774    5.641357   -0.163243
  H     -0.677608    1.929981   -0.598277
  H     -0.416685    1.641851    1.115631
  H      2.073930    1.555227    0.721182
  H      1.816393    1.847614   -0.990510
  H      0.745946    4.061679   -0.457982
  H      0.989483    3.769542    1.257039
  H      3.514310    3.766502    0.864630
  H      4.403264    4.430182   -1.376411
  H      2.712357    4.474020   -2.048511
  H      2.067240    6.223874   -0.354271
  H      3.752038    6.193513    0.334525

 Total Charge           Charge          ....    0
 Multiplicity           Mult            ....    1
 Number of Electrons    NEL             ....   60
 Basis Dimension        Dim             ....  314

ORBITAL ENERGIES
----------------

  NO   OCC          E(Eh)            E(eV)
   0   2.0000     -15.565184      -423.5502
   1   2.0000     -11.281417      -306.9830
   2   2.0000     -11.270061      -306.6740
   3   2.0000     -11.249195      -306.1061
   4   2.0000     -11.241721      -305.9028
   5   2.0000     -11.240672      -305.8742
   6   2.0000     -11.232271      -305.6456
   7   2.0000     -11.231631      -305.6282
   8   2.0000      -1.215519       -33.0760
   9   2.0000      -1.156178       -31.4612
  10   2.0000      -1.094052       -29.7707
  11   2.0000      -0.991967       -26.9928
  12   2.0000      -0.863190       -23.4886
  13   2.0000      -0.828955       -22.5570
  14   2.0000      -0.787556       -21.4305
  15   2.0000      -0.701094       -19.0777
  16   2.0000      -0.680486       -18.5170
  17   2.0000      -0.657162       -17.8823
  18   2.0000      -0.630710       -17.1625
  19   2.0000      -0.589359       -16.0373
  20   2.0000      -0.573418       -15.6035
  21   2.0000      -0.554255       -15.0820
  22   2.0000      -0.529354       -14.4045
  23   2.0000      -0.519543       -14.1375
  24   2.0000      -0.509632       -13.8678
  25   2.0000      -0.496974       -13.5233
  26   2.0000      -0.455246       -12.3879
  27   2.0000      -0.454494       -12.3674
  28   2.0000      -0.423374       -11.5206
  29   2.0000      -0.413848       -11.2614
  30   0.0000       0.119036         3.2391
  31   0.0000       0.145715         3.9651
  32   0.0000       0.151101         4.1117
  33   0.0000       0.154287         4.1984
  34   0.0000       0.172509         4.6942

MULLIKEN ATOMIC CHARGES
-----------------------
   0 N :   -0.059774
   1 C :   -0.178769
   2 C :   -0.117062
   3 C :   -0.255856
   4 C :   -0.241474
   5 C :   -0.065394
   6 C :   -0.279782
   7 C :   -0.259959
   8 H :    0.154182
   9 H :    0.153911
  10 H :    0.131133
  11 H :    0.137083
  12 H :    0.116599
  13 H :    0.122378
  14 H :    0.121232
  15 H :    0.133039
  16 H :    0.127694
  17 H :    0.128260
  18 H :    0.132560
Sum of atomic charges:    0.0000000

LOEWDIN ATOMIC CHARGES
----------------------
   0 N :    0.052919
   1 C :   -0.194627
   2 C :   -0.247091
   3 C :   -0.243298
   4 C :   -0.250895
   5 C :   -0.234188
   6 C :   -0.230841
   7 C :   -0.229654
   8 H :    0.163131
   9 H :    0.163211
  10 H :    0.144802
  11 H :    0.145835
  12 H :    0.143375
  13 H :    0.142125
  14 H :    0.148374
  15 H :    0.131182
  16 H :    0.132142
  17 H :    0.132179
  18 H :    0.131319

  Mayer bond orders larger than 0.1
B(  0-N ,  1-C ) :   2.8848 B(  1-C ,  2-C ) :   0.9406 B(  2-C ,  3-C ) :   0.9194
B(  2-C ,  8-H ) :   0.9080 B(  2-C ,  9-H ) :   0.9084 B(  3-C ,  4-C ) :   0.9262
B(  3-C , 10-H ) :   0.9284 B(  3-C , 11-H ) :   0.9309 B(  4-C ,  5-C ) :   0.9168
B(  4-C , 12-H ) :   0.9327 B(  4-C , 13-H ) :   0.9248 B(  5-C ,  6-C ) :   0.8940
B(  5-C ,  7-C ) :   0.8913 B(  5-C , 14-H ) :   0.9266 B(  6-C ,  7-C ) :   0.8994
B(  6-C , 15-H ) :   0.9303 B(  6-C , 16-H ) :   0.9289 B(  7-C , 17-H ) :   0.9306
B(  7-C , 18-H ) :   0.9328

MP2 TOTAL ENERGY:     -327.340168716 Eh
FINAL SINGLE POINT ENERGY      -327.340168715706

DIPOLE MOMENT
-------------
                                X             Y             Z
Electronic contribution:     -3.98144      -9.06542       0.10363
Nuclear contribution   :      4.16979      10.69092       0.15642
                        -----------------------------------------
Total Dipole Moment    :      0.18835       1.62550       0.26005
                        -----------------------------------------
Magnitude (a.u.)       :      1.65691
Magnitude (Debye)      :      4.21153

                             ****ORCA TERMINATED NORMALLY****
TOTAL RUN TIME: 0 days 0 hours 10 minutes 36 seconds 437 msec
