                         Program Version 3.0.3 - RELEASE   -
|  1> ! RI-MP2 RIJK def2-TZVP def2-TZVP/C def2-TZVP/JK TIGHTSCF
|  2> % maxcore 2000
|  3> % mp2 density relaxed end
|  4> *xyz 0 1
|  5>  C       -0.0577406728    -1.2128321404     0.0934282292
|  6>  C       -0.0278736505    -0.0133371574     0.0240991839
|  7>  C        0.0472825878     1.4413320162    -0.0621223360
|  8>  C        1.4709493687     1.9498571758    -0.1104069631
|  9>  C        2.6069682952     1.6880206966    -1.1231111274
| 10>  C        3.2653842901     2.6407532318    -0.1003117243
| 11>  C        1.9382537323     3.4246409223     0.1335607316
| 12>  O        1.9670435920     3.2996955266     1.5861687715
| 13>  C        2.4724825324     2.0228499136     1.0903677488
| 14>  H       -0.1004616994    -2.2718287403     0.1561454226
| 15>  H       -0.5003850531     1.7877018472    -0.9485567532
| 16>  H       -0.4444915559     1.8965202625     0.8078685852
| 17>  H        2.9942896304     0.6668809514    -1.1624427214
| 18>  H        2.4604815834     2.0807525768    -2.1335355910
| 19>  H        4.2745084934     3.0489571465    -0.0676444795
| 20>  H        1.5825146480     4.3558031896    -0.3081857596
| 21>  H        2.7601175180     1.2542819313     1.8069613228
| 22> *
| 23>
| 24>                          ****END OF INPUT****

CARTESIAN COORDINATES (ANGSTROEM)
---------------------------------
  C     -0.057741   -1.212832    0.093428
  C     -0.027874   -0.013337    0.024099
  C      0.047283    1.441332   -0.062122
  C      1.470949    1.949857   -0.110407
  C      2.606968    1.688021   -1.123111
  C      3.265384    2.640753   -0.100312
  C      1.938254    3.424641    0.133561
  O      1.967044    3.299696    1.586169
  C      2.472483    2.022850    1.090368
  H     -0.100462   -2.271829    0.156145
  H     -0.500385    1.787702   -0.948557
  H     -0.444492    1.896520    0.807869
  H      2.994290    0.666881   -1.162443
  H      2.460482    2.080753   -2.133536
  H      4.274508    3.048957   -0.067644
  H      1.582515    4.355803   -0.308186
  H      2.760118    1.254282    1.806961

 Total Charge           Charge          ....    0
 Multiplicity           Mult            ....    1
 Number of Electrons    NEL             ....   64
 Basis Dimension        Dim             ....  327

ORBITAL ENERGIES
----------------

  NO   OCC          E(Eh)            E(eV)
   0   2.0000     -20.549684      -559.1853
   1   2.0000     -11.303449      -307.5825
   2   2.0000     -11.301471      -307.5287
   3   2.0000     -11.262775      -306.4757
   4   2.0000     -11.260287      -306.4080
   5   2.0000     -11.252430      -306.1942
   6   2.0000     -11.238730      -305.8214
   7   2.0000     -11.237869      -305.7980
   8   2.0000     -11.223808      -305.4153
   9   2.0000      -1.405485       -38.2452
  10   2.0000      -1.172780       -31.9130
  11   2.0000      -1.072013       -29.1709
  12   2.0000      -0.982809       -26.7436
  13   2.0000      -0.899876       -24.4869
  14   2.0000      -0.893015       -24.3002
  15   2.0000      -0.851589       -23.1729
  16   2.0000      -0.726636       -19.7728
  17   2.0000      -0.716359       -19.4931
  18   2.0000      -0.676785       -18.4163
  19   2.0000      -0.647866       -17.6293
  20   2.0000      -0.640187       -17.4204
  21   2.0000      -0.625222       -17.0132
  22   2.0000      -0.613171       -16.6852
  23   2.0000      -0.575519       -15.6607
  24   2.0000      -0.534729       -14.5507
  25   2.0000      -0.469649       -12.7798
  26   2.0000      -0.455019       -12.3817
  27   2.0000      -0.446614       -12.1530
  28   2.0000      -0.435494       -11.8504
  29   2.0000      -0.410326       -11.1655
  30   2.0000      -0.389000       -10.5852
  31   2.0000      -0.382346       -10.4042
  32   0.0000       0.135134         3.6772
  33   0.0000       0.155865         4.2413
  34   0.0000       0.165995         4.5170
  35   0.0000       0.172525         4.6947
  36   0.0000       0.174182         4.7397

MULLIKEN ATOMIC CHARGES
-----------------------
   0 C :   -0.164003
   1 C :   -0.034255
   2 C :   -0.350567
   3 C :    0.026746
   4 C :   -0.211861
   5 C :   -0.131399
   6 C :    0.030953
   7 O :   -0.339714
   8 C :    0.022354
   9 H :    0.189919
  10 H :    0.145104
  11 H :    0.168267
  12 H :    0.124449
  13 H :    0.115168
  14 H :    0.142593
  15 H :    0.130468
  16 H :    0.135780
Sum of atomic charges:    0.0000000

LOEWDIN ATOMIC CHARGES
----------------------
   0 C :   -0.105388
   1 C :   -0.102567
   2 C :   -0.214192
   3 C :   -0.164270
   4 C :   -0.178345
   5 C :   -0.137411
   6 C :   -0.172879
   7 O :    0.127598
   8 C :   -0.166781
   9 H :    0.126520
  10 H :    0.163510
  11 H :    0.171642
  12 H :    0.133498
  13 H :    0.129931
  14 H :    0.129578
  15 H :    0.128430
  16 H :    0.131125

  Mayer bond orders larger than 0.1
B(  0-C ,  1-C ) :   2.6077 B(  0-C ,  9-H ) :   0.9036 B(  1-C ,  2-C ) :   1.1029
B(  2-C ,  3-C ) :   0.8466 B(  2-C , 10-H ) :   0.9155 B(  2-C , 11-H ) :   0.9261
B(  3-C ,  4-C ) :   0.9055 B(  3-C ,  6-C ) :   0.8626 B(  3-C ,  8-C ) :   0.9022
B(  4-C ,  5-C ) :   0.9119 B(  4-C , 12-H ) :   0.9237 B(  4-C , 13-H ) :   0.9266
B(  5-C ,  6-C ) :   0.8873 B(  5-C ,  8-C ) :   0.8755 B(  5-C , 14-H ) :   0.8973
B(  6-C ,  7-O ) :   0.9196 B(  6-C , 15-H ) :   0.8963 B(  7-O ,  8-C ) :   0.9216
B(  8-C , 16-H ) :   0.8898

MP2 TOTAL ENERGY:     -383.874539059 Eh
FINAL SINGLE POINT ENERGY      -383.874539058645

DIPOLE MOMENT
-------------
                                X             Y             Z
Electronic contribution:     -0.48171       0.81202       2.46268
Nuclear contribution   :      0.65129      -1.01465      -3.14229
                        -----------------------------------------
Total Dipole Moment    :      0.16957      -0.20263      -0.67961
                        -----------------------------------------
Magnitude (a.u.)       :      0.72917
Magnitude (Debye)      :      1.85340

                             ****ORCA TERMINATED NORMALLY****
TOTAL RUN TIME: 0 days 0 hours 16 minutes 10 seconds 572 msec
