                         Program Version 3.0.3 - RELEASE   -
|  1> ! RI-MP2 RIJK def2-TZVP def2-TZVP/C def2-TZVP/JK TIGHTSCF
|  2> % maxcore 2000
|  3> % mp2 density relaxed end
|  4> *xyz 0 1
|  5>  O        0.0630329478     1.4006540406     0.1187837110
|  6>  C        0.0394708977     0.0017207306     0.0328457745
|  7>  C       -1.3586751014    -0.5736468771    -0.2379552194
|  8>  C       -1.4880893489    -0.6074984394    -1.7226173235
|  9>  N       -0.2486327677    -0.0301441175    -2.2678736613
| 10>  C        0.6968215186    -0.5673964837    -1.2562853909
| 11>  C        0.3040990071    -2.0583393660    -1.1293192308
| 12>  O        0.9996728219    -3.0384003187    -1.1289350578
| 13>  C       -1.1800998237    -1.9125815771    -0.9855509213
| 14>  H       -0.1590445118     1.7206397060    -0.7671725585
| 15>  H        0.5025565616    -0.3924893968     0.9408021297
| 16>  H       -2.1973387362    -0.4018392373     0.4224614139
| 17>  H       -2.4137312076    -0.4414706683    -2.2558005540
| 18>  H       -0.0407697677    -0.4169157928    -3.1861663962
| 19>  H        1.7419162572    -0.3345037089    -1.4376722177
| 20>  H       -1.8644416268    -2.7438028135    -0.9000696178
| 21> *
| 22>
| 23>                          ****END OF INPUT****

CARTESIAN COORDINATES (ANGSTROEM)
---------------------------------
  O      0.063033    1.400654    0.118784
  C      0.039471    0.001721    0.032846
  C     -1.358675   -0.573647   -0.237955
  C     -1.488089   -0.607498   -1.722617
  N     -0.248633   -0.030144   -2.267874
  C      0.696822   -0.567396   -1.256285
  C      0.304099   -2.058339   -1.129319
  O      0.999673   -3.038400   -1.128935
  C     -1.180100   -1.912582   -0.985551
  H     -0.159045    1.720640   -0.767173
  H      0.502557   -0.392489    0.940802
  H     -2.197339   -0.401839    0.422461
  H     -2.413731   -0.441471   -2.255801
  H     -0.040770   -0.416916   -3.186166
  H      1.741916   -0.334504   -1.437672
  H     -1.864442   -2.743803   -0.900070

 Total Charge           Charge          ....    0
 Multiplicity           Mult            ....    1
 Number of Electrons    NEL             ....   66
 Basis Dimension        Dim             ....  321

ORBITAL ENERGIES
----------------

  NO   OCC          E(Eh)            E(eV)
   0   2.0000     -20.563806      -559.5696
   1   2.0000     -20.557454      -559.3968
   2   2.0000     -15.584244      -424.0688
   3   2.0000     -11.340218      -308.5830
   4   2.0000     -11.304486      -307.6107
   5   2.0000     -11.293146      -307.3021
   6   2.0000     -11.279993      -306.9442
   7   2.0000     -11.261261      -306.4345
   8   2.0000     -11.257498      -306.3321
   9   2.0000      -1.402040       -38.1514
  10   2.0000      -1.380527       -37.5660
  11   2.0000      -1.291576       -35.1456
  12   2.0000      -1.125181       -30.6177
  13   2.0000      -1.021908       -27.8075
  14   2.0000      -0.944062       -25.6892
  15   2.0000      -0.827356       -22.5135
  16   2.0000      -0.801054       -21.7978
  17   2.0000      -0.768572       -20.9139
  18   2.0000      -0.743471       -20.2309
  19   2.0000      -0.691756       -18.8236
  20   2.0000      -0.668991       -18.2042
  21   2.0000      -0.633525       -17.2391
  22   2.0000      -0.609229       -16.5780
  23   2.0000      -0.608012       -16.5448
  24   2.0000      -0.574696       -15.6383
  25   2.0000      -0.567720       -15.4484
  26   2.0000      -0.551716       -15.0129
  27   2.0000      -0.510658       -13.8957
  28   2.0000      -0.498932       -13.5766
  29   2.0000      -0.465194       -12.6586
  30   2.0000      -0.444472       -12.0947
  31   2.0000      -0.425547       -11.5797
  32   2.0000      -0.369290       -10.0489
  33   0.0000       0.124039         3.3753
  34   0.0000       0.141566         3.8522
  35   0.0000       0.158388         4.3100
  36   0.0000       0.169720         4.6183
  37   0.0000       0.177604         4.8328

MULLIKEN ATOMIC CHARGES
-----------------------
   0 O :   -0.461813
   1 C :    0.053059
   2 C :   -0.149627
   3 C :   -0.086922
   4 N :   -0.355026
   5 C :    0.033336
   6 C :    0.054683
   7 O :   -0.253521
   8 C :   -0.126780
   9 H :    0.334154
  10 H :    0.129144
  11 H :    0.151065
  12 H :    0.150467
  13 H :    0.217879
  14 H :    0.152575
  15 H :    0.157328
Sum of atomic charges:    0.0000000

LOEWDIN ATOMIC CHARGES
----------------------
   0 O :    0.002953
   1 C :   -0.296078
   2 C :   -0.142381
   3 C :   -0.212201
   4 N :    0.026467
   5 C :   -0.218792
   6 C :   -0.291886
   7 O :    0.160662
   8 C :   -0.134058
   9 H :    0.184832
  10 H :    0.151454
  11 H :    0.150539
  12 H :    0.144422
  13 H :    0.175639
  14 H :    0.148132
  15 H :    0.150298

  Mayer bond orders larger than 0.1
B(  0-O ,  1-C ) :   0.9637 B(  0-O ,  9-H ) :   0.8165 B(  1-C ,  2-C ) :   0.9339
B(  1-C ,  5-C ) :   0.8998 B(  1-C , 10-H ) :   0.9419 B(  2-C ,  3-C ) :   0.8918
B(  2-C ,  8-C ) :   0.7391 B(  2-C , 11-H ) :   0.9231 B(  3-C ,  4-N ) :   0.9445
B(  3-C ,  8-C ) :   0.8145 B(  3-C , 12-H ) :   0.9301 B(  4-N ,  5-C ) :   0.9635
B(  4-N , 13-H ) :   0.8777 B(  5-C ,  6-C ) :   0.8852 B(  5-C ,  8-C ) :  -0.1406
B(  5-C , 14-H ) :   0.8988 B(  6-C ,  7-O ) :   2.0588 B(  6-C ,  8-C ) :   0.9371
B(  8-C , 15-H ) :   0.9091

MP2 TOTAL ENERGY:     -437.176500756 Eh
FINAL SINGLE POINT ENERGY      -437.176500755645

DIPOLE MOMENT
-------------
                                X             Y             Z
Electronic contribution:      1.81820      -2.17009      -0.06125
Nuclear contribution   :     -2.72757       2.33997      -0.49774
                        -----------------------------------------
Total Dipole Moment    :     -0.90936       0.16988      -0.55899
                        -----------------------------------------
Magnitude (a.u.)       :      1.08086
Magnitude (Debye)      :      2.74734

                             ****ORCA TERMINATED NORMALLY****
TOTAL RUN TIME: 0 days 0 hours 16 minutes 25 seconds 794 msec
