                         Program Version 3.0.3 - RELEASE   -
|  1> ! RI-MP2 RIJK def2-TZVP def2-TZVP/C def2-TZVP/JK TIGHTSCF
|  2> % maxcore 2000
|  3> % mp2 density relaxed end
|  4> *xyz 0 1
|  5>  O       -0.1526207596     1.5077640332     0.1773765933
|  6>  C       -0.0074986518     0.0960037761     0.1395015006
|  7>  C       -1.3951822566    -0.5255832265    -0.0412691640
|  8>  C       -2.0820876233    -0.0348116965    -1.3561879072
|  9>  C       -2.2284404618    -1.1632936038    -2.3690414493
| 10>  C       -0.9677453378    -2.0463298992    -2.4665501302
| 11>  C       -1.6390782500    -2.7517640396    -1.2720048563
| 12>  C       -1.3179907017    -2.0821807162     0.0612473758
| 13>  O       -2.9353568842    -2.2636287416    -1.7204526245
| 14>  H        0.7227470704     1.9004738380     0.2380490790
| 15>  H        0.6611318358    -0.2095512226    -0.6822087918
| 16>  H        0.4356186155    -0.2796681140     1.0759489893
| 17>  H       -1.9865900897    -0.1549587561     0.8010723905
| 18>  H       -3.0841325989     0.3462808147    -1.1355473664
| 19>  H       -1.5158178323     0.8014830877    -1.7793624060
| 20>  H       -2.7227680663    -0.8466827139    -3.2918619432
| 21>  H       -0.9729098796    -2.6689470121    -3.3627295354
| 22>  H        0.0138090092    -1.5882211860    -2.3302904915
| 23>  H       -1.6063186789    -3.8437395462    -1.2156815381
| 24>  H       -0.3232435634    -2.3961382370     0.4045943642
| 25>  H       -2.0359170149    -2.4488034685     0.8016536213
| 26> *
| 27>
| 28>                          ****END OF INPUT****

CARTESIAN COORDINATES (ANGSTROEM)
---------------------------------
  O     -0.152621    1.507764    0.177377
  C     -0.007499    0.096004    0.139502
  C     -1.395182   -0.525583   -0.041269
  C     -2.082088   -0.034812   -1.356188
  C     -2.228440   -1.163294   -2.369041
  C     -0.967745   -2.046330   -2.466550
  C     -1.639078   -2.751764   -1.272005
  C     -1.317991   -2.082181    0.061247
  O     -2.935357   -2.263629   -1.720453
  H      0.722747    1.900474    0.238049
  H      0.661132   -0.209551   -0.682209
  H      0.435619   -0.279668    1.075949
  H     -1.986590   -0.154959    0.801072
  H     -3.084133    0.346281   -1.135547
  H     -1.515818    0.801483   -1.779362
  H     -2.722768   -0.846683   -3.291862
  H     -0.972910   -2.668947   -3.362730
  H      0.013809   -1.588221   -2.330290
  H     -1.606319   -3.843740   -1.215682
  H     -0.323244   -2.396138    0.404594
  H     -2.035917   -2.448803    0.801654

 Total Charge           Charge          ....    0
 Multiplicity           Mult            ....    1
 Number of Electrons    NEL             ....   70
 Basis Dimension        Dim             ....  351

ORBITAL ENERGIES
----------------

  NO   OCC          E(Eh)            E(eV)
   0   2.0000     -20.558047      -559.4129
   1   2.0000     -20.536700      -558.8320
   2   2.0000     -11.279371      -306.9273
   3   2.0000     -11.277538      -306.8774
   4   2.0000     -11.277002      -306.8628
   5   2.0000     -11.229097      -305.5593
   6   2.0000     -11.224005      -305.4207
   7   2.0000     -11.223210      -305.3991
   8   2.0000     -11.214123      -305.1518
   9   2.0000      -1.373183       -37.3662
  10   2.0000      -1.362962       -37.0881
  11   2.0000      -1.088299       -29.6141
  12   2.0000      -1.005303       -27.3557
  13   2.0000      -1.001784       -27.2599
  14   2.0000      -0.921280       -25.0693
  15   2.0000      -0.831298       -22.6208
  16   2.0000      -0.801726       -21.8161
  17   2.0000      -0.717550       -19.5255
  18   2.0000      -0.708114       -19.2688
  19   2.0000      -0.685759       -18.6604
  20   2.0000      -0.646873       -17.6023
  21   2.0000      -0.622858       -16.9488
  22   2.0000      -0.613398       -16.6914
  23   2.0000      -0.602411       -16.3924
  24   2.0000      -0.548289       -14.9197
  25   2.0000      -0.539890       -14.6911
  26   2.0000      -0.534300       -14.5390
  27   2.0000      -0.523506       -14.2453
  28   2.0000      -0.500089       -13.6081
  29   2.0000      -0.492016       -13.3884
  30   2.0000      -0.469482       -12.7752
  31   2.0000      -0.444980       -12.1085
  32   2.0000      -0.443668       -12.0728
  33   2.0000      -0.423421       -11.5219
  34   2.0000      -0.394218       -10.7272
  35   0.0000       0.130717         3.5570
  36   0.0000       0.147250         4.0069
  37   0.0000       0.163286         4.4432
  38   0.0000       0.169043         4.5999
  39   0.0000       0.179132         4.8744

MULLIKEN ATOMIC CHARGES
-----------------------
   0 O :   -0.468289
   1 C :   -0.124085
   2 C :    0.019854
   3 C :   -0.280250
   4 C :    0.112061
   5 C :   -0.290667
   6 C :    0.116290
   7 C :   -0.291493
   8 O :   -0.347054
   9 H :    0.316547
  10 H :    0.090838
  11 H :    0.106123
  12 H :    0.098694
  13 H :    0.118154
  14 H :    0.131156
  15 H :    0.112159
  16 H :    0.124116
  17 H :    0.113560
  18 H :    0.111416
  19 H :    0.107289
  20 H :    0.123579
Sum of atomic charges:    0.0000000

LOEWDIN ATOMIC CHARGES
----------------------
   0 O :   -0.044790
   1 C :   -0.340513
   2 C :   -0.230268
   3 C :   -0.219023
   4 C :   -0.273332
   5 C :   -0.205698
   6 C :   -0.277764
   7 C :   -0.218562
   8 O :    0.149161
   9 H :    0.172315
  10 H :    0.113213
  11 H :    0.117150
  12 H :    0.155731
  13 H :    0.144155
  14 H :    0.147009
  15 H :    0.131905
  16 H :    0.137062
  17 H :    0.125087
  18 H :    0.131635
  19 H :    0.141747
  20 H :    0.143778

  Mayer bond orders larger than 0.1
B(  0-O ,  1-C ) :   1.0113 B(  0-O ,  9-H ) :   0.8473 B(  1-C ,  2-C ) :   0.9267
B(  1-C , 10-H ) :   0.9218 B(  1-C , 11-H ) :   0.9305 B(  2-C ,  3-C ) :   0.9274
B(  2-C ,  7-C ) :   0.8955 B(  2-C , 12-H ) :   0.9238 B(  3-C ,  4-C ) :   0.9560
B(  3-C , 13-H ) :   0.9211 B(  3-C , 14-H ) :   0.9176 B(  4-C ,  5-C ) :   0.9225
B(  4-C ,  8-O ) :   0.8960 B(  4-C , 15-H ) :   0.9258 B(  5-C ,  6-C ) :   0.9303
B(  5-C , 16-H ) :   0.9232 B(  5-C , 17-H ) :   0.9273 B(  6-C ,  7-C ) :   0.9498
B(  6-C ,  8-O ) :   0.9146 B(  6-C , 18-H ) :   0.9262 B(  7-C , 19-H ) :   0.9195
B(  7-C , 20-H ) :   0.9188

MP2 TOTAL ENERGY:     -423.514735010 Eh
FINAL SINGLE POINT ENERGY      -423.514735010323

DIPOLE MOMENT
-------------
                                X             Y             Z
Electronic contribution:     -2.76297      -0.34126      -0.93923
Nuclear contribution   :      3.95532       0.37994       0.97903
                        -----------------------------------------
Total Dipole Moment    :      1.19235       0.03869       0.03979
                        -----------------------------------------
Magnitude (a.u.)       :      1.19364
Magnitude (Debye)      :      3.03398

                             ****ORCA TERMINATED NORMALLY****
TOTAL RUN TIME: 0 days 0 hours 30 minutes 48 seconds 48 msec
