                         Program Version 3.0.3 - RELEASE   -
|  1> ! RI-MP2 RIJK def2-TZVP def2-TZVP/C def2-TZVP/JK TIGHTSCF
|  2> % maxcore 2000
|  3> % mp2 density relaxed end
|  4> *xyz 0 1
|  5>  C        0.0891400401     1.6519889899     0.0101584305
|  6>  C        0.0780156071     0.1236854886    -0.0216383190
|  7>  C        0.7581558512    -0.5427888079    -1.2168897559
|  8>  C        2.2466253503    -0.4831089775    -1.2610676636
|  9>  C        1.5643055266    -1.7536203912    -0.7461177097
| 10>  C        1.4469240373    -1.8358252265     0.7309262603
| 11>  O        1.7615461995    -2.7349146171     1.4659906291
| 12>  C        0.7395178391    -0.5210068216     1.1989409234
| 13>  O        0.7192807551    -0.1198938608     2.3304350478
| 14>  H        1.1079579109     2.0401625658    -0.0834666840
| 15>  H       -0.5078426319     2.0668683846    -0.8069128868
| 16>  H       -0.3199342169     2.0071610148     0.9594944879
| 17>  H       -0.9660337470    -0.2256159201     0.0102819987
| 18>  H        0.2124046187    -0.6058858330    -2.1511870850
| 19>  H        2.7413353031    -0.5813116551    -2.2202823406
| 20>  H        2.7770760536     0.1457824444    -0.5520997322
| 21>  H        1.6590287030    -2.6653070474    -1.3212579309
| 22> *
| 23>
| 24>                          ****END OF INPUT****

CARTESIAN COORDINATES (ANGSTROEM)
---------------------------------
  C      0.089140    1.651989    0.010158
  C      0.078016    0.123685   -0.021638
  C      0.758156   -0.542789   -1.216890
  C      2.246625   -0.483109   -1.261068
  C      1.564306   -1.753620   -0.746118
  C      1.446924   -1.835825    0.730926
  O      1.761546   -2.734915    1.465991
  C      0.739518   -0.521007    1.198941
  O      0.719281   -0.119894    2.330435
  H      1.107958    2.040163   -0.083467
  H     -0.507843    2.066868   -0.806913
  H     -0.319934    2.007161    0.959494
  H     -0.966034   -0.225616    0.010282
  H      0.212405   -0.605886   -2.151187
  H      2.741335   -0.581312   -2.220282
  H      2.777076    0.145782   -0.552100
  H      1.659029   -2.665307   -1.321258

 Total Charge           Charge          ....    0
 Multiplicity           Mult            ....    1
 Number of Electrons    NEL             ....   66
 Basis Dimension        Dim             ....  327

ORBITAL ENERGIES
----------------

  NO   OCC          E(Eh)            E(eV)
   0   2.0000     -20.574866      -559.8706
   1   2.0000     -20.567296      -559.6646
   2   2.0000     -11.346242      -308.7469
   3   2.0000     -11.345696      -308.7321
   4   2.0000     -11.272693      -306.7456
   5   2.0000     -11.267745      -306.6109
   6   2.0000     -11.266973      -306.5899
   7   2.0000     -11.265098      -306.5389
   8   2.0000     -11.236196      -305.7524
   9   2.0000      -1.422013       -38.6950
  10   2.0000      -1.396686       -38.0058
  11   2.0000      -1.210466       -32.9385
  12   2.0000      -1.065366       -28.9901
  13   2.0000      -0.971999       -26.4494
  14   2.0000      -0.910398       -24.7732
  15   2.0000      -0.854538       -23.2532
  16   2.0000      -0.791882       -21.5482
  17   2.0000      -0.734939       -19.9987
  18   2.0000      -0.715109       -19.4591
  19   2.0000      -0.668818       -18.1995
  20   2.0000      -0.651895       -17.7390
  21   2.0000      -0.638926       -17.3861
  22   2.0000      -0.622774       -16.9466
  23   2.0000      -0.586947       -15.9716
  24   2.0000      -0.574375       -15.6295
  25   2.0000      -0.551921       -15.0185
  26   2.0000      -0.541817       -14.7436
  27   2.0000      -0.530880       -14.4460
  28   2.0000      -0.507908       -13.8209
  29   2.0000      -0.498925       -13.5764
  30   2.0000      -0.449889       -12.2421
  31   2.0000      -0.435294       -11.8449
  32   2.0000      -0.390168       -10.6170
  33   0.0000       0.064618         1.7583
  34   0.0000       0.127596         3.4721
  35   0.0000       0.143298         3.8993
  36   0.0000       0.151071         4.1108
  37   0.0000       0.168341         4.5808

MULLIKEN ATOMIC CHARGES
-----------------------
   0 C :   -0.408726
   1 C :   -0.028599
   2 C :   -0.095612
   3 C :   -0.296703
   4 C :   -0.092038
   5 C :    0.134503
   6 O :   -0.241458
   7 C :    0.113877
   8 O :   -0.234643
   9 H :    0.127047
  10 H :    0.138167
  11 H :    0.157521
  12 H :    0.128980
  13 H :    0.141064
  14 H :    0.151246
  15 H :    0.153833
  16 H :    0.151540
Sum of atomic charges:    0.0000000

LOEWDIN ATOMIC CHARGES
----------------------
   0 C :   -0.277288
   1 C :   -0.227640
   2 C :   -0.164212
   3 C :   -0.175834
   4 C :   -0.151325
   5 C :   -0.285111
   6 O :    0.185381
   7 C :   -0.256277
   8 O :    0.197527
   9 H :    0.127024
  10 H :    0.126359
  11 H :    0.134000
  12 H :    0.176835
  13 H :    0.150143
  14 H :    0.143591
  15 H :    0.142837
  16 H :    0.153990

  Mayer bond orders larger than 0.1
B(  0-C ,  1-C ) :   0.9056 B(  0-C ,  9-H ) :   0.9320 B(  0-C , 10-H ) :   0.9386
B(  0-C , 11-H ) :   0.9298 B(  1-C ,  2-C ) :   0.9011 B(  1-C ,  7-C ) :   0.8459
B(  1-C , 12-H ) :   0.8888 B(  2-C ,  3-C ) :   0.9015 B(  2-C ,  4-C ) :   0.8074
B(  2-C , 13-H ) :   0.9140 B(  3-C ,  4-C ) :   0.8263 B(  3-C , 14-H ) :   0.9280
B(  3-C , 15-H ) :   0.9164 B(  4-C ,  5-C ) :   0.9254 B(  4-C ,  7-C ) :  -0.1106
B(  4-C , 16-H ) :   0.9133 B(  5-C ,  6-O ) :   2.0065 B(  5-C ,  7-C ) :   0.8735
B(  7-C ,  8-O ) :   2.0158

MP2 TOTAL ENERGY:     -421.141576039 Eh
FINAL SINGLE POINT ENERGY      -421.141576038965

DIPOLE MOMENT
-------------
                                X             Y             Z
Electronic contribution:      1.23793      -6.45981       6.25689
Nuclear contribution   :     -1.54005       7.09366      -8.08573
                        -----------------------------------------
Total Dipole Moment    :     -0.30212       0.63385      -1.82883
                        -----------------------------------------
Magnitude (a.u.)       :      1.95900
Magnitude (Debye)      :      4.97938

                             ****ORCA TERMINATED NORMALLY****
TOTAL RUN TIME: 0 days 0 hours 17 minutes 52 seconds 49 msec
