                         Program Version 3.0.3 - RELEASE   -
|  1> ! RI-MP2 RIJK def2-TZVP def2-TZVP/C def2-TZVP/JK TIGHTSCF
|  2> % maxcore 2000
|  3> % mp2 density relaxed end
|  4> *xyz 0 1
|  5>  C       -0.1504805355     1.5884514408     0.1147795073
|  6>  C        0.0575306095     0.0798816389    -0.0612844814
|  7>  C        0.7161934743    -0.5673666311     1.1507889334
|  8>  C       -0.0674451595    -0.6450115124     2.4890385023
|  9>  C        0.5895589999    -2.0357438129     2.7513824438
| 10>  C       -0.1973490582    -3.0794619833     3.3737952788
| 11>  C       -0.8640271912    -3.9445810522     3.8791856584
| 12>  C        0.9235306776    -2.1187431059     1.2134365814
| 13>  C       -0.0496457108    -2.9626424985     0.3971467908
| 14>  H        0.8031362827     2.1036879942     0.2758136082
| 15>  H       -0.6234300599     2.0305534813    -0.7675313964
| 16>  H       -0.7908459223     1.8025876467     0.9772754839
| 17>  H       -0.9090348452    -0.3993874115    -0.2580810119
| 18>  H        0.6757464132    -0.1014483693    -0.9507450833
| 19>  H        1.6825280284    -0.0791303150     1.3304496892
| 20>  H        0.1022898906     0.1302618060     3.2392326828
| 21>  H       -1.1442042491    -0.7448418297     2.3252978827
| 22>  H        1.5204928920    -1.8988208509     3.3122871938
| 23>  H       -1.4489706530    -4.7064292799     4.3313929126
| 24>  H        1.9460539944    -2.4482175840     1.0054379558
| 25>  H       -1.0931324732    -2.6928265391     0.5869217794
| 26>  H        0.1389656913    -2.8481909820    -0.6751829906
| 27>  H        0.0602073939    -4.0213772400     0.6502124990
| 28> *
| 29>
| 30>                          ****END OF INPUT****

CARTESIAN COORDINATES (ANGSTROEM)
---------------------------------
  C     -0.150481    1.588451    0.114780
  C      0.057531    0.079882   -0.061284
  C      0.716193   -0.567367    1.150789
  C     -0.067445   -0.645012    2.489039
  C      0.589559   -2.035744    2.751382
  C     -0.197349   -3.079462    3.373795
  C     -0.864027   -3.944581    3.879186
  C      0.923531   -2.118743    1.213437
  C     -0.049646   -2.962642    0.397147
  H      0.803136    2.103688    0.275814
  H     -0.623430    2.030553   -0.767531
  H     -0.790846    1.802588    0.977275
  H     -0.909035   -0.399387   -0.258081
  H      0.675746   -0.101448   -0.950745
  H      1.682528   -0.079130    1.330450
  H      0.102290    0.130262    3.239233
  H     -1.144204   -0.744842    2.325298
  H      1.520493   -1.898821    3.312287
  H     -1.448971   -4.706429    4.331393
  H      1.946054   -2.448218    1.005438
  H     -1.093132   -2.692827    0.586922
  H      0.138966   -2.848191   -0.675183
  H      0.060207   -4.021377    0.650212

 Total Charge           Charge          ....    0
 Multiplicity           Mult            ....    1
 Number of Electrons    NEL             ....   68
 Basis Dimension        Dim             ....  363

ORBITAL ENERGIES
----------------

  NO   OCC          E(Eh)            E(eV)
   0   2.0000     -11.248202      -306.0791
   1   2.0000     -11.233367      -305.6754
   2   2.0000     -11.226868      -305.4986
   3   2.0000     -11.226697      -305.4940
   4   2.0000     -11.224962      -305.4468
   5   2.0000     -11.219319      -305.2932
   6   2.0000     -11.214628      -305.1655
   7   2.0000     -11.213896      -305.1456
   8   2.0000     -11.211069      -305.0687
   9   2.0000      -1.151148       -31.3243
  10   2.0000      -1.047035       -28.4913
  11   2.0000      -1.012928       -27.5632
  12   2.0000      -0.978527       -26.6271
  13   2.0000      -0.912306       -24.8251
  14   2.0000      -0.860047       -23.4031
  15   2.0000      -0.829534       -22.5728
  16   2.0000      -0.734186       -19.9782
  17   2.0000      -0.705631       -19.2012
  18   2.0000      -0.672173       -18.2908
  19   2.0000      -0.645323       -17.5601
  20   2.0000      -0.610795       -16.6206
  21   2.0000      -0.590601       -16.0711
  22   2.0000      -0.566150       -15.4057
  23   2.0000      -0.548181       -14.9168
  24   2.0000      -0.531132       -14.4528
  25   2.0000      -0.521305       -14.1854
  26   2.0000      -0.513188       -13.9646
  27   2.0000      -0.495533       -13.4841
  28   2.0000      -0.481255       -13.0956
  29   2.0000      -0.449729       -12.2377
  30   2.0000      -0.441767       -12.0211
  31   2.0000      -0.426279       -11.5996
  32   2.0000      -0.373168       -10.1544
  33   2.0000      -0.371144       -10.0993
  34   0.0000       0.128708         3.5023
  35   0.0000       0.145625         3.9627
  36   0.0000       0.154020         4.1911
  37   0.0000       0.163014         4.4358
  38   0.0000       0.172207         4.6860

MULLIKEN ATOMIC CHARGES
-----------------------
   0 C :   -0.392801
   1 C :   -0.217058
   2 C :   -0.060618
   3 C :   -0.292898
   4 C :   -0.197038
   5 C :   -0.018396
   6 C :   -0.153227
   7 C :    0.013314
   8 C :   -0.458884
   9 H :    0.123096
  10 H :    0.135094
  11 H :    0.128454
  12 H :    0.108715
  13 H :    0.111498
  14 H :    0.093761
  15 H :    0.125425
  16 H :    0.122425
  17 H :    0.120458
  18 H :    0.186919
  19 H :    0.104907
  20 H :    0.136237
  21 H :    0.134981
  22 H :    0.145637
Sum of atomic charges:    0.0000000

LOEWDIN ATOMIC CHARGES
----------------------
   0 C :   -0.315464
   1 C :   -0.279399
   2 C :   -0.217576
   3 C :   -0.180325
   4 C :   -0.198158
   5 C :   -0.093950
   6 C :   -0.106307
   7 C :   -0.193513
   8 C :   -0.290490
   9 H :    0.120675
  10 H :    0.120616
  11 H :    0.121761
  12 H :    0.138000
  13 H :    0.138030
  14 H :    0.152534
  15 H :    0.125966
  16 H :    0.141575
  17 H :    0.168751
  18 H :    0.125221
  19 H :    0.140585
  20 H :    0.127030
  21 H :    0.124773
  22 H :    0.129666

  Mayer bond orders larger than 0.1
B(  0-C ,  1-C ) :   0.9171 B(  0-C ,  9-H ) :   0.9399 B(  0-C , 10-H ) :   0.9421
B(  0-C , 11-H ) :   0.9387 B(  1-C ,  2-C ) :   0.8887 B(  1-C , 12-H ) :   0.9311
B(  1-C , 13-H ) :   0.9384 B(  2-C ,  3-C ) :   0.9226 B(  2-C ,  7-C ) :   0.9187
B(  2-C , 14-H ) :   0.9183 B(  3-C ,  4-C ) :   0.9070 B(  3-C , 15-H ) :   0.9210
B(  3-C , 16-H ) :   0.9190 B(  4-C ,  5-C ) :   1.1677 B(  4-C ,  7-C ) :   0.9154
B(  4-C , 17-H ) :   0.9178 B(  5-C ,  6-C ) :   2.5812 B(  6-C , 18-H ) :   0.8931
B(  7-C ,  8-C ) :   0.9004 B(  7-C , 19-H ) :   0.9143 B(  8-C , 20-H ) :   0.9398
B(  8-C , 21-H ) :   0.9374 B(  8-C , 22-H ) :   0.9330

MP2 TOTAL ENERGY:     -350.465300043 Eh
FINAL SINGLE POINT ENERGY      -350.465300042634

DIPOLE MOMENT
-------------
                                X             Y             Z
Electronic contribution:      0.59649      -5.94928       6.75664
Nuclear contribution   :     -0.47319       6.15290      -6.99564
                        -----------------------------------------
Total Dipole Moment    :      0.12330       0.20362      -0.23901
                        -----------------------------------------
Magnitude (a.u.)       :      0.33732
Magnitude (Debye)      :      0.85741

                             ****ORCA TERMINATED NORMALLY****
TOTAL RUN TIME: 0 days 0 hours 35 minutes 3 seconds 48 msec
