                         Program Version 3.0.3 - RELEASE   -
|  1> ! RI-MP2 RIJK def2-TZVP def2-TZVP/C def2-TZVP/JK TIGHTSCF
|  2> % maxcore 2000
|  3> % mp2 density relaxed end
|  4> *xyz 0 1
|  5>  C        0.1124271849     1.3742913283    -0.1683301824
|  6>  N       -0.0085358208     0.0324247676     0.3919597711
|  7>  C       -1.2133457320    -0.6457523470     0.1627334895
|  8>  C       -1.3614918738    -1.9601429575    -0.1568331543
|  9>  O       -0.4432721953    -2.9050525885    -0.4602838758
| 10>  O       -2.6840648062    -2.3048979138    -0.2263441729
| 11>  C       -3.4008524018    -1.1741395413     0.0489935285
| 12>  C       -4.8813731026    -1.2986608263     0.0327094014
| 13>  C       -2.5554764519    -0.1356011854     0.2875401641
| 14>  H        1.1079063651     1.7645012555     0.0598878533
| 15>  H       -0.0423866480     1.4209839085    -1.2583195054
| 16>  H       -0.6161522767     2.0405710865     0.3035385816
| 17>  H        0.7730449987    -0.5517155319     0.1219810361
| 18>  H       -0.4427484644    -3.5924049713     0.2182705830
| 19>  H       -5.2344724616    -2.0334617756     0.7658659183
| 20>  H       -5.3349971249    -0.3342282205     0.2726467673
| 21>  H       -5.2515562721    -1.6154367895    -0.9495322767
| 22>  H       -2.8480724466     0.8726756222     0.5357702334
| 23> *
| 24>
| 25>                          ****END OF INPUT****

CARTESIAN COORDINATES (ANGSTROEM)
---------------------------------
  C      0.112427    1.374291   -0.168330
  N     -0.008536    0.032425    0.391960
  C     -1.213346   -0.645752    0.162733
  C     -1.361492   -1.960143   -0.156833
  O     -0.443272   -2.905053   -0.460284
  O     -2.684065   -2.304898   -0.226344
  C     -3.400852   -1.174140    0.048994
  C     -4.881373   -1.298661    0.032709
  C     -2.555476   -0.135601    0.287540
  H      1.107906    1.764501    0.059888
  H     -0.042387    1.420984   -1.258320
  H     -0.616152    2.040571    0.303539
  H      0.773045   -0.551716    0.121981
  H     -0.442748   -3.592405    0.218271
  H     -5.234472   -2.033462    0.765866
  H     -5.334997   -0.334228    0.272647
  H     -5.251556   -1.615437   -0.949532
  H     -2.848072    0.872676    0.535770

 Total Charge           Charge          ....    0
 Multiplicity           Mult            ....    1
 Number of Electrons    NEL             ....   68
 Basis Dimension        Dim             ....  333

ORBITAL ENERGIES
----------------

  NO   OCC          E(Eh)            E(eV)
   0   2.0000     -20.609192      -560.8046
   1   2.0000     -20.591719      -560.3292
   2   2.0000     -15.555173      -423.2778
   3   2.0000     -11.317764      -307.9720
   4   2.0000     -11.287696      -307.1538
   5   2.0000     -11.252681      -306.2010
   6   2.0000     -11.249785      -306.1222
   7   2.0000     -11.232659      -305.6562
   8   2.0000     -11.218361      -305.2671
   9   2.0000      -1.463161       -39.8146
  10   2.0000      -1.388518       -37.7835
  11   2.0000      -1.221276       -33.2326
  12   2.0000      -1.067348       -29.0440
  13   2.0000      -1.030923       -28.0528
  14   2.0000      -0.935014       -25.4430
  15   2.0000      -0.895761       -24.3749
  16   2.0000      -0.792553       -21.5665
  17   2.0000      -0.782276       -21.2868
  18   2.0000      -0.742228       -20.1971
  19   2.0000      -0.668508       -18.1910
  20   2.0000      -0.651422       -17.7261
  21   2.0000      -0.634105       -17.2549
  22   2.0000      -0.605159       -16.4672
  23   2.0000      -0.592665       -16.1272
  24   2.0000      -0.579522       -15.7696
  25   2.0000      -0.573504       -15.6058
  26   2.0000      -0.564369       -15.3573
  27   2.0000      -0.552289       -15.0285
  28   2.0000      -0.536187       -14.5904
  29   2.0000      -0.521880       -14.2011
  30   2.0000      -0.500838       -13.6285
  31   2.0000      -0.448441       -12.2027
  32   2.0000      -0.353358        -9.6154
  33   2.0000      -0.276594        -7.5265
  34   0.0000       0.132178         3.5967
  35   0.0000       0.145690         3.9644
  36   0.0000       0.154239         4.1970
  37   0.0000       0.162296         4.4163
  38   0.0000       0.179031         4.8717

MULLIKEN ATOMIC CHARGES
-----------------------
   0 C :   -0.270105
   1 N :   -0.332946
   2 C :    0.117408
   3 C :    0.161331
   4 O :   -0.450084
   5 O :   -0.216765
   6 C :    0.232530
   7 C :   -0.429407
   8 C :   -0.331912
   9 H :    0.135528
  10 H :    0.119649
  11 H :    0.127988
  12 H :    0.224339
  13 H :    0.347682
  14 H :    0.143847
  15 H :    0.143992
  16 H :    0.146352
  17 H :    0.130572
Sum of atomic charges:    0.0000000

LOEWDIN ATOMIC CHARGES
----------------------
   0 C :   -0.331919
   1 N :    0.019223
   2 C :   -0.255423
   3 C :   -0.396129
   4 O :    0.057364
   5 O :    0.348750
   6 C :   -0.279523
   7 C :   -0.276795
   8 C :   -0.147870
   9 H :    0.116270
  10 H :    0.103767
  11 H :    0.115800
  12 H :    0.181672
  13 H :    0.197643
  14 H :    0.132713
  15 H :    0.137347
  16 H :    0.133253
  17 H :    0.143857

  Mayer bond orders larger than 0.1
B(  0-C ,  1-N ) :   0.9154 B(  0-C ,  9-H ) :   0.9384 B(  0-C , 10-H ) :   0.9264
B(  0-C , 11-H ) :   0.9410 B(  1-N ,  2-C ) :   1.0920 B(  1-N , 12-H ) :   0.8800
B(  2-C ,  3-C ) :   1.4793 B(  2-C ,  8-C ) :   1.1632 B(  3-C ,  4-O ) :   1.1685
B(  3-C ,  5-O ) :   1.0501 B(  4-O , 13-H ) :   0.8217 B(  5-O ,  6-C ) :   1.0056
B(  6-C ,  7-C ) :   0.8684 B(  6-C ,  8-C ) :   1.5653 B(  7-C , 14-H ) :   0.9330
B(  7-C , 15-H ) :   0.9529 B(  7-C , 16-H ) :   0.9306 B(  8-C , 17-H ) :   0.9151

MP2 TOTAL ENERGY:     -438.376532326 Eh
FINAL SINGLE POINT ENERGY      -438.376532326212

DIPOLE MOMENT
-------------
                                X             Y             Z
Electronic contribution:      1.60419      -6.64047      -0.03382
Nuclear contribution   :     -1.62971       6.76036       0.25387
                        -----------------------------------------
Total Dipole Moment    :     -0.02552       0.11989       0.22005
                        -----------------------------------------
Magnitude (a.u.)       :      0.25188
Magnitude (Debye)      :      0.64024

                             ****ORCA TERMINATED NORMALLY****
TOTAL RUN TIME: 0 days 0 hours 16 minutes 33 seconds 124 msec
