                         Program Version 3.0.3 - RELEASE   -
|  1> ! RI-MP2 RIJK def2-TZVP def2-TZVP/C def2-TZVP/JK TIGHTSCF
|  2> % maxcore 2000
|  3> % mp2 density relaxed end
|  4> *xyz 0 1
|  5>  C       -0.3679749904     1.5063521255     0.1540917222
|  6>  C       -0.3258126497    -0.0241321393     0.2015259671
|  7>  C        0.7818733344    -0.5695223475     1.1188003592
|  8>  N        0.6189602024    -0.1578641023     2.5081862156
|  9>  C        0.0815732702    -1.1024525599     3.3444948801
| 10>  O       -0.2266068511    -0.9324778282     4.5035303521
| 11>  C       -0.0489074019    -2.3827082496     2.5156877020
| 12>  C        0.8220279243    -2.1232887121     1.2739832465
| 13>  C        0.4490934890    -2.9354507587     0.0363950149
| 14>  H        0.5913518409     1.9201556170    -0.1777886174
| 15>  H       -1.1377516385     1.8573798270    -0.5392056293
| 16>  H       -0.5961520668     1.9326795402     1.1364771799
| 17>  H       -1.2982152155    -0.4088513501     0.5333766577
| 18>  H       -0.1612333677    -0.4116585287    -0.8104423127
| 19>  H        1.7466899480    -0.2089940676     0.7376999889
| 20>  H        0.6986468339     0.7977169565     2.8180419207
| 21>  H        0.2542494491    -3.2534928407     3.1000754918
| 22>  H       -1.1060484112    -2.5179840021     2.2544955722
| 23>  H        1.8555964701    -2.3696350904     1.5459703832
| 24>  H       -0.5908500801    -2.7707495478    -0.2621853713
| 25>  H        1.0891309226    -2.6869084371    -0.8172512176
| 26>  H        0.5678892982    -4.0051306141     0.2361021042
| 27> *
| 28>
| 29>                          ****END OF INPUT****

CARTESIAN COORDINATES (ANGSTROEM)
---------------------------------
  C     -0.367975    1.506352    0.154092
  C     -0.325813   -0.024132    0.201526
  C      0.781873   -0.569522    1.118800
  N      0.618960   -0.157864    2.508186
  C      0.081573   -1.102453    3.344495
  O     -0.226607   -0.932478    4.503530
  C     -0.048907   -2.382708    2.515688
  C      0.822028   -2.123289    1.273983
  C      0.449093   -2.935451    0.036395
  H      0.591352    1.920156   -0.177789
  H     -1.137752    1.857380   -0.539206
  H     -0.596152    1.932680    1.136477
  H     -1.298215   -0.408851    0.533377
  H     -0.161233   -0.411659   -0.810442
  H      1.746690   -0.208994    0.737700
  H      0.698647    0.797717    2.818042
  H      0.254249   -3.253493    3.100075
  H     -1.106048   -2.517984    2.254496
  H      1.855596   -2.369635    1.545970
  H     -0.590850   -2.770750   -0.262185
  H      1.089131   -2.686908   -0.817251
  H      0.567889   -4.005131    0.236102

 Total Charge           Charge          ....    0
 Multiplicity           Mult            ....    1
 Number of Electrons    NEL             ....   70
 Basis Dimension        Dim             ....  357

ORBITAL ENERGIES
----------------

  NO   OCC          E(Eh)            E(eV)
   0   2.0000     -20.509571      -558.0938
   1   2.0000     -15.574853      -423.8133
   2   2.0000     -11.339935      -308.5753
   3   2.0000     -11.277372      -306.8729
   4   2.0000     -11.246434      -306.0310
   5   2.0000     -11.235454      -305.7323
   6   2.0000     -11.232803      -305.6601
   7   2.0000     -11.228580      -305.5452
   8   2.0000     -11.226141      -305.4788
   9   2.0000      -1.373794       -37.3828
  10   2.0000      -1.247546       -33.9474
  11   2.0000      -1.083129       -29.4734
  12   2.0000      -1.053261       -28.6607
  13   2.0000      -0.972983       -26.4762
  14   2.0000      -0.932808       -25.3830
  15   2.0000      -0.848647       -23.0928
  16   2.0000      -0.792798       -21.5731
  17   2.0000      -0.769670       -20.9438
  18   2.0000      -0.692576       -18.8459
  19   2.0000      -0.657075       -17.8799
  20   2.0000      -0.636403       -17.3174
  21   2.0000      -0.616002       -16.7623
  22   2.0000      -0.592762       -16.1299
  23   2.0000      -0.589374       -16.0377
  24   2.0000      -0.581621       -15.8267
  25   2.0000      -0.558521       -15.1981
  26   2.0000      -0.536383       -14.5957
  27   2.0000      -0.527391       -14.3510
  28   2.0000      -0.522975       -14.2309
  29   2.0000      -0.513593       -13.9756
  30   2.0000      -0.498395       -13.5620
  31   2.0000      -0.467459       -12.7202
  32   2.0000      -0.460629       -12.5343
  33   2.0000      -0.406774       -11.0689
  34   2.0000      -0.385126       -10.4798
  35   0.0000       0.120425         3.2769
  36   0.0000       0.141338         3.8460
  37   0.0000       0.145907         3.9703
  38   0.0000       0.160303         4.3621
  39   0.0000       0.182248         4.9592

MULLIKEN ATOMIC CHARGES
-----------------------
   0 C :   -0.419342
   1 C :   -0.241665
   2 C :    0.060702
   3 N :   -0.317258
   4 C :    0.196618
   5 O :   -0.340481
   6 C :   -0.235923
   7 C :   -0.050374
   8 C :   -0.417785
   9 H :    0.127465
  10 H :    0.142056
  11 H :    0.127348
  12 H :    0.122214
  13 H :    0.114487
  14 H :    0.114131
  15 H :    0.236178
  16 H :    0.140029
  17 H :    0.123932
  18 H :    0.102110
  19 H :    0.133851
  20 H :    0.137210
  21 H :    0.144498
Sum of atomic charges:   -0.0000000

LOEWDIN ATOMIC CHARGES
----------------------
   0 C :   -0.319922
   1 C :   -0.274250
   2 C :   -0.252476
   3 N :    0.143472
   4 C :   -0.447346
   5 O :    0.079361
   6 C :   -0.198282
   7 C :   -0.244583
   8 C :   -0.294728
   9 H :    0.121923
  10 H :    0.124287
  11 H :    0.119080
  12 H :    0.139998
  13 H :    0.141170
  14 H :    0.146527
  15 H :    0.181542
  16 H :    0.147403
  17 H :    0.151249
  18 H :    0.157885
  19 H :    0.124543
  20 H :    0.125107
  21 H :    0.128040

  Mayer bond orders larger than 0.1
B(  0-C ,  1-C ) :   0.9146 B(  0-C ,  9-H ) :   0.9363 B(  0-C , 10-H ) :   0.9417
B(  0-C , 11-H ) :   0.9429 B(  1-C ,  2-C ) :   0.9077 B(  1-C , 12-H ) :   0.9256
B(  1-C , 13-H ) :   0.9301 B(  2-C ,  3-N ) :   0.8370 B(  2-C ,  7-C ) :   0.9014
B(  2-C , 14-H ) :   0.9270 B(  3-N ,  4-C ) :   1.1675 B(  3-N , 15-H ) :   0.8664
B(  4-C ,  5-O ) :   2.0222 B(  4-C ,  6-C ) :   0.9138 B(  6-C ,  7-C ) :   0.9265
B(  6-C , 16-H ) :   0.9199 B(  6-C , 17-H ) :   0.9039 B(  7-C ,  8-C ) :   0.9014
B(  7-C , 18-H ) :   0.9257 B(  8-C , 19-H ) :   0.9304 B(  8-C , 20-H ) :   0.9432
B(  8-C , 21-H ) :   0.9370

MP2 TOTAL ENERGY:     -403.720663158 Eh
FINAL SINGLE POINT ENERGY      -403.720663157625

DIPOLE MOMENT
-------------
                                X             Y             Z
Electronic contribution:      0.83835      -0.16636      10.36383
Nuclear contribution   :     -0.48047       0.23286     -11.98069
                        -----------------------------------------
Total Dipole Moment    :      0.35788       0.06650      -1.61686
                        -----------------------------------------
Magnitude (a.u.)       :      1.65733
Magnitude (Debye)      :      4.21259

                             ****ORCA TERMINATED NORMALLY****
TOTAL RUN TIME: 0 days 0 hours 33 minutes 11 seconds 258 msec
