                         Program Version 3.0.3 - RELEASE   -
|  1> ! RI-MP2 RIJK def2-TZVP def2-TZVP/C def2-TZVP/JK TIGHTSCF
|  2> % maxcore 2000
|  3> % mp2 density relaxed end
|  4> *xyz 0 1
|  5>  C       -0.2378121715     1.5010937053    -0.0075291850
|  6>  C        0.0216377959    -0.0127602401     0.0210459075
|  7>  C        0.8096760346    -0.4316265244    -1.2215926181
|  8>  O        1.1494964833    -1.8123536310    -1.2257010866
|  9>  C        1.8000233819    -2.2880052701    -0.1093362211
| 10>  N        2.4692800553    -3.3706345505    -0.1581320213
| 11>  C        1.6410129435    -1.5313797050     1.1207683026
| 12>  C        0.7823541312    -0.4962273391     1.2401655413
| 13>  N        0.4740417279     0.0929970343     2.4493996013
| 14>  H        0.6940125193     2.0703912483     0.0814747945
| 15>  H       -0.7118722292     1.7848070497    -0.9521992120
| 16>  H       -0.9150751318     1.8150264916     0.7923295449
| 17>  H       -0.9489936720    -0.5286607573     0.0075336406
| 18>  H        0.2191214890    -0.2689166761    -2.1271797613
| 19>  H        1.7242553473     0.1757611504    -1.2942755470
| 20>  H        2.4558485036    -3.7359123629    -1.1121231682
| 21>  H        2.1910341871    -1.9137038846     1.9730893516
| 22>  H        1.0709367765    -0.1569449368     3.2243657162
| 23>  H        0.2388008979     1.0728746183     2.4345884501
| 24> *
| 25>
| 26>                          ****END OF INPUT****

CARTESIAN COORDINATES (ANGSTROEM)
---------------------------------
  C     -0.237812    1.501094   -0.007529
  C      0.021638   -0.012760    0.021046
  C      0.809676   -0.431627   -1.221593
  O      1.149496   -1.812354   -1.225701
  C      1.800023   -2.288005   -0.109336
  N      2.469280   -3.370635   -0.158132
  C      1.641013   -1.531380    1.120768
  C      0.782354   -0.496227    1.240166
  N      0.474042    0.092997    2.449400
  H      0.694013    2.070391    0.081475
  H     -0.711872    1.784807   -0.952199
  H     -0.915075    1.815026    0.792330
  H     -0.948994   -0.528661    0.007534
  H      0.219121   -0.268917   -2.127180
  H      1.724255    0.175761   -1.294276
  H      2.455849   -3.735912   -1.112123
  H      2.191034   -1.913704    1.973089
  H      1.070937   -0.156945    3.224366
  H      0.238801    1.072875    2.434588

 Total Charge           Charge          ....    0
 Multiplicity           Mult            ....    1
 Number of Electrons    NEL             ....   68
 Basis Dimension        Dim             ....  339

ORBITAL ENERGIES
----------------

  NO   OCC          E(Eh)            E(eV)
   0   2.0000     -20.580609      -560.0268
   1   2.0000     -15.583562      -424.0503
   2   2.0000     -15.509634      -422.0386
   3   2.0000     -11.322809      -308.1093
   4   2.0000     -11.299801      -307.4832
   5   2.0000     -11.294006      -307.3255
   6   2.0000     -11.258863      -306.3692
   7   2.0000     -11.245501      -306.0056
   8   2.0000     -11.213129      -305.1247
   9   2.0000      -1.413378       -38.4600
  10   2.0000      -1.243995       -33.8508
  11   2.0000      -1.176253       -32.0075
  12   2.0000      -1.095477       -29.8094
  13   2.0000      -1.024615       -27.8812
  14   2.0000      -0.946235       -25.7484
  15   2.0000      -0.872933       -23.7537
  16   2.0000      -0.821496       -22.3541
  17   2.0000      -0.735515       -20.0144
  18   2.0000      -0.725587       -19.7442
  19   2.0000      -0.698663       -19.0116
  20   2.0000      -0.655653       -17.8412
  21   2.0000      -0.640101       -17.4180
  22   2.0000      -0.625819       -17.0294
  23   2.0000      -0.612823       -16.6758
  24   2.0000      -0.578068       -15.7300
  25   2.0000      -0.560290       -15.2463
  26   2.0000      -0.544384       -14.8134
  27   2.0000      -0.536622       -14.6022
  28   2.0000      -0.505462       -13.7543
  29   2.0000      -0.483121       -13.1464
  30   2.0000      -0.470784       -12.8107
  31   2.0000      -0.421953       -11.4819
  32   2.0000      -0.404211       -10.9992
  33   2.0000      -0.313957        -8.5432
  34   0.0000       0.114654         3.1199
  35   0.0000       0.126622         3.4455
  36   0.0000       0.151193         4.1142
  37   0.0000       0.159517         4.3407
  38   0.0000       0.170748         4.6463

MULLIKEN ATOMIC CHARGES
-----------------------
   0 C :   -0.473685
   1 C :    0.000150
   2 C :   -0.070106
   3 O :   -0.271493
   4 C :    0.163564
   5 N :   -0.380380
   6 C :   -0.285643
   7 C :    0.198751
   8 N :   -0.505880
   9 H :    0.146887
  10 H :    0.147835
  11 H :    0.141702
  12 H :    0.112264
  13 H :    0.129579
  14 H :    0.104124
  15 H :    0.215766
  16 H :    0.119846
  17 H :    0.251820
  18 H :    0.254900
Sum of atomic charges:    0.0000000

LOEWDIN ATOMIC CHARGES
----------------------
   0 C :   -0.289134
   1 C :   -0.240288
   2 C :   -0.268118
   3 O :    0.228676
   4 C :   -0.410855
   5 N :   -0.068482
   6 C :   -0.152702
   7 C :   -0.235835
   8 N :   -0.036533
   9 H :    0.127871
  10 H :    0.131554
  11 H :    0.123513
  12 H :    0.167494
  13 H :    0.133868
  14 H :    0.131321
  15 H :    0.162861
  16 H :    0.154899
  17 H :    0.172431
  18 H :    0.167458

  Mayer bond orders larger than 0.1
B(  0-C ,  1-C ) :   0.8823 B(  0-C ,  9-H ) :   0.9305 B(  0-C , 10-H ) :   0.9362
B(  0-C , 11-H ) :   0.9374 B(  1-C ,  2-C ) :   0.9376 B(  1-C ,  7-C ) :   0.9210
B(  1-C , 12-H ) :   0.9007 B(  2-C ,  3-O ) :   0.8987 B(  2-C , 13-H ) :   0.9306
B(  2-C , 14-H ) :   0.9210 B(  3-O ,  4-C ) :   1.0541 B(  4-C ,  5-N ) :   2.0131
B(  4-C ,  6-C ) :   1.0533 B(  5-N , 15-H ) :   0.8602 B(  6-C ,  7-C ) :   1.5511
B(  6-C , 16-H ) :   0.9421 B(  7-C ,  8-N ) :   1.0680 B(  8-N , 17-H ) :   0.8759
B(  8-N , 18-H ) :   0.8706

MP2 TOTAL ENERGY:     -418.528771511 Eh
FINAL SINGLE POINT ENERGY      -418.528771511100

DIPOLE MOMENT
-------------
                                X             Y             Z
Electronic contribution:      2.83012      -6.84764      -0.45492
Nuclear contribution   :     -3.53304       8.73125       0.74181
                        -----------------------------------------
Total Dipole Moment    :     -0.70291       1.88361       0.28689
                        -----------------------------------------
Magnitude (a.u.)       :      2.03086
Magnitude (Debye)      :      5.16203

                             ****ORCA TERMINATED NORMALLY****
TOTAL RUN TIME: 0 days 0 hours 18 minutes 27 seconds 574 msec
