                         Program Version 3.0.3 - RELEASE   -
|  1> ! RI-MP2 RIJK def2-TZVP def2-TZVP/C def2-TZVP/JK TIGHTSCF
|  2> % maxcore 2000
|  3> % mp2 density relaxed end
|  4> *xyz 0 1
|  5>  C        0.2582369633     1.3319923270     0.2432867286
|  6>  O        0.2253851016    -0.0746305792     0.0924923409
|  7>  C        0.6514580900    -0.5805887070    -1.1662904758
|  8>  C       -0.2340351161    -0.1008541398    -2.3110654243
|  9>  O        1.9780388603    -0.1752326314    -1.4486737592
| 10>  C        2.9116179197    -1.0880920223    -0.8510990671
| 11>  C        2.0848944108    -2.2374665478    -0.2521368359
| 12>  C        0.7423797343    -2.1114725625    -0.9927595786
| 13>  C       -0.4447678037    -2.7782237483    -0.3039754203
| 14>  H        1.2123213354     1.7489095979    -0.0988802508
| 15>  H       -0.5606658527     1.8270014574    -0.2969720362
| 16>  H        0.1390770379     1.5357691625     1.3104629208
| 17>  H       -0.1284222080     0.9761943251    -2.4605454373
| 18>  H        0.0555277809    -0.5967503013    -3.2404957801
| 19>  H       -1.2829096131    -0.3238138622    -2.0980047713
| 20>  H        3.5893084917    -1.4341397011    -1.6410688853
| 21>  H        3.5109207031    -0.5634914929    -0.0983614194
| 22>  H        2.5597009504    -3.2114829353    -0.3936634871
| 23>  H        1.9281594619    -2.0863473024     0.8194348180
| 24>  H        0.8588574805    -2.5273653990    -2.0015145387
| 25>  H       -0.6013679736    -2.3551283062     0.6905053862
| 26>  H       -1.3673926203    -2.6428855478    -0.8781937328
| 27>  H       -0.2755277744    -3.8551563933    -0.2019277944
| 28> *
| 29>
| 30>                          ****END OF INPUT****

CARTESIAN COORDINATES (ANGSTROEM)
---------------------------------
  C      0.258237    1.331992    0.243287
  O      0.225385   -0.074631    0.092492
  C      0.651458   -0.580589   -1.166290
  C     -0.234035   -0.100854   -2.311065
  O      1.978039   -0.175233   -1.448674
  C      2.911618   -1.088092   -0.851099
  C      2.084894   -2.237467   -0.252137
  C      0.742380   -2.111473   -0.992760
  C     -0.444768   -2.778224   -0.303975
  H      1.212321    1.748910   -0.098880
  H     -0.560666    1.827001   -0.296972
  H      0.139077    1.535769    1.310463
  H     -0.128422    0.976194   -2.460545
  H      0.055528   -0.596750   -3.240496
  H     -1.282910   -0.323814   -2.098005
  H      3.589308   -1.434140   -1.641069
  H      3.510921   -0.563491   -0.098361
  H      2.559701   -3.211483   -0.393663
  H      1.928159   -2.086347    0.819435
  H      0.858857   -2.527365   -2.001515
  H     -0.601368   -2.355128    0.690505
  H     -1.367393   -2.642886   -0.878194
  H     -0.275528   -3.855156   -0.201928

 Total Charge           Charge          ....    0
 Multiplicity           Mult            ....    1
 Number of Electrons    NEL             ....   72
 Basis Dimension        Dim             ....  363

ORBITAL ENERGIES
----------------

  NO   OCC          E(Eh)            E(eV)
   0   2.0000     -20.548023      -559.1401
   1   2.0000     -20.548004      -559.1396
   2   2.0000     -11.327531      -308.2378
   3   2.0000     -11.269638      -306.6625
   4   2.0000     -11.261503      -306.4411
   5   2.0000     -11.226426      -305.4866
   6   2.0000     -11.218999      -305.2845
   7   2.0000     -11.213015      -305.1216
   8   2.0000     -11.209653      -305.0302
   9   2.0000      -1.408729       -38.3335
  10   2.0000      -1.335022       -36.3278
  11   2.0000      -1.078896       -29.3583
  12   2.0000      -1.025918       -27.9166
  13   2.0000      -0.953637       -25.9498
  14   2.0000      -0.929064       -25.2811
  15   2.0000      -0.880963       -23.9722
  16   2.0000      -0.800932       -21.7945
  17   2.0000      -0.753349       -20.4997
  18   2.0000      -0.681670       -18.5492
  19   2.0000      -0.669259       -18.2115
  20   2.0000      -0.649857       -17.6835
  21   2.0000      -0.625181       -17.0120
  22   2.0000      -0.609284       -16.5795
  23   2.0000      -0.588061       -16.0020
  24   2.0000      -0.567849       -15.4520
  25   2.0000      -0.551798       -15.0152
  26   2.0000      -0.547492       -14.8980
  27   2.0000      -0.532020       -14.4770
  28   2.0000      -0.520744       -14.1702
  29   2.0000      -0.506018       -13.7694
  30   2.0000      -0.487677       -13.2704
  31   2.0000      -0.476681       -12.9712
  32   2.0000      -0.463158       -12.6032
  33   2.0000      -0.437477       -11.9043
  34   2.0000      -0.429062       -11.6754
  35   2.0000      -0.419000       -11.4016
  36   0.0000       0.137304         3.7362
  37   0.0000       0.157016         4.2726
  38   0.0000       0.160749         4.3742
  39   0.0000       0.170330         4.6349
  40   0.0000       0.196995         5.3605

MULLIKEN ATOMIC CHARGES
-----------------------
   0 C :   -0.255513
   1 O :   -0.318253
   2 C :    0.333633
   3 C :   -0.439048
   4 O :   -0.322297
   5 C :   -0.037206
   6 C :   -0.266516
   7 C :   -0.018528
   8 C :   -0.429742
   9 H :    0.139582
  10 H :    0.115397
  11 H :    0.137448
  12 H :    0.145341
  13 H :    0.133866
  14 H :    0.138756
  15 H :    0.102224
  16 H :    0.100966
  17 H :    0.126541
  18 H :    0.116724
  19 H :    0.091499
  20 H :    0.146386
  21 H :    0.126907
  22 H :    0.131836
Sum of atomic charges:    0.0000000

LOEWDIN ATOMIC CHARGES
----------------------
   0 C :   -0.355274
   1 O :    0.174394
   2 C :   -0.449140
   3 C :   -0.268818
   4 O :    0.187356
   5 C :   -0.286273
   6 C :   -0.240069
   7 C :   -0.237627
   8 C :   -0.291060
   9 H :    0.108849
  10 H :    0.101422
  11 H :    0.111890
  12 H :    0.129799
  13 H :    0.130714
  14 H :    0.130041
  15 H :    0.121372
  16 H :    0.120720
  17 H :    0.135690
  18 H :    0.141834
  19 H :    0.157827
  20 H :    0.128959
  21 H :    0.123553
  22 H :    0.123842

  Mayer bond orders larger than 0.1
B(  0-C ,  1-O ) :   0.9033 B(  0-C ,  9-H ) :   0.9360 B(  0-C , 10-H ) :   0.9346
B(  0-C , 11-H ) :   0.9398 B(  1-O ,  2-C ) :   0.9808 B(  2-C ,  3-C ) :   0.8752
B(  2-C ,  4-O ) :   0.9875 B(  2-C ,  7-C ) :   0.9059 B(  3-C , 12-H ) :   0.9370
B(  3-C , 13-H ) :   0.9359 B(  3-C , 14-H ) :   0.9476 B(  4-O ,  5-C ) :   0.9145
B(  5-C ,  6-C ) :   0.9638 B(  5-C , 15-H ) :   0.9284 B(  5-C , 16-H ) :   0.9301
B(  6-C ,  7-C ) :   0.9294 B(  6-C , 17-H ) :   0.9288 B(  6-C , 18-H ) :   0.9173
B(  7-C ,  8-C ) :   0.9051 B(  7-C , 19-H ) :   0.9279 B(  8-C , 20-H ) :   0.9312
B(  8-C , 21-H ) :   0.9387 B(  8-C , 22-H ) :   0.9384

MP2 TOTAL ENERGY:     -424.740831603 Eh
FINAL SINGLE POINT ENERGY      -424.740831602638

DIPOLE MOMENT
-------------
                                X             Y             Z
Electronic contribution:      2.73591       1.51051      -0.19213
Nuclear contribution   :     -2.72295      -1.70872       0.16127
                        -----------------------------------------
Total Dipole Moment    :      0.01296      -0.19821      -0.03086
                        -----------------------------------------
Magnitude (a.u.)       :      0.20102
Magnitude (Debye)      :      0.51095

                             ****ORCA TERMINATED NORMALLY****
TOTAL RUN TIME: 0 days 0 hours 20 minutes 16 seconds 756 msec
