                         Program Version 3.0.3 - RELEASE   -
|  1> ! RI-MP2 RIJK def2-TZVP def2-TZVP/C def2-TZVP/JK TIGHTSCF
|  2> % maxcore 2000
|  3> % mp2 density relaxed end
|  4> *xyz 0 1
|  5>  C       -0.0032186832     1.3926985910     0.0229014927
|  6>  N        0.0019072514    -0.0423397026    -0.1563842218
|  7>  C       -1.1906493011    -0.8693460739    -0.0607609933
|  8>  C       -2.1314696520    -0.6726128420    -1.2648384396
|  9>  O       -1.5136453074    -0.9838412370    -2.4914462013
| 10>  C       -0.6096336884    -2.2591068472     0.0304021312
| 11>  C        0.7216636551    -2.2126678872     0.0342705963
| 12>  C        1.1671074245    -0.7918749673    -0.0305953853
| 13>  O        2.2935324378    -0.3428600695     0.0170482127
| 14>  H        1.0375589886     1.7222207504     0.0081030385
| 15>  H       -0.5495249627     1.9001707051    -0.7796376592
| 16>  H       -0.4539454566     1.6804767431     0.9822577770
| 17>  H       -1.7596817506    -0.6286625569     0.8532920914
| 18>  H       -2.9926726799    -1.3412104448    -1.1604243960
| 19>  H       -2.5162563758     0.3601272292    -1.2498871245
| 20>  H       -0.6590453034    -0.5362736556    -2.4996367849
| 21>  H       -1.2392459639    -3.1390412866     0.0593077424
| 22>  H        1.4260601477    -3.0301075882     0.0873617337
| 23> *
| 24>
| 25>                          ****END OF INPUT****

CARTESIAN COORDINATES (ANGSTROEM)
---------------------------------
  C     -0.003219    1.392699    0.022901
  N      0.001907   -0.042340   -0.156384
  C     -1.190649   -0.869346   -0.060761
  C     -2.131470   -0.672613   -1.264838
  O     -1.513645   -0.983841   -2.491446
  C     -0.609634   -2.259107    0.030402
  C      0.721664   -2.212668    0.034271
  C      1.167107   -0.791875   -0.030595
  O      2.293532   -0.342860    0.017048
  H      1.037559    1.722221    0.008103
  H     -0.549525    1.900171   -0.779638
  H     -0.453945    1.680477    0.982258
  H     -1.759682   -0.628663    0.853292
  H     -2.992673   -1.341210   -1.160424
  H     -2.516256    0.360127   -1.249887
  H     -0.659045   -0.536274   -2.499637
  H     -1.239246   -3.139041    0.059308
  H      1.426060   -3.030108    0.087362

 Total Charge           Charge          ....    0
 Multiplicity           Mult            ....    1
 Number of Electrons    NEL             ....   68
 Basis Dimension        Dim             ....  333

ORBITAL ENERGIES
----------------

  NO   OCC          E(Eh)            E(eV)
   0   2.0000     -20.566479      -559.6423
   1   2.0000     -20.522059      -558.4336
   2   2.0000     -15.588881      -424.1950
   3   2.0000     -11.351581      -308.8922
   4   2.0000     -11.295486      -307.3658
   5   2.0000     -11.293871      -307.3219
   6   2.0000     -11.268488      -306.6312
   7   2.0000     -11.266435      -306.5753
   8   2.0000     -11.248144      -306.0776
   9   2.0000      -1.387558       -37.7574
  10   2.0000      -1.375211       -37.4214
  11   2.0000      -1.271918       -34.6106
  12   2.0000      -1.101968       -29.9861
  13   2.0000      -1.021260       -27.7899
  14   2.0000      -0.947874       -25.7930
  15   2.0000      -0.890446       -24.2303
  16   2.0000      -0.803936       -21.8762
  17   2.0000      -0.755616       -20.5614
  18   2.0000      -0.707402       -19.2494
  19   2.0000      -0.699385       -19.0312
  20   2.0000      -0.671083       -18.2611
  21   2.0000      -0.646372       -17.5887
  22   2.0000      -0.612850       -16.6765
  23   2.0000      -0.606886       -16.5142
  24   2.0000      -0.603423       -16.4200
  25   2.0000      -0.584886       -15.9156
  26   2.0000      -0.551397       -15.0043
  27   2.0000      -0.547438       -14.8965
  28   2.0000      -0.534598       -14.5471
  29   2.0000      -0.509732       -13.8705
  30   2.0000      -0.462963       -12.5979
  31   2.0000      -0.428589       -11.6625
  32   2.0000      -0.392246       -10.6735
  33   2.0000      -0.384418       -10.4605
  34   0.0000       0.096326         2.6212
  35   0.0000       0.130194         3.5428
  36   0.0000       0.144458         3.9309
  37   0.0000       0.162045         4.4095
  38   0.0000       0.173385         4.7180

MULLIKEN ATOMIC CHARGES
-----------------------
   0 C :   -0.331324
   1 N :   -0.148281
   2 C :    0.002795
   3 C :   -0.032908
   4 O :   -0.467100
   5 C :   -0.147604
   6 C :   -0.176491
   7 C :    0.229250
   8 O :   -0.357441
   9 H :    0.182225
  10 H :    0.138688
  11 H :    0.134239
  12 H :    0.115255
  13 H :    0.119930
  14 H :    0.115588
  15 H :    0.324099
  16 H :    0.148454
  17 H :    0.150625
Sum of atomic charges:    0.0000000

LOEWDIN ATOMIC CHARGES
----------------------
   0 C :   -0.294658
   1 N :    0.182556
   2 C :   -0.254410
   3 C :   -0.325794
   4 O :   -0.030099
   5 C :   -0.100413
   6 C :   -0.107583
   7 C :   -0.418164
   8 O :    0.088539
   9 H :    0.138236
  10 H :    0.116862
  11 H :    0.117631
  12 H :    0.159808
  13 H :    0.134249
  14 H :    0.120317
  15 H :    0.178869
  16 H :    0.145627
  17 H :    0.148425

  Mayer bond orders larger than 0.1
B(  0-C ,  1-N ) :   0.8699 B(  0-C ,  9-H ) :   0.9203 B(  0-C , 10-H ) :   0.9300
B(  0-C , 11-H ) :   0.9318 B(  1-N ,  2-C ) :   0.9277 B(  1-N ,  7-C ) :   1.0855
B(  2-C ,  3-C ) :   0.9095 B(  2-C ,  5-C ) :   0.9371 B(  2-C , 12-H ) :   0.8986
B(  3-C ,  4-O ) :   0.9332 B(  3-C , 13-H ) :   0.9293 B(  3-C , 14-H ) :   0.9254
B(  4-O , 15-H ) :   0.8305 B(  5-C ,  6-C ) :   1.7291 B(  5-C , 16-H ) :   0.9121
B(  6-C ,  7-C ) :   0.9755 B(  6-C , 17-H ) :   0.9269 B(  7-C ,  8-O ) :   1.9371

MP2 TOTAL ENERGY:     -438.402699068 Eh
FINAL SINGLE POINT ENERGY      -438.402699068169

DIPOLE MOMENT
-------------
                                X             Y             Z
Electronic contribution:      4.61589      -3.04237      -0.02757
Nuclear contribution   :     -5.89562       3.14715       0.54281
                        -----------------------------------------
Total Dipole Moment    :     -1.27973       0.10478       0.51523
                        -----------------------------------------
Magnitude (a.u.)       :      1.38353
Magnitude (Debye)      :      3.51664

                             ****ORCA TERMINATED NORMALLY****
TOTAL RUN TIME: 0 days 0 hours 29 minutes 23 seconds 227 msec
