                         Program Version 3.0.3 - RELEASE   -
|  1> ! RI-MP2 RIJK def2-TZVP def2-TZVP/C def2-TZVP/JK TIGHTSCF
|  2> % maxcore 2000
|  3> % mp2 density relaxed end
|  4> *xyz 0 1
|  5>  C        0.0215680712     1.4949404370     0.0179929435
|  6>  C       -0.0394263320     0.0068506566     0.0370180645
|  7>  N        0.0142783145    -0.7411902119    -1.0303921406
|  8>  O       -0.0709272298    -2.0405636193    -0.6028204998
|  9>  N       -0.1926979413    -2.1124032513     0.7590499158
| 10>  C       -0.1643985295    -0.8724982912     1.1561063034
| 11>  O       -0.2677353386    -0.4634045183     2.4402934005
| 12>  C        0.1474981752    -1.3222665371     3.4447530250
| 13>  O       -0.0151282422    -1.0388599222     4.5840284849
| 14>  H        0.8651863796     1.8555545932     0.6144771375
| 15>  H        0.1332485211     1.8508089534    -1.0070049226
| 16>  H       -0.8886689157     1.9248249904     0.4471277766
| 17>  H        0.6246813075    -2.2284961092     3.0453610012
| 18> *
| 19>
| 20>                          ****END OF INPUT****

CARTESIAN COORDINATES (ANGSTROEM)
---------------------------------
  C      0.021568    1.494940    0.017993
  C     -0.039426    0.006851    0.037018
  N      0.014278   -0.741190   -1.030392
  O     -0.070927   -2.040564   -0.602820
  N     -0.192698   -2.112403    0.759050
  C     -0.164399   -0.872498    1.156106
  O     -0.267735   -0.463405    2.440293
  C      0.147498   -1.322267    3.444753
  O     -0.015128   -1.038860    4.584028
  H      0.865186    1.855555    0.614477
  H      0.133249    1.850809   -1.007005
  H     -0.888669    1.924825    0.447128
  H      0.624681   -2.228496    3.045361

 Total Charge           Charge          ....    0
 Multiplicity           Mult            ....    1
 Number of Electrons    NEL             ....   66
 Basis Dimension        Dim             ....  303

ORBITAL ENERGIES
----------------

  NO   OCC          E(Eh)            E(eV)
   0   2.0000     -20.692304      -563.0662
   1   2.0000     -20.665071      -562.3252
   2   2.0000     -20.591531      -560.3240
   3   2.0000     -15.671053      -426.4310
   4   2.0000     -15.666258      -426.3006
   5   2.0000     -11.419508      -310.7406
   6   2.0000     -11.379920      -309.6634
   7   2.0000     -11.320385      -308.0433
   8   2.0000     -11.266992      -306.5904
   9   2.0000      -1.560876       -42.4736
  10   2.0000      -1.513943       -41.1965
  11   2.0000      -1.425041       -38.7773
  12   2.0000      -1.233566       -33.5670
  13   2.0000      -1.193072       -32.4651
  14   2.0000      -1.020792       -27.7772
  15   2.0000      -0.957889       -26.0655
  16   2.0000      -0.858252       -23.3542
  17   2.0000      -0.842554       -22.9271
  18   2.0000      -0.791301       -21.5324
  19   2.0000      -0.724846       -19.7241
  20   2.0000      -0.699809       -19.0428
  21   2.0000      -0.690928       -18.8011
  22   2.0000      -0.670473       -18.2445
  23   2.0000      -0.633742       -17.2450
  24   2.0000      -0.610777       -16.6201
  25   2.0000      -0.600563       -16.3422
  26   2.0000      -0.588801       -16.0221
  27   2.0000      -0.553129       -15.0514
  28   2.0000      -0.535091       -14.5606
  29   2.0000      -0.509537       -13.8652
  30   2.0000      -0.491185       -13.3658
  31   2.0000      -0.440649       -11.9907
  32   2.0000      -0.431107       -11.7310
  33   0.0000       0.077269         2.1026
  34   0.0000       0.120416         3.2767
  35   0.0000       0.128951         3.5089
  36   0.0000       0.173527         4.7219
  37   0.0000       0.181342         4.9346

MULLIKEN ATOMIC CHARGES
-----------------------
   0 C :   -0.396735
   1 C :    0.042993
   2 N :   -0.088997
   3 O :   -0.015436
   4 N :   -0.127510
   5 C :    0.215053
   6 O :   -0.220044
   7 C :    0.189316
   8 O :   -0.223460
   9 H :    0.157608
  10 H :    0.168922
  11 H :    0.161021
  12 H :    0.137271
Sum of atomic charges:    0.0000000

LOEWDIN ATOMIC CHARGES
----------------------
   0 C :   -0.255817
   1 C :   -0.286309
   2 N :    0.058329
   3 O :    0.202845
   4 N :    0.029375
   5 C :   -0.386395
   6 O :    0.303349
   7 C :   -0.381664
   8 O :    0.164922
   9 H :    0.142394
  10 H :    0.143532
  11 H :    0.143510
  12 H :    0.121928

  Mayer bond orders larger than 0.1
B(  0-C ,  1-C ) :   0.8835 B(  0-C ,  9-H ) :   0.9246 B(  0-C , 10-H ) :   0.9414
B(  0-C , 11-H ) :   0.9220 B(  1-C ,  2-N ) :   1.6001 B(  1-C ,  5-C ) :   1.1784
B(  2-N ,  3-O ) :   0.9308 B(  2-N ,  4-N ) :   0.1212 B(  3-O ,  4-N ) :   0.9361
B(  4-N ,  5-C ) :   1.5360 B(  5-C ,  6-O ) :   1.0557 B(  6-O ,  7-C ) :   0.9403
B(  7-C ,  8-O ) :   2.0657 B(  7-C , 12-H ) :   0.9141

MP2 TOTAL ENERGY:     -489.085958592 Eh
FINAL SINGLE POINT ENERGY      -489.085958592457

DIPOLE MOMENT
-------------
                                X             Y             Z
Electronic contribution:     -0.61843      -5.42264       1.45284
Nuclear contribution   :      0.91581       6.14321      -1.69513
                        -----------------------------------------
Total Dipole Moment    :      0.29739       0.72057      -0.24229
                        -----------------------------------------
Magnitude (a.u.)       :      0.81631
Magnitude (Debye)      :      2.07490

                             ****ORCA TERMINATED NORMALLY****
TOTAL RUN TIME: 0 days 0 hours 12 minutes 10 seconds 227 msec
