                         Program Version 3.0.3 - RELEASE   -
|  1> ! RI-MP2 RIJK def2-TZVP def2-TZVP/C def2-TZVP/JK TIGHTSCF
|  2> % maxcore 2000
|  3> % mp2 density relaxed end
|  4> *xyz 0 1
|  5>  C       -0.0900272400     1.6022074954    -0.0010169288
|  6>  C        0.1052459720     0.0892967973     0.0100709424
|  7>  C        0.8426305990    -0.5187572279    -1.1971662763
|  8>  C        1.5537316239    -1.7659419804    -0.6270352886
|  9>  C        2.8836076011    -2.0843635042    -1.2917741785
| 10>  O        3.4276054450    -3.2121049868    -0.6205524705
| 11>  N        1.7286636986    -1.4082592911     0.7696930594
| 12>  C        0.9338023869    -0.3902741378     1.2152915383
| 13>  O        0.8831370335     0.0425154436     2.3468453465
| 14>  H        0.8612475642     2.1188377679    -0.1687143738
| 15>  H       -0.7867037048     1.9095913879    -0.7868212918
| 16>  H       -0.4815712355     1.9300988883     0.9653105408
| 17>  H       -0.8758562184    -0.3950514114     0.1185052210
| 18>  H        0.1856264556    -0.7660465111    -2.0338166954
| 19>  H        1.5939871479     0.1927300109    -1.5623175683
| 20>  H        0.9136095923    -2.6565994067    -0.7219368719
| 21>  H        2.7167586812    -2.2897299742    -2.3610300827
| 22>  H        3.5460673461    -1.2093113449    -1.2084559281
| 23>  H        4.3088892820    -3.3798731502    -0.9661950551
| 24>  H        2.2817939394    -1.9696958045     1.3977312114
| 25> *
| 26>
| 27>                          ****END OF INPUT****

CARTESIAN COORDINATES (ANGSTROEM)
---------------------------------
  C     -0.090027    1.602207   -0.001017
  C      0.105246    0.089297    0.010071
  C      0.842631   -0.518757   -1.197166
  C      1.553732   -1.765942   -0.627035
  C      2.883608   -2.084364   -1.291774
  O      3.427605   -3.212105   -0.620552
  N      1.728664   -1.408259    0.769693
  C      0.933802   -0.390274    1.215292
  O      0.883137    0.042515    2.346845
  H      0.861248    2.118838   -0.168714
  H     -0.786704    1.909591   -0.786821
  H     -0.481571    1.930099    0.965311
  H     -0.875856   -0.395051    0.118505
  H      0.185626   -0.766047   -2.033817
  H      1.593987    0.192730   -1.562318
  H      0.913610   -2.656599   -0.721937
  H      2.716759   -2.289730   -2.361030
  H      3.546067   -1.209311   -1.208456
  H      4.308889   -3.379873   -0.966195
  H      2.281794   -1.969696    1.397731

 Total Charge           Charge          ....    0
 Multiplicity           Mult            ....    1
 Number of Electrons    NEL             ....   70
 Basis Dimension        Dim             ....  345

ORBITAL ENERGIES
----------------

  NO   OCC          E(Eh)            E(eV)
   0   2.0000     -20.573703      -559.8389
   1   2.0000     -20.508445      -558.0632
   2   2.0000     -15.573747      -423.7832
   3   2.0000     -11.336866      -308.4918
   4   2.0000     -11.292167      -307.2755
   5   2.0000     -11.278254      -306.8969
   6   2.0000     -11.243678      -305.9560
   7   2.0000     -11.241397      -305.8940
   8   2.0000     -11.218582      -305.2731
   9   2.0000      -1.379714       -37.5439
  10   2.0000      -1.371502       -37.3205
  11   2.0000      -1.246699       -33.9244
  12   2.0000      -1.077912       -29.3315
  13   2.0000      -1.028841       -27.9962
  14   2.0000      -0.939819       -25.5738
  15   2.0000      -0.870822       -23.6963
  16   2.0000      -0.817821       -22.2540
  17   2.0000      -0.768426       -20.9099
  18   2.0000      -0.714769       -19.4499
  19   2.0000      -0.701119       -19.0784
  20   2.0000      -0.664261       -18.0755
  21   2.0000      -0.635001       -17.2793
  22   2.0000      -0.613512       -16.6945
  23   2.0000      -0.595146       -16.1947
  24   2.0000      -0.582029       -15.8378
  25   2.0000      -0.561338       -15.2748
  26   2.0000      -0.550739       -14.9864
  27   2.0000      -0.539845       -14.6899
  28   2.0000      -0.521877       -14.2010
  29   2.0000      -0.516607       -14.0576
  30   2.0000      -0.481035       -13.0896
  31   2.0000      -0.472179       -12.8487
  32   2.0000      -0.466008       -12.6807
  33   2.0000      -0.404630       -11.0105
  34   2.0000      -0.385745       -10.4967
  35   0.0000       0.123744         3.3672
  36   0.0000       0.132938         3.6174
  37   0.0000       0.152581         4.1519
  38   0.0000       0.157651         4.2899
  39   0.0000       0.183585         4.9956

MULLIKEN ATOMIC CHARGES
-----------------------
   0 C :   -0.409556
   1 C :    0.016530
   2 C :   -0.320815
   3 C :    0.123418
   4 C :   -0.096855
   5 O :   -0.475848
   6 N :   -0.304415
   7 C :    0.163265
   8 O :   -0.344701
   9 H :    0.121767
  10 H :    0.130683
  11 H :    0.157987
  12 H :    0.110076
  13 H :    0.133395
  14 H :    0.117244
  15 H :    0.103381
  16 H :    0.100541
  17 H :    0.104572
  18 H :    0.323000
  19 H :    0.246330
Sum of atomic charges:   -0.0000000

LOEWDIN ATOMIC CHARGES
----------------------
   0 C :   -0.286538
   1 C :   -0.238422
   2 C :   -0.200320
   3 C :   -0.276665
   4 C :   -0.333221
   5 O :   -0.048779
   6 N :    0.150432
   7 C :   -0.430385
   8 O :    0.082393
   9 H :    0.124961
  10 H :    0.122502
  11 H :    0.134648
  12 H :    0.165300
  13 H :    0.137622
  14 H :    0.144407
  15 H :    0.146951
  16 H :    0.121424
  17 H :    0.119822
  18 H :    0.175550
  19 H :    0.188318

  Mayer bond orders larger than 0.1
B(  0-C ,  1-C ) :   0.9135 B(  0-C ,  9-H ) :   0.9330 B(  0-C , 10-H ) :   0.9401
B(  0-C , 11-H ) :   0.9318 B(  1-C ,  2-C ) :   0.9135 B(  1-C ,  7-C ) :   0.8767
B(  1-C , 12-H ) :   0.9069 B(  2-C ,  3-C ) :   0.9260 B(  2-C , 13-H ) :   0.9243
B(  2-C , 14-H ) :   0.9201 B(  3-C ,  4-C ) :   0.9130 B(  3-C ,  6-N ) :   0.8413
B(  3-C , 15-H ) :   0.9163 B(  4-C ,  5-O ) :   1.0189 B(  4-C , 16-H ) :   0.9350
B(  4-C , 17-H ) :   0.9201 B(  5-O , 18-H ) :   0.8449 B(  6-N ,  7-C ) :   1.1877
B(  6-N , 19-H ) :   0.8574 B(  7-C ,  8-O ) :   2.0107

MP2 TOTAL ENERGY:     -439.623176323 Eh
FINAL SINGLE POINT ENERGY      -439.623176323320

DIPOLE MOMENT
-------------
                                X             Y             Z
Electronic contribution:      1.71706      -3.45710       5.76066
Nuclear contribution   :     -1.16624       2.96082      -7.50984
                        -----------------------------------------
Total Dipole Moment    :      0.55082      -0.49628      -1.74919
                        -----------------------------------------
Magnitude (a.u.)       :      1.89983
Magnitude (Debye)      :      4.82898

                             ****ORCA TERMINATED NORMALLY****
TOTAL RUN TIME: 0 days 0 hours 28 minutes 27 seconds 522 msec
