                         Program Version 3.0.3 - RELEASE   -
|  1> ! RI-MP2 RIJK def2-TZVP def2-TZVP/C def2-TZVP/JK TIGHTSCF
|  2> % maxcore 2000
|  3> % mp2 density relaxed end
|  4> *xyz 0 1
|  5>  C       -0.0848420935     1.4989370434     0.0224098126
|  6>  C       -0.0551084633     0.0039022066    -0.0254500804
|  7>  C        0.0381269974    -0.7775987703    -1.1068227364
|  8>  C        0.0469501200    -2.2539339515    -0.7698673794
|  9>  C        0.0140632733    -2.2491896793     0.7525579093
| 10>  O        1.1424961587    -1.6180986029     1.3664922441
| 11>  C       -0.0845662213    -0.8534894590     1.2169130741
| 12>  C       -0.7309801908    -0.3957108713     2.4941017243
| 13>  H        0.7652313834     1.8961896471     0.5914224358
| 14>  H       -0.0497148078     1.9285196331    -0.9822880384
| 15>  H       -0.9918442001     1.8697832377     0.5158927939
| 16>  H        0.1418780284    -0.4136650260    -2.1238374107
| 17>  H       -0.8256705307    -2.7781836202    -1.1816857297
| 18>  H        0.9371461829    -2.7660860663    -1.1555935381
| 19>  H       -0.4046527977    -3.0881820376     1.3034845767
| 20>  H       -0.2213836971     0.4860019834     2.8978740991
| 21>  H       -1.7806576090    -0.1295574626     2.3290681189
| 22>  H       -0.6845139729    -1.1861749443     3.2468707443
| 23> *
| 24>
| 25>                          ****END OF INPUT****

CARTESIAN COORDINATES (ANGSTROEM)
---------------------------------
  C     -0.084842    1.498937    0.022410
  C     -0.055108    0.003902   -0.025450
  C      0.038127   -0.777599   -1.106823
  C      0.046950   -2.253934   -0.769867
  C      0.014063   -2.249190    0.752558
  O      1.142496   -1.618099    1.366492
  C     -0.084566   -0.853489    1.216913
  C     -0.730980   -0.395711    2.494102
  H      0.765231    1.896190    0.591422
  H     -0.049715    1.928520   -0.982288
  H     -0.991844    1.869783    0.515893
  H      0.141878   -0.413665   -2.123837
  H     -0.825671   -2.778184   -1.181686
  H      0.937146   -2.766086   -1.155594
  H     -0.404653   -3.088182    1.303485
  H     -0.221384    0.486002    2.897874
  H     -1.780658   -0.129557    2.329068
  H     -0.684514   -1.186175    3.246871

 Total Charge           Charge          ....    0
 Multiplicity           Mult            ....    1
 Number of Electrons    NEL             ....   60
 Basis Dimension        Dim             ....  308

ORBITAL ENERGIES
----------------

  NO   OCC          E(Eh)            E(eV)
   0   2.0000     -20.554383      -559.3132
   1   2.0000     -11.285357      -307.0902
   2   2.0000     -11.276846      -306.8586
   3   2.0000     -11.233003      -305.6656
   4   2.0000     -11.231088      -305.6135
   5   2.0000     -11.226104      -305.4778
   6   2.0000     -11.225351      -305.4573
   7   2.0000     -11.224827      -305.4431
   8   2.0000      -1.399945       -38.0944
   9   2.0000      -1.113208       -30.2919
  10   2.0000      -1.022751       -27.8305
  11   2.0000      -0.991897       -26.9909
  12   2.0000      -0.909577       -24.7509
  13   2.0000      -0.871929       -23.7264
  14   2.0000      -0.783019       -21.3070
  15   2.0000      -0.717330       -19.5195
  16   2.0000      -0.676567       -18.4103
  17   2.0000      -0.611330       -16.6351
  18   2.0000      -0.609045       -16.5730
  19   2.0000      -0.588060       -16.0019
  20   2.0000      -0.569634       -15.5005
  21   2.0000      -0.562351       -15.3024
  22   2.0000      -0.561390       -15.2762
  23   2.0000      -0.540804       -14.7160
  24   2.0000      -0.520281       -14.1576
  25   2.0000      -0.499328       -13.5874
  26   2.0000      -0.493413       -13.4264
  27   2.0000      -0.438182       -11.9236
  28   2.0000      -0.406650       -11.0655
  29   2.0000      -0.339214        -9.2305
  30   0.0000       0.134416         3.6576
  31   0.0000       0.150496         4.0952
  32   0.0000       0.157273         4.2796
  33   0.0000       0.169110         4.6017
  34   0.0000       0.190595         5.1864

MULLIKEN ATOMIC CHARGES
-----------------------
   0 C :   -0.445158
   1 C :   -0.009415
   2 C :   -0.211824
   3 C :   -0.105733
   4 C :   -0.045557
   5 O :   -0.332687
   6 C :    0.237154
   7 C :   -0.420081
   8 H :    0.148624
   9 H :    0.140911
  10 H :    0.140409
  11 H :    0.125182
  12 H :    0.113406
  13 H :    0.123265
  14 H :    0.119569
  15 H :    0.138940
  16 H :    0.136296
  17 H :    0.146697
Sum of atomic charges:   -0.0000000

LOEWDIN ATOMIC CHARGES
----------------------
   0 C :   -0.269937
   1 C :   -0.153267
   2 C :   -0.121321
   3 C :   -0.222979
   4 C :   -0.231671
   5 O :    0.175929
   6 C :   -0.271255
   7 C :   -0.265035
   8 H :    0.134299
   9 H :    0.131757
  10 H :    0.131201
  11 H :    0.136896
  12 H :    0.143957
  13 H :    0.148186
  14 H :    0.133823
  15 H :    0.131952
  16 H :    0.132480
  17 H :    0.134986

  Mayer bond orders larger than 0.1
B(  0-C ,  1-C ) :   0.8780 B(  0-C ,  8-H ) :   0.9337 B(  0-C ,  9-H ) :   0.9493
B(  0-C , 10-H ) :   0.9337 B(  1-C ,  2-C ) :   1.7621 B(  1-C ,  6-C ) :   0.9305
B(  2-C ,  3-C ) :   0.9499 B(  2-C , 11-H ) :   0.9207 B(  3-C ,  4-C ) :   0.9325
B(  3-C , 12-H ) :   0.9022 B(  3-C , 13-H ) :   0.8960 B(  4-C ,  5-O ) :   0.9261
B(  4-C ,  6-C ) :   0.9388 B(  4-C , 14-H ) :   0.9281 B(  5-O ,  6-C ) :   0.8538
B(  6-C ,  7-C ) :   0.8675 B(  7-C , 15-H ) :   0.9387 B(  7-C , 16-H ) :   0.9348
B(  7-C , 17-H ) :   0.9375

MP2 TOTAL ENERGY:     -347.195320354 Eh
FINAL SINGLE POINT ENERGY      -347.195320353857

DIPOLE MOMENT
-------------
                                X             Y             Z
Electronic contribution:      2.61889      -3.62876      -0.36417
Nuclear contribution   :     -3.31881       3.77163       0.14493
                        -----------------------------------------
Total Dipole Moment    :     -0.69992       0.14287      -0.21925
                        -----------------------------------------
Magnitude (a.u.)       :      0.74724
Magnitude (Debye)      :      1.89934

                             ****ORCA TERMINATED NORMALLY****
TOTAL RUN TIME: 0 days 0 hours 13 minutes 31 seconds 169 msec
