                         Program Version 3.0.3 - RELEASE   -
|  1> ! RI-MP2 RIJK def2-TZVP def2-TZVP/C def2-TZVP/JK TIGHTSCF
|  2> % maxcore 2000
|  3> % mp2 density relaxed end
|  4> *xyz 0 1
|  5>  O        0.0973211657     1.4600974390    -0.0123466334
|  6>  C        0.0893293560     0.0526131545     0.1017947399
|  7>  C       -1.3343472581    -0.5184236037    -0.0272763021
|  8>  C       -2.0252484601    -0.4816749781    -1.4319294427
|  9>  C       -2.1043093558    -2.0017512482    -1.3323275586
| 10>  C       -0.7704873375    -2.5940718582    -1.1504635625
| 11>  N       -1.4510067847    -2.0383967579     0.0428711192
| 12>  C       -2.1610829646     0.0736992078     1.0179794387
| 13>  C       -2.8020939648     0.6160520166     1.8795348105
| 14>  H       -0.4894207967     1.8028833225     0.6731683964
| 15>  H        0.7243399712    -0.3156536832    -0.7067459581
| 16>  H        0.5170986650    -0.2951164279     1.0544570222
| 17>  H       -2.9924911990     0.0186670905    -1.4085820060
| 18>  H       -1.4292183876    -0.0751889648    -2.2533857769
| 19>  H       -2.9848104656    -2.5972735103    -1.5476369699
| 20>  H       -0.6992265137    -3.6758507066    -1.0964751436
| 21>  H        0.1056126338    -2.1089716182    -1.5701500795
| 22>  H       -3.3895794434     1.0668276660     2.6413191364
| 23> *
| 24>
| 25>                          ****END OF INPUT****

CARTESIAN COORDINATES (ANGSTROEM)
---------------------------------
  O      0.097321    1.460097   -0.012347
  C      0.089329    0.052613    0.101795
  C     -1.334347   -0.518424   -0.027276
  C     -2.025248   -0.481675   -1.431929
  C     -2.104309   -2.001751   -1.332328
  C     -0.770487   -2.594072   -1.150464
  N     -1.451007   -2.038397    0.042871
  C     -2.161083    0.073699    1.017979
  C     -2.802094    0.616052    1.879535
  H     -0.489421    1.802883    0.673168
  H      0.724340   -0.315654   -0.706746
  H      0.517099   -0.295116    1.054457
  H     -2.992491    0.018667   -1.408582
  H     -1.429218   -0.075189   -2.253386
  H     -2.984810   -2.597274   -1.547637
  H     -0.699227   -3.675851   -1.096475
  H      0.105613   -2.108972   -1.570150
  H     -3.389579    1.066828    2.641319

 Total Charge           Charge          ....    0
 Multiplicity           Mult            ....    1
 Number of Electrons    NEL             ....   66
 Basis Dimension        Dim             ....  333

ORBITAL ENERGIES
----------------

  NO   OCC          E(Eh)            E(eV)
   0   2.0000     -20.560004      -559.4662
   1   2.0000     -15.573492      -423.7763
   2   2.0000     -11.298544      -307.4490
   3   2.0000     -11.285179      -307.0853
   4   2.0000     -11.272156      -306.7310
   5   2.0000     -11.265288      -306.5441
   6   2.0000     -11.243701      -305.9567
   7   2.0000     -11.241315      -305.8917
   8   2.0000     -11.233832      -305.6881
   9   2.0000      -1.368304       -37.2334
  10   2.0000      -1.299577       -35.3633
  11   2.0000      -1.080621       -29.4052
  12   2.0000      -1.006325       -27.3835
  13   2.0000      -0.971878       -26.4462
  14   2.0000      -0.910543       -24.7771
  15   2.0000      -0.828983       -22.5578
  16   2.0000      -0.792844       -21.5744
  17   2.0000      -0.719527       -19.5793
  18   2.0000      -0.696586       -18.9551
  19   2.0000      -0.691888       -18.8272
  20   2.0000      -0.660932       -17.9849
  21   2.0000      -0.630826       -17.1656
  22   2.0000      -0.596581       -16.2338
  23   2.0000      -0.585757       -15.9393
  24   2.0000      -0.562718       -15.3123
  25   2.0000      -0.524513       -14.2727
  26   2.0000      -0.506213       -13.7747
  27   2.0000      -0.475899       -12.9499
  28   2.0000      -0.465922       -12.6784
  29   2.0000      -0.431665       -11.7462
  30   2.0000      -0.400233       -10.8909
  31   2.0000      -0.397233       -10.8093
  32   2.0000      -0.377193       -10.2640
  33   0.0000       0.140554         3.8247
  34   0.0000       0.148013         4.0276
  35   0.0000       0.159583         4.3425
  36   0.0000       0.162547         4.4231
  37   0.0000       0.169425         4.6103

MULLIKEN ATOMIC CHARGES
-----------------------
   0 O :   -0.472151
   1 C :   -0.009093
   2 C :    0.026532
   3 C :   -0.250235
   4 C :   -0.075921
   5 C :   -0.160342
   6 N :   -0.241209
   7 C :   -0.133336
   8 C :   -0.093279
   9 H :    0.324229
  10 H :    0.098514
  11 H :    0.121055
  12 H :    0.143817
  13 H :    0.129526
  14 H :    0.134753
  15 H :    0.137409
  16 H :    0.122878
  17 H :    0.196855
Sum of atomic charges:    0.0000000

LOEWDIN ATOMIC CHARGES
----------------------
   0 O :   -0.029493
   1 C :   -0.297164
   2 C :   -0.277649
   3 C :   -0.171206
   4 C :   -0.211520
   5 C :   -0.246900
   6 N :    0.144690
   7 C :   -0.072860
   8 C :   -0.083963
   9 H :    0.180606
  10 H :    0.129049
  11 H :    0.129487
  12 H :    0.144697
  13 H :    0.138461
  14 H :    0.133614
  15 H :    0.135657
  16 H :    0.125042
  17 H :    0.129453

  Mayer bond orders larger than 0.1
B(  0-O ,  1-C ) :   0.9488 B(  0-O ,  9-H ) :   0.8337 B(  1-C ,  2-C ) :   0.9276
B(  1-C , 10-H ) :   0.9074 B(  1-C , 11-H ) :   0.9295 B(  2-C ,  3-C ) :   0.8778
B(  2-C ,  6-N ) :   0.9871 B(  2-C ,  7-C ) :   1.2049 B(  2-C ,  8-C ) :  -0.1275
B(  3-C ,  4-C ) :   0.9487 B(  3-C , 12-H ) :   0.9307 B(  3-C , 13-H ) :   0.9037
B(  4-C ,  5-C ) :   0.9556 B(  4-C ,  6-N ) :   0.8742 B(  4-C , 14-H ) :   0.9068
B(  5-C ,  6-N ) :   0.8703 B(  5-C , 15-H ) :   0.9286 B(  5-C , 16-H ) :   0.9057
B(  7-C ,  8-C ) :   2.5738 B(  8-C , 17-H ) :   0.8758

MP2 TOTAL ENERGY:     -401.162047771 Eh
FINAL SINGLE POINT ENERGY      -401.162047770719

DIPOLE MOMENT
-------------
                                X             Y             Z
Electronic contribution:     -1.49071       0.92494       2.63700
Nuclear contribution   :      1.20955      -0.99593      -2.91106
                        -----------------------------------------
Total Dipole Moment    :     -0.28116      -0.07099      -0.27407
                        -----------------------------------------
Magnitude (a.u.)       :      0.39900
Magnitude (Debye)      :      1.01418

                             ****ORCA TERMINATED NORMALLY****
TOTAL RUN TIME: 0 days 0 hours 16 minutes 50 seconds 281 msec
