                         Program Version 3.0.3 - RELEASE   -
|  1> ! RI-MP2 RIJK def2-TZVP def2-TZVP/C def2-TZVP/JK TIGHTSCF
|  2> % maxcore 2000
|  3> % mp2 density relaxed end
|  4> *xyz 0 1
|  5>  C       -0.1296807795     1.5205230246    -0.0106499915
|  6>  C        0.0492968858    -0.0077161235    -0.1070399522
|  7>  C        0.8155048998    -0.3748857014    -1.2979056520
|  8>  C        1.4674701328    -0.6693463866    -2.2646842824
|  9>  C        0.7041320150    -0.5819892364     1.1585352009
| 10>  C       -0.0838612112    -0.5211401176     2.4969988016
| 11>  C        0.4648907953    -1.9357117431     2.8396980735
| 12>  C       -0.4495991125    -2.9367069192     3.5279039722
| 13>  C        0.7930435138    -2.1213573600     1.3308720072
| 14>  H        0.8413858068     2.0165628760     0.0810682971
| 15>  H       -0.6275234087     1.9136546038    -0.9007920167
| 16>  H       -0.7326628303     1.7774652065     0.8655201570
| 17>  H       -0.9489882135    -0.4616535942    -0.1953315285
| 18>  H        2.0329601951    -0.9346324395    -3.1231941932
| 19>  H        1.6951820391    -0.1304661580     1.2793906693
| 20>  H        0.1320015739     0.2976648267     3.1879697060
| 21>  H       -1.1661964562    -0.5517977867     2.3209857380
| 22>  H        1.3978045384    -1.8359024375     3.4065827859
| 23>  H       -1.3897756671    -3.0532792511     2.9764566808
| 24>  H        0.0203247970    -3.9244709806     3.5957521394
| 25>  H       -0.6982843299    -2.6165926906     4.5462039417
| 26>  H       -0.0275841579    -2.6250751663     0.8067267337
| 27>  H        1.7295489439    -2.6140134555     1.0607371721
| 28> *
| 29>
| 30>                          ****END OF INPUT****

CARTESIAN COORDINATES (ANGSTROEM)
---------------------------------
  C     -0.129681    1.520523   -0.010650
  C      0.049297   -0.007716   -0.107040
  C      0.815505   -0.374886   -1.297906
  C      1.467470   -0.669346   -2.264684
  C      0.704132   -0.581989    1.158535
  C     -0.083861   -0.521140    2.496999
  C      0.464891   -1.935712    2.839698
  C     -0.449599   -2.936707    3.527904
  C      0.793044   -2.121357    1.330872
  H      0.841386    2.016563    0.081068
  H     -0.627523    1.913655   -0.900792
  H     -0.732663    1.777465    0.865520
  H     -0.948988   -0.461654   -0.195332
  H      2.032960   -0.934632   -3.123194
  H      1.695182   -0.130466    1.279391
  H      0.132002    0.297665    3.187970
  H     -1.166196   -0.551798    2.320986
  H      1.397805   -1.835902    3.406583
  H     -1.389776   -3.053279    2.976457
  H      0.020325   -3.924471    3.595752
  H     -0.698284   -2.616593    4.546204
  H     -0.027584   -2.625075    0.806727
  H      1.729549   -2.614013    1.060737

 Total Charge           Charge          ....    0
 Multiplicity           Mult            ....    1
 Number of Electrons    NEL             ....   68
 Basis Dimension        Dim             ....  363

ORBITAL ENERGIES
----------------

  NO   OCC          E(Eh)            E(eV)
   0   2.0000     -11.251983      -306.1820
   1   2.0000     -11.229796      -305.5783
   2   2.0000     -11.226839      -305.4978
   3   2.0000     -11.225606      -305.4643
   4   2.0000     -11.220856      -305.3350
   5   2.0000     -11.218852      -305.2805
   6   2.0000     -11.214936      -305.1739
   7   2.0000     -11.214637      -305.1658
   8   2.0000     -11.211880      -305.0908
   9   2.0000      -1.144998       -31.1570
  10   2.0000      -1.077365       -29.3166
  11   2.0000      -0.997162       -27.1342
  12   2.0000      -0.970601       -26.4114
  13   2.0000      -0.899750       -24.4834
  14   2.0000      -0.882090       -24.0029
  15   2.0000      -0.807575       -21.9752
  16   2.0000      -0.748093       -20.3567
  17   2.0000      -0.712802       -19.3963
  18   2.0000      -0.661248       -17.9935
  19   2.0000      -0.638567       -17.3763
  20   2.0000      -0.618911       -16.8414
  21   2.0000      -0.577867       -15.7246
  22   2.0000      -0.562912       -15.3176
  23   2.0000      -0.553632       -15.0651
  24   2.0000      -0.542482       -14.7617
  25   2.0000      -0.537289       -14.6204
  26   2.0000      -0.517031       -14.0691
  27   2.0000      -0.491856       -13.3841
  28   2.0000      -0.459867       -12.5136
  29   2.0000      -0.452100       -12.3023
  30   2.0000      -0.430725       -11.7206
  31   2.0000      -0.428243       -11.6531
  32   2.0000      -0.379784       -10.3344
  33   2.0000      -0.375967       -10.2306
  34   0.0000       0.129609         3.5268
  35   0.0000       0.147399         4.0109
  36   0.0000       0.148876         4.0511
  37   0.0000       0.162418         4.4196
  38   0.0000       0.174190         4.7400

MULLIKEN ATOMIC CHARGES
-----------------------
   0 C :   -0.388036
   1 C :   -0.180858
   2 C :   -0.019026
   3 C :   -0.164821
   4 C :   -0.028723
   5 C :   -0.285096
   6 C :    0.031713
   7 C :   -0.418325
   8 C :   -0.272326
   9 H :    0.129805
  10 H :    0.141715
  11 H :    0.134352
  12 H :    0.102687
  13 H :    0.187026
  14 H :    0.100259
  15 H :    0.123259
  16 H :    0.103757
  17 H :    0.093837
  18 H :    0.117916
  19 H :    0.130933
  20 H :    0.129706
  21 H :    0.105557
  22 H :    0.124689
Sum of atomic charges:   -0.0000000

LOEWDIN ATOMIC CHARGES
----------------------
   0 C :   -0.268600
   1 C :   -0.257908
   2 C :   -0.083619
   3 C :   -0.106159
   4 C :   -0.200401
   5 C :   -0.200898
   6 C :   -0.256763
   7 C :   -0.305066
   8 C :   -0.194067
   9 H :    0.127627
  10 H :    0.127111
  11 H :    0.125022
  12 H :    0.168861
  13 H :    0.125400
  14 H :    0.155423
  15 H :    0.123643
  16 H :    0.137349
  17 H :    0.148775
  18 H :    0.121267
  19 H :    0.124126
  20 H :    0.123537
  21 H :    0.139249
  22 H :    0.126093

  Mayer bond orders larger than 0.1
B(  0-C ,  1-C ) :   0.9169 B(  0-C ,  9-H ) :   0.9310 B(  0-C , 10-H ) :   0.9374
B(  0-C , 11-H ) :   0.9366 B(  1-C ,  2-C ) :   1.1324 B(  1-C ,  4-C ) :   0.9052
B(  1-C , 12-H ) :   0.9055 B(  2-C ,  3-C ) :   2.5977 B(  3-C , 13-H ) :   0.8972
B(  4-C ,  5-C ) :   0.9388 B(  4-C ,  8-C ) :   0.9473 B(  4-C , 14-H ) :   0.9151
B(  5-C ,  6-C ) :   0.9369 B(  5-C , 15-H ) :   0.9269 B(  5-C , 16-H ) :   0.9073
B(  6-C ,  7-C ) :   0.8760 B(  6-C ,  8-C ) :   0.9350 B(  6-C , 17-H ) :   0.9273
B(  7-C , 18-H ) :   0.9384 B(  7-C , 19-H ) :   0.9412 B(  7-C , 20-H ) :   0.9413
B(  8-C , 21-H ) :   0.9081 B(  8-C , 22-H ) :   0.9302

MP2 TOTAL ENERGY:     -350.465569756 Eh
FINAL SINGLE POINT ENERGY      -350.465569755703

DIPOLE MOMENT
-------------
                                X             Y             Z
Electronic contribution:      2.74916       0.75582      -6.34049
Nuclear contribution   :     -2.81345      -0.72715       6.61482
                        -----------------------------------------
Total Dipole Moment    :     -0.06429       0.02867       0.27433
                        -----------------------------------------
Magnitude (a.u.)       :      0.28322
Magnitude (Debye)      :      0.71988

                             ****ORCA TERMINATED NORMALLY****
TOTAL RUN TIME: 0 days 0 hours 21 minutes 39 seconds 106 msec
