                         Program Version 3.0.3 - RELEASE   -
|  1> ! RI-MP2 RIJK def2-TZVP def2-TZVP/C def2-TZVP/JK TIGHTSCF
|  2> % maxcore 2000
|  3> % mp2 density relaxed end
|  4> *xyz 0 1
|  5>  C       -0.0271688867     1.4726858342     0.0107326618
|  6>  C       -0.0035798772     0.0183280593     0.0029824953
|  7>  C        0.0216998824    -1.1877833220    -0.0034932354
|  8>  C        0.0251729454    -2.6020780985    -0.0111892833
|  9>  C        1.1149640473    -3.4296917683    -0.0220331086
| 10>  O        0.7336452653    -4.7287590573    -0.0269182290
| 11>  C       -0.6277577276    -4.7454158933    -0.0189747196
| 12>  C       -1.1198319497    -3.4837963287    -0.0089557258
| 13>  H        0.9880203167     1.8845393662     0.0030895948
| 14>  H       -0.5514708258     1.8686974170    -0.8664817618
| 15>  H       -0.5344565764     1.8595711139     0.9019161240
| 16>  H        2.1752585850    -3.2416358666    -0.0272649471
| 17>  H       -1.0825604882    -5.7219043384    -0.0216405405
| 18>  H       -2.1559564106    -3.1866284776    -0.0010465547
| 19> *
| 20>
| 21>                          ****END OF INPUT****

CARTESIAN COORDINATES (ANGSTROEM)
---------------------------------
  C     -0.027169    1.472686    0.010733
  C     -0.003580    0.018328    0.002982
  C      0.021700   -1.187783   -0.003493
  C      0.025173   -2.602078   -0.011189
  C      1.114964   -3.429692   -0.022033
  O      0.733645   -4.728759   -0.026918
  C     -0.627758   -4.745416   -0.018975
  C     -1.119832   -3.483796   -0.008956
  H      0.988020    1.884539    0.003090
  H     -0.551471    1.868697   -0.866482
  H     -0.534457    1.859571    0.901916
  H      2.175259   -3.241636   -0.027265
  H     -1.082560   -5.721904   -0.021641
  H     -2.155956   -3.186628   -0.001047

 Total Charge           Charge          ....    0
 Multiplicity           Mult            ....    1
 Number of Electrons    NEL             ....   56
 Basis Dimension        Dim             ....  284

ORBITAL ENERGIES
----------------

  NO   OCC          E(Eh)            E(eV)
   0   2.0000     -20.628431      -561.3281
   1   2.0000     -11.296005      -307.3799
   2   2.0000     -11.291172      -307.2484
   3   2.0000     -11.253494      -306.2231
   4   2.0000     -11.248749      -306.0940
   5   2.0000     -11.235221      -305.7259
   6   2.0000     -11.230250      -305.5906
   7   2.0000     -11.224314      -305.4291
   8   2.0000      -1.465993       -39.8917
   9   2.0000      -1.110756       -30.2252
  10   2.0000      -1.052364       -28.6363
  11   2.0000      -1.015648       -27.6372
  12   2.0000      -0.955207       -25.9925
  13   2.0000      -0.831294       -22.6207
  14   2.0000      -0.794871       -21.6295
  15   2.0000      -0.755410       -20.5557
  16   2.0000      -0.650569       -17.7029
  17   2.0000      -0.641928       -17.4677
  18   2.0000      -0.619938       -16.8694
  19   2.0000      -0.599193       -16.3049
  20   2.0000      -0.589503       -16.0412
  21   2.0000      -0.588399       -16.0111
  22   2.0000      -0.574788       -15.6408
  23   2.0000      -0.554966       -15.1014
  24   2.0000      -0.453842       -12.3497
  25   2.0000      -0.376927       -10.2567
  26   2.0000      -0.363441        -9.8897
  27   2.0000      -0.307883        -8.3779
  28   0.0000       0.125364         3.4113
  29   0.0000       0.138723         3.7749
  30   0.0000       0.170677         4.6444
  31   0.0000       0.172128         4.6838
  32   0.0000       0.180910         4.9228

MULLIKEN ATOMIC CHARGES
-----------------------
   0 C :   -0.465286
   1 C :    0.008851
   2 C :    0.090237
   3 C :   -0.041698
   4 C :   -0.059970
   5 O :   -0.207718
   6 C :    0.016201
   7 C :   -0.277697
   8 H :    0.162715
   9 H :    0.162650
  10 H :    0.162651
  11 H :    0.153069
  12 H :    0.151490
  13 H :    0.144505
Sum of atomic charges:    0.0000000

LOEWDIN ATOMIC CHARGES
----------------------
   0 C :   -0.294314
   1 C :   -0.083467
   2 C :   -0.048390
   3 C :   -0.183678
   4 C :   -0.197357
   5 O :    0.344324
   6 C :   -0.238095
   7 C :   -0.143896
   8 H :    0.142069
   9 H :    0.141525
  10 H :    0.141522
  11 H :    0.137526
  12 H :    0.133840
  13 H :    0.148392

  Mayer bond orders larger than 0.1
B(  0-C ,  1-C ) :   0.8664 B(  0-C ,  8-H ) :   0.9454 B(  0-C ,  9-H ) :   0.9436
B(  0-C , 10-H ) :   0.9436 B(  1-C ,  2-C ) :   2.6092 B(  1-C ,  3-C ) :  -0.1670
B(  2-C ,  3-C ) :   1.0500 B(  3-C ,  4-C ) :   1.4962 B(  3-C ,  7-C ) :   1.1427
B(  4-C ,  5-O ) :   1.0680 B(  4-C , 11-H ) :   0.9241 B(  5-O ,  6-C ) :   1.0336
B(  6-C ,  7-C ) :   1.5773 B(  6-C , 12-H ) :   0.9339 B(  7-C , 13-H ) :   0.9204

MP2 TOTAL ENERGY:     -344.784111072 Eh
FINAL SINGLE POINT ENERGY      -344.784111071777

DIPOLE MOMENT
-------------
                                X             Y             Z
Electronic contribution:      1.08283      -6.77656      -0.04237
Nuclear contribution   :     -1.24671       7.08651       0.04493
                        -----------------------------------------
Total Dipole Moment    :     -0.16388       0.30996       0.00256
                        -----------------------------------------
Magnitude (a.u.)       :      0.35062
Magnitude (Debye)      :      0.89121

                             ****ORCA TERMINATED NORMALLY****
TOTAL RUN TIME: 0 days 0 hours 9 minutes 40 seconds 473 msec
