                         Program Version 3.0.3 - RELEASE   -
|  1> ! RI-MP2 RIJK def2-TZVP def2-TZVP/C def2-TZVP/JK TIGHTSCF
|  2> % maxcore 2000
|  3> % mp2 density relaxed end
|  4> *xyz 0 1
|  5>  C       -0.0135852259     1.5192331482    -0.0628964119
|  6>  C       -0.0053860350     0.0235913984     0.0059052974
|  7>  C       -0.0421903490    -0.8510498235    -1.0394735678
|  8>  O       -0.0211232217    -2.1383555721    -0.6068869334
|  9>  C        0.0319741512    -2.0919125186     0.7593687409
| 10>  C        0.0427740636    -0.7968318434     1.1796393189
| 11>  C        0.0667814898    -3.3532197112     1.5232429423
| 12>  N        0.0403623872    -4.4861625093     0.7640931907
| 13>  O        0.1143240223    -3.3561152010     2.7413447434
| 14>  H        0.8857089014     1.9446595868     0.3957412053
| 15>  H       -0.0573635109     1.8678184558    -1.0982865341
| 16>  H       -0.8752519836     1.9382814829     0.4680966181
| 17>  H       -0.0838182922    -0.7147101110    -2.1083615899
| 18>  H        0.0812005365    -0.4790655105     2.2095079411
| 19>  H        0.0060228595    -4.4485182099    -0.2392568008
| 20>  H        0.0663646067    -5.3748005716     1.2337203099
| 21> *
| 22>
| 23>                          ****END OF INPUT****

CARTESIAN COORDINATES (ANGSTROEM)
---------------------------------
  C     -0.013585    1.519233   -0.062896
  C     -0.005386    0.023591    0.005905
  C     -0.042190   -0.851050   -1.039474
  O     -0.021123   -2.138356   -0.606887
  C      0.031974   -2.091913    0.759369
  C      0.042774   -0.796832    1.179639
  C      0.066781   -3.353220    1.523243
  N      0.040362   -4.486163    0.764093
  O      0.114324   -3.356115    2.741345
  H      0.885709    1.944660    0.395741
  H     -0.057364    1.867818   -1.098287
  H     -0.875252    1.938281    0.468097
  H     -0.083818   -0.714710   -2.108362
  H      0.081201   -0.479066    2.209508
  H      0.006023   -4.448518   -0.239257
  H      0.066365   -5.374801    1.233720

 Total Charge           Charge          ....    0
 Multiplicity           Mult            ....    1
 Number of Electrons    NEL             ....   66
 Basis Dimension        Dim             ....  321

ORBITAL ENERGIES
----------------

  NO   OCC          E(Eh)            E(eV)
   0   2.0000     -20.635475      -561.5198
   1   2.0000     -20.515564      -558.2569
   2   2.0000     -15.582363      -424.0177
   3   2.0000     -11.359548      -309.1090
   4   2.0000     -11.298934      -307.4596
   5   2.0000     -11.296528      -307.3942
   6   2.0000     -11.248085      -306.0760
   7   2.0000     -11.245267      -305.9993
   8   2.0000     -11.238535      -305.8161
   9   2.0000      -1.473478       -40.0954
  10   2.0000      -1.379173       -37.5292
  11   2.0000      -1.211969       -32.9793
  12   2.0000      -1.113517       -30.3003
  13   2.0000      -1.039429       -28.2843
  14   2.0000      -0.963112       -26.2076
  15   2.0000      -0.869961       -23.6728
  16   2.0000      -0.801164       -21.8008
  17   2.0000      -0.768291       -20.9063
  18   2.0000      -0.747284       -20.3346
  19   2.0000      -0.689173       -18.7534
  20   2.0000      -0.661879       -18.0106
  21   2.0000      -0.658576       -17.9208
  22   2.0000      -0.602389       -16.3918
  23   2.0000      -0.596345       -16.2274
  24   2.0000      -0.581304       -15.8181
  25   2.0000      -0.578813       -15.7503
  26   2.0000      -0.566869       -15.4253
  27   2.0000      -0.554548       -15.0900
  28   2.0000      -0.523409       -14.2427
  29   2.0000      -0.435745       -11.8572
  30   2.0000      -0.417176       -11.3519
  31   2.0000      -0.396162       -10.7801
  32   2.0000      -0.328078        -8.9274
  33   0.0000       0.096098         2.6150
  34   0.0000       0.138169         3.7598
  35   0.0000       0.142640         3.8814
  36   0.0000       0.172379         4.6907
  37   0.0000       0.179244         4.8775

MULLIKEN ATOMIC CHARGES
-----------------------
   0 C :   -0.420643
   1 C :    0.119945
   2 C :   -0.073784
   3 O :   -0.249947
   4 C :    0.278295
   5 C :   -0.300356
   6 C :    0.205013
   7 N :   -0.477584
   8 O :   -0.348807
   9 H :    0.149010
  10 H :    0.137620
  11 H :    0.149017
  12 H :    0.147574
  13 H :    0.153931
  14 H :    0.269889
  15 H :    0.260825
Sum of atomic charges:   -0.0000000

LOEWDIN ATOMIC CHARGES
----------------------
   0 C :   -0.266256
   1 C :   -0.203148
   2 C :   -0.215558
   3 O :    0.347999
   4 C :   -0.217496
   5 C :   -0.099907
   6 C :   -0.464087
   7 N :   -0.006806
   8 O :    0.086724
   9 H :    0.133760
  10 H :    0.132110
  11 H :    0.133771
  12 H :    0.135075
  13 H :    0.155959
  14 H :    0.173141
  15 H :    0.174719

  Mayer bond orders larger than 0.1
B(  0-C ,  1-C ) :   0.8531 B(  0-C ,  9-H ) :   0.9350 B(  0-C , 10-H ) :   0.9525
B(  0-C , 11-H ) :   0.9351 B(  1-C ,  2-C ) :   1.5037 B(  1-C ,  5-C ) :   1.1674
B(  2-C ,  3-O ) :   1.0687 B(  2-C , 12-H ) :   0.9336 B(  3-O ,  4-C ) :   0.9625
B(  4-C ,  5-C ) :   1.4707 B(  4-C ,  6-C ) :   0.8931 B(  4-C ,  7-N ) :  -0.1009
B(  4-C ,  8-O ) :  -0.1136 B(  5-C , 13-H ) :   0.9336 B(  6-C ,  7-N ) :   1.2116
B(  6-C ,  8-O ) :   2.0189 B(  7-N , 14-H ) :   0.8624 B(  7-N , 15-H ) :   0.8602

MP2 TOTAL ENERGY:     -437.228840789 Eh
FINAL SINGLE POINT ENERGY      -437.228840788846

DIPOLE MOMENT
-------------
                                X             Y             Z
Electronic contribution:      0.08909      -6.47095       1.70517
Nuclear contribution   :     -0.13761       6.70486      -3.06805
                        -----------------------------------------
Total Dipole Moment    :     -0.04852       0.23391      -1.36288
                        -----------------------------------------
Magnitude (a.u.)       :      1.38366
Magnitude (Debye)      :      3.51698

                             ****ORCA TERMINATED NORMALLY****
TOTAL RUN TIME: 0 days 0 hours 13 minutes 58 seconds 869 msec
