                         Program Version 3.0.3 - RELEASE   -
|  1> ! RI-MP2 RIJK def2-TZVP def2-TZVP/C def2-TZVP/JK TIGHTSCF
|  2> % maxcore 2000
|  3> % mp2 density relaxed end
|  4> *xyz 0 1
|  5>  O       -0.1960277832     0.2314433476     0.7640301071
|  6>  C        0.3514167705     0.6781918480    -0.2115600479
|  7>  C        1.3730897989     1.7642127568    -0.1508651506
|  8>  N        2.2809983797     1.8631255357    -1.3133640192
|  9>  C        1.3479277669     2.9547589365    -1.0684124031
| 10>  C        0.2841379228     3.2041345419    -2.1149904267
| 11>  C        0.8788264727     3.9751669029    -3.3130182107
| 12>  C       -0.1134627430     4.2552685792    -4.3471866123
| 13>  N       -0.9124035214     4.4695453744    -5.1539415253
| 14>  H        0.1415278736     0.2974008551    -1.2339573576
| 15>  H        1.7653131250     1.9360193905     0.8485959010
| 16>  H        3.2219046599     2.0908078316    -1.0053763878
| 17>  H        1.7501977067     3.8638706999    -0.6194787085
| 18>  H       -0.1294643806     2.2592714705    -2.4737407200
| 19>  H       -0.5397606381     3.7771367104    -1.6771549655
| 20>  H        1.3104762899     4.9264364278    -2.9794403712
| 21>  H        1.6942258797     3.3900479709    -3.7522866515
| 22> *
| 23>
| 24>                          ****END OF INPUT****

CARTESIAN COORDINATES (ANGSTROEM)
---------------------------------
  O     -0.196028    0.231443    0.764030
  C      0.351417    0.678192   -0.211560
  C      1.373090    1.764213   -0.150865
  N      2.280998    1.863126   -1.313364
  C      1.347928    2.954759   -1.068412
  C      0.284138    3.204135   -2.114990
  C      0.878826    3.975167   -3.313018
  C     -0.113463    4.255269   -4.347187
  N     -0.912404    4.469545   -5.153942
  H      0.141528    0.297401   -1.233957
  H      1.765313    1.936019    0.848596
  H      3.221905    2.090808   -1.005376
  H      1.750198    3.863871   -0.619479
  H     -0.129464    2.259271   -2.473741
  H     -0.539761    3.777137   -1.677155
  H      1.310476    4.926436   -2.979440
  H      1.694226    3.390048   -3.752287

 Total Charge           Charge          ....    0
 Multiplicity           Mult            ....    1
 Number of Electrons    NEL             ....   66
 Basis Dimension        Dim             ....  327

ORBITAL ENERGIES
----------------

  NO   OCC          E(Eh)            E(eV)
   0   2.0000     -20.569670      -559.7292
   1   2.0000     -15.599848      -424.4934
   2   2.0000     -15.574946      -423.8158
   3   2.0000     -11.345069      -308.7150
   4   2.0000     -11.307182      -307.6841
   5   2.0000     -11.295837      -307.3753
   6   2.0000     -11.294371      -307.3355
   7   2.0000     -11.279195      -306.9225
   8   2.0000     -11.271210      -306.7052
   9   2.0000      -1.408824       -38.3361
  10   2.0000      -1.306212       -35.5438
  11   2.0000      -1.224820       -33.3291
  12   2.0000      -1.103957       -30.0402
  13   2.0000      -0.978638       -26.6301
  14   2.0000      -0.960911       -26.1477
  15   2.0000      -0.856219       -23.2989
  16   2.0000      -0.792562       -21.5667
  17   2.0000      -0.752360       -20.4727
  18   2.0000      -0.714524       -19.4432
  19   2.0000      -0.672775       -18.3071
  20   2.0000      -0.665850       -18.1187
  21   2.0000      -0.649310       -17.6686
  22   2.0000      -0.602050       -16.3826
  23   2.0000      -0.578098       -15.7309
  24   2.0000      -0.571281       -15.5453
  25   2.0000      -0.555736       -15.1224
  26   2.0000      -0.546849       -14.8805
  27   2.0000      -0.511890       -13.9292
  28   2.0000      -0.490650       -13.3513
  29   2.0000      -0.469930       -12.7874
  30   2.0000      -0.464111       -12.6291
  31   2.0000      -0.445719       -12.1286
  32   2.0000      -0.422002       -11.4832
  33   0.0000       0.104447         2.8422
  34   0.0000       0.111133         3.0241
  35   0.0000       0.127996         3.4830
  36   0.0000       0.150869         4.1054
  37   0.0000       0.157170         4.2768

MULLIKEN ATOMIC CHARGES
-----------------------
   0 O :   -0.257362
   1 C :    0.035580
   2 C :    0.021669
   3 N :   -0.400528
   4 C :   -0.032124
   5 C :   -0.230792
   6 C :   -0.132279
   7 C :   -0.186203
   8 N :   -0.054096
   9 H :    0.104337
  10 H :    0.144666
  11 H :    0.234179
  12 H :    0.143796
  13 H :    0.139370
  14 H :    0.143960
  15 H :    0.154927
  16 H :    0.170900
Sum of atomic charges:    0.0000000

LOEWDIN ATOMIC CHARGES
----------------------
   0 O :    0.140956
   1 C :   -0.284349
   2 C :   -0.242127
   3 N :    0.020273
   4 C :   -0.254954
   5 C :   -0.226304
   6 C :   -0.239369
   7 C :   -0.193550
   8 N :    0.059157
   9 H :    0.117836
  10 H :    0.148354
  11 H :    0.173624
  12 H :    0.145524
  13 H :    0.151034
  14 H :    0.151933
  15 H :    0.163511
  16 H :    0.168450

  Mayer bond orders larger than 0.1
B(  0-O ,  1-C ) :   1.9947 B(  1-C ,  2-C ) :   0.8473 B(  1-C ,  9-H ) :   0.9598
B(  2-C ,  3-N ) :   0.8757 B(  2-C ,  4-C ) :   0.8525 B(  2-C , 10-H ) :   0.9154
B(  3-N ,  4-C ) :   0.8655 B(  3-N , 11-H ) :   0.8622 B(  4-C ,  5-C ) :   0.9114
B(  4-C , 12-H ) :   0.9114 B(  5-C ,  6-C ) :   0.9165 B(  5-C , 13-H ) :   0.9331
B(  5-C , 14-H ) :   0.9303 B(  6-C ,  7-C ) :   0.9394 B(  6-C , 15-H ) :   0.9051
B(  6-C , 16-H ) :   0.9052 B(  7-C ,  8-N ) :   2.8796

MP2 TOTAL ENERGY:     -417.294609694 Eh
FINAL SINGLE POINT ENERGY      -417.294609693946

DIPOLE MOMENT
-------------
                                X             Y             Z
Electronic contribution:     -2.46475      -1.36022      -0.74015
Nuclear contribution   :      4.10976       1.93701       1.58766
                        -----------------------------------------
Total Dipole Moment    :      1.64500       0.57679       0.84751
                        -----------------------------------------
Magnitude (a.u.)       :      1.93830
Magnitude (Debye)      :      4.92676

                             ****ORCA TERMINATED NORMALLY****
TOTAL RUN TIME: 0 days 0 hours 13 minutes 34 seconds 845 msec
