                         Program Version 3.0.3 - RELEASE   -
|  1> ! RI-MP2 RIJK def2-TZVP def2-TZVP/C def2-TZVP/JK TIGHTSCF
|  2> % maxcore 2000
|  3> % mp2 density relaxed end
|  4> *xyz 0 1
|  5>  C       -0.4938450131     0.9251086410    -1.8075450068
|  6>  C        0.3791278600    -0.1447923260    -1.1725871732
|  7>  C        1.9259660568    -0.0622771834    -1.2927155838
|  8>  C        2.0318318289    -0.6530287851     0.1403764141
|  9>  C        3.1365188575    -0.1913028730     1.0765479426
| 10>  C        0.5572631633    -0.2250261066     0.3671540768
| 11>  C        0.1856273555     0.9585332453     1.2930899282
| 12>  C       -0.7033170200    -0.0706226648     2.0136434560
| 13>  O       -0.3026845992    -1.1153755955     1.1049781501
| 14>  H       -0.1696680359     1.9322634615    -1.5225075307
| 15>  H       -0.4511748928     0.8656421809    -2.9005437441
| 16>  H       -1.5430682999     0.8117078268    -1.5120012925
| 17>  H        0.0446207908    -1.1380356718    -1.4951656763
| 18>  H        2.4048232933    -0.6099501902    -2.1074803623
| 19>  H        2.2700152975     0.9780203271    -1.3231003182
| 20>  H        2.0280122517    -1.7479649624     0.0805048981
| 21>  H        3.1815427605     0.9017098539     1.1397468476
| 22>  H        2.9907289164    -0.5824966475     2.0898538726
| 23>  H        4.1148761624    -0.5385637514     0.7269346151
| 24>  H        1.0053828752     1.3646224597     1.8875134387
| 25>  H       -0.3472089365     1.7805936880     0.8129352833
| 26>  H       -0.4256008187    -0.2998432721     3.0497396259
| 27>  H       -1.7831006036     0.1176141956     1.9712347586
| 28> *
| 29>
| 30>                          ****END OF INPUT****

CARTESIAN COORDINATES (ANGSTROEM)
---------------------------------
  C     -0.493845    0.925109   -1.807545
  C      0.379128   -0.144792   -1.172587
  C      1.925966   -0.062277   -1.292716
  C      2.031832   -0.653029    0.140376
  C      3.136519   -0.191303    1.076548
  C      0.557263   -0.225026    0.367154
  C      0.185627    0.958533    1.293090
  C     -0.703317   -0.070623    2.013643
  O     -0.302685   -1.115376    1.104978
  H     -0.169668    1.932263   -1.522508
  H     -0.451175    0.865642   -2.900544
  H     -1.543068    0.811708   -1.512001
  H      0.044621   -1.138036   -1.495166
  H      2.404823   -0.609950   -2.107480
  H      2.270015    0.978020   -1.323100
  H      2.028012   -1.747965    0.080505
  H      3.181543    0.901710    1.139747
  H      2.990729   -0.582497    2.089854
  H      4.114876   -0.538564    0.726935
  H      1.005383    1.364622    1.887513
  H     -0.347209    1.780594    0.812935
  H     -0.425601   -0.299843    3.049740
  H     -1.783101    0.117614    1.971235

 Total Charge           Charge          ....    0
 Multiplicity           Mult            ....    1
 Number of Electrons    NEL             ....   70
 Basis Dimension        Dim             ....  363

ORBITAL ENERGIES
----------------

  NO   OCC          E(Eh)            E(eV)
   0   2.0000     -20.539830      -558.9172
   1   2.0000     -11.278490      -306.9033
   2   2.0000     -11.273764      -306.7747
   3   2.0000     -11.224848      -305.4436
   4   2.0000     -11.222145      -305.3701
   5   2.0000     -11.222125      -305.3696
   6   2.0000     -11.216771      -305.2239
   7   2.0000     -11.213854      -305.1445
   8   2.0000     -11.213853      -305.1445
   9   2.0000      -1.372996       -37.3611
  10   2.0000      -1.132044       -30.8045
  11   2.0000      -1.008783       -27.4504
  12   2.0000      -1.001110       -27.2416
  13   2.0000      -0.940584       -25.5946
  14   2.0000      -0.900802       -24.5121
  15   2.0000      -0.804116       -21.8811
  16   2.0000      -0.803425       -21.8623
  17   2.0000      -0.706699       -19.2303
  18   2.0000      -0.670221       -18.2376
  19   2.0000      -0.666207       -18.1284
  20   2.0000      -0.622097       -16.9281
  21   2.0000      -0.590156       -16.0590
  22   2.0000      -0.580994       -15.8097
  23   2.0000      -0.577814       -15.7231
  24   2.0000      -0.562434       -15.3046
  25   2.0000      -0.534289       -14.5387
  26   2.0000      -0.527031       -14.3412
  27   2.0000      -0.522384       -14.2148
  28   2.0000      -0.496469       -13.5096
  29   2.0000      -0.485409       -13.2086
  30   2.0000      -0.473925       -12.8961
  31   2.0000      -0.446842       -12.1592
  32   2.0000      -0.430758       -11.7215
  33   2.0000      -0.413983       -11.2650
  34   2.0000      -0.383808       -10.4439
  35   0.0000       0.131763         3.5855
  36   0.0000       0.153753         4.1838
  37   0.0000       0.154806         4.2125
  38   0.0000       0.166432         4.5288
  39   0.0000       0.189858         5.1663

MULLIKEN ATOMIC CHARGES
-----------------------
   0 C :   -0.445870
   1 C :   -0.002543
   2 C :   -0.287408
   3 C :   -0.002538
   4 C :   -0.445872
   5 C :    0.197822
   6 C :   -0.337280
   7 C :   -0.008473
   8 O :   -0.336475
   9 H :    0.122462
  10 H :    0.138377
  11 H :    0.138497
  12 H :    0.099732
  13 H :    0.122034
  14 H :    0.105827
  15 H :    0.099732
  16 H :    0.122464
  17 H :    0.138497
  18 H :    0.138378
  19 H :    0.128413
  20 H :    0.128413
  21 H :    0.092907
  22 H :    0.092906
Sum of atomic charges:    0.0000000

LOEWDIN ATOMIC CHARGES
----------------------
   0 C :   -0.302717
   1 C :   -0.221300
   2 C :   -0.197265
   3 C :   -0.221301
   4 C :   -0.302717
   5 C :   -0.258078
   6 C :   -0.203308
   7 C :   -0.272004
   8 O :    0.155765
   9 H :    0.120880
  10 H :    0.126444
  11 H :    0.126518
  12 H :    0.159573
  13 H :    0.124632
  14 H :    0.135933
  15 H :    0.159574
  16 H :    0.120880
  17 H :    0.126519
  18 H :    0.126443
  19 H :    0.132834
  20 H :    0.132833
  21 H :    0.114930
  22 H :    0.114930

  Mayer bond orders larger than 0.1
B(  0-C ,  1-C ) :   0.8702 B(  0-C ,  9-H ) :   0.9379 B(  0-C , 10-H ) :   0.9391
B(  0-C , 11-H ) :   0.9430 B(  1-C ,  2-C ) :   0.9339 B(  1-C ,  5-C ) :   0.9122
B(  1-C , 12-H ) :   0.9170 B(  2-C ,  3-C ) :   0.9339 B(  2-C , 13-H ) :   0.9283
B(  2-C , 14-H ) :   0.9043 B(  3-C ,  4-C ) :   0.8702 B(  3-C ,  5-C ) :   0.9122
B(  3-C , 15-H ) :   0.9170 B(  4-C , 16-H ) :   0.9379 B(  4-C , 17-H ) :   0.9430
B(  4-C , 18-H ) :   0.9391 B(  5-C ,  6-C ) :   0.8940 B(  5-C ,  8-O ) :   0.9532
B(  6-C ,  7-C ) :   1.0072 B(  6-C , 19-H ) :   0.9191 B(  6-C , 20-H ) :   0.9191
B(  7-C ,  8-O ) :   0.9528 B(  7-C , 21-H ) :   0.9122 B(  7-C , 22-H ) :   0.9122

MP2 TOTAL ENERGY:     -387.594812698 Eh
FINAL SINGLE POINT ENERGY      -387.594812698335

DIPOLE MOMENT
-------------
                                X             Y             Z
Electronic contribution:     -2.63870      -3.76606       1.86372
Nuclear contribution   :      2.81342       4.36670      -1.85115
                        -----------------------------------------
Total Dipole Moment    :      0.17472       0.60064       0.01256
                        -----------------------------------------
Magnitude (a.u.)       :      0.62566
Magnitude (Debye)      :      1.59031

                             ****ORCA TERMINATED NORMALLY****
TOTAL RUN TIME: 0 days 0 hours 20 minutes 52 seconds 464 msec
