                         Program Version 3.0.3 - RELEASE   -
|  1> ! RI-MP2 RIJK def2-TZVP def2-TZVP/C def2-TZVP/JK TIGHTSCF
|  2> % maxcore 2000
|  3> % mp2 density relaxed end
|  4> *xyz 0 1
|  5>  C       -0.1460658344     1.5832531935     0.0327618083
|  6>  C        0.1805852293     0.0919788038    -0.1090516866
|  7>  C        0.7958944854    -0.5005309430     1.1523445076
|  8>  C       -0.1007447729    -0.8300663316     2.3720978230
|  9>  C       -0.5946890783    -2.1850937664     1.7605750324
| 10>  C       -0.2195250514    -3.0016425530     3.0162900419
| 11>  C        0.8969750850    -1.9509839635     2.8633987194
| 12>  O        2.0543806161    -1.7844511182     3.5998181999
| 13>  C        0.9020083040    -2.0361544471     1.3080473684
| 14>  H        0.7534103833     2.1634211950     0.2674218707
| 15>  H       -0.5726037239     1.9890358905    -0.8899101980
| 16>  H       -0.8685955732     1.7559769735     0.8378393322
| 17>  H       -0.7293206906    -0.4596123744    -0.3765793648
| 18>  H        0.8788315864    -0.0491672072    -0.9450041345
| 19>  H        1.7175812418     0.0319818201     1.4179290393
| 20>  H       -0.6887262618    -0.1659975245     3.0100012455
| 21>  H       -1.4535792431    -2.3191701141     1.1085428864
| 22>  H       -0.8840384008    -2.9027597523     3.8820830543
| 23>  H        0.0636715764    -4.0474918331     2.8592110275
| 24>  H        1.8108041630    -1.5561500746     4.5034548084
| 25>  H        1.4644379597    -2.7592436833     0.7139566889
| 26> *
| 27>
| 28>                          ****END OF INPUT****

CARTESIAN COORDINATES (ANGSTROEM)
---------------------------------
  C     -0.146066    1.583253    0.032762
  C      0.180585    0.091979   -0.109052
  C      0.795894   -0.500531    1.152345
  C     -0.100745   -0.830066    2.372098
  C     -0.594689   -2.185094    1.760575
  C     -0.219525   -3.001643    3.016290
  C      0.896975   -1.950984    2.863399
  O      2.054381   -1.784451    3.599818
  C      0.902008   -2.036154    1.308047
  H      0.753410    2.163421    0.267422
  H     -0.572604    1.989036   -0.889910
  H     -0.868596    1.755977    0.837839
  H     -0.729321   -0.459612   -0.376579
  H      0.878832   -0.049167   -0.945004
  H      1.717581    0.031982    1.417929
  H     -0.688726   -0.165998    3.010001
  H     -1.453579   -2.319170    1.108543
  H     -0.884038   -2.902760    3.882083
  H      0.063672   -4.047492    2.859211
  H      1.810804   -1.556150    4.503455
  H      1.464438   -2.759244    0.713957

 Total Charge           Charge          ....    0
 Multiplicity           Mult            ....    1
 Number of Electrons    NEL             ....   68
 Basis Dimension        Dim             ....  351

ORBITAL ENERGIES
----------------

  NO   OCC          E(Eh)            E(eV)
   0   2.0000     -20.564680      -559.5934
   1   2.0000     -11.293695      -307.3171
   2   2.0000     -11.239842      -305.8516
   3   2.0000     -11.235302      -305.7281
   4   2.0000     -11.233958      -305.6915
   5   2.0000     -11.223843      -305.4163
   6   2.0000     -11.223579      -305.4091
   7   2.0000     -11.214848      -305.1715
   8   2.0000     -11.210227      -305.0458
   9   2.0000      -1.377492       -37.4835
  10   2.0000      -1.233815       -33.5738
  11   2.0000      -1.052427       -28.6380
  12   2.0000      -0.977413       -26.5968
  13   2.0000      -0.868924       -23.6446
  14   2.0000      -0.865350       -23.5474
  15   2.0000      -0.846615       -23.0376
  16   2.0000      -0.781042       -21.2532
  17   2.0000      -0.719867       -19.5886
  18   2.0000      -0.683319       -18.5940
  19   2.0000      -0.647761       -17.6265
  20   2.0000      -0.620824       -16.8935
  21   2.0000      -0.617597       -16.8057
  22   2.0000      -0.582419       -15.8484
  23   2.0000      -0.577972       -15.7274
  24   2.0000      -0.557929       -15.1820
  25   2.0000      -0.523169       -14.2361
  26   2.0000      -0.502355       -13.6698
  27   2.0000      -0.486998       -13.2519
  28   2.0000      -0.452525       -12.3138
  29   2.0000      -0.437190       -11.8965
  30   2.0000      -0.430862       -11.7244
  31   2.0000      -0.423597       -11.5267
  32   2.0000      -0.411302       -11.1921
  33   2.0000      -0.393319       -10.7028
  34   0.0000       0.137700         3.7470
  35   0.0000       0.142343         3.8733
  36   0.0000       0.159343         4.3359
  37   0.0000       0.170505         4.6397
  38   0.0000       0.183928         5.0049

MULLIKEN ATOMIC CHARGES
-----------------------
   0 C :   -0.400833
   1 C :   -0.202491
   2 C :   -0.095452
   3 C :   -0.118568
   4 C :   -0.194309
   5 C :   -0.182463
   6 C :    0.089358
   7 O :   -0.455224
   8 C :   -0.072458
   9 H :    0.125160
  10 H :    0.132244
  11 H :    0.123792
  12 H :    0.108446
  13 H :    0.109319
  14 H :    0.101263
  15 H :    0.128751
  16 H :    0.140243
  17 H :    0.104811
  18 H :    0.110883
  19 H :    0.324292
  20 H :    0.123236
Sum of atomic charges:   -0.0000000

LOEWDIN ATOMIC CHARGES
----------------------
   0 C :   -0.317508
   1 C :   -0.274785
   2 C :   -0.192217
   3 C :   -0.113633
   4 C :   -0.141806
   5 C :   -0.190436
   6 C :   -0.307957
   7 O :    0.028675
   8 C :   -0.099390
   9 H :    0.120847
  10 H :    0.119727
  11 H :    0.119938
  12 H :    0.137919
  13 H :    0.137713
  14 H :    0.148014
  15 H :    0.125784
  16 H :    0.129350
  17 H :    0.125710
  18 H :    0.128913
  19 H :    0.184883
  20 H :    0.130259

  Mayer bond orders larger than 0.1
B(  0-C ,  1-C ) :   0.9147 B(  0-C ,  9-H ) :   0.9399 B(  0-C , 10-H ) :   0.9409
B(  0-C , 11-H ) :   0.9403 B(  1-C ,  2-C ) :   0.8918 B(  1-C , 12-H ) :   0.9326
B(  1-C , 13-H ) :   0.9356 B(  2-C ,  3-C ) :   0.9258 B(  2-C ,  8-C ) :   0.9138
B(  2-C , 14-H ) :   0.9039 B(  3-C ,  4-C ) :   0.8636 B(  3-C ,  6-C ) :   0.8270
B(  3-C , 15-H ) :   0.8787 B(  4-C ,  5-C ) :   0.9345 B(  4-C ,  8-C ) :   0.8595
B(  4-C , 16-H ) :   0.9091 B(  5-C ,  6-C ) :   0.9715 B(  5-C , 17-H ) :   0.9199
B(  5-C , 18-H ) :   0.9219 B(  6-C ,  7-O ) :   1.0943 B(  6-C ,  8-C ) :   0.8551
B(  7-O , 19-H ) :   0.8353 B(  8-C , 20-H ) :   0.8901

MP2 TOTAL ENERGY:     -386.346967309 Eh
FINAL SINGLE POINT ENERGY      -386.346967308643

DIPOLE MOMENT
-------------
                                X             Y             Z
Electronic contribution:      3.08938      -5.05633       5.06923
Nuclear contribution   :     -3.55942       5.14827      -4.81489
                        -----------------------------------------
Total Dipole Moment    :     -0.47004       0.09195       0.25434
                        -----------------------------------------
Magnitude (a.u.)       :      0.54229
Magnitude (Debye)      :      1.37840

                             ****ORCA TERMINATED NORMALLY****
TOTAL RUN TIME: 0 days 0 hours 18 minutes 26 seconds 713 msec
