                         Program Version 3.0.3 - RELEASE   -
|  1> ! RI-MP2 RIJK def2-TZVP def2-TZVP/C def2-TZVP/JK TIGHTSCF
|  2> % maxcore 2000
|  3> % mp2 density relaxed end
|  4> *xyz 0 1
|  5>  N        0.0395742751    -3.7652256107    -0.1299640669
|  6>  C        0.0340136597    -2.6041589333    -0.0832915312
|  7>  C        0.0235358083    -1.2407624294    -0.0306229724
|  8>  C        0.0121960788    -0.0327115069     0.0158505549
|  9>  C        0.0025588485     1.4096951508     0.0710355154
| 10>  C       -0.2419488493     2.1204909463     1.4672430706
| 11>  C        1.1153916900     2.8111871787     1.2935064813
| 12>  O        2.0997523615     1.7773626541     1.1815224420
| 13>  C        1.3747025940     2.1351885264     0.0138609325
| 14>  H       -0.6827915896     1.8119403838    -0.6815637858
| 15>  H       -1.0989228656     2.7950550552     1.4298970659
| 16>  H       -0.3174327687     1.4616965325     2.3332196351
| 17>  H        1.4443896572     3.7749300455     1.6614489661
| 18>  H        1.9334422800     2.4242864871    -0.8679702075
| 19> *
| 20>
| 21>                          ****END OF INPUT****

CARTESIAN COORDINATES (ANGSTROEM)
---------------------------------
  N      0.039574   -3.765226   -0.129964
  C      0.034014   -2.604159   -0.083292
  C      0.023536   -1.240762   -0.030623
  C      0.012196   -0.032712    0.015851
  C      0.002559    1.409695    0.071036
  C     -0.241949    2.120491    1.467243
  C      1.115392    2.811187    1.293506
  O      2.099752    1.777363    1.181522
  C      1.374703    2.135189    0.013861
  H     -0.682792    1.811940   -0.681564
  H     -1.098923    2.795055    1.429897
  H     -0.317433    1.461697    2.333220
  H      1.444390    3.774930    1.661449
  H      1.933442    2.424286   -0.867970

 Total Charge           Charge          ....    0
 Multiplicity           Mult            ....    1
 Number of Electrons    NEL             ....   62
 Basis Dimension        Dim             ....  309

ORBITAL ENERGIES
----------------

  NO   OCC          E(Eh)            E(eV)
   0   2.0000     -20.594534      -560.4058
   1   2.0000     -15.589764      -424.2190
   2   2.0000     -11.319582      -308.0215
   3   2.0000     -11.314546      -307.8844
   4   2.0000     -11.297773      -307.4280
   5   2.0000     -11.297706      -307.4262
   6   2.0000     -11.291537      -307.2583
   7   2.0000     -11.275061      -306.8100
   8   2.0000     -11.269953      -306.6710
   9   2.0000      -1.449865       -39.4528
  10   2.0000      -1.230107       -33.4729
  11   2.0000      -1.140547       -31.0359
  12   2.0000      -1.074122       -29.2284
  13   2.0000      -0.966891       -26.3104
  14   2.0000      -0.912295       -24.8248
  15   2.0000      -0.869523       -23.6609
  16   2.0000      -0.806318       -21.9410
  17   2.0000      -0.750858       -20.4319
  18   2.0000      -0.695088       -18.9143
  19   2.0000      -0.658194       -17.9104
  20   2.0000      -0.606217       -16.4960
  21   2.0000      -0.575120       -15.6498
  22   2.0000      -0.572145       -15.5689
  23   2.0000      -0.544064       -14.8047
  24   2.0000      -0.541907       -14.7460
  25   2.0000      -0.526810       -14.3352
  26   2.0000      -0.514905       -14.0113
  27   2.0000      -0.483959       -13.1692
  28   2.0000      -0.437811       -11.9135
  29   2.0000      -0.398859       -10.8535
  30   2.0000      -0.394693       -10.7401
  31   0.0000       0.091817         2.4985
  32   0.0000       0.097241         2.6460
  33   0.0000       0.131909         3.5894
  34   0.0000       0.149869         4.0781
  35   0.0000       0.158367         4.3094

MULLIKEN ATOMIC CHARGES
-----------------------
   0 N :   -0.038980
   1 C :   -0.224862
   2 C :    0.266133
   3 C :   -0.110308
   4 C :   -0.096519
   5 C :   -0.196002
   6 C :   -0.022835
   7 O :   -0.309083
   8 C :    0.006363
   9 H :    0.151464
  10 H :    0.131325
  11 H :    0.143549
  12 H :    0.148152
  13 H :    0.151603
Sum of atomic charges:    0.0000000

LOEWDIN ATOMIC CHARGES
----------------------
   0 N :    0.096561
   1 C :   -0.177238
   2 C :   -0.049727
   3 C :    0.023138
   4 C :   -0.189737
   5 C :   -0.170405
   6 C :   -0.237634
   7 O :    0.194792
   8 C :   -0.214400
   9 H :    0.174874
  10 H :    0.140031
  11 H :    0.141379
  12 H :    0.133309
  13 H :    0.135058

  Mayer bond orders larger than 0.1
B(  0-N ,  1-C ) :   2.7644 B(  0-N ,  3-C ) :   0.1119 B(  1-C ,  2-C ) :   0.9786
B(  2-C ,  3-C ) :   2.5287 B(  2-C ,  4-C ) :  -0.1100 B(  3-C ,  4-C ) :   1.0492
B(  4-C ,  5-C ) :   0.9219 B(  4-C ,  8-C ) :   0.8553 B(  4-C ,  9-H ) :   0.9070
B(  5-C ,  6-C ) :   0.9323 B(  5-C , 10-H ) :   0.9138 B(  5-C , 11-H ) :   0.9161
B(  6-C ,  7-O ) :   0.9134 B(  6-C ,  8-C ) :   0.9099 B(  6-C , 12-H ) :   0.9232
B(  7-O ,  8-C ) :   0.9558 B(  8-C , 13-H ) :   0.9215

MP2 TOTAL ENERGY:     -398.783193952 Eh
FINAL SINGLE POINT ENERGY      -398.783193952079

DIPOLE MOMENT
-------------
                                X             Y             Z
Electronic contribution:      0.80151      -7.39332      -1.62082
Nuclear contribution   :     -1.27286       9.80254       1.51698
                        -----------------------------------------
Total Dipole Moment    :     -0.47135       2.40921      -0.10384
                        -----------------------------------------
Magnitude (a.u.)       :      2.45708
Magnitude (Debye)      :      6.24541

                             ****ORCA TERMINATED NORMALLY****
TOTAL RUN TIME: 0 days 0 hours 13 minutes 17 seconds 932 msec
