                         Program Version 3.0.3 - RELEASE   -
|  1> ! RI-MP2 RIJK def2-TZVP def2-TZVP/C def2-TZVP/JK TIGHTSCF
|  2> % maxcore 2000
|  3> % mp2 density relaxed end
|  4> *xyz 0 1
|  5>  C       -0.0008546122     1.4262633953     0.1637854044
|  6>  N       -0.0257577205    -0.0203837825     0.0712130048
|  7>  C       -1.0810269660    -0.6155066719    -0.2772704898
|  8>  N       -2.2916674832    -0.0150635959    -0.6891952225
|  9>  N       -3.3580511927    -0.6035070520    -0.4558276686
| 10>  O       -3.2851946654    -1.8366941400     0.2009829729
| 11>  N       -2.0916818578    -2.6514071719    -0.1162096350
| 12>  N       -1.0653552680    -2.0368022428    -0.3528914784
| 13>  H        0.8864478332     1.7796997897    -0.3710857620
| 14>  H       -0.8942633277     1.9262666345    -0.2221843062
| 15>  H        0.1401661405     1.6983715174     1.2160540605
| 16> *
| 17>
| 18>                          ****END OF INPUT****

CARTESIAN COORDINATES (ANGSTROEM)
---------------------------------
  C     -0.000855    1.426263    0.163785
  N     -0.025758   -0.020384    0.071213
  C     -1.081027   -0.615507   -0.277270
  N     -2.291667   -0.015064   -0.689195
  N     -3.358051   -0.603507   -0.455828
  O     -3.285195   -1.836694    0.200983
  N     -2.091682   -2.651407   -0.116210
  N     -1.065355   -2.036802   -0.352891
  H      0.886448    1.779700   -0.371086
  H     -0.894263    1.926267   -0.222184
  H      0.140166    1.698372    1.216054

 Total Charge           Charge          ....    0
 Multiplicity           Mult            ....    1
 Number of Electrons    NEL             ....   58
 Basis Dimension        Dim             ....  266

ORBITAL ENERGIES
----------------

  NO   OCC          E(Eh)            E(eV)
   0   2.0000     -20.683808      -562.8350
   1   2.0000     -15.754974      -428.7146
   2   2.0000     -15.754570      -428.7037
   3   2.0000     -15.685144      -426.8145
   4   2.0000     -15.675876      -426.5623
   5   2.0000     -15.616173      -424.9377
   6   2.0000     -11.385879      -309.8255
   7   2.0000     -11.278384      -306.9004
   8   2.0000      -1.559217       -42.4284
   9   2.0000      -1.420723       -38.6598
  10   2.0000      -1.362670       -37.0801
  11   2.0000      -1.268925       -34.5292
  12   2.0000      -1.047088       -28.4927
  13   2.0000      -1.006289       -27.3825
  14   2.0000      -0.933469       -25.4010
  15   2.0000      -0.829680       -22.5767
  16   2.0000      -0.744704       -20.2644
  17   2.0000      -0.727790       -19.8042
  18   2.0000      -0.705388       -19.1946
  19   2.0000      -0.630398       -17.1540
  20   2.0000      -0.626459       -17.0468
  21   2.0000      -0.612107       -16.6563
  22   2.0000      -0.598314       -16.2810
  23   2.0000      -0.569049       -15.4846
  24   2.0000      -0.555127       -15.1058
  25   2.0000      -0.526082       -14.3154
  26   2.0000      -0.488300       -13.2873
  27   2.0000      -0.426345       -11.6014
  28   2.0000      -0.422392       -11.4939
  29   0.0000       0.035485         0.9656
  30   0.0000       0.074757         2.0342
  31   0.0000       0.141884         3.8609
  32   0.0000       0.182649         4.9701
  33   0.0000       0.196662         5.3514

MULLIKEN ATOMIC CHARGES
-----------------------
   0 C :   -0.289161
   1 N :   -0.170660
   2 C :    0.128210
   3 N :   -0.094588
   4 N :    0.030345
   5 O :   -0.109647
   6 N :    0.052260
   7 N :   -0.009837
   8 H :    0.157247
   9 H :    0.149005
  10 H :    0.156827
Sum of atomic charges:   -0.0000000

LOEWDIN ATOMIC CHARGES
----------------------
   0 C :   -0.314967
   1 N :    0.146944
   2 C :   -0.428260
   3 N :    0.057441
   4 N :   -0.008587
   5 O :    0.042334
   6 N :    0.034430
   7 N :    0.094555
   8 H :    0.129343
   9 H :    0.115498
  10 H :    0.131269

  Mayer bond orders larger than 0.1
B(  0-C ,  1-N ) :   0.8636 B(  0-C ,  8-H ) :   0.9274 B(  0-C ,  9-H ) :   0.9264
B(  0-C , 10-H ) :   0.9190 B(  1-N ,  2-C ) :   1.9063 B(  2-C ,  3-N ) :   1.0012
B(  2-C ,  7-N ) :   0.9902 B(  3-N ,  4-N ) :   1.5357 B(  4-N ,  5-O ) :   0.8739
B(  5-O ,  6-N ) :   0.7485 B(  6-N ,  7-N ) :   1.6328

MP2 TOTAL ENERGY:     -426.062005208 Eh
FINAL SINGLE POINT ENERGY      -426.062005207646

DIPOLE MOMENT
-------------
                                X             Y             Z
Electronic contribution:     -4.42203      -6.37685      -0.94892
Nuclear contribution   :      4.80532       7.25760       1.06209
                        -----------------------------------------
Total Dipole Moment    :      0.38330       0.88076       0.11317
                        -----------------------------------------
Magnitude (a.u.)       :      0.96719
Magnitude (Debye)      :      2.45840

                             ****ORCA TERMINATED NORMALLY****
TOTAL RUN TIME: 0 days 0 hours 8 minutes 36 seconds 669 msec
