                         Program Version 3.0.3 - RELEASE   -
|  1> ! RI-MP2 RIJK def2-TZVP def2-TZVP/C def2-TZVP/JK TIGHTSCF
|  2> % maxcore 2000
|  3> % mp2 density relaxed end
|  4> *xyz 0 1
|  5>  C        0.0267611936     1.4926331335     0.0835504304
|  6>  C        1.4390671491     2.1351946406     0.0049476145
|  7>  C        2.3360094703     1.4643207328    -1.0572017802
|  8>  C        1.5437626298     0.6923419720    -2.1440877656
|  9>  C        2.4853334218    -0.5406232861    -2.1651572241
| 10>  O        1.4141343703    -1.5113636010    -1.8388182927
| 11>  C        1.1201862069    -0.3338298563    -1.0396456684
| 12>  C        0.0150667097    -0.0579218091    -0.0734699487
| 13>  C        2.6097284202    -0.0154919158    -0.7132788038
| 14>  H       -0.4694660473     1.7849666007     1.0135781745
| 15>  H       -0.5763434450     1.9064091611    -0.7321898489
| 16>  H        1.3207088900     3.2032578615    -0.2087368478
| 17>  H        1.9423074509     2.0730436896     0.9790027556
| 18>  H        3.1804915401     2.0842896889    -1.3701323801
| 19>  H        0.9221049513     1.0562571077    -2.9626085734
| 20>  H        3.2420638104    -0.8511475333    -2.8843818337
| 21>  H        0.1943768111    -0.5690453655     0.8790742604
| 22>  H       -0.9568332075    -0.3917276049    -0.4514499138
| 23>  H        3.1915739142    -0.4493936763     0.1010660860
| 24> *
| 25>
| 26>                          ****END OF INPUT****

CARTESIAN COORDINATES (ANGSTROEM)
---------------------------------
  C      0.026761    1.492633    0.083550
  C      1.439067    2.135195    0.004948
  C      2.336009    1.464321   -1.057202
  C      1.543763    0.692342   -2.144088
  C      2.485333   -0.540623   -2.165157
  O      1.414134   -1.511364   -1.838818
  C      1.120186   -0.333830   -1.039646
  C      0.015067   -0.057922   -0.073470
  C      2.609728   -0.015492   -0.713279
  H     -0.469466    1.784967    1.013578
  H     -0.576343    1.906409   -0.732190
  H      1.320709    3.203258   -0.208737
  H      1.942307    2.073044    0.979003
  H      3.180492    2.084290   -1.370132
  H      0.922105    1.056257   -2.962609
  H      3.242064   -0.851148   -2.884382
  H      0.194377   -0.569045    0.879074
  H     -0.956833   -0.391728   -0.451450
  H      3.191574   -0.449394    0.101066

 Total Charge           Charge          ....    0
 Multiplicity           Mult            ....    1
 Number of Electrons    NEL             ....   66
 Basis Dimension        Dim             ....  339

ORBITAL ENERGIES
----------------

  NO   OCC          E(Eh)            E(eV)
   0   2.0000     -20.541717      -558.9685
   1   2.0000     -11.296267      -307.3871
   2   2.0000     -11.296169      -307.3844
   3   2.0000     -11.239800      -305.8505
   4   2.0000     -11.238982      -305.8282
   5   2.0000     -11.236996      -305.7742
   6   2.0000     -11.231837      -305.6338
   7   2.0000     -11.230614      -305.6005
   8   2.0000     -11.227218      -305.5081
   9   2.0000      -1.394215       -37.9385
  10   2.0000      -1.176247       -32.0073
  11   2.0000      -1.064946       -28.9786
  12   2.0000      -0.987489       -26.8709
  13   2.0000      -0.894188       -24.3321
  14   2.0000      -0.879705       -23.9380
  15   2.0000      -0.821635       -22.3578
  16   2.0000      -0.790294       -21.5050
  17   2.0000      -0.692213       -18.8361
  18   2.0000      -0.673066       -18.3151
  19   2.0000      -0.649721       -17.6798
  20   2.0000      -0.613671       -16.6988
  21   2.0000      -0.610038       -16.6000
  22   2.0000      -0.604452       -16.4480
  23   2.0000      -0.551250       -15.0003
  24   2.0000      -0.532192       -14.4817
  25   2.0000      -0.525615       -14.3027
  26   2.0000      -0.496650       -13.5145
  27   2.0000      -0.488841       -13.3020
  28   2.0000      -0.439035       -11.9468
  29   2.0000      -0.431919       -11.7531
  30   2.0000      -0.422207       -11.4888
  31   2.0000      -0.408533       -11.1167
  32   2.0000      -0.389356       -10.5949
  33   0.0000       0.131917         3.5896
  34   0.0000       0.156500         4.2586
  35   0.0000       0.165552         4.5049
  36   0.0000       0.173364         4.7175
  37   0.0000       0.184729         5.0267

MULLIKEN ATOMIC CHARGES
-----------------------
   0 C :   -0.232211
   1 C :   -0.260580
   2 C :   -0.088520
   3 C :   -0.117616
   4 C :   -0.009902
   5 O :   -0.334526
   6 C :    0.180051
   7 C :   -0.256862
   8 C :   -0.122710
   9 H :    0.132196
  10 H :    0.120514
  11 H :    0.122277
  12 H :    0.111929
  13 H :    0.113004
  14 H :    0.130713
  15 H :    0.130523
  16 H :    0.122187
  17 H :    0.129859
  18 H :    0.129676
Sum of atomic charges:   -0.0000000

LOEWDIN ATOMIC CHARGES
----------------------
   0 C :   -0.237288
   1 C :   -0.236527
   2 C :   -0.185495
   3 C :   -0.100580
   4 C :   -0.172315
   5 O :    0.136470
   6 C :   -0.249546
   7 C :   -0.216796
   8 C :   -0.103513
   9 H :    0.135459
  10 H :    0.140961
  11 H :    0.138225
  12 H :    0.138919
  13 H :    0.136748
  14 H :    0.130061
  15 H :    0.125480
  16 H :    0.142954
  17 H :    0.146021
  18 H :    0.130763

  Mayer bond orders larger than 0.1
B(  0-C ,  1-C ) :   0.9473 B(  0-C ,  7-C ) :   0.9223 B(  0-C ,  9-H ) :   0.9340
B(  0-C , 10-H ) :   0.9290 B(  1-C ,  2-C ) :   0.9112 B(  1-C , 11-H ) :   0.9291
B(  1-C , 12-H ) :   0.9280 B(  2-C ,  3-C ) :   0.8840 B(  2-C ,  8-C ) :   0.8669
B(  2-C , 13-H ) :   0.9232 B(  3-C ,  4-C ) :   0.8845 B(  3-C ,  6-C ) :   0.8789
B(  3-C , 14-H ) :   0.8870 B(  4-C ,  5-O ) :   0.8746 B(  4-C ,  8-C ) :   0.8871
B(  4-C , 15-H ) :   0.9042 B(  5-O ,  6-C ) :   1.0024 B(  6-C ,  7-C ) :   0.8684
B(  6-C ,  8-C ) :   0.8644 B(  7-C , 16-H ) :   0.9278 B(  7-C , 17-H ) :   0.9261
B(  8-C , 18-H ) :   0.8938

MP2 TOTAL ENERGY:     -385.135119037 Eh
FINAL SINGLE POINT ENERGY      -385.135119037091

DIPOLE MOMENT
-------------
                                X             Y             Z
Electronic contribution:      2.19175      -4.98395      -3.63139
Nuclear contribution   :     -2.09352       5.84395       3.94757
                        -----------------------------------------
Total Dipole Moment    :      0.09823       0.86000       0.31618
                        -----------------------------------------
Magnitude (a.u.)       :      0.92153
Magnitude (Debye)      :      2.34235

                             ****ORCA TERMINATED NORMALLY****
TOTAL RUN TIME: 0 days 0 hours 20 minutes 32 seconds 118 msec
