                         Program Version 3.0.3 - RELEASE   -
|  1> ! RI-MP2 RIJK def2-TZVP def2-TZVP/C def2-TZVP/JK TIGHTSCF
|  2> % maxcore 2000
|  3> % mp2 density relaxed end
|  4> *xyz 0 1
|  5>  C       -0.0105335722     1.5280511109    -0.1256999993
|  6>  C       -0.0623397237     0.0023712275    -0.2226059114
|  7>  C       -1.4182870796    -0.5632236940     0.2484214797
|  8>  C       -1.4843250071    -2.0477945276     0.1599872417
|  9>  N       -1.4689946433    -2.9232605021     1.1240176293
| 10>  C       -1.5228338729    -4.1071929712     0.4310922294
| 11>  N       -1.5683997288    -3.9955918553    -0.8670697678
| 12>  O       -1.5424568349    -2.6074081664    -1.0581730619
| 13>  H        0.9582268407     1.9087734629    -0.4618220145
| 14>  H       -0.7852784742     1.9918048705    -0.7460306481
| 15>  H       -0.1631347312     1.8661361900     0.9049667599
| 16>  H        0.1166997566    -0.3161663609    -1.2553535901
| 17>  H        0.7361843978    -0.4398772166     0.3841386754
| 18>  H       -1.6047142114    -0.2897328124     1.2900765096
| 19>  H       -2.2236298959    -0.1349555982    -0.3597070019
| 20>  H       -1.5300169198    -5.0762121173     0.9088314201
| 21> *
| 22>
| 23>                          ****END OF INPUT****

CARTESIAN COORDINATES (ANGSTROEM)
---------------------------------
  C     -0.010534    1.528051   -0.125700
  C     -0.062340    0.002371   -0.222606
  C     -1.418287   -0.563224    0.248421
  C     -1.484325   -2.047795    0.159987
  N     -1.468995   -2.923261    1.124018
  C     -1.522834   -4.107193    0.431092
  N     -1.568400   -3.995592   -0.867070
  O     -1.542457   -2.607408   -1.058173
  H      0.958227    1.908773   -0.461822
  H     -0.785278    1.991805   -0.746031
  H     -0.163135    1.866136    0.904967
  H      0.116700   -0.316166   -1.255354
  H      0.736184   -0.439877    0.384139
  H     -1.604714   -0.289733    1.290077
  H     -2.223630   -0.134956   -0.359707
  H     -1.530017   -5.076212    0.908831

 Total Charge           Charge          ....    0
 Multiplicity           Mult            ....    1
 Number of Electrons    NEL             ....   60
 Basis Dimension        Dim             ....  296

ORBITAL ENERGIES
----------------

  NO   OCC          E(Eh)            E(eV)
   0   2.0000     -20.655952      -562.0770
   1   2.0000     -15.627624      -425.2493
   2   2.0000     -15.572708      -423.7549
   3   2.0000     -11.360764      -309.1421
   4   2.0000     -11.311366      -307.7979
   5   2.0000     -11.258661      -306.3637
   6   2.0000     -11.244697      -305.9838
   7   2.0000     -11.229256      -305.5636
   8   2.0000      -1.519258       -41.3411
   9   2.0000      -1.252056       -34.0702
  10   2.0000      -1.171740       -31.8847
  11   2.0000      -1.081541       -29.4302
  12   2.0000      -0.976981       -26.5850
  13   2.0000      -0.859555       -23.3897
  14   2.0000      -0.847843       -23.0710
  15   2.0000      -0.810712       -22.0606
  16   2.0000      -0.720620       -19.6091
  17   2.0000      -0.682209       -18.5639
  18   2.0000      -0.653047       -17.7703
  19   2.0000      -0.615547       -16.7499
  20   2.0000      -0.596197       -16.2233
  21   2.0000      -0.582669       -15.8552
  22   2.0000      -0.561776       -15.2867
  23   2.0000      -0.526953       -14.3391
  24   2.0000      -0.508465       -13.8360
  25   2.0000      -0.504972       -13.7410
  26   2.0000      -0.494743       -13.4626
  27   2.0000      -0.470660       -12.8073
  28   2.0000      -0.468772       -12.7559
  29   2.0000      -0.397594       -10.8191
  30   0.0000       0.117135         3.1874
  31   0.0000       0.133721         3.6387
  32   0.0000       0.167901         4.5688
  33   0.0000       0.172234         4.6867
  34   0.0000       0.180057         4.8996

MULLIKEN ATOMIC CHARGES
-----------------------
   0 C :   -0.390107
   1 C :   -0.216518
   2 C :   -0.244573
   3 C :    0.255148
   4 N :   -0.301147
   5 C :    0.037527
   6 N :   -0.134809
   7 O :   -0.098576
   8 H :    0.140442
   9 H :    0.127334
  10 H :    0.127288
  11 H :    0.129471
  12 H :    0.125888
  13 H :    0.147763
  14 H :    0.139913
  15 H :    0.154956
Sum of atomic charges:   -0.0000000

LOEWDIN ATOMIC CHARGES
----------------------
   0 C :   -0.316584
   1 C :   -0.281437
   2 C :   -0.226062
   3 C :   -0.362312
   4 N :    0.106536
   5 C :   -0.338169
   6 N :    0.027892
   7 O :    0.288507
   8 H :    0.124435
   9 H :    0.122229
  10 H :    0.122505
  11 H :    0.140038
  12 H :    0.140372
  13 H :    0.158632
  14 H :    0.155083
  15 H :    0.138336

  Mayer bond orders larger than 0.1
B(  0-C ,  1-C ) :   0.9188 B(  0-C ,  8-H ) :   0.9407 B(  0-C ,  9-H ) :   0.9388
B(  0-C , 10-H ) :   0.9368 B(  1-C ,  2-C ) :   0.9187 B(  1-C , 11-H ) :   0.9326
B(  1-C , 12-H ) :   0.9298 B(  2-C ,  3-C ) :   0.9069 B(  2-C , 13-H ) :   0.9277
B(  2-C , 14-H ) :   0.9204 B(  3-C ,  4-N ) :   1.6193 B(  3-C ,  7-O ) :   1.1582
B(  4-N ,  5-C ) :   1.2042 B(  5-C ,  6-N ) :   1.5953 B(  5-C , 15-H ) :   0.9278
B(  6-N ,  7-O ) :   0.8866

MP2 TOTAL ENERGY:     -379.293425568 Eh
FINAL SINGLE POINT ENERGY      -379.293425567805

DIPOLE MOMENT
-------------
                                X             Y             Z
Electronic contribution:     -4.04312     -12.25133      -0.83187
Nuclear contribution   :      4.19084      12.99243       1.06381
                        -----------------------------------------
Total Dipole Moment    :      0.14772       0.74110       0.23194
                        -----------------------------------------
Magnitude (a.u.)       :      0.79047
Magnitude (Debye)      :      2.00921

                             ****ORCA TERMINATED NORMALLY****
TOTAL RUN TIME: 0 days 0 hours 10 minutes 40 seconds 623 msec
