                         Program Version 3.0.3 - RELEASE   -
|  1> ! RI-MP2 RIJK def2-TZVP def2-TZVP/C def2-TZVP/JK TIGHTSCF
|  2> % maxcore 2000
|  3> % mp2 density relaxed end
|  4> *xyz 0 1
|  5>  C       -0.2196214183     1.5625162335     0.0116194412
|  6>  C       -0.0196700610     0.0759544141     0.0340939517
|  7>  C       -0.7445834967    -0.8732124238     0.9735353905
|  8>  C        0.7508227870    -0.8466185551     0.9542556566
|  9>  O        1.2510588042    -1.6445447249    -0.1236398456
| 10>  C        0.6376130820    -0.7390338989    -1.0871269288
| 11>  C       -0.2069010799    -1.4508397427    -2.1419844660
| 12>  C        0.6092740632    -2.4578654501    -2.9279747477
| 13>  O        0.7711706399    -2.4195073697    -4.1210945701
| 14>  H        0.6643760803     2.0780507806    -0.3799866449
| 15>  H       -1.0752356816     1.8416234513    -0.6149008045
| 16>  H       -0.4129181958     1.9485225381     1.0173736396
| 17>  H       -1.2114561141    -0.3772068722     1.8195524849
| 18>  H       -1.2694189210    -1.7549772426     0.6166744816
| 19>  H        1.4035870359    -0.6710469274     1.8015921546
| 20>  H        1.4274625714    -0.1521070605    -1.5759714971
| 21>  H       -1.0237422326    -1.9899533539    -1.6460390448
| 22>  H       -0.6311981449    -0.7221015932    -2.8394843850
| 23>  H        1.0669054018    -3.2578856726    -2.3074302863
| 24> *
| 25>
| 26>                          ****END OF INPUT****

CARTESIAN COORDINATES (ANGSTROEM)
---------------------------------
  C     -0.219621    1.562516    0.011619
  C     -0.019670    0.075954    0.034094
  C     -0.744583   -0.873212    0.973535
  C      0.750823   -0.846619    0.954256
  O      1.251059   -1.644545   -0.123640
  C      0.637613   -0.739034   -1.087127
  C     -0.206901   -1.450840   -2.141984
  C      0.609274   -2.457865   -2.927975
  O      0.771171   -2.419507   -4.121095
  H      0.664376    2.078051   -0.379987
  H     -1.075236    1.841623   -0.614901
  H     -0.412918    1.948523    1.017374
  H     -1.211456   -0.377207    1.819552
  H     -1.269419   -1.754977    0.616674
  H      1.403587   -0.671047    1.801592
  H      1.427463   -0.152107   -1.575971
  H     -1.023742   -1.989953   -1.646039
  H     -0.631198   -0.722102   -2.839484
  H      1.066905   -3.257886   -2.307430

 Total Charge           Charge          ....    0
 Multiplicity           Mult            ....    1
 Number of Electrons    NEL             ....   68
 Basis Dimension        Dim             ....  339

ORBITAL ENERGIES
----------------

  NO   OCC          E(Eh)            E(eV)
   0   2.0000     -20.565474      -559.6150
   1   2.0000     -20.554662      -559.3208
   2   2.0000     -11.328720      -308.2701
   3   2.0000     -11.305837      -307.6475
   4   2.0000     -11.296820      -307.4021
   5   2.0000     -11.256774      -306.3124
   6   2.0000     -11.243529      -305.9520
   7   2.0000     -11.242849      -305.9335
   8   2.0000     -11.237768      -305.7952
   9   2.0000      -1.405229       -38.2382
  10   2.0000      -1.392548       -37.8932
  11   2.0000      -1.137797       -30.9610
  12   2.0000      -1.060390       -28.8547
  13   2.0000      -0.986916       -26.8554
  14   2.0000      -0.907540       -24.6954
  15   2.0000      -0.832133       -22.6435
  16   2.0000      -0.795836       -21.6558
  17   2.0000      -0.747547       -20.3418
  18   2.0000      -0.689738       -18.7687
  19   2.0000      -0.673593       -18.3294
  20   2.0000      -0.663414       -18.0524
  21   2.0000      -0.630396       -17.1539
  22   2.0000      -0.614067       -16.7096
  23   2.0000      -0.597695       -16.2641
  24   2.0000      -0.581654       -15.8276
  25   2.0000      -0.568198       -15.4615
  26   2.0000      -0.554350       -15.0846
  27   2.0000      -0.536025       -14.5860
  28   2.0000      -0.517012       -14.0686
  29   2.0000      -0.498107       -13.5542
  30   2.0000      -0.479525       -13.0485
  31   2.0000      -0.416568       -11.3354
  32   2.0000      -0.408750       -11.1227
  33   2.0000      -0.384809       -10.4712
  34   0.0000       0.127546         3.4707
  35   0.0000       0.135558         3.6887
  36   0.0000       0.154864         4.2141
  37   0.0000       0.165172         4.4946
  38   0.0000       0.174180         4.7397

MULLIKEN ATOMIC CHARGES
-----------------------
   0 C :   -0.401387
   1 C :   -0.018597
   2 C :   -0.269296
   3 C :    0.055821
   4 O :   -0.337258
   5 C :    0.053362
   6 C :   -0.178271
   7 C :    0.096509
   8 O :   -0.265512
   9 H :    0.136096
  10 H :    0.140726
  11 H :    0.134692
  12 H :    0.131680
  13 H :    0.135254
  14 H :    0.133648
  15 H :    0.109700
  16 H :    0.123060
  17 H :    0.121170
  18 H :    0.098603
Sum of atomic charges:   -0.0000000

LOEWDIN ATOMIC CHARGES
----------------------
   0 C :   -0.272870
   1 C :   -0.222016
   2 C :   -0.189665
   3 C :   -0.226047
   4 O :    0.163026
   5 C :   -0.226485
   6 C :   -0.239360
   7 C :   -0.288138
   8 O :    0.129743
   9 H :    0.129849
  10 H :    0.130953
  11 H :    0.132307
  12 H :    0.144488
  13 H :    0.132456
  14 H :    0.131927
  15 H :    0.149111
  16 H :    0.152885
  17 H :    0.151251
  18 H :    0.116585

  Mayer bond orders larger than 0.1
B(  0-C ,  1-C ) :   0.9032 B(  0-C ,  9-H ) :   0.9383 B(  0-C , 10-H ) :   0.9341
B(  0-C , 11-H ) :   0.9316 B(  1-C ,  2-C ) :   0.8901 B(  1-C ,  3-C ) :   0.9082
B(  1-C ,  5-C ) :   0.9190 B(  2-C ,  3-C ) :   0.8625 B(  2-C , 12-H ) :   0.9199
B(  2-C , 13-H ) :   0.9101 B(  3-C ,  4-O ) :   0.9604 B(  3-C , 14-H ) :   0.9186
B(  4-O ,  5-C ) :   0.9118 B(  5-C ,  6-C ) :   0.9112 B(  5-C , 15-H ) :   0.9048
B(  6-C ,  7-C ) :   0.8883 B(  6-C , 16-H ) :   0.9122 B(  6-C , 17-H ) :   0.9050
B(  7-C ,  8-O ) :   1.9902 B(  7-C , 18-H ) :   0.9351

MP2 TOTAL ENERGY:     -422.279809472 Eh
FINAL SINGLE POINT ENERGY      -422.279809471698

DIPOLE MOMENT
-------------
                                X             Y             Z
Electronic contribution:      3.42555      -5.54405      -4.05834
Nuclear contribution   :     -4.02293       6.38979       5.20652
                        -----------------------------------------
Total Dipole Moment    :     -0.59739       0.84574       1.14818
                        -----------------------------------------
Magnitude (a.u.)       :      1.54611
Magnitude (Debye)      :      3.92990

                             ****ORCA TERMINATED NORMALLY****
TOTAL RUN TIME: 0 days 0 hours 18 minutes 11 seconds 513 msec
