                         Program Version 3.0.3 - RELEASE   -
|  1> ! RI-MP2 RIJK def2-TZVP def2-TZVP/C def2-TZVP/JK TIGHTSCF
|  2> % maxcore 2000
|  3> % mp2 density relaxed end
|  4> *xyz 0 1
|  5>  C       -0.0252162368     1.5973775900    -0.2011037624
|  6>  C       -0.0533290134     0.0816809459    -0.4208945799
|  7>  C       -1.3245074604    -0.5710477853     0.1183907704
|  8>  C       -2.5909554191    -0.3635881314    -0.7656143598
|  9>  C       -2.3994015034    -1.7857822452    -1.3514499398
| 10>  C       -1.4536104678    -2.1191313239    -0.1533977043
| 11>  C       -0.2662388841    -2.9160342743    -0.3881394358
| 12>  C        0.7245883608    -3.5704569484    -0.5970961364
| 13>  C        1.9164425362    -4.3692474242    -0.8463524968
| 14>  H        0.8916261287     2.0391117898    -0.6038843704
| 15>  H       -0.8723201888     2.0917985964    -0.6889814902
| 16>  H       -0.0719022030     1.8421130845     0.8661124802
| 17>  H        0.0509638758    -0.1392416560    -1.4910798760
| 18>  H        0.8147364060    -0.3797586565     0.0644370089
| 19>  H       -1.4461010161    -0.3012704172     1.1728338704
| 20>  H       -3.5046997786    -0.2788978469    -0.1710038500
| 21>  H       -2.5635671487     0.4699486878    -1.4721541321
| 22>  H       -3.2840627862    -2.4158169885    -1.4667120122
| 23>  H       -1.8521452846    -1.7770816173    -2.2966124222
| 24>  H       -2.0419496856    -2.5683453382     0.6549138652
| 25>  H        2.5271018632    -4.4693140604     0.0581441316
| 26>  H        1.6558242128    -5.3800378613    -1.1802431673
| 27>  H        2.5465878430    -3.9186319496    -1.6214428611
| 28> *
| 29>
| 30>                          ****END OF INPUT****

CARTESIAN COORDINATES (ANGSTROEM)
---------------------------------
  C     -0.025216    1.597378   -0.201104
  C     -0.053329    0.081681   -0.420895
  C     -1.324507   -0.571048    0.118391
  C     -2.590955   -0.363588   -0.765614
  C     -2.399402   -1.785782   -1.351450
  C     -1.453610   -2.119131   -0.153398
  C     -0.266239   -2.916034   -0.388139
  C      0.724588   -3.570457   -0.597096
  C      1.916443   -4.369247   -0.846352
  H      0.891626    2.039112   -0.603884
  H     -0.872320    2.091799   -0.688981
  H     -0.071902    1.842113    0.866112
  H      0.050964   -0.139242   -1.491080
  H      0.814736   -0.379759    0.064437
  H     -1.446101   -0.301270    1.172834
  H     -3.504700   -0.278898   -0.171004
  H     -2.563567    0.469949   -1.472154
  H     -3.284063   -2.415817   -1.466712
  H     -1.852145   -1.777082   -2.296612
  H     -2.041950   -2.568345    0.654914
  H      2.527102   -4.469314    0.058144
  H      1.655824   -5.380038   -1.180243
  H      2.546588   -3.918632   -1.621443

 Total Charge           Charge          ....    0
 Multiplicity           Mult            ....    1
 Number of Electrons    NEL             ....   68
 Basis Dimension        Dim             ....  363

ORBITAL ENERGIES
----------------

  NO   OCC          E(Eh)            E(eV)
   0   2.0000     -11.242390      -305.9210
   1   2.0000     -11.241429      -305.8948
   2   2.0000     -11.227366      -305.5122
   3   2.0000     -11.221862      -305.3624
   4   2.0000     -11.218067      -305.2591
   5   2.0000     -11.214441      -305.1605
   6   2.0000     -11.213719      -305.1408
   7   2.0000     -11.209620      -305.0293
   8   2.0000     -11.208529      -304.9996
   9   2.0000      -1.140937       -31.0465
  10   2.0000      -1.048444       -28.5296
  11   2.0000      -1.023807       -27.8592
  12   2.0000      -0.966815       -26.3084
  13   2.0000      -0.900609       -24.5068
  14   2.0000      -0.891099       -24.2480
  15   2.0000      -0.822696       -22.3867
  16   2.0000      -0.744693       -20.2641
  17   2.0000      -0.666935       -18.1482
  18   2.0000      -0.662977       -18.0405
  19   2.0000      -0.619669       -16.8620
  20   2.0000      -0.600665       -16.3449
  21   2.0000      -0.581141       -15.8137
  22   2.0000      -0.580212       -15.7884
  23   2.0000      -0.565125       -15.3778
  24   2.0000      -0.554106       -15.0780
  25   2.0000      -0.534565       -14.5462
  26   2.0000      -0.506287       -13.7768
  27   2.0000      -0.491664       -13.3789
  28   2.0000      -0.483704       -13.1622
  29   2.0000      -0.449614       -12.2346
  30   2.0000      -0.444589       -12.0979
  31   2.0000      -0.432679       -11.7738
  32   2.0000      -0.354450        -9.6451
  33   2.0000      -0.352298        -9.5865
  34   0.0000       0.133759         3.6398
  35   0.0000       0.145471         3.9585
  36   0.0000       0.154268         4.1978
  37   0.0000       0.159423         4.3381
  38   0.0000       0.181884         4.9493

MULLIKEN ATOMIC CHARGES
-----------------------
   0 C :   -0.386329
   1 C :   -0.250422
   2 C :   -0.013685
   3 C :   -0.236659
   4 C :   -0.237700
   5 C :   -0.179040
   6 C :   -0.029028
   7 C :    0.041251
   8 C :   -0.484746
   9 H :    0.133671
  10 H :    0.122149
  11 H :    0.122030
  12 H :    0.112933
  13 H :    0.121462
  14 H :    0.097897
  15 H :    0.116409
  16 H :    0.112986
  17 H :    0.117054
  18 H :    0.122713
  19 H :    0.115611
  20 H :    0.160387
  21 H :    0.160946
  22 H :    0.160112
Sum of atomic charges:    0.0000000

LOEWDIN ATOMIC CHARGES
----------------------
   0 C :   -0.317072
   1 C :   -0.271523
   2 C :   -0.197267
   3 C :   -0.222835
   4 C :   -0.203976
   5 C :   -0.200474
   6 C :   -0.072200
   7 C :   -0.105927
   8 C :   -0.298386
   9 H :    0.120641
  10 H :    0.119286
  11 H :    0.120564
  12 H :    0.140829
  13 H :    0.142210
  14 H :    0.140701
  15 H :    0.132796
  16 H :    0.126062
  17 H :    0.124115
  18 H :    0.136905
  19 H :    0.166442
  20 H :    0.139710
  21 H :    0.140186
  22 H :    0.139214

  Mayer bond orders larger than 0.1
B(  0-C ,  1-C ) :   0.9119 B(  0-C ,  9-H ) :   0.9432 B(  0-C , 10-H ) :   0.9395
B(  0-C , 11-H ) :   0.9388 B(  1-C ,  2-C ) :   0.9334 B(  1-C , 12-H ) :   0.9301
B(  1-C , 13-H ) :   0.9335 B(  2-C ,  3-C ) :   0.9174 B(  2-C ,  5-C ) :   0.9194
B(  2-C , 14-H ) :   0.9162 B(  3-C ,  4-C ) :   0.9410 B(  3-C , 15-H ) :   0.9242
B(  3-C , 16-H ) :   0.9190 B(  4-C ,  5-C ) :   0.9124 B(  4-C , 17-H ) :   0.9265
B(  4-C , 18-H ) :   0.9274 B(  5-C ,  6-C ) :   1.0975 B(  5-C ,  7-C ) :  -0.1025
B(  5-C , 19-H ) :   0.9165 B(  6-C ,  7-C ) :   2.6544 B(  7-C ,  8-C ) :   0.8450
B(  8-C , 20-H ) :   0.9498 B(  8-C , 21-H ) :   0.9491 B(  8-C , 22-H ) :   0.9483

MP2 TOTAL ENERGY:     -350.469360674 Eh
FINAL SINGLE POINT ENERGY      -350.469360673767

DIPOLE MOMENT
-------------
                                X             Y             Z
Electronic contribution:     -1.04363      -5.49191       0.81497
Nuclear contribution   :      1.13062       5.49157      -0.83923
                        -----------------------------------------
Total Dipole Moment    :      0.08699      -0.00034      -0.02426
                        -----------------------------------------
Magnitude (a.u.)       :      0.09031
Magnitude (Debye)      :      0.22956

                             ****ORCA TERMINATED NORMALLY****
TOTAL RUN TIME: 0 days 0 hours 19 minutes 53 seconds 718 msec
