                         Program Version 3.0.3 - RELEASE   -
|  1> ! RI-MP2 RIJK def2-TZVP def2-TZVP/C def2-TZVP/JK TIGHTSCF
|  2> % maxcore 2000
|  3> % mp2 density relaxed end
|  4> *xyz 0 1
|  5>  O       -0.6296975552     0.7215664914     0.6498537763
|  6>  C        0.2305816557     0.8861830257    -0.1620889874
|  7>  C        1.3726613581     1.9188559132    -0.0379704124
|  8>  O        2.5886859579     1.2023936417    -0.0180454796
|  9>  C        3.4813470578     1.8014809757    -0.9731620698
| 10>  C        2.7295654843     3.0533165174    -1.4366927467
| 11>  O        1.3614807758     2.7003179609    -1.1971833331
| 12>  C        1.2548622912     2.7574093926     1.1854431119
| 13>  N        1.1896229630     3.4348027330     2.1177219074
| 14>  H        0.3243676846     0.3033953825    -1.1008328602
| 15>  H        4.4311174121     2.0287431848    -0.4825479473
| 16>  H        3.6519780705     1.0919068811    -1.7891114931
| 17>  H        3.0016100959     3.9367076654    -0.8467359908
| 18>  H        2.8371122183     3.2720289845    -2.4994390252
| 19> *
| 20>
| 21>                          ****END OF INPUT****

CARTESIAN COORDINATES (ANGSTROEM)
---------------------------------
  O     -0.629698    0.721566    0.649854
  C      0.230582    0.886183   -0.162089
  C      1.372661    1.918856   -0.037970
  O      2.588686    1.202394   -0.018045
  C      3.481347    1.801481   -0.973162
  C      2.729565    3.053317   -1.436693
  O      1.361481    2.700318   -1.197183
  C      1.254862    2.757409    1.185443
  N      1.189623    3.434803    2.117722
  H      0.324368    0.303395   -1.100833
  H      4.431117    2.028743   -0.482548
  H      3.651978    1.091907   -1.789111
  H      3.001610    3.936708   -0.846736
  H      2.837112    3.272029   -2.499439

 Total Charge           Charge          ....    0
 Multiplicity           Mult            ....    1
 Number of Electrons    NEL             ....   66
 Basis Dimension        Dim             ....  309

ORBITAL ENERGIES
----------------

  NO   OCC          E(Eh)            E(eV)
   0   2.0000     -20.623851      -561.2035
   1   2.0000     -20.617150      -561.0212
   2   2.0000     -20.596121      -560.4489
   3   2.0000     -15.591036      -424.2537
   4   2.0000     -11.420874      -310.7778
   5   2.0000     -11.366143      -309.2885
   6   2.0000     -11.325414      -308.1802
   7   2.0000     -11.323548      -308.1294
   8   2.0000     -11.284510      -307.0671
   9   2.0000      -1.501985       -40.8711
  10   2.0000      -1.435032       -39.0492
  11   2.0000      -1.387734       -37.7622
  12   2.0000      -1.232078       -33.5265
  13   2.0000      -1.098744       -29.8983
  14   2.0000      -0.965907       -26.2837
  15   2.0000      -0.906443       -24.6656
  16   2.0000      -0.882487       -24.0137
  17   2.0000      -0.778220       -21.1765
  18   2.0000      -0.747846       -20.3499
  19   2.0000      -0.707407       -19.2495
  20   2.0000      -0.690491       -18.7892
  21   2.0000      -0.669574       -18.2200
  22   2.0000      -0.644439       -17.5361
  23   2.0000      -0.636273       -17.3139
  24   2.0000      -0.580030       -15.7834
  25   2.0000      -0.567822       -15.4512
  26   2.0000      -0.557750       -15.1771
  27   2.0000      -0.546276       -14.8649
  28   2.0000      -0.515551       -14.0289
  29   2.0000      -0.507703       -13.8153
  30   2.0000      -0.485684       -13.2161
  31   2.0000      -0.472780       -12.8650
  32   2.0000      -0.450611       -12.2618
  33   0.0000       0.100318         2.7298
  34   0.0000       0.122537         3.3344
  35   0.0000       0.150654         4.0995
  36   0.0000       0.156076         4.2470
  37   0.0000       0.162990         4.4352

MULLIKEN ATOMIC CHARGES
-----------------------
   0 O :   -0.205395
   1 C :    0.069379
   2 C :    0.524804
   3 O :   -0.312978
   4 C :   -0.049338
   5 C :   -0.109416
   6 O :   -0.298270
   7 C :   -0.223764
   8 N :   -0.037952
   9 H :    0.105740
  10 H :    0.132769
  11 H :    0.119614
  12 H :    0.135032
  13 H :    0.149777
Sum of atomic charges:   -0.0000000

LOEWDIN ATOMIC CHARGES
----------------------
   0 O :    0.190065
   1 C :   -0.233332
   2 C :   -0.451066
   3 O :    0.212900
   4 C :   -0.277108
   5 C :   -0.281530
   6 O :    0.227471
   7 C :   -0.134340
   8 N :    0.093023
   9 H :    0.125613
  10 H :    0.133130
  11 H :    0.127446
  12 H :    0.131432
  13 H :    0.136296

  Mayer bond orders larger than 0.1
B(  0-O ,  1-C ) :   2.0544 B(  1-C ,  2-C ) :   0.7869 B(  1-C ,  9-H ) :   0.9418
B(  2-C ,  3-O ) :   0.9184 B(  2-C ,  6-O ) :   0.9585 B(  2-C ,  7-C ) :   0.8976
B(  3-O ,  4-C ) :   0.9005 B(  4-C ,  5-C ) :   0.9566 B(  4-C , 10-H ) :   0.9173
B(  4-C , 11-H ) :   0.9298 B(  5-C ,  6-O ) :   0.8944 B(  5-C , 12-H ) :   0.9309
B(  5-C , 13-H ) :   0.9199 B(  7-C ,  8-N ) :   2.8300

MP2 TOTAL ENERGY:     -473.070250140 Eh
FINAL SINGLE POINT ENERGY      -473.070250140021

DIPOLE MOMENT
-------------
                                X             Y             Z
Electronic contribution:     -4.84249      -0.63070       4.29232
Nuclear contribution   :      6.21944       0.44185      -6.17824
                        -----------------------------------------
Total Dipole Moment    :      1.37695      -0.18886      -1.88592
                        -----------------------------------------
Magnitude (a.u.)       :      2.34272
Magnitude (Debye)      :      5.95472

                             ****ORCA TERMINATED NORMALLY****
TOTAL RUN TIME: 0 days 0 hours 13 minutes 49 seconds 317 msec
