                         Program Version 3.0.3 - RELEASE   -
|  1> ! RI-MP2 RIJK def2-TZVP def2-TZVP/C def2-TZVP/JK TIGHTSCF
|  2> % maxcore 2000
|  3> % mp2 density relaxed end
|  4> *xyz 0 1
|  5>  C       -0.1031223881     1.0488824406    -0.4071544768
|  6>  C       -0.4717091224    -0.4102970263    -0.1887111277
|  7>  O        0.1945014929    -1.2710668691    -1.1406000471
|  8>  C        1.4349701177    -1.6640670542    -0.8242825835
|  9>  O        2.0271223324    -1.3497583814     0.1766270428
| 10>  C        2.0522612062    -2.5342579015    -1.9211204677
| 11>  C        1.1366714975    -3.4218480632    -2.6213874553
| 12>  C        0.4048374361    -4.1751218158    -3.2033783715
| 13>  H        0.9586478985     1.2110251515    -0.2075110598
| 14>  H       -0.3244914699     1.3572530755    -1.4329306746
| 15>  H       -0.6811073002     1.6812174429     0.2742342079
| 16>  H       -0.2103722821    -0.7362952474     0.8204858392
| 17>  H       -1.5352097362    -0.5861159990    -0.3643734899
| 18>  H        2.5237711166    -1.8444657086    -2.6349939954
| 19>  H        2.8662191028    -3.0933137333    -1.4508868067
| 20>  H       -0.2524495117    -4.8348643508    -3.7133001041
| 21> *
| 22>
| 23>                          ****END OF INPUT****

CARTESIAN COORDINATES (ANGSTROEM)
---------------------------------
  C     -0.103122    1.048882   -0.407154
  C     -0.471709   -0.410297   -0.188711
  O      0.194501   -1.271067   -1.140600
  C      1.434970   -1.664067   -0.824283
  O      2.027122   -1.349758    0.176627
  C      2.052261   -2.534258   -1.921120
  C      1.136671   -3.421848   -2.621387
  C      0.404837   -4.175122   -3.203378
  H      0.958648    1.211025   -0.207511
  H     -0.324491    1.357253   -1.432931
  H     -0.681107    1.681217    0.274234
  H     -0.210372   -0.736295    0.820486
  H     -1.535210   -0.586116   -0.364373
  H      2.523771   -1.844466   -2.634994
  H      2.866219   -3.093314   -1.450887
  H     -0.252450   -4.834864   -3.713300

 Total Charge           Charge          ....    0
 Multiplicity           Mult            ....    1
 Number of Electrons    NEL             ....   60
 Basis Dimension        Dim             ....  296

ORBITAL ENERGIES
----------------

  NO   OCC          E(Eh)            E(eV)
   0   2.0000     -20.605105      -560.6934
   1   2.0000     -20.548246      -559.1462
   2   2.0000     -11.389894      -309.9348
   3   2.0000     -11.292072      -307.2729
   4   2.0000     -11.276875      -306.8594
   5   2.0000     -11.243493      -305.9510
   6   2.0000     -11.230037      -305.5848
   7   2.0000     -11.224876      -305.4444
   8   2.0000      -1.465888       -39.8889
   9   2.0000      -1.366570       -37.1862
  10   2.0000      -1.092053       -29.7163
  11   2.0000      -1.036338       -28.2002
  12   2.0000      -0.987217       -26.8635
  13   2.0000      -0.885751       -24.1025
  14   2.0000      -0.777810       -21.1653
  15   2.0000      -0.744636       -20.2626
  16   2.0000      -0.705102       -19.1868
  17   2.0000      -0.690276       -18.7834
  18   2.0000      -0.667780       -18.1712
  19   2.0000      -0.635042       -17.2804
  20   2.0000      -0.613691       -16.6994
  21   2.0000      -0.597466       -16.2579
  22   2.0000      -0.570449       -15.5227
  23   2.0000      -0.533830       -14.5263
  24   2.0000      -0.530217       -14.4279
  25   2.0000      -0.500006       -13.6058
  26   2.0000      -0.468529       -12.7493
  27   2.0000      -0.461745       -12.5647
  28   2.0000      -0.395732       -10.7684
  29   2.0000      -0.393072       -10.6960
  30   0.0000       0.131455         3.5771
  31   0.0000       0.154678         4.2090
  32   0.0000       0.163133         4.4391
  33   0.0000       0.168712         4.5909
  34   0.0000       0.175669         4.7802

MULLIKEN ATOMIC CHARGES
-----------------------
   0 C :   -0.411128
   1 C :   -0.041232
   2 O :   -0.235252
   3 C :    0.319228
   4 O :   -0.331220
   5 C :   -0.327246
   6 C :   -0.013613
   7 C :   -0.165360
   8 H :    0.153969
   9 H :    0.132742
  10 H :    0.132868
  11 H :    0.129488
  12 H :    0.131690
  13 H :    0.162149
  14 H :    0.170537
  15 H :    0.192379
Sum of atomic charges:    0.0000000

LOEWDIN ATOMIC CHARGES
----------------------
   0 C :   -0.317884
   1 C :   -0.296099
   2 O :    0.267027
   3 C :   -0.476302
   4 O :    0.121565
   5 C :   -0.210219
   6 C :   -0.109473
   7 C :   -0.095449
   8 H :    0.128595
   9 H :    0.124381
  10 H :    0.129064
  11 H :    0.131694
  12 H :    0.129751
  13 H :    0.174905
  14 H :    0.171231
  15 H :    0.127213

  Mayer bond orders larger than 0.1
B(  0-C ,  1-C ) :   0.9353 B(  0-C ,  8-H ) :   0.9356 B(  0-C ,  9-H ) :   0.9322
B(  0-C , 10-H ) :   0.9294 B(  1-C ,  2-O ) :   0.8187 B(  1-C , 11-H ) :   0.9339
B(  1-C , 12-H ) :   0.9297 B(  2-O ,  3-C ) :   1.1499 B(  3-C ,  4-O ) :   1.9302
B(  3-C ,  5-C ) :   0.9403 B(  5-C ,  6-C ) :   1.0175 B(  5-C , 13-H ) :   0.9091
B(  5-C , 14-H ) :   0.9267 B(  6-C ,  7-C ) :   2.6469 B(  7-C , 15-H ) :   0.9041

MP2 TOTAL ENERGY:     -383.095720277 Eh
FINAL SINGLE POINT ENERGY      -383.095720277176

DIPOLE MOMENT
-------------
                                X             Y             Z
Electronic contribution:      2.55422      -5.56781      -1.14792
Nuclear contribution   :     -3.03897       5.82533       0.83950
                        -----------------------------------------
Total Dipole Moment    :     -0.48476       0.25752      -0.30842
                        -----------------------------------------
Magnitude (a.u.)       :      0.62962
Magnitude (Debye)      :      1.60038

                             ****ORCA TERMINATED NORMALLY****
TOTAL RUN TIME: 0 days 0 hours 10 minutes 15 seconds 229 msec
