                         Program Version 3.0.3 - RELEASE   -
|  1> ! RI-MP2 RIJK def2-TZVP def2-TZVP/C def2-TZVP/JK TIGHTSCF
|  2> % maxcore 2000
|  3> % mp2 density relaxed end
|  4> *xyz 0 1
|  5>  C       -0.0312439695     1.4578896523     0.0960228815
|  6>  C        1.2968851033     0.7456057285     0.0502221168
|  7>  C        2.0421992106     0.4255149265     1.3710755983
|  8>  C        1.0482440584    -0.4936546792     1.9986893608
|  9>  C       -0.0422007787    -0.7761254226     1.2579357966
| 10>  N       -0.8954414832    -1.6006770645     1.9753152731
| 11>  C       -0.2685969261    -1.7603765361     3.1002952820
| 12>  O        0.9281277004    -1.1048344706     3.2083387343
| 13>  C       -0.0173748867    -0.0518018631    -0.0346085117
| 14>  H       -0.3743307611     1.8788439747     1.0359307248
| 15>  H       -0.3032640536     2.0364306099    -0.7811201426
| 16>  H        1.9018506680     0.8761449614    -0.8386599311
| 17>  H        3.0100135740    -0.0543668093     1.1788191005
| 18>  H        2.2410622900     1.3275501762     1.9614481898
| 19>  H       -0.5663636536    -2.3471750616     3.9547943898
| 20>  H       -0.3452070221    -0.5189887527    -0.9553325829
| 21> *
| 22>
| 23>                          ****END OF INPUT****

CARTESIAN COORDINATES (ANGSTROEM)
---------------------------------
  C     -0.031244    1.457890    0.096023
  C      1.296885    0.745606    0.050222
  C      2.042199    0.425515    1.371076
  C      1.048244   -0.493655    1.998689
  C     -0.042201   -0.776125    1.257936
  N     -0.895441   -1.600677    1.975315
  C     -0.268597   -1.760377    3.100295
  O      0.928128   -1.104834    3.208339
  C     -0.017375   -0.051802   -0.034609
  H     -0.374331    1.878844    1.035931
  H     -0.303264    2.036431   -0.781120
  H      1.901851    0.876145   -0.838660
  H      3.010014   -0.054367    1.178819
  H      2.241062    1.327550    1.961448
  H     -0.566364   -2.347175    3.954794
  H     -0.345207   -0.518989   -0.955333

 Total Charge           Charge          ....    0
 Multiplicity           Mult            ....    1
 Number of Electrons    NEL             ....   64
 Basis Dimension        Dim             ....  321

ORBITAL ENERGIES
----------------

  NO   OCC          E(Eh)            E(eV)
   0   2.0000     -20.636725      -561.5538
   1   2.0000     -15.567208      -423.6053
   2   2.0000     -11.332068      -308.3612
   3   2.0000     -11.277456      -306.8752
   4   2.0000     -11.251661      -306.1733
   5   2.0000     -11.248025      -306.0743
   6   2.0000     -11.246145      -306.0232
   7   2.0000     -11.245075      -305.9940
   8   2.0000     -11.234797      -305.7144
   9   2.0000      -1.479730       -40.2655
  10   2.0000      -1.235537       -33.6207
  11   2.0000      -1.179916       -32.1071
  12   2.0000      -1.041192       -28.3323
  13   2.0000      -0.969743       -26.3881
  14   2.0000      -0.869593       -23.6628
  15   2.0000      -0.814625       -22.1671
  16   2.0000      -0.793406       -21.5897
  17   2.0000      -0.769693       -20.9444
  18   2.0000      -0.705465       -19.1967
  19   2.0000      -0.674269       -18.3478
  20   2.0000      -0.651396       -17.7254
  21   2.0000      -0.614609       -16.7244
  22   2.0000      -0.609847       -16.5948
  23   2.0000      -0.579981       -15.7821
  24   2.0000      -0.556216       -15.1354
  25   2.0000      -0.522367       -14.2143
  26   2.0000      -0.508926       -13.8486
  27   2.0000      -0.471117       -12.8197
  28   2.0000      -0.452673       -12.3179
  29   2.0000      -0.430076       -11.7030
  30   2.0000      -0.409731       -11.1493
  31   2.0000      -0.312585        -8.5059
  32   0.0000       0.136993         3.7278
  33   0.0000       0.145201         3.9511
  34   0.0000       0.165940         4.5155
  35   0.0000       0.172808         4.7023
  36   0.0000       0.180366         4.9080

MULLIKEN ATOMIC CHARGES
-----------------------
   0 C :   -0.281177
   1 C :   -0.092479
   2 C :   -0.176127
   3 C :    0.064506
   4 C :   -0.001055
   5 N :   -0.260673
   6 C :    0.100502
   7 O :   -0.215644
   8 C :   -0.107143
   9 H :    0.140238
  10 H :    0.134217
  11 H :    0.133637
  12 H :    0.133256
  13 H :    0.136877
  14 H :    0.152428
  15 H :    0.138636
Sum of atomic charges:   -0.0000000

LOEWDIN ATOMIC CHARGES
----------------------
   0 C :   -0.194602
   1 C :   -0.162970
   2 C :   -0.191769
   3 C :   -0.230462
   4 C :   -0.215652
   5 N :    0.122985
   6 C :   -0.311379
   7 O :    0.342999
   8 C :   -0.151034
   9 H :    0.138903
  10 H :    0.135665
  11 H :    0.143996
  12 H :    0.146247
  13 H :    0.148595
  14 H :    0.130852
  15 H :    0.147627

  Mayer bond orders larger than 0.1
B(  0-C ,  1-C ) :   0.8938 B(  0-C ,  8-C ) :   0.8762 B(  0-C ,  9-H ) :   0.9232
B(  0-C , 10-H ) :   0.9277 B(  1-C ,  2-C ) :   0.9294 B(  1-C ,  8-C ) :   0.8560
B(  1-C , 11-H ) :   0.9267 B(  2-C ,  3-C ) :   0.9730 B(  2-C , 12-H ) :   0.9091
B(  2-C , 13-H ) :   0.9061 B(  3-C ,  4-C ) :   1.5154 B(  3-C ,  7-O ) :   1.0429
B(  4-C ,  5-N ) :   1.2503 B(  4-C ,  8-C ) :   0.9501 B(  5-N ,  6-C ) :   1.6319
B(  6-C ,  7-O ) :   1.0660 B(  6-C , 14-H ) :   0.9313 B(  8-C , 15-H ) :   0.9235

MP2 TOTAL ENERGY:     -400.068383694 Eh
FINAL SINGLE POINT ENERGY      -400.068383693942

DIPOLE MOMENT
-------------
                                X             Y             Z
Electronic contribution:     -1.50420      -4.78443       4.31475
Nuclear contribution   :      2.16731       5.27654      -4.45027
                        -----------------------------------------
Total Dipole Moment    :      0.66311       0.49210      -0.13552
                        -----------------------------------------
Magnitude (a.u.)       :      0.83681
Magnitude (Debye)      :      2.12701

                             ****ORCA TERMINATED NORMALLY****
TOTAL RUN TIME: 0 days 0 hours 20 minutes 21 seconds 639 msec
