                         Program Version 3.0.3 - RELEASE   -
|  1> ! RI-MP2 RIJK def2-TZVP def2-TZVP/C def2-TZVP/JK TIGHTSCF
|  2> % maxcore 2000
|  3> % mp2 density relaxed end
|  4> *xyz 0 1
|  5>  C        0.0115361524     1.5798156261     0.0777778166
|  6>  C        1.5254683239     1.7978453559    -0.0286488102
|  7>  O        2.0311382426     0.8227946400     0.9437118862
|  8>  C        1.5710518109    -0.1662103611    -0.0051566788
|  9>  C        1.9611137839     0.8047305500    -1.1441003312
| 10>  O        1.2041765756     0.7527734109    -2.3319079564
| 11>  C        0.3755195030    -0.3894957671    -2.3547582122
| 12>  O       -0.5331731689    -0.4336004780    -1.2805383646
| 13>  C        0.0274694990     0.0205163671    -0.0481902792
| 14>  H       -0.3630764728     1.9261732576     1.0428059036
| 15>  H       -0.5658951427     2.0307300469    -0.7302579840
| 16>  H        1.9444926917     2.7962955616     0.0838253928
| 17>  H        1.9894476936    -1.1611112842     0.1380590344
| 18>  H        3.0331433264     0.8381851959    -1.3501971394
| 19>  H       -0.2106415295    -0.3451475585    -3.2748387153
| 20>  H        1.0036911942    -1.2966931921    -2.3565575900
| 21>  H       -0.5098507633    -0.4914569710     0.7503591778
| 22> *
| 23>
| 24>                          ****END OF INPUT****

CARTESIAN COORDINATES (ANGSTROEM)
---------------------------------
  C      0.011536    1.579816    0.077778
  C      1.525468    1.797845   -0.028649
  O      2.031138    0.822795    0.943712
  C      1.571052   -0.166210   -0.005157
  C      1.961114    0.804731   -1.144100
  O      1.204177    0.752773   -2.331908
  C      0.375520   -0.389496   -2.354758
  O     -0.533173   -0.433600   -1.280538
  C      0.027469    0.020516   -0.048190
  H     -0.363076    1.926173    1.042806
  H     -0.565895    2.030730   -0.730258
  H      1.944493    2.796296    0.083825
  H      1.989448   -1.161111    0.138059
  H      3.033143    0.838185   -1.350197
  H     -0.210642   -0.345148   -3.274839
  H      1.003691   -1.296693   -2.356558
  H     -0.509851   -0.491457    0.750359

 Total Charge           Charge          ....    0
 Multiplicity           Mult            ....    1
 Number of Electrons    NEL             ....   68
 Basis Dimension        Dim             ....  327

ORBITAL ENERGIES
----------------

  NO   OCC          E(Eh)            E(eV)
   0   2.0000     -20.576152      -559.9056
   1   2.0000     -20.568136      -559.6874
   2   2.0000     -20.565405      -559.6131
   3   2.0000     -11.338567      -308.5381
   4   2.0000     -11.298429      -307.4459
   5   2.0000     -11.297727      -307.4268
   6   2.0000     -11.294967      -307.3517
   7   2.0000     -11.294672      -307.3437
   8   2.0000     -11.229251      -305.5635
   9   2.0000      -1.442371       -39.2489
  10   2.0000      -1.397500       -38.0279
  11   2.0000      -1.355160       -36.8758
  12   2.0000      -1.083198       -29.4753
  13   2.0000      -0.979858       -26.6633
  14   2.0000      -0.958780       -26.0897
  15   2.0000      -0.923237       -25.1225
  16   2.0000      -0.793232       -21.5849
  17   2.0000      -0.753551       -20.5052
  18   2.0000      -0.735096       -20.0030
  19   2.0000      -0.716134       -19.4870
  20   2.0000      -0.696989       -18.9660
  21   2.0000      -0.647478       -17.6188
  22   2.0000      -0.623919       -16.9777
  23   2.0000      -0.596963       -16.2442
  24   2.0000      -0.580248       -15.7894
  25   2.0000      -0.568995       -15.4831
  26   2.0000      -0.542184       -14.7536
  27   2.0000      -0.523891       -14.2558
  28   2.0000      -0.520483       -14.1631
  29   2.0000      -0.499991       -13.6054
  30   2.0000      -0.473462       -12.8836
  31   2.0000      -0.439249       -11.9526
  32   2.0000      -0.432955       -11.7813
  33   2.0000      -0.403787       -10.9876
  34   0.0000       0.142855         3.8873
  35   0.0000       0.161277         4.3886
  36   0.0000       0.172195         4.6857
  37   0.0000       0.179055         4.8723
  38   0.0000       0.188552         5.1308

MULLIKEN ATOMIC CHARGES
-----------------------
   0 C :   -0.265904
   1 C :    0.014227
   2 O :   -0.310666
   3 C :   -0.075172
   4 C :    0.088444
   5 O :   -0.323307
   6 C :    0.075207
   7 O :   -0.322109
   8 C :    0.132430
   9 H :    0.124190
  10 H :    0.128830
  11 H :    0.138776
  12 H :    0.134885
  13 H :    0.115214
  14 H :    0.133422
  15 H :    0.090494
  16 H :    0.121040
Sum of atomic charges:    0.0000000

LOEWDIN ATOMIC CHARGES
----------------------
   0 C :   -0.210667
   1 C :   -0.231351
   2 O :    0.172310
   3 C :   -0.246482
   4 C :   -0.261035
   5 O :    0.179746
   6 C :   -0.379815
   7 O :    0.167533
   8 C :   -0.259242
   9 H :    0.139719
  10 H :    0.144774
  11 H :    0.132149
  12 H :    0.134150
  13 H :    0.143676
  14 H :    0.124407
  15 H :    0.109250
  16 H :    0.140879

  Mayer bond orders larger than 0.1
B(  0-C ,  1-C ) :   0.9513 B(  0-C ,  8-C ) :   0.9247 B(  0-C ,  9-H ) :   0.9167
B(  0-C , 10-H ) :   0.9108 B(  1-C ,  2-O ) :   0.8901 B(  1-C ,  4-C ) :   0.8947
B(  1-C , 11-H ) :   0.9073 B(  2-O ,  3-C ) :   0.9665 B(  3-C ,  4-C ) :   0.9421
B(  3-C ,  8-C ) :   0.8780 B(  3-C , 12-H ) :   0.9214 B(  4-C ,  5-O ) :   0.9715
B(  4-C , 13-H ) :   0.9347 B(  5-O ,  6-C ) :   0.9536 B(  6-C ,  7-O ) :   0.9775
B(  6-C , 14-H ) :   0.9290 B(  6-C , 15-H ) :   0.9277 B(  7-O ,  8-C ) :   0.9248
B(  8-C , 16-H ) :   0.9272

MP2 TOTAL ENERGY:     -458.204692882 Eh
FINAL SINGLE POINT ENERGY      -458.204692882202

DIPOLE MOMENT
-------------
                                X             Y             Z
Electronic contribution:      0.93347      -0.25396      -0.10438
Nuclear contribution   :     -0.82523       0.13516      -0.05056
                        -----------------------------------------
Total Dipole Moment    :      0.10824      -0.11880      -0.15493
                        -----------------------------------------
Magnitude (a.u.)       :      0.22324
Magnitude (Debye)      :      0.56742

                             ****ORCA TERMINATED NORMALLY****
TOTAL RUN TIME: 0 days 0 hours 17 minutes 57 seconds 942 msec
