                         Program Version 3.0.3 - RELEASE   -
|  1> ! RI-MP2 RIJK def2-TZVP def2-TZVP/C def2-TZVP/JK TIGHTSCF
|  2> % maxcore 2000
|  3> % mp2 density relaxed end
|  4> *xyz 0 1
|  5>  C        0.0415103513     1.5154565992    -0.1843667883
|  6>  C        1.5994704641     1.5761287235     0.0634818255
|  7>  C        1.5622688345     0.1440326564     0.6534654214
|  8>  N        1.6538160823    -0.3575989277     2.0412656702
|  9>  C        0.9177165133    -1.5509726778     1.4603874941
| 10>  C       -0.4966935450    -0.9300455145     1.2569982161
| 11>  C        0.0662037804     0.0332850972     0.2111299045
| 12>  O        0.4476450991    -0.8818520924    -0.8783963454
| 13>  C        1.5268917346    -1.2291827017    -0.0088144895
| 14>  H       -0.5217513301     2.1305325028     0.5218410008
| 15>  H       -0.3056602611     1.7212721872    -1.1984703831
| 16>  H        2.2072150411     1.6816414322    -0.8372704003
| 17>  H        1.9089833416     2.3317132821     0.7876459068
| 18>  H        2.6197830083    -0.6407194845     2.2169957517
| 19>  H        1.0306524334    -2.5066262492     1.9707689279
| 20>  H       -1.2455631666    -1.6122598215     0.8515364282
| 21>  H       -0.8447933970    -0.4612341506     2.1780376616
| 22>  H        2.3250890558    -1.8400837006    -0.4394558422
| 23> *
| 24>
| 25>                          ****END OF INPUT****

CARTESIAN COORDINATES (ANGSTROEM)
---------------------------------
  C      0.041510    1.515457   -0.184367
  C      1.599470    1.576129    0.063482
  C      1.562269    0.144033    0.653465
  N      1.653816   -0.357599    2.041266
  C      0.917717   -1.550973    1.460387
  C     -0.496694   -0.930046    1.256998
  C      0.066204    0.033285    0.211130
  O      0.447645   -0.881852   -0.878396
  C      1.526892   -1.229183   -0.008814
  H     -0.521751    2.130533    0.521841
  H     -0.305660    1.721272   -1.198470
  H      2.207215    1.681641   -0.837270
  H      1.908983    2.331713    0.787646
  H      2.619783   -0.640719    2.216996
  H      1.030652   -2.506626    1.970769
  H     -1.245563   -1.612260    0.851536
  H     -0.844793   -0.461234    2.178038
  H      2.325089   -1.840084   -0.439456

 Total Charge           Charge          ....    0
 Multiplicity           Mult            ....    1
 Number of Electrons    NEL             ....   66
 Basis Dimension        Dim             ....  333

ORBITAL ENERGIES
----------------

  NO   OCC          E(Eh)            E(eV)
   0   2.0000     -20.550568      -559.2094
   1   2.0000     -15.554203      -423.2514
   2   2.0000     -11.292751      -307.2914
   3   2.0000     -11.282874      -307.0226
   4   2.0000     -11.271919      -306.7245
   5   2.0000     -11.255555      -306.2792
   6   2.0000     -11.238140      -305.8053
   7   2.0000     -11.237172      -305.7790
   8   2.0000     -11.229417      -305.5680
   9   2.0000      -1.402855       -38.1736
  10   2.0000      -1.238986       -33.7145
  11   2.0000      -1.093486       -29.7553
  12   2.0000      -1.017250       -27.6808
  13   2.0000      -0.943207       -25.6660
  14   2.0000      -0.876386       -23.8477
  15   2.0000      -0.863303       -23.4917
  16   2.0000      -0.773775       -21.0555
  17   2.0000      -0.697647       -18.9839
  18   2.0000      -0.691365       -18.8130
  19   2.0000      -0.656160       -17.8550
  20   2.0000      -0.636283       -17.3141
  21   2.0000      -0.626423       -17.0458
  22   2.0000      -0.579822       -15.7778
  23   2.0000      -0.549082       -14.9413
  24   2.0000      -0.540151       -14.6983
  25   2.0000      -0.513180       -13.9643
  26   2.0000      -0.506707       -13.7882
  27   2.0000      -0.489208       -13.3120
  28   2.0000      -0.473220       -12.8770
  29   2.0000      -0.465160       -12.6576
  30   2.0000      -0.404995       -11.0205
  31   2.0000      -0.392271       -10.6742
  32   2.0000      -0.359300        -9.7770
  33   0.0000       0.142234         3.8704
  34   0.0000       0.153067         4.1652
  35   0.0000       0.160622         4.3707
  36   0.0000       0.181605         4.9417
  37   0.0000       0.188430         5.1274

MULLIKEN ATOMIC CHARGES
-----------------------
   0 C :   -0.247193
   1 C :   -0.215702
   2 C :   -0.027647
   3 N :   -0.345852
   4 C :    0.045127
   5 C :   -0.285611
   6 C :    0.243570
   7 O :   -0.320424
   8 C :   -0.076181
   9 H :    0.125409
  10 H :    0.129437
  11 H :    0.132728
  12 H :    0.125357
  13 H :    0.207553
  14 H :    0.140438
  15 H :    0.129039
  16 H :    0.123201
  17 H :    0.116750
Sum of atomic charges:    0.0000000

LOEWDIN ATOMIC CHARGES
----------------------
   0 C :   -0.190426
   1 C :   -0.191113
   2 C :   -0.233874
   3 N :    0.015556
   4 C :   -0.197449
   5 C :   -0.195717
   6 C :   -0.221921
   7 O :    0.179916
   8 C :   -0.222473
   9 H :    0.140586
  10 H :    0.135832
  11 H :    0.137384
  12 H :    0.138395
  13 H :    0.168782
  14 H :    0.126871
  15 H :    0.140018
  16 H :    0.144471
  17 H :    0.125163

  Mayer bond orders larger than 0.1
B(  0-C ,  1-C ) :   0.9982 B(  0-C ,  6-C ) :   0.9132 B(  0-C ,  9-H ) :   0.9079
B(  0-C , 10-H ) :   0.9179 B(  1-C ,  2-C ) :   0.9039 B(  1-C , 11-H ) :   0.9116
B(  1-C , 12-H ) :   0.9135 B(  2-C ,  3-N ) :   1.0649 B(  2-C ,  6-C ) :   0.7816
B(  2-C ,  8-C ) :   1.0357 B(  3-N ,  4-C ) :   0.9302 B(  3-N , 13-H ) :   0.8655
B(  4-C ,  5-C ) :   0.9109 B(  4-C ,  8-C ) :   0.8459 B(  4-C , 14-H ) :   0.9048
B(  5-C ,  6-C ) :   0.9751 B(  5-C , 15-H ) :   0.9248 B(  5-C , 16-H ) :   0.9155
B(  6-C ,  7-O ) :   0.8909 B(  7-O ,  8-C ) :   0.9963 B(  8-C , 17-H ) :   0.9073

MP2 TOTAL ENERGY:     -401.165095393 Eh
FINAL SINGLE POINT ENERGY      -401.165095392775

DIPOLE MOMENT
-------------
                                X             Y             Z
Electronic contribution:      0.51972      -2.33285      -1.20597
Nuclear contribution   :     -0.14178       2.36193       1.40762
                        -----------------------------------------
Total Dipole Moment    :      0.37794       0.02909       0.20165
                        -----------------------------------------
Magnitude (a.u.)       :      0.42936
Magnitude (Debye)      :      1.09133

                             ****ORCA TERMINATED NORMALLY****
TOTAL RUN TIME: 0 days 0 hours 20 minutes 39 seconds 162 msec
