                         Program Version 3.0.3 - RELEASE   -
|  1> ! RI-MP2 RIJK def2-TZVP def2-TZVP/C def2-TZVP/JK TIGHTSCF
|  2> % maxcore 2000
|  3> % mp2 density relaxed end
|  4> *xyz 0 1
|  5>  C        0.0637165907     1.5521582883    -0.0038512263
|  6>  C        0.0029660509     0.0287668270     0.0790510975
|  7>  O        0.7064763203    -0.4771194777     1.1993462576
|  8>  C       -1.4548790604    -0.5195187097     0.0515390894
|  9>  C       -1.4605303368    -2.0695434326    -0.0364840458
| 10>  C       -2.7966501261    -2.6386053570    -0.1270618505
| 11>  C       -3.9092174014    -3.0842940662    -0.2086526901
| 12>  C       -2.1642461553    -0.0570505844     1.2477218824
| 13>  N       -2.6551619076     0.3306900539     2.2200378890
| 14>  H        1.1063968437     1.8785822484     0.0156285233
| 15>  H       -0.3980627222     1.9178599359    -0.9265760629
| 16>  H       -0.4597268207     2.0123124849     0.8413996292
| 17>  H        0.5118112855    -0.4024145318    -0.7909567550
| 18>  H        0.3491122187    -0.0555808768     1.9911055579
| 19>  H       -1.9702902846    -0.1146839645    -0.8268538771
| 20>  H       -0.8743147258    -2.3517014465    -0.9195477696
| 21>  H       -0.9245692056    -2.4651962499     0.8318879036
| 22>  H       -4.8895584535    -3.4879729815    -0.2695928826
| 23> *
| 24>
| 25>                          ****END OF INPUT****

CARTESIAN COORDINATES (ANGSTROEM)
---------------------------------
  C      0.063717    1.552158   -0.003851
  C      0.002966    0.028767    0.079051
  O      0.706476   -0.477119    1.199346
  C     -1.454879   -0.519519    0.051539
  C     -1.460530   -2.069543   -0.036484
  C     -2.796650   -2.638605   -0.127062
  C     -3.909217   -3.084294   -0.208653
  C     -2.164246   -0.057051    1.247722
  N     -2.655162    0.330690    2.220038
  H      1.106397    1.878582    0.015629
  H     -0.398063    1.917860   -0.926576
  H     -0.459727    2.012312    0.841400
  H      0.511811   -0.402415   -0.790957
  H      0.349112   -0.055581    1.991106
  H     -1.970290   -0.114684   -0.826854
  H     -0.874315   -2.351701   -0.919548
  H     -0.924569   -2.465196    0.831888
  H     -4.889558   -3.487973   -0.269593

 Total Charge           Charge          ....    0
 Multiplicity           Mult            ....    1
 Number of Electrons    NEL             ....   66
 Basis Dimension        Dim             ....  333

ORBITAL ENERGIES
----------------

  NO   OCC          E(Eh)            E(eV)
   0   2.0000     -20.576819      -559.9237
   1   2.0000     -15.576999      -423.8717
   2   2.0000     -11.315742      -307.9170
   3   2.0000     -11.297696      -307.4259
   4   2.0000     -11.279054      -306.9187
   5   2.0000     -11.278599      -306.9063
   6   2.0000     -11.244173      -305.9695
   7   2.0000     -11.237482      -305.7874
   8   2.0000     -11.233206      -305.6711
   9   2.0000      -1.387686       -37.7609
  10   2.0000      -1.227586       -33.4043
  11   2.0000      -1.128551       -30.7094
  12   2.0000      -1.055200       -28.7134
  13   2.0000      -1.005519       -27.3616
  14   2.0000      -0.930671       -25.3248
  15   2.0000      -0.862966       -23.4825
  16   2.0000      -0.737143       -20.0587
  17   2.0000      -0.721458       -19.6319
  18   2.0000      -0.698833       -19.0162
  19   2.0000      -0.670173       -18.2363
  20   2.0000      -0.636225       -17.3126
  21   2.0000      -0.617865       -16.8130
  22   2.0000      -0.612428       -16.6650
  23   2.0000      -0.583520       -15.8784
  24   2.0000      -0.557375       -15.1670
  25   2.0000      -0.548119       -14.9151
  26   2.0000      -0.546962       -14.8836
  27   2.0000      -0.506881       -13.7929
  28   2.0000      -0.486614       -13.2414
  29   2.0000      -0.467029       -12.7085
  30   2.0000      -0.454096       -12.3566
  31   2.0000      -0.398489       -10.8434
  32   2.0000      -0.396649       -10.7934
  33   0.0000       0.116102         3.1593
  34   0.0000       0.144342         3.9277
  35   0.0000       0.152420         4.1476
  36   0.0000       0.161571         4.3966
  37   0.0000       0.163794         4.4571

MULLIKEN ATOMIC CHARGES
-----------------------
   0 C :   -0.398234
   1 C :    0.098724
   2 O :   -0.473338
   3 C :    0.050275
   4 C :   -0.352053
   5 C :   -0.025319
   6 C :   -0.113706
   7 C :   -0.271848
   8 N :   -0.042443
   9 H :    0.154721
  10 H :    0.131284
  11 H :    0.149123
  12 H :    0.106262
  13 H :    0.329333
  14 H :    0.142001
  15 H :    0.148124
  16 H :    0.171245
  17 H :    0.195850
Sum of atomic charges:   -0.0000000

LOEWDIN ATOMIC CHARGES
----------------------
   0 C :   -0.292832
   1 C :   -0.342694
   2 O :   -0.001128
   3 C :   -0.216653
   4 C :   -0.207260
   5 C :   -0.110627
   6 C :   -0.088759
   7 C :   -0.176107
   8 N :    0.066537
   9 H :    0.131169
  10 H :    0.129785
  11 H :    0.131863
  12 H :    0.150840
  13 H :    0.183743
  14 H :    0.181909
  15 H :    0.163127
  16 H :    0.168441
  17 H :    0.128648

  Mayer bond orders larger than 0.1
B(  0-C ,  1-C ) :   0.9405 B(  0-C ,  9-H ) :   0.9391 B(  0-C , 10-H ) :   0.9297
B(  0-C , 11-H ) :   0.9162 B(  1-C ,  2-O ) :   0.9050 B(  1-C ,  3-C ) :   0.8704
B(  1-C , 12-H ) :   0.9215 B(  2-O , 13-H ) :   0.8327 B(  3-C ,  4-C ) :   0.8718
B(  3-C ,  7-C ) :   0.9177 B(  3-C , 14-H ) :   0.9032 B(  4-C ,  5-C ) :   1.0922
B(  4-C ,  6-C ) :  -0.1094 B(  4-C , 15-H ) :   0.9159 B(  4-C , 16-H ) :   0.9226
B(  5-C ,  6-C ) :   2.6298 B(  6-C , 17-H ) :   0.8888 B(  7-C ,  8-N ) :   2.8507

MP2 TOTAL ENERGY:     -401.239344453 Eh
FINAL SINGLE POINT ENERGY      -401.239344453420

DIPOLE MOMENT
-------------
                                X             Y             Z
Electronic contribution:     -4.42370      -3.06081       3.15852
Nuclear contribution   :      4.88893       3.13787      -4.29968
                        -----------------------------------------
Total Dipole Moment    :      0.46522       0.07705      -1.14116
                        -----------------------------------------
Magnitude (a.u.)       :      1.23475
Magnitude (Debye)      :      3.13850

                             ****ORCA TERMINATED NORMALLY****
TOTAL RUN TIME: 0 days 0 hours 17 minutes 45 seconds 69 msec
