                         Program Version 3.0.3 - RELEASE   -
|  1> ! RI-MP2 RIJK def2-TZVP def2-TZVP/C def2-TZVP/JK TIGHTSCF
|  2> % maxcore 2000
|  3> % mp2 density relaxed end
|  4> *xyz 0 1
|  5>  C       -0.0439052522     1.4207126999    -0.2117682807
|  6>  O       -0.0325902412     0.0563994188     0.1324856352
|  7>  C       -1.2828839750    -0.5672767811    -0.0486402939
|  8>  C       -1.1497065773    -2.0337790925     0.3520176157
|  9>  C       -2.4640139642    -2.7729573150     0.2005720581
| 10>  C       -2.8549574305    -3.4363388492    -1.0779580326
| 11>  C       -2.5645673608    -4.2990440419     0.1468032243
| 12>  C       -1.3593443861    -5.1572406592     0.1435997483
| 13>  O       -1.2854882020    -6.2257839721     0.7000506411
| 14>  H        0.9617021312     1.8109275329    -0.0376072425
| 15>  H       -0.3060051734     1.5738053931    -1.2709141289
| 16>  H       -0.7580227426     1.9921316586     0.4025763015
| 17>  H       -2.0554446994    -0.0708546960     0.5655434144
| 18>  H       -1.6098491751    -0.4858783161    -1.0998387527
| 19>  H       -0.3668072144    -2.4863571739    -0.2642443935
| 20>  H       -0.8015420290    -2.0820903122     1.3901978364
| 21>  H       -3.2814112184    -2.3267423065     0.7626460766
| 22>  H       -3.8822671615    -3.3932026687    -1.4205347010
| 23>  H       -2.1171908408    -3.4633769215    -1.8749356088
| 24>  H       -3.4091020261    -4.7469735620     0.6590209469
| 25>  H       -0.4974386013    -4.7563874052    -0.4373427538
| 26> *
| 27>
| 28>                          ****END OF INPUT****

CARTESIAN COORDINATES (ANGSTROEM)
---------------------------------
  C     -0.043905    1.420713   -0.211768
  O     -0.032590    0.056399    0.132486
  C     -1.282884   -0.567277   -0.048640
  C     -1.149707   -2.033779    0.352018
  C     -2.464014   -2.772957    0.200572
  C     -2.854957   -3.436339   -1.077958
  C     -2.564567   -4.299044    0.146803
  C     -1.359344   -5.157241    0.143600
  O     -1.285488   -6.225784    0.700051
  H      0.961702    1.810928   -0.037607
  H     -0.306005    1.573805   -1.270914
  H     -0.758023    1.992132    0.402576
  H     -2.055445   -0.070855    0.565543
  H     -1.609849   -0.485878   -1.099839
  H     -0.366807   -2.486357   -0.264244
  H     -0.801542   -2.082090    1.390198
  H     -3.281411   -2.326742    0.762646
  H     -3.882267   -3.393203   -1.420535
  H     -2.117191   -3.463377   -1.874936
  H     -3.409102   -4.746974    0.659021
  H     -0.497439   -4.756387   -0.437343

 Total Charge           Charge          ....    0
 Multiplicity           Mult            ....    1
 Number of Electrons    NEL             ....   70
 Basis Dimension        Dim             ....  351

ORBITAL ENERGIES
----------------

  NO   OCC          E(Eh)            E(eV)
   0   2.0000     -20.562413      -559.5317
   1   2.0000     -20.547512      -559.1262
   2   2.0000     -11.328675      -308.2689
   3   2.0000     -11.284115      -307.0564
   4   2.0000     -11.276486      -306.8488
   5   2.0000     -11.259665      -306.3911
   6   2.0000     -11.251363      -306.1651
   7   2.0000     -11.249021      -306.1014
   8   2.0000     -11.237461      -305.7869
   9   2.0000      -1.386998       -37.7421
  10   2.0000      -1.384180       -37.6655
  11   2.0000      -1.174304       -31.9544
  12   2.0000      -1.042902       -28.3788
  13   2.0000      -0.936985       -25.4967
  14   2.0000      -0.909590       -24.7512
  15   2.0000      -0.858169       -23.3520
  16   2.0000      -0.816239       -22.2110
  17   2.0000      -0.765372       -20.8268
  18   2.0000      -0.695703       -18.9310
  19   2.0000      -0.678073       -18.4513
  20   2.0000      -0.671660       -18.2768
  21   2.0000      -0.644145       -17.5281
  22   2.0000      -0.631587       -17.1864
  23   2.0000      -0.624900       -17.0044
  24   2.0000      -0.591816       -16.1041
  25   2.0000      -0.562345       -15.3022
  26   2.0000      -0.548107       -14.9147
  27   2.0000      -0.529336       -14.4040
  28   2.0000      -0.516583       -14.0569
  29   2.0000      -0.513670       -13.9777
  30   2.0000      -0.487817       -13.2742
  31   2.0000      -0.447350       -12.1730
  32   2.0000      -0.431445       -11.7402
  33   2.0000      -0.418979       -11.4010
  34   2.0000      -0.410652       -11.1744
  35   0.0000       0.127969         3.4822
  36   0.0000       0.132647         3.6095
  37   0.0000       0.146609         3.9894
  38   0.0000       0.153543         4.1781
  39   0.0000       0.174804         4.7567

MULLIKEN ATOMIC CHARGES
-----------------------
   0 C :   -0.215128
   1 O :   -0.299710
   2 C :   -0.067350
   3 C :   -0.172031
   4 C :   -0.129179
   5 C :   -0.298132
   6 C :   -0.023393
   7 C :    0.058871
   8 O :   -0.272433
   9 H :    0.140989
  10 H :    0.111062
  11 H :    0.111712
  12 H :    0.090197
  13 H :    0.098105
  14 H :    0.107989
  15 H :    0.133463
  16 H :    0.129857
  17 H :    0.146438
  18 H :    0.139687
  19 H :    0.136060
  20 H :    0.072925
Sum of atomic charges:    0.0000000

LOEWDIN ATOMIC CHARGES
----------------------
   0 C :   -0.361015
   1 O :    0.135218
   2 C :   -0.327114
   3 C :   -0.244930
   4 C :   -0.198336
   5 C :   -0.191680
   6 C :   -0.193465
   7 C :   -0.292623
   8 O :    0.125035
   9 H :    0.114104
  10 H :    0.101170
  11 H :    0.101308
  12 H :    0.118979
  13 H :    0.120005
  14 H :    0.143070
  15 H :    0.147468
  16 H :    0.156133
  17 H :    0.136912
  18 H :    0.140579
  19 H :    0.155737
  20 H :    0.113447

  Mayer bond orders larger than 0.1
B(  0-C ,  1-O ) :   0.9182 B(  0-C ,  9-H ) :   0.9392 B(  0-C , 10-H ) :   0.9367
B(  0-C , 11-H ) :   0.9376 B(  1-O ,  2-C ) :   0.9651 B(  2-C ,  3-C ) :   0.9416
B(  2-C , 12-H ) :   0.9249 B(  2-C , 13-H ) :   0.9245 B(  3-C ,  4-C ) :   0.9117
B(  3-C , 14-H ) :   0.9258 B(  3-C , 15-H ) :   0.9245 B(  4-C ,  5-C ) :   0.8968
B(  4-C ,  6-C ) :   0.8023 B(  4-C , 16-H ) :   0.9180 B(  5-C ,  6-C ) :   0.8334
B(  5-C , 17-H ) :   0.9230 B(  5-C , 18-H ) :   0.9226 B(  6-C ,  7-C ) :   0.9026
B(  6-C , 19-H ) :   0.9185 B(  7-C ,  8-O ) :   1.9849 B(  7-C , 20-H ) :   0.9514

MP2 TOTAL ENERGY:     -423.497738479 Eh
FINAL SINGLE POINT ENERGY      -423.497738479269

DIPOLE MOMENT
-------------
                                X             Y             Z
Electronic contribution:      0.50498      -9.33703       2.26198
Nuclear contribution   :     -1.15990      10.76185      -2.86678
                        -----------------------------------------
Total Dipole Moment    :     -0.65493       1.42483      -0.60481
                        -----------------------------------------
Magnitude (a.u.)       :      1.68073
Magnitude (Debye)      :      4.27208

                             ****ORCA TERMINATED NORMALLY****
TOTAL RUN TIME: 0 days 0 hours 15 minutes 52 seconds 40 msec
