                         Program Version 3.0.3 - RELEASE   -
|  1> ! RI-MP2 RIJK def2-TZVP def2-TZVP/C def2-TZVP/JK TIGHTSCF
|  2> % maxcore 2000
|  3> % mp2 density relaxed end
|  4> *xyz 0 1
|  5>  N       -0.0459252336     1.6584316553     0.0518926445
|  6>  H        0.8387477632     1.1335887435     0.2034860458
|  7>  H        0.1951369627     2.6495830754    -0.0127207384
|  8>  H       -0.4913011182     1.3653466358    -0.8191584918
|  9>  C       -0.8939461266     1.3601464599     1.2809338850
| 10>  C       -1.4436280838    -0.0755986945     1.3722794233
| 11>  C       -0.9398718991    -0.1158864093     2.8473759362
| 12>  C       -0.0328072635     1.1209405077     2.5581930276
| 13>  C        1.4267432518     0.7563146452     2.2997475156
| 14>  C        2.0024699933     0.1621999624     3.7026166796
| 15>  O        2.4298360248     1.0411329713     4.4552446743
| 16>  O        1.8466303509    -1.0652985786     3.8015511838
| 17>  H       -1.6472575526     2.1476496737     1.3393593129
| 18>  H       -2.5109603128    -0.1949315056     1.1749669651
| 19>  H       -0.8911157934    -0.7741153636     0.7360092334
| 20>  H       -1.7382044176     0.0993479375     3.5601441476
| 21>  H       -0.3784880132    -0.9958413480     3.1633273822
| 22>  H       -0.0644099432     1.9297915745     3.2904606527
| 23>  H        1.5360505633    -0.0416718704     1.5467677958
| 24>  H        2.0157321274     1.6387516679     2.0196953647
| 25> *
| 26>
| 27>                          ****END OF INPUT****

CARTESIAN COORDINATES (ANGSTROEM)
---------------------------------
  N     -0.045925    1.658432    0.051893
  H      0.838748    1.133589    0.203486
  H      0.195137    2.649583   -0.012721
  H     -0.491301    1.365347   -0.819158
  C     -0.893946    1.360146    1.280934
  C     -1.443628   -0.075599    1.372279
  C     -0.939872   -0.115886    2.847376
  C     -0.032807    1.120941    2.558193
  C      1.426743    0.756315    2.299748
  C      2.002470    0.162200    3.702617
  O      2.429836    1.041133    4.455245
  O      1.846630   -1.065299    3.801551
  H     -1.647258    2.147650    1.339359
  H     -2.510960   -0.194932    1.174967
  H     -0.891116   -0.774115    0.736009
  H     -1.738204    0.099348    3.560144
  H     -0.378488   -0.995841    3.163327
  H     -0.064410    1.929792    3.290461
  H      1.536051   -0.041672    1.546768
  H      2.015732    1.638752    2.019695

 Total Charge           Charge          ....    0
 Multiplicity           Mult            ....    1
 Number of Electrons    NEL             ....   70
 Basis Dimension        Dim             ....  345

ORBITAL ENERGIES
----------------

  NO   OCC          E(Eh)            E(eV)
   0   2.0000     -20.420619      -555.6733
   1   2.0000     -20.420546      -555.6713
   2   2.0000     -15.756497      -428.7561
   3   2.0000     -11.339443      -308.5619
   4   2.0000     -11.273849      -306.7770
   5   2.0000     -11.271299      -306.7076
   6   2.0000     -11.256833      -306.3140
   7   2.0000     -11.234353      -305.7023
   8   2.0000     -11.212605      -305.1105
   9   2.0000      -1.374700       -37.4075
  10   2.0000      -1.307080       -35.5675
  11   2.0000      -1.213293       -33.0154
  12   2.0000      -1.167651       -31.7734
  13   2.0000      -1.003299       -27.3012
  14   2.0000      -0.946594       -25.7581
  15   2.0000      -0.890665       -24.2362
  16   2.0000      -0.835041       -22.7226
  17   2.0000      -0.826650       -22.4943
  18   2.0000      -0.776594       -21.1322
  19   2.0000      -0.710070       -19.3220
  20   2.0000      -0.693497       -18.8710
  21   2.0000      -0.648548       -17.6479
  22   2.0000      -0.614612       -16.7244
  23   2.0000      -0.583458       -15.8767
  24   2.0000      -0.567159       -15.4332
  25   2.0000      -0.555761       -15.1230
  26   2.0000      -0.530608       -14.4386
  27   2.0000      -0.520025       -14.1506
  28   2.0000      -0.492865       -13.4115
  29   2.0000      -0.488208       -13.2848
  30   2.0000      -0.470956       -12.8154
  31   2.0000      -0.460064       -12.5190
  32   2.0000      -0.346630        -9.4323
  33   2.0000      -0.326718        -8.8904
  34   2.0000      -0.316026        -8.5995
  35   0.0000       0.039287         1.0691
  36   0.0000       0.095096         2.5877
  37   0.0000       0.112559         3.0629
  38   0.0000       0.128335         3.4922
  39   0.0000       0.160551         4.3688

MULLIKEN ATOMIC CHARGES
-----------------------
   0 N :   -0.337574
   1 H :    0.329013
   2 H :    0.317157
   3 H :    0.315624
   4 C :   -0.156437
   5 C :   -0.238434
   6 C :   -0.253511
   7 C :   -0.029348
   8 C :   -0.355264
   9 C :    0.279186
  10 O :   -0.458660
  11 O :   -0.475482
  12 H :    0.163330
  13 H :    0.141328
  14 H :    0.124889
  15 H :    0.130474
  16 H :    0.195857
  17 H :    0.144172
  18 H :    0.066266
  19 H :    0.097413
Sum of atomic charges:    0.0000000

LOEWDIN ATOMIC CHARGES
----------------------
   0 N :    0.152570
   1 H :    0.215686
   2 H :    0.208218
   3 H :    0.203186
   4 C :   -0.220860
   5 C :   -0.225148
   6 C :   -0.192891
   7 C :   -0.221826
   8 C :   -0.273684
   9 C :   -0.684532
  10 O :   -0.026544
  11 O :   -0.046597
  12 H :    0.146472
  13 H :    0.131192
  14 H :    0.140675
  15 H :    0.136935
  16 H :    0.153732
  17 H :    0.155973
  18 H :    0.123119
  19 H :    0.124326

  Mayer bond orders larger than 0.1
B(  0-N ,  1-H ) :   0.8041 B(  0-N ,  2-H ) :   0.8449 B(  0-N ,  3-H ) :   0.8477
B(  0-N ,  4-C ) :   0.7204 B(  4-C ,  5-C ) :   0.9820 B(  4-C ,  7-C ) :   0.8471
B(  4-C , 12-H ) :   0.8926 B(  5-C ,  6-C ) :   0.9482 B(  5-C , 13-H ) :   0.9235
B(  5-C , 14-H ) :   0.8990 B(  6-C ,  7-C ) :   0.8959 B(  6-C , 15-H ) :   0.9336
B(  6-C , 16-H ) :   0.9088 B(  7-C ,  8-C ) :   0.9598 B(  7-C , 17-H ) :   0.9189
B(  8-C ,  9-C ) :   0.7972 B(  8-C , 18-H ) :   0.8750 B(  8-C , 19-H ) :   0.9052
B(  9-C , 10-O ) :   1.7810 B(  9-C , 11-O ) :   1.7347

MP2 TOTAL ENERGY:     -439.513407478 Eh
FINAL SINGLE POINT ENERGY      -439.513407478422

DIPOLE MOMENT
-------------
                                X             Y             Z
Electronic contribution:      4.79842      -0.51416       4.62300
Nuclear contribution   :     -8.17409       2.76794     -10.17570
                        -----------------------------------------
Total Dipole Moment    :     -3.37567       2.25378      -5.55270
                        -----------------------------------------
Magnitude (a.u.)       :      6.87802
Magnitude (Debye)      :     17.48252

                             ****ORCA TERMINATED NORMALLY****
TOTAL RUN TIME: 0 days 0 hours 17 minutes 50 seconds 15 msec
