                         Program Version 3.0.3 - RELEASE   -
|  1> ! RI-MP2 RIJK def2-TZVP def2-TZVP/C def2-TZVP/JK TIGHTSCF
|  2> % maxcore 2000
|  3> % mp2 density relaxed end
|  4> *xyz 0 1
|  5>  C       -0.0622191047     1.5333728759    -0.0310474257
|  6>  C        1.4912027001     1.5156951087    -0.0601159555
|  7>  C        1.4326328929     0.0950394820     0.5573934543
|  8>  C       -0.0390437307    -0.0160395372     0.0832314516
|  9>  N        2.3841450222    -0.8981553028     0.1025203759
| 10>  N        2.5510290546    -1.1856026524    -1.1835309160
| 11>  C        3.4958462345    -2.1281609544    -1.1769279400
| 12>  C        3.8684825344    -2.3761702929     0.1499572144
| 13>  N        3.1492639933    -1.5835222062     0.9476436372
| 14>  H       -0.4494866941     2.0051512706     0.8759801361
| 15>  H       -0.5733078635     1.9632273183    -0.8937432876
| 16>  H        1.8728833105     1.4650257398    -1.0820665250
| 17>  H        2.0358098016     2.2818604669     0.4953997252
| 18>  H        1.5231167669     0.1062632181     1.6432012144
| 19>  H       -0.7472014975    -0.5038588589     0.7560974831
| 20>  H       -0.0817776474    -0.4915356988    -0.8989636696
| 21>  H        3.8492101452    -2.5670383943    -2.0963375450
| 22>  H        4.5939257117    -3.0625907325     0.5561785523
| 23> *
| 24>
| 25>                          ****END OF INPUT****

CARTESIAN COORDINATES (ANGSTROEM)
---------------------------------
  C     -0.062219    1.533373   -0.031047
  C      1.491203    1.515695   -0.060116
  C      1.432633    0.095039    0.557393
  C     -0.039044   -0.016040    0.083231
  N      2.384145   -0.898155    0.102520
  N      2.551029   -1.185603   -1.183531
  C      3.495846   -2.128161   -1.176928
  C      3.868483   -2.376170    0.149957
  N      3.149264   -1.583522    0.947644
  H     -0.449487    2.005151    0.875980
  H     -0.573308    1.963227   -0.893743
  H      1.872883    1.465026   -1.082067
  H      2.035810    2.281860    0.495400
  H      1.523117    0.106263    1.643201
  H     -0.747201   -0.503859    0.756097
  H     -0.081778   -0.491536   -0.898964
  H      3.849210   -2.567038   -2.096338
  H      4.593926   -3.062591    0.556179

 Total Charge           Charge          ....    0
 Multiplicity           Mult            ....    1
 Number of Electrons    NEL             ....   66
 Basis Dimension        Dim             ....  333

ORBITAL ENERGIES
----------------

  NO   OCC          E(Eh)            E(eV)
   0   2.0000     -15.674620      -426.5281
   1   2.0000     -15.607991      -424.7150
   2   2.0000     -15.606330      -424.6698
   3   2.0000     -11.279222      -306.9232
   4   2.0000     -11.258575      -306.3614
   5   2.0000     -11.256564      -306.3067
   6   2.0000     -11.230159      -305.5882
   7   2.0000     -11.229888      -305.5808
   8   2.0000     -11.229344      -305.5660
   9   2.0000      -1.443111       -39.2691
  10   2.0000      -1.184955       -32.2443
  11   2.0000      -1.167029       -31.7565
  12   2.0000      -1.087090       -29.5812
  13   2.0000      -0.922781       -25.1101
  14   2.0000      -0.909612       -24.7518
  15   2.0000      -0.841492       -22.8982
  16   2.0000      -0.814237       -22.1565
  17   2.0000      -0.756935       -20.5972
  18   2.0000      -0.717652       -19.5283
  19   2.0000      -0.663383       -18.0516
  20   2.0000      -0.654810       -17.8183
  21   2.0000      -0.631782       -17.1917
  22   2.0000      -0.614061       -16.7095
  23   2.0000      -0.564438       -15.3591
  24   2.0000      -0.549794       -14.9607
  25   2.0000      -0.507617       -13.8130
  26   2.0000      -0.501496       -13.6464
  27   2.0000      -0.484958       -13.1964
  28   2.0000      -0.466059       -12.6821
  29   2.0000      -0.458324       -12.4716
  30   2.0000      -0.457699       -12.4546
  31   2.0000      -0.393722       -10.7137
  32   2.0000      -0.354926        -9.6580
  33   0.0000       0.135464         3.6862
  34   0.0000       0.142678         3.8825
  35   0.0000       0.166014         4.5175
  36   0.0000       0.176195         4.7945
  37   0.0000       0.177494         4.8298

MULLIKEN ATOMIC CHARGES
-----------------------
   0 C :   -0.230776
   1 C :   -0.223093
   2 C :   -0.094319
   3 C :   -0.223091
   4 N :    0.281504
   5 N :   -0.263772
   6 C :   -0.090720
   7 C :   -0.093611
   8 N :   -0.263143
   9 H :    0.119424
  10 H :    0.123549
  11 H :    0.140206
  12 H :    0.127117
  13 H :    0.137652
  14 H :    0.127118
  15 H :    0.140218
  16 H :    0.142669
  17 H :    0.143069
Sum of atomic charges:   -0.0000000

LOEWDIN ATOMIC CHARGES
----------------------
   0 C :   -0.238686
   1 C :   -0.214310
   2 C :   -0.232099
   3 C :   -0.214313
   4 N :    0.146574
   5 N :    0.046011
   6 C :   -0.282419
   7 C :   -0.283576
   8 N :    0.044592
   9 H :    0.133754
  10 H :    0.125683
  11 H :    0.143687
  12 H :    0.126090
  13 H :    0.158328
  14 H :    0.126090
  15 H :    0.143689
  16 H :    0.135390
  17 H :    0.135515

  Mayer bond orders larger than 0.1
B(  0-C ,  1-C ) :   0.9329 B(  0-C ,  3-C ) :   0.9329 B(  0-C ,  9-H ) :   0.9268
B(  0-C , 10-H ) :   0.9288 B(  1-C ,  2-C ) :   0.8940 B(  1-C , 11-H ) :   0.9243
B(  1-C , 12-H ) :   0.9292 B(  2-C ,  3-C ) :   0.8940 B(  2-C ,  4-N ) :   0.8724
B(  2-C , 13-H ) :   0.9244 B(  3-C , 14-H ) :   0.9292 B(  3-C , 15-H ) :   0.9243
B(  4-N ,  5-N ) :   1.0723 B(  4-N ,  8-N ) :   1.0781 B(  5-N ,  6-C ) :   1.3924
B(  6-C ,  7-C ) :   1.3771 B(  6-C , 16-H ) :   0.9286 B(  7-C ,  8-N ) :   1.4081
B(  7-C , 17-H ) :   0.9283

MP2 TOTAL ENERGY:     -397.436214758 Eh
FINAL SINGLE POINT ENERGY      -397.436214757518

DIPOLE MOMENT
-------------
                                X             Y             Z
Electronic contribution:      5.48488      -5.47939       0.00813
Nuclear contribution   :     -5.69166       5.68357      -0.03825
                        -----------------------------------------
Total Dipole Moment    :     -0.20678       0.20418      -0.03012
                        -----------------------------------------
Magnitude (a.u.)       :      0.29215
Magnitude (Debye)      :      0.74260

                             ****ORCA TERMINATED NORMALLY****
TOTAL RUN TIME: 0 days 0 hours 15 minutes 58 seconds 878 msec
