                         Program Version 3.0.3 - RELEASE   -
|  1> ! RI-MP2 RIJK def2-TZVP def2-TZVP/C def2-TZVP/JK TIGHTSCF
|  2> % maxcore 2000
|  3> % mp2 density relaxed end
|  4> *xyz 0 1
|  5>  C        0.4318339806    -0.5345392249     1.3333538553
|  6>  C        0.0793905886     0.0751304087     0.0011164979
|  7>  N        0.0077243931     1.3451749907    -0.0932679622
|  8>  N       -0.1518254241    -0.7899127992    -1.0681184709
|  9>  C       -0.1294264475    -2.1622060652    -1.1885481803
| 10>  N       -0.3905128112    -2.7630057614    -2.3386743503
| 11>  C       -0.2621840894    -4.0820717731    -2.0221862829
| 12>  N        0.0564683427    -4.3431313353    -0.7717742848
| 13>  N        0.1404609940    -3.0845314790    -0.2378680794
| 14>  H       -0.3717056444    -1.1820229529     1.7017679066
| 15>  H        1.3582752754    -1.1166260807     1.2739873752
| 16>  H        0.5765900783     0.2778884450     2.0431503581
| 17>  H       -0.2373887783     1.6482710716    -1.0384767022
| 18>  H       -0.3860475701    -0.3538312353    -1.9491669509
| 19>  H       -0.4103333005    -4.8710807570    -2.7442358735
| 20>  H        0.3748080129    -2.9713765920     0.7311838343
| 21> *
| 22>
| 23>                          ****END OF INPUT****

CARTESIAN COORDINATES (ANGSTROEM)
---------------------------------
  C      0.431834   -0.534539    1.333354
  C      0.079391    0.075130    0.001116
  N      0.007724    1.345175   -0.093268
  N     -0.151825   -0.789913   -1.068118
  C     -0.129426   -2.162206   -1.188548
  N     -0.390513   -2.763006   -2.338674
  C     -0.262184   -4.082072   -2.022186
  N      0.056468   -4.343131   -0.771774
  N      0.140461   -3.084531   -0.237868
  H     -0.371706   -1.182023    1.701768
  H      1.358275   -1.116626    1.273987
  H      0.576590    0.277888    2.043150
  H     -0.237389    1.648271   -1.038477
  H     -0.386048   -0.353831   -1.949167
  H     -0.410333   -4.871081   -2.744236
  H      0.374808   -2.971377    0.731184

 Total Charge           Charge          ....    0
 Multiplicity           Mult            ....    1
 Number of Electrons    NEL             ....   66
 Basis Dimension        Dim             ....  321

ORBITAL ENERGIES
----------------

  NO   OCC          E(Eh)            E(eV)
   0   2.0000     -15.651257      -425.8923
   1   2.0000     -15.627182      -425.2373
   2   2.0000     -15.593331      -424.3161
   3   2.0000     -15.556555      -423.3154
   4   2.0000     -15.548681      -423.1011
   5   2.0000     -11.376286      -309.5645
   6   2.0000     -11.349122      -308.8253
   7   2.0000     -11.295022      -307.3532
   8   2.0000     -11.257730      -306.3384
   9   2.0000      -1.421572       -38.6829
  10   2.0000      -1.313594       -35.7447
  11   2.0000      -1.215476       -33.0748
  12   2.0000      -1.185370       -32.2555
  13   2.0000      -1.101786       -29.9811
  14   2.0000      -1.021509       -27.7967
  15   2.0000      -0.883608       -24.0442
  16   2.0000      -0.851055       -23.1584
  17   2.0000      -0.830828       -22.6080
  18   2.0000      -0.759736       -20.6735
  19   2.0000      -0.719130       -19.5685
  20   2.0000      -0.672897       -18.3105
  21   2.0000      -0.668140       -18.1810
  22   2.0000      -0.619032       -16.8447
  23   2.0000      -0.610185       -16.6040
  24   2.0000      -0.583446       -15.8764
  25   2.0000      -0.574993       -15.6464
  26   2.0000      -0.546609       -14.8740
  27   2.0000      -0.514349       -13.9961
  28   2.0000      -0.455920       -12.4062
  29   2.0000      -0.449696       -12.2369
  30   2.0000      -0.436548       -11.8791
  31   2.0000      -0.422220       -11.4892
  32   2.0000      -0.342299        -9.3144
  33   0.0000       0.113590         3.0910
  34   0.0000       0.138806         3.7771
  35   0.0000       0.140503         3.8233
  36   0.0000       0.168899         4.5960
  37   0.0000       0.176261         4.7963

MULLIKEN ATOMIC CHARGES
-----------------------
   0 C :   -0.406676
   1 C :    0.141458
   2 N :   -0.363298
   3 N :   -0.303201
   4 C :    0.305301
   5 N :   -0.341597
   6 C :    0.033861
   7 N :   -0.260427
   8 N :   -0.127204
   9 H :    0.147382
  10 H :    0.147413
  11 H :    0.175228
  12 H :    0.195554
  13 H :    0.250044
  14 H :    0.143970
  15 H :    0.262194
Sum of atomic charges:   -0.0000000

LOEWDIN ATOMIC CHARGES
----------------------
   0 C :   -0.269713
   1 C :   -0.388063
   2 N :   -0.064221
   3 N :    0.155222
   4 C :   -0.397864
   5 N :    0.077721
   6 C :   -0.348761
   7 N :    0.013924
   8 N :    0.128550
   9 H :    0.131653
  10 H :    0.131663
  11 H :    0.146105
  12 H :    0.156002
  13 H :    0.209184
  14 H :    0.132223
  15 H :    0.186375

  Mayer bond orders larger than 0.1
B(  0-C ,  1-C ) :   0.8818 B(  0-C ,  9-H ) :   0.9251 B(  0-C , 10-H ) :   0.9251
B(  0-C , 11-H ) :   0.9267 B(  1-C ,  2-N ) :   2.0439 B(  1-C ,  3-N ) :   1.0440
B(  2-N , 12-H ) :   0.8643 B(  3-N ,  4-C ) :   1.0613 B(  3-N , 13-H ) :   0.8521
B(  4-C ,  5-N ) :   1.4993 B(  4-C ,  8-N ) :   1.2342 B(  5-N ,  6-C ) :   1.2896
B(  6-C ,  7-N ) :   1.5524 B(  6-C , 14-H ) :   0.9364 B(  7-N ,  8-N ) :   0.9941
B(  8-N , 15-H ) :   0.8559

MP2 TOTAL ENERGY:     -429.554843551 Eh
FINAL SINGLE POINT ENERGY      -429.554843551420

DIPOLE MOMENT
-------------
                                X             Y             Z
Electronic contribution:     -0.87920      -3.59819      -4.11226
Nuclear contribution   :      0.97196       3.71923       4.50795
                        -----------------------------------------
Total Dipole Moment    :      0.09276       0.12104       0.39569
                        -----------------------------------------
Magnitude (a.u.)       :      0.42406
Magnitude (Debye)      :      1.07787

                             ****ORCA TERMINATED NORMALLY****
TOTAL RUN TIME: 0 days 0 hours 14 minutes 35 seconds 749 msec
