                         Program Version 3.0.3 - RELEASE   -
|  1> ! RI-MP2 RIJK def2-TZVP def2-TZVP/C def2-TZVP/JK TIGHTSCF
|  2> % maxcore 2000
|  3> % mp2 density relaxed end
|  4> *xyz 0 1
|  5>  O       -0.0329514068    -0.0438689401     0.0040733509
|  6>  C        0.0090766108     1.1532701730     0.0086287631
|  7>  O       -1.1870288423     1.8766122729     0.0285538195
|  8>  C       -1.1663822609     3.2216363878     0.0352395221
|  9>  C       -0.0156290796     3.9211239926     0.0234868979
| 10>  N        1.2096188772     3.2874394095     0.0040698931
| 11>  C        1.2120271918     1.9970942765    -0.0025201204
| 12>  H       -2.1602535727     3.6529743945     0.0506767451
| 13>  H       -0.0179512846     5.0031919521     0.0290657583
| 14>  H        2.1581074872     1.4618748812    -0.0175162396
| 15> *
| 16>
| 17>                          ****END OF INPUT****

CARTESIAN COORDINATES (ANGSTROEM)
---------------------------------
  O     -0.032951   -0.043869    0.004073
  C      0.009077    1.153270    0.008629
  O     -1.187029    1.876612    0.028554
  C     -1.166382    3.221636    0.035240
  C     -0.015629    3.921124    0.023487
  N      1.209619    3.287439    0.004070
  C      1.212027    1.997094   -0.002520
  H     -2.160254    3.652974    0.050677
  H     -0.017951    5.003192    0.029066
  H      2.158107    1.461875   -0.017516

 Total Charge           Charge          ....    0
 Multiplicity           Mult            ....    1
 Number of Electrons    NEL             ....   50
 Basis Dimension        Dim             ....  235

ORBITAL ENERGIES
----------------

  NO   OCC          E(Eh)            E(eV)
   0   2.0000     -20.653778      -562.0179
   1   2.0000     -20.566646      -559.6469
   2   2.0000     -15.623183      -425.1284
   3   2.0000     -11.410961      -310.5080
   4   2.0000     -11.341021      -308.6049
   5   2.0000     -11.313560      -307.8576
   6   2.0000     -11.284136      -307.0569
   7   2.0000      -1.501048       -40.8456
   8   2.0000      -1.402756       -38.1709
   9   2.0000      -1.287778       -35.0422
  10   2.0000      -1.070932       -29.1416
  11   2.0000      -0.946783       -25.7633
  12   2.0000      -0.920513       -25.0484
  13   2.0000      -0.769457       -20.9380
  14   2.0000      -0.754340       -20.5266
  15   2.0000      -0.701792       -19.0967
  16   2.0000      -0.682011       -18.5585
  17   2.0000      -0.655210       -17.8292
  18   2.0000      -0.604700       -16.4547
  19   2.0000      -0.599460       -16.3121
  20   2.0000      -0.540852       -14.7173
  21   2.0000      -0.524044       -14.2600
  22   2.0000      -0.517383       -14.0787
  23   2.0000      -0.442721       -12.0470
  24   2.0000      -0.356021        -9.6878
  25   0.0000       0.043608         1.1866
  26   0.0000       0.137838         3.7508
  27   0.0000       0.154558         4.2057
  28   0.0000       0.164868         4.4863
  29   0.0000       0.181968         4.9516

MULLIKEN ATOMIC CHARGES
-----------------------
   0 O :   -0.275481
   1 C :    0.269458
   2 O :   -0.169737
   3 C :    0.052938
   4 C :   -0.081501
   5 N :   -0.204727
   6 C :   -0.061913
   7 H :    0.159745
   8 H :    0.152779
   9 H :    0.158438
Sum of atomic charges:   -0.0000000

LOEWDIN ATOMIC CHARGES
----------------------
   0 O :    0.153627
   1 C :   -0.443105
   2 O :    0.339896
   3 C :   -0.223263
   4 C :   -0.250582
   5 N :    0.153657
   6 C :   -0.176064
   7 H :    0.146119
   8 H :    0.148410
   9 H :    0.151305

  Mayer bond orders larger than 0.1
B(  0-O ,  1-C ) :   1.9885 B(  1-C ,  2-O ) :   0.9894 B(  1-C ,  6-C ) :   1.0265
B(  2-O ,  3-C ) :   1.0526 B(  3-C ,  4-C ) :   1.5748 B(  3-C ,  7-H ) :   0.9261
B(  4-C ,  5-N ) :   1.1210 B(  4-C ,  8-H ) :   0.9291 B(  5-N ,  6-C ) :   1.6327
B(  6-C ,  9-H ) :   0.9137

MP2 TOTAL ENERGY:     -358.756580507 Eh
FINAL SINGLE POINT ENERGY      -358.756580506713

DIPOLE MOMENT
-------------
                                X             Y             Z
Electronic contribution:     -0.34356      -2.28348      -0.00796
Nuclear contribution   :      0.03217       3.39660       0.01719
                        -----------------------------------------
Total Dipole Moment    :     -0.31138       1.11312       0.00923
                        -----------------------------------------
Magnitude (a.u.)       :      1.15589
Magnitude (Debye)      :      2.93805

                             ****ORCA TERMINATED NORMALLY****
TOTAL RUN TIME: 0 days 0 hours 5 minutes 53 seconds 143 msec
