                         Program Version 3.0.3 - RELEASE   -
|  1> ! RI-MP2 RIJK def2-TZVP def2-TZVP/C def2-TZVP/JK TIGHTSCF
|  2> % maxcore 2000
|  3> % mp2 density relaxed end
|  4> *xyz 0 1
|  5>  C       -0.1713319480     1.2944756985     0.0181247423
|  6>  O        0.3087835050    -0.0306648832     0.1494456436
|  7>  C        0.7215586717    -0.5978571475    -1.0553703186
|  8>  C        1.3337204590    -1.9759604987    -0.9217956243
|  9>  C        0.3287466279    -2.9713747273    -0.5046121866
| 10>  N        0.3721746817    -2.5982952917    -1.9296982868
| 11>  C       -0.3382575072    -1.2584433047    -2.0295348684
| 12>  C       -1.7371695580    -1.2388448181    -1.6598146502
| 13>  C       -2.8991978022    -1.2223851267    -1.3488104530
| 14>  H        0.6019430731     1.9604694983    -0.3950093160
| 15>  H       -1.0605121956     1.3433217475    -0.6234795762
| 16>  H       -0.4373436214     1.6388941154     1.0197249197
| 17>  H        1.3611964768     0.0980731154    -1.6161230172
| 18>  H        2.3968743953    -2.1874746908    -0.9475153131
| 19>  H        0.6827774418    -3.9826695276    -0.3327673470
| 20>  H       -0.5218407187    -2.6694687496     0.0984345376
| 21>  H       -0.2131340732    -0.8916497974    -3.0517195395
| 22>  H       -3.9267241080    -1.2110076718    -1.0801090464
| 23> *
| 24>
| 25>                          ****END OF INPUT****

CARTESIAN COORDINATES (ANGSTROEM)
---------------------------------
  C     -0.171332    1.294476    0.018125
  O      0.308784   -0.030665    0.149446
  C      0.721559   -0.597857   -1.055370
  C      1.333720   -1.975960   -0.921796
  C      0.328747   -2.971375   -0.504612
  N      0.372175   -2.598295   -1.929698
  C     -0.338258   -1.258443   -2.029535
  C     -1.737170   -1.238845   -1.659815
  C     -2.899198   -1.222385   -1.348810
  H      0.601943    1.960469   -0.395009
  H     -1.060512    1.343322   -0.623480
  H     -0.437344    1.638894    1.019725
  H      1.361196    0.098073   -1.616123
  H      2.396874   -2.187475   -0.947515
  H      0.682777   -3.982670   -0.332767
  H     -0.521841   -2.669469    0.098435
  H     -0.213134   -0.891650   -3.051720
  H     -3.926724   -1.211008   -1.080109

 Total Charge           Charge          ....    0
 Multiplicity           Mult            ....    1
 Number of Electrons    NEL             ....   66
 Basis Dimension        Dim             ....  333

ORBITAL ENERGIES
----------------

  NO   OCC          E(Eh)            E(eV)
   0   2.0000     -20.566357      -559.6390
   1   2.0000     -15.571734      -423.7284
   2   2.0000     -11.301118      -307.5191
   3   2.0000     -11.287724      -307.1546
   4   2.0000     -11.275704      -306.8275
   5   2.0000     -11.264820      -306.5313
   6   2.0000     -11.257111      -306.3216
   7   2.0000     -11.237473      -305.7872
   8   2.0000     -11.229600      -305.5729
   9   2.0000      -1.392355       -37.8879
  10   2.0000      -1.292870       -35.1808
  11   2.0000      -1.060229       -28.8503
  12   2.0000      -1.003175       -27.2978
  13   2.0000      -0.963133       -26.2082
  14   2.0000      -0.900254       -24.4972
  15   2.0000      -0.846955       -23.0468
  16   2.0000      -0.776589       -21.1321
  17   2.0000      -0.719868       -19.5886
  18   2.0000      -0.719190       -19.5702
  19   2.0000      -0.676671       -18.4131
  20   2.0000      -0.658678       -17.9235
  21   2.0000      -0.632935       -17.2230
  22   2.0000      -0.610958       -16.6250
  23   2.0000      -0.598917       -16.2974
  24   2.0000      -0.558542       -15.1987
  25   2.0000      -0.518467       -14.1082
  26   2.0000      -0.500067       -13.6075
  27   2.0000      -0.466165       -12.6850
  28   2.0000      -0.451707       -12.2916
  29   2.0000      -0.437529       -11.9058
  30   2.0000      -0.404813       -11.0155
  31   2.0000      -0.391974       -10.6662
  32   2.0000      -0.367582       -10.0024
  33   0.0000       0.138288         3.7630
  34   0.0000       0.152019         4.1367
  35   0.0000       0.156793         4.2666
  36   0.0000       0.166360         4.5269
  37   0.0000       0.174916         4.7597

MULLIKEN ATOMIC CHARGES
-----------------------
   0 C :   -0.232154
   1 O :   -0.284574
   2 C :    0.061426
   3 C :   -0.056939
   4 C :   -0.169734
   5 N :   -0.230193
   6 C :   -0.087141
   7 C :   -0.070120
   8 C :   -0.149356
   9 H :    0.114357
  10 H :    0.130628
  11 H :    0.143662
  12 H :    0.086225
  13 H :    0.135170
  14 H :    0.134168
  15 H :    0.149556
  16 H :    0.133231
  17 H :    0.191785
Sum of atomic charges:   -0.0000000

LOEWDIN ATOMIC CHARGES
----------------------
   0 C :   -0.345877
   1 O :    0.173497
   2 C :   -0.285085
   3 C :   -0.194683
   4 C :   -0.236946
   5 N :    0.127661
   6 C :   -0.219421
   7 C :   -0.095734
   8 C :   -0.084030
   9 H :    0.102460
  10 H :    0.107545
  11 H :    0.115486
  12 H :    0.138099
  13 H :    0.134099
  14 H :    0.135218
  15 H :    0.136972
  16 H :    0.162602
  17 H :    0.128138

  Mayer bond orders larger than 0.1
B(  0-C ,  1-O ) :   0.8910 B(  0-C ,  9-H ) :   0.9329 B(  0-C , 10-H ) :   0.9337
B(  0-C , 11-H ) :   0.9414 B(  1-O ,  2-C ) :   1.0835 B(  2-C ,  3-C ) :   0.9496
B(  2-C ,  6-C ) :   0.9565 B(  2-C , 12-H ) :   0.9499 B(  3-C ,  4-C ) :   0.9543
B(  3-C ,  5-N ) :   0.8720 B(  3-C , 13-H ) :   0.9036 B(  4-C ,  5-N ) :   0.8928
B(  4-C , 14-H ) :   0.9302 B(  4-C , 15-H ) :   0.8968 B(  5-N ,  6-C ) :   0.8909
B(  6-C ,  7-C ) :   1.1625 B(  6-C , 16-H ) :   0.9108 B(  7-C ,  8-C ) :   2.5706
B(  8-C , 17-H ) :   0.9007

MP2 TOTAL ENERGY:     -401.149789529 Eh
FINAL SINGLE POINT ENERGY      -401.149789528995

DIPOLE MOMENT
-------------
                                X             Y             Z
Electronic contribution:     -0.62798      -3.27372      -1.65457
Nuclear contribution   :      0.61834       3.97159       1.85708
                        -----------------------------------------
Total Dipole Moment    :     -0.00964       0.69787       0.20252
                        -----------------------------------------
Magnitude (a.u.)       :      0.72673
Magnitude (Debye)      :      1.84720

                             ****ORCA TERMINATED NORMALLY****
TOTAL RUN TIME: 0 days 0 hours 29 minutes 20 seconds 896 msec
