                         Program Version 3.0.3 - RELEASE   -
|  1> ! RI-MP2 RIJK def2-TZVP def2-TZVP/C def2-TZVP/JK TIGHTSCF
|  2> % maxcore 2000
|  3> % mp2 density relaxed end
|  4> *xyz 0 1
|  5>  C        0.3478355107     1.7198264581    -0.4888621245
|  6>  C        0.0440279427     0.2388762669    -0.3339031104
|  7>  O        0.8384288655    -0.4831806770    -1.2623615168
|  8>  C        0.7365053984    -1.9084854145    -1.1747516811
|  9>  C       -0.5726509229    -2.4146590809    -1.7857592512
| 10>  C        1.9513931873    -2.4998141432    -1.9037868230
| 11>  C        3.2981621706    -2.3080139830    -1.2015322661
| 12>  N        3.6261220559    -1.0084439309    -0.9518795859
| 13>  O        4.0240762932    -3.2441377064    -0.9242187081
| 14>  H        1.3978633606     1.9312887499    -0.2643555556
| 15>  H        0.1427257501     2.0482045220    -1.5115912892
| 16>  H       -0.2723222446     2.3069959641     0.1948588633
| 17>  H        0.2645953685    -0.0998240166     0.6913266466
| 18>  H       -1.0248580910     0.0549358147    -0.5142822876
| 19>  H        0.7758892163    -2.1993538862    -0.1121568434
| 20>  H       -0.6326602268    -3.5039036281    -1.7030979442
| 21>  H       -1.4458813539    -1.9965722252    -1.2776127814
| 22>  H       -0.6276194119    -2.1428877314    -2.8446474836
| 23>  H        1.8195399089    -3.5767815092    -2.0195910270
| 24>  H        1.9960848229    -2.0530262294    -2.9045666862
| 25>  H        2.9199502378    -0.2955611274    -1.0523970788
| 26>  H        4.4583993417    -0.8287798563    -0.4143407159
| 27> *
| 28>
| 29>                          ****END OF INPUT****

CARTESIAN COORDINATES (ANGSTROEM)
---------------------------------
  C      0.347836    1.719826   -0.488862
  C      0.044028    0.238876   -0.333903
  O      0.838429   -0.483181   -1.262362
  C      0.736505   -1.908485   -1.174752
  C     -0.572651   -2.414659   -1.785759
  C      1.951393   -2.499814   -1.903787
  C      3.298162   -2.308014   -1.201532
  N      3.626122   -1.008444   -0.951880
  O      4.024076   -3.244138   -0.924219
  H      1.397863    1.931289   -0.264356
  H      0.142726    2.048205   -1.511591
  H     -0.272322    2.306996    0.194859
  H      0.264595   -0.099824    0.691327
  H     -1.024858    0.054936   -0.514282
  H      0.775889   -2.199354   -0.112157
  H     -0.632660   -3.503904   -1.703098
  H     -1.445881   -1.996572   -1.277613
  H     -0.627619   -2.142888   -2.844647
  H      1.819540   -3.576782   -2.019591
  H      1.996085   -2.053026   -2.904567
  H      2.919950   -0.295561   -1.052397
  H      4.458399   -0.828780   -0.414341

 Total Charge           Charge          ....    0
 Multiplicity           Mult            ....    1
 Number of Electrons    NEL             ....   72
 Basis Dimension        Dim             ....  357

ORBITAL ENERGIES
----------------

  NO   OCC          E(Eh)            E(eV)
   0   2.0000     -20.569693      -559.7298
   1   2.0000     -20.507931      -558.0492
   2   2.0000     -15.566081      -423.5746
   3   2.0000     -11.340433      -308.5889
   4   2.0000     -11.299834      -307.4841
   5   2.0000     -11.289087      -307.1917
   6   2.0000     -11.235456      -305.7323
   7   2.0000     -11.228909      -305.5542
   8   2.0000     -11.228069      -305.5313
   9   2.0000      -1.390097       -37.8265
  10   2.0000      -1.370228       -37.2858
  11   2.0000      -1.198267       -32.6065
  12   2.0000      -1.080425       -29.3999
  13   2.0000      -1.013945       -27.5909
  14   2.0000      -0.969123       -26.3712
  15   2.0000      -0.861984       -23.4558
  16   2.0000      -0.821256       -22.3475
  17   2.0000      -0.781328       -21.2610
  18   2.0000      -0.720365       -19.6021
  19   2.0000      -0.697040       -18.9674
  20   2.0000      -0.664949       -18.0942
  21   2.0000      -0.657810       -17.8999
  22   2.0000      -0.622098       -16.9282
  23   2.0000      -0.601031       -16.3549
  24   2.0000      -0.577303       -15.7092
  25   2.0000      -0.571522       -15.5519
  26   2.0000      -0.561759       -15.2863
  27   2.0000      -0.552487       -15.0339
  28   2.0000      -0.537591       -14.6286
  29   2.0000      -0.527571       -14.3559
  30   2.0000      -0.514025       -13.9873
  31   2.0000      -0.495641       -13.4871
  32   2.0000      -0.475518       -12.9395
  33   2.0000      -0.438843       -11.9415
  34   2.0000      -0.412318       -11.2197
  35   2.0000      -0.401896       -10.9362
  36   0.0000       0.124640         3.3916
  37   0.0000       0.145835         3.9684
  38   0.0000       0.157116         4.2753
  39   0.0000       0.160731         4.3737
  40   0.0000       0.179073         4.8728

MULLIKEN ATOMIC CHARGES
-----------------------
   0 C :   -0.372932
   1 C :   -0.055593
   2 O :   -0.338579
   3 C :    0.051735
   4 C :   -0.392825
   5 C :   -0.178234
   6 C :    0.227690
   7 N :   -0.470148
   8 O :   -0.349470
   9 H :    0.124199
  10 H :    0.136000
  11 H :    0.132260
  12 H :    0.101574
  13 H :    0.100118
  14 H :    0.090928
  15 H :    0.138551
  16 H :    0.133575
  17 H :    0.132423
  18 H :    0.134530
  19 H :    0.132437
  20 H :    0.272009
  21 H :    0.249750
Sum of atomic charges:    0.0000000

LOEWDIN ATOMIC CHARGES
----------------------
   0 C :   -0.317228
   1 C :   -0.351961
   2 O :    0.159715
   3 C :   -0.340223
   4 C :   -0.294455
   5 C :   -0.208950
   6 C :   -0.483517
   7 N :   -0.018944
   8 O :    0.073575
   9 H :    0.120555
  10 H :    0.125939
  11 H :    0.127179
  12 H :    0.119028
  13 H :    0.119481
  14 H :    0.140378
  15 H :    0.129586
  16 H :    0.121625
  17 H :    0.128079
  18 H :    0.156701
  19 H :    0.154522
  20 H :    0.169471
  21 H :    0.169442

  Mayer bond orders larger than 0.1
B(  0-C ,  1-C ) :   0.9519 B(  0-C ,  9-H ) :   0.9378 B(  0-C , 10-H ) :   0.9348
B(  0-C , 11-H ) :   0.9332 B(  1-C ,  2-O ) :   0.8953 B(  1-C , 12-H ) :   0.9267
B(  1-C , 13-H ) :   0.9216 B(  2-O ,  3-C ) :   0.8899 B(  3-C ,  4-C ) :   0.9083
B(  3-C ,  5-C ) :   0.8928 B(  3-C , 14-H ) :   0.9407 B(  4-C , 15-H ) :   0.9336
B(  4-C , 16-H ) :   0.9372 B(  4-C , 17-H ) :   0.9328 B(  5-C ,  6-C ) :   0.9206
B(  5-C , 18-H ) :   0.9225 B(  5-C , 19-H ) :   0.9043 B(  6-C ,  7-N ) :   1.1676
B(  6-C ,  8-O ) :   2.0200 B(  7-N , 20-H ) :   0.8429 B(  7-N , 21-H ) :   0.8625

MP2 TOTAL ENERGY:     -440.805366926 Eh
FINAL SINGLE POINT ENERGY      -440.805366926462

DIPOLE MOMENT
-------------
                                X             Y             Z
Electronic contribution:      8.89707      -4.95272      -0.33752
Nuclear contribution   :    -10.15067       6.10783       0.58987
                        -----------------------------------------
Total Dipole Moment    :     -1.25360       1.15512       0.25235
                        -----------------------------------------
Magnitude (a.u.)       :      1.72322
Magnitude (Debye)      :      4.38007

                             ****ORCA TERMINATED NORMALLY****
TOTAL RUN TIME: 0 days 0 hours 18 minutes 18 seconds 267 msec
