                         Program Version 3.0.3 - RELEASE   -
|  1> ! RI-MP2 RIJK def2-TZVP def2-TZVP/C def2-TZVP/JK TIGHTSCF
|  2> % maxcore 2000
|  3> % mp2 density relaxed end
|  4> *xyz 0 1
|  5>  O       -0.0844557357    -0.0444873151    -0.0008921179
|  6>  C       -0.0060929876     1.1647856931     0.0077216142
|  7>  C        1.2235474290     1.9034487963    -0.0002757623
|  8>  C        2.2493734639     2.5484736038    -0.0067435209
|  9>  C        3.4403998375     3.2951193807    -0.0141681084
| 10>  C        4.7176414651     2.7936526690    -0.0323312302
| 11>  O        5.6188841967     3.7918503320    -0.0346808652
| 12>  C        4.9241417674     4.9682130441    -0.0176083714
| 13>  C        3.5922813603     4.7329089892    -0.0044509178
| 14>  H       -0.9138300342     1.8024491426     0.0228858428
| 15>  H        5.1049321490     1.7885620562    -0.0445599279
| 16>  H        5.5244251401     5.8622383801    -0.0173211865
| 17>  H        2.7987396387     5.4618812280     0.0102288514
| 18> *
| 19>
| 20>                          ****END OF INPUT****

CARTESIAN COORDINATES (ANGSTROEM)
---------------------------------
  O     -0.084456   -0.044487   -0.000892
  C     -0.006093    1.164786    0.007722
  C      1.223547    1.903449   -0.000276
  C      2.249373    2.548474   -0.006744
  C      3.440400    3.295119   -0.014168
  C      4.717641    2.793653   -0.032331
  O      5.618884    3.791850   -0.034681
  C      4.924142    4.968213   -0.017608
  C      3.592281    4.732909   -0.004451
  H     -0.913830    1.802449    0.022886
  H      5.104932    1.788562   -0.044560
  H      5.524425    5.862238   -0.017321
  H      2.798740    5.461881    0.010229

 Total Charge           Charge          ....    0
 Multiplicity           Mult            ....    1
 Number of Electrons    NEL             ....   62
 Basis Dimension        Dim             ....  303

ORBITAL ENERGIES
----------------

  NO   OCC          E(Eh)            E(eV)
   0   2.0000     -20.653025      -561.9974
   1   2.0000     -20.565194      -559.6074
   2   2.0000     -11.357268      -309.0470
   3   2.0000     -11.327669      -308.2415
   4   2.0000     -11.310955      -307.7867
   5   2.0000     -11.275987      -306.8352
   6   2.0000     -11.274939      -306.8067
   7   2.0000     -11.257298      -306.3267
   8   2.0000     -11.249612      -306.1175
   9   2.0000      -1.491577       -40.5879
  10   2.0000      -1.399951       -38.0946
  11   2.0000      -1.136976       -30.9387
  12   2.0000      -1.064871       -28.9766
  13   2.0000      -1.032488       -28.0954
  14   2.0000      -0.921262       -25.0688
  15   2.0000      -0.849137       -23.1062
  16   2.0000      -0.817471       -22.2445
  17   2.0000      -0.778896       -21.1948
  18   2.0000      -0.719080       -19.5672
  19   2.0000      -0.664936       -18.0938
  20   2.0000      -0.661643       -18.0042
  21   2.0000      -0.653672       -17.7873
  22   2.0000      -0.624332       -16.9889
  23   2.0000      -0.599262       -16.3068
  24   2.0000      -0.579638       -15.7728
  25   2.0000      -0.556134       -15.1332
  26   2.0000      -0.478471       -13.0199
  27   2.0000      -0.452859       -12.3229
  28   2.0000      -0.415761       -11.3134
  29   2.0000      -0.390489       -10.6258
  30   2.0000      -0.334500        -9.1022
  31   0.0000       0.059495         1.6189
  32   0.0000       0.128666         3.5012
  33   0.0000       0.151948         4.1347
  34   0.0000       0.159205         4.3322
  35   0.0000       0.170904         4.6505

MULLIKEN ATOMIC CHARGES
-----------------------
   0 O :   -0.256881
   1 C :    0.042293
   2 C :    0.059086
   3 C :    0.104386
   4 C :   -0.044474
   5 C :   -0.043341
   6 O :   -0.196259
   7 C :    0.020730
   8 C :   -0.272665
   9 H :    0.104159
  10 H :    0.167831
  11 H :    0.160776
  12 H :    0.154357
Sum of atomic charges:    0.0000000

LOEWDIN ATOMIC CHARGES
----------------------
   0 O :    0.143687
   1 C :   -0.298850
   2 C :   -0.042159
   3 C :    0.005077
   4 C :   -0.179013
   5 C :   -0.183670
   6 O :    0.356044
   7 C :   -0.221056
   8 C :   -0.136125
   9 H :    0.124422
  10 H :    0.142896
  11 H :    0.137286
  12 H :    0.151462

  Mayer bond orders larger than 0.1
B(  0-O ,  1-C ) :   1.9991 B(  1-C ,  2-C ) :   0.8498 B(  1-C ,  9-H ) :   1.0037
B(  2-C ,  3-C ) :   2.6265 B(  2-C ,  4-C ) :  -0.1748 B(  2-C ,  9-H ) :  -0.1049
B(  3-C ,  4-C ) :   1.0540 B(  4-C ,  5-C ) :   1.4792 B(  4-C ,  8-C ) :   1.1302
B(  5-C ,  6-O ) :   1.0895 B(  5-C , 10-H ) :   0.9187 B(  6-O ,  7-C ) :   1.0247
B(  7-C ,  8-C ) :   1.5852 B(  7-C , 11-H ) :   0.9313 B(  8-C , 12-H ) :   0.9178

MP2 TOTAL ENERGY:     -418.699649346 Eh
FINAL SINGLE POINT ENERGY      -418.699649346001

DIPOLE MOMENT
-------------
                                X             Y             Z
Electronic contribution:     -0.42580      -2.19771      -0.01264
Nuclear contribution   :      1.01863       3.59020       0.01699
                        -----------------------------------------
Total Dipole Moment    :      0.59282       1.39248       0.00434
                        -----------------------------------------
Magnitude (a.u.)       :      1.51343
Magnitude (Debye)      :      3.84684

                             ****ORCA TERMINATED NORMALLY****
TOTAL RUN TIME: 0 days 0 hours 11 minutes 54 seconds 899 msec
