                         Program Version 3.0.3 - RELEASE   -
|  1> ! RI-MP2 RIJK def2-TZVP def2-TZVP/C def2-TZVP/JK TIGHTSCF
|  2> % maxcore 2000
|  3> % mp2 density relaxed end
|  4> *xyz 0 1
|  5>  C       -0.0682179220     1.5425384690    -0.0504793049
|  6>  C        0.0813427301     0.0409804243     0.0964382027
|  7>  C        1.3338554093    -0.7644223826    -0.1797379954
|  8>  C        2.5827190351    -0.0129960932     0.2911074004
|  9>  C        2.0069965478    -0.0464782464     1.7520002200
| 10>  O        1.8164347420     1.1562485224     2.4708860113
| 11>  C        0.7351827979    -0.7017294238     1.2315837739
| 12>  O        0.0882211950    -1.7159542809     1.9210224457
| 13>  H        0.7690156512     2.0853309149     0.3890223798
| 14>  H       -0.1540994688     1.8232672333    -1.1065494433
| 15>  H       -0.9754964472     1.8871514009     0.4580290083
| 16>  H       -0.7966562230    -0.5162207991    -0.2291600003
| 17>  H        1.3296963488    -1.5994799343    -0.8690481434
| 18>  H        3.5094078162    -0.5817228253     0.1863205513
| 19>  H        2.7292903147     0.9856224413    -0.1293952236
| 20>  H        2.5584232198    -0.7802459916     2.3546262277
| 21>  H        2.6666134117     1.4339714842     2.8263429616
| 22>  H       -0.6465222587    -1.3268333031     2.4073841882
| 23> *
| 24>
| 25>                          ****END OF INPUT****

CARTESIAN COORDINATES (ANGSTROEM)
---------------------------------
  C     -0.068218    1.542538   -0.050479
  C      0.081343    0.040980    0.096438
  C      1.333855   -0.764422   -0.179738
  C      2.582719   -0.012996    0.291107
  C      2.006997   -0.046478    1.752000
  O      1.816435    1.156249    2.470886
  C      0.735183   -0.701729    1.231584
  O      0.088221   -1.715954    1.921022
  H      0.769016    2.085331    0.389022
  H     -0.154099    1.823267   -1.106549
  H     -0.975496    1.887151    0.458029
  H     -0.796656   -0.516221   -0.229160
  H      1.329696   -1.599480   -0.869048
  H      3.509408   -0.581723    0.186321
  H      2.729290    0.985622   -0.129395
  H      2.558423   -0.780246    2.354626
  H      2.666613    1.433971    2.826343
  H     -0.646522   -1.326833    2.407384

 Total Charge           Charge          ....    0
 Multiplicity           Mult            ....    1
 Number of Electrons    NEL             ....   62
 Basis Dimension        Dim             ....  308

ORBITAL ENERGIES
----------------

  NO   OCC          E(Eh)            E(eV)
   0   2.0000     -20.562836      -559.5432
   1   2.0000     -20.557747      -559.4047
   2   2.0000     -11.282925      -307.0240
   3   2.0000     -11.280512      -306.9583
   4   2.0000     -11.233193      -305.6707
   5   2.0000     -11.229043      -305.5578
   6   2.0000     -11.225590      -305.4638
   7   2.0000     -11.208922      -305.0103
   8   2.0000      -1.377539       -37.4847
   9   2.0000      -1.360258       -37.0145
  10   2.0000      -1.176596       -32.0168
  11   2.0000      -1.007245       -27.4085
  12   2.0000      -0.932532       -25.3755
  13   2.0000      -0.886927       -24.1345
  14   2.0000      -0.767555       -20.8862
  15   2.0000      -0.742094       -20.1934
  16   2.0000      -0.720065       -19.5940
  17   2.0000      -0.690618       -18.7927
  18   2.0000      -0.628988       -17.1156
  19   2.0000      -0.616001       -16.7622
  20   2.0000      -0.595157       -16.1950
  21   2.0000      -0.575927       -15.6718
  22   2.0000      -0.557332       -15.1658
  23   2.0000      -0.542410       -14.7597
  24   2.0000      -0.533351       -14.5132
  25   2.0000      -0.516181       -14.0460
  26   2.0000      -0.478492       -13.0204
  27   2.0000      -0.473696       -12.8899
  28   2.0000      -0.425076       -11.5669
  29   2.0000      -0.385641       -10.4938
  30   2.0000      -0.374066       -10.1788
  31   0.0000       0.132773         3.6129
  32   0.0000       0.147912         4.0249
  33   0.0000       0.160634         4.3711
  34   0.0000       0.170642         4.6434
  35   0.0000       0.185659         5.0520

MULLIKEN ATOMIC CHARGES
-----------------------
   0 C :   -0.369281
   1 C :   -0.173487
   2 C :   -0.121232
   3 C :   -0.256139
   4 C :    0.038999
   5 O :   -0.469331
   6 C :    0.186310
   7 O :   -0.458966
   8 H :    0.146883
   9 H :    0.124365
  10 H :    0.124490
  11 H :    0.116320
  12 H :    0.137780
  13 H :    0.120888
  14 H :    0.117379
  15 H :    0.088559
  16 H :    0.316110
  17 H :    0.330352
Sum of atomic charges:   -0.0000000

LOEWDIN ATOMIC CHARGES
----------------------
   0 C :   -0.293450
   1 C :   -0.202573
   2 C :   -0.145154
   3 C :   -0.204925
   4 C :   -0.290952
   5 O :   -0.022396
   6 C :   -0.304160
   7 O :    0.025640
   8 H :    0.127499
   9 H :    0.123228
  10 H :    0.125952
  11 H :    0.161032
  12 H :    0.137507
  13 H :    0.132212
  14 H :    0.129542
  15 H :    0.139524
  16 H :    0.174457
  17 H :    0.187017

  Mayer bond orders larger than 0.1
B(  0-C ,  1-C ) :   0.8874 B(  0-C ,  8-H ) :   0.9309 B(  0-C ,  9-H ) :   0.9331
B(  0-C , 10-H ) :   0.9365 B(  1-C ,  2-C ) :   0.8822 B(  1-C ,  6-C ) :   0.9345
B(  1-C , 11-H ) :   0.9406 B(  2-C ,  3-C ) :   0.9484 B(  2-C ,  6-C ) :   0.7995
B(  2-C , 12-H ) :   0.9011 B(  3-C ,  4-C ) :   0.9453 B(  3-C , 13-H ) :   0.9221
B(  3-C , 14-H ) :   0.9084 B(  4-C ,  5-O ) :   1.0611 B(  4-C ,  6-C ) :   0.9348
B(  4-C , 15-H ) :   0.9344 B(  5-O , 16-H ) :   0.8441 B(  6-C ,  7-O ) :   1.0282
B(  7-O , 17-H ) :   0.8362

MP2 TOTAL ENERGY:     -384.275241229 Eh
FINAL SINGLE POINT ENERGY      -384.275241228620

DIPOLE MOMENT
-------------
                                X             Y             Z
Electronic contribution:      0.00405      -3.30719       3.48440
Nuclear contribution   :      0.30522       3.58921      -3.46283
                        -----------------------------------------
Total Dipole Moment    :      0.30927       0.28202       0.02157
                        -----------------------------------------
Magnitude (a.u.)       :      0.41911
Magnitude (Debye)      :      1.06529

                             ****ORCA TERMINATED NORMALLY****
TOTAL RUN TIME: 0 days 0 hours 12 minutes 0 seconds 559 msec
