                         Program Version 3.0.3 - RELEASE   -
|  1> ! RI-MP2 RIJK def2-TZVP def2-TZVP/C def2-TZVP/JK TIGHTSCF
|  2> % maxcore 2000
|  3> % mp2 density relaxed end
|  4> *xyz 0 1
|  5>  O        0.0403974450     1.3988069578    -0.0205234923
|  6>  C       -0.0041414550    -0.0140768196     0.0286554564
|  7>  C       -1.4234178669    -0.4789584729     0.0468967269
|  8>  C       -2.5280598895     0.2707801017     0.0238070854
|  9>  C       -3.7959396080    -0.5663050584     0.0579547036
| 10>  O       -4.7506132281    -0.2225919838    -0.9394494445
| 11>  C       -3.2672849554    -2.0046381455    -0.0117583540
| 12>  C       -2.4601906876    -2.4089796669    -1.2232846239
| 13>  C       -1.7589125916    -1.9413241200     0.0374324583
| 14>  H        0.9619037870     1.6708511290     0.0049807751
| 15>  H        0.5093797369    -0.4677174075    -0.8383485694
| 16>  H        0.5115458044    -0.4036731427     0.9248921712
| 17>  H       -2.5513307350     1.3506591515    -0.0406788284
| 18>  H       -4.3392698622    -0.4139601166     0.9992856762
| 19>  H       -4.3256306673    -0.3454137691    -1.7956362333
| 20>  H       -3.8134447677    -2.7828376776     0.5068348153
| 21>  H       -2.4354123314    -3.4682316429    -1.4575691444
| 22>  H       -2.4196796870    -1.7561590117    -2.0904549895
| 23>  H       -1.1642139307    -2.6462626648     0.6087623512
| 24> *
| 25>
| 26>                          ****END OF INPUT****

CARTESIAN COORDINATES (ANGSTROEM)
---------------------------------
  O      0.040397    1.398807   -0.020523
  C     -0.004141   -0.014077    0.028655
  C     -1.423418   -0.478958    0.046897
  C     -2.528060    0.270780    0.023807
  C     -3.795940   -0.566305    0.057955
  O     -4.750613   -0.222592   -0.939449
  C     -3.267285   -2.004638   -0.011758
  C     -2.460191   -2.408980   -1.223285
  C     -1.758913   -1.941324    0.037432
  H      0.961904    1.670851    0.004981
  H      0.509380   -0.467717   -0.838349
  H      0.511546   -0.403673    0.924892
  H     -2.551331    1.350659   -0.040679
  H     -4.339270   -0.413960    0.999286
  H     -4.325631   -0.345414   -1.795636
  H     -3.813445   -2.782838    0.506835
  H     -2.435412   -3.468232   -1.457569
  H     -2.419680   -1.756159   -2.090455
  H     -1.164214   -2.646263    0.608762

 Total Charge           Charge          ....    0
 Multiplicity           Mult            ....    1
 Number of Electrons    NEL             ....   68
 Basis Dimension        Dim             ....  339

ORBITAL ENERGIES
----------------

  NO   OCC          E(Eh)            E(eV)
   0   2.0000     -20.563653      -559.5655
   1   2.0000     -20.546877      -559.1090
   2   2.0000     -11.289670      -307.2075
   3   2.0000     -11.279728      -306.9370
   4   2.0000     -11.239457      -305.8412
   5   2.0000     -11.236816      -305.7693
   6   2.0000     -11.235481      -305.7330
   7   2.0000     -11.231548      -305.6260
   8   2.0000     -11.212089      -305.0964
   9   2.0000      -1.369775       -37.2735
  10   2.0000      -1.352842       -36.8127
  11   2.0000      -1.182815       -32.1860
  12   2.0000      -1.048671       -28.5358
  13   2.0000      -0.977983       -26.6123
  14   2.0000      -0.891161       -24.2497
  15   2.0000      -0.837800       -22.7977
  16   2.0000      -0.780830       -21.2475
  17   2.0000      -0.725974       -19.7547
  18   2.0000      -0.715525       -19.4704
  19   2.0000      -0.686419       -18.6784
  20   2.0000      -0.650056       -17.6889
  21   2.0000      -0.637765       -17.3545
  22   2.0000      -0.615756       -16.7556
  23   2.0000      -0.591328       -16.0909
  24   2.0000      -0.575956       -15.6726
  25   2.0000      -0.552213       -15.0265
  26   2.0000      -0.529358       -14.4046
  27   2.0000      -0.502927       -13.6853
  28   2.0000      -0.488000       -13.2791
  29   2.0000      -0.470758       -12.8100
  30   2.0000      -0.440280       -11.9806
  31   2.0000      -0.434797       -11.8314
  32   2.0000      -0.414162       -11.2699
  33   2.0000      -0.332506        -9.0480
  34   0.0000       0.129825         3.5327
  35   0.0000       0.139945         3.8081
  36   0.0000       0.153767         4.1842
  37   0.0000       0.160870         4.3775
  38   0.0000       0.167559         4.5595

MULLIKEN ATOMIC CHARGES
-----------------------
   0 O :   -0.457433
   1 C :   -0.129404
   2 C :    0.046997
   3 C :   -0.275884
   4 C :    0.149711
   5 O :   -0.459022
   6 C :   -0.100155
   7 C :   -0.315115
   8 C :   -0.085158
   9 H :    0.315828
  10 H :    0.113706
  11 H :    0.112225
  12 H :    0.144976
  13 H :    0.102783
  14 H :    0.309222
  15 H :    0.130482
  16 H :    0.133497
  17 H :    0.130896
  18 H :    0.131850
Sum of atomic charges:   -0.0000000

LOEWDIN ATOMIC CHARGES
----------------------
   0 O :   -0.033937
   1 C :   -0.311963
   2 C :   -0.149500
   3 C :   -0.112903
   4 C :   -0.300279
   5 O :   -0.020937
   6 C :   -0.168711
   7 C :   -0.198188
   8 C :   -0.157907
   9 H :    0.174714
  10 H :    0.128078
  11 H :    0.127113
  12 H :    0.145536
  13 H :    0.149505
  14 H :    0.171172
  15 H :    0.144969
  16 H :    0.134764
  17 H :    0.132344
  18 H :    0.146130

  Mayer bond orders larger than 0.1
B(  0-O ,  1-C ) :   1.0674 B(  0-O ,  2-C ) :  -0.1226 B(  0-O ,  9-H ) :   0.8469
B(  1-C ,  2-C ) :   0.8995 B(  1-C , 10-H ) :   0.9388 B(  1-C , 11-H ) :   0.9298
B(  2-C ,  3-C ) :   1.7186 B(  2-C ,  8-C ) :   0.8896 B(  3-C ,  4-C ) :   0.9522
B(  3-C , 12-H ) :   0.9446 B(  4-C ,  5-O ) :   0.9291 B(  4-C ,  6-C ) :   0.9260
B(  4-C , 13-H ) :   0.9149 B(  5-O , 14-H ) :   0.8415 B(  6-C ,  7-C ) :   0.8723
B(  6-C ,  8-C ) :   0.8637 B(  6-C , 15-H ) :   0.9289 B(  7-C ,  8-C ) :   0.8622
B(  7-C , 16-H ) :   0.9267 B(  7-C , 17-H ) :   0.9275 B(  8-C , 18-H ) :   0.9158

MP2 TOTAL ENERGY:     -422.308129036 Eh
FINAL SINGLE POINT ENERGY      -422.308129036216

DIPOLE MOMENT
-------------
                                X             Y             Z
Electronic contribution:     -1.47730       2.38068       0.65106
Nuclear contribution   :      2.75231      -2.97917      -0.67876
                        -----------------------------------------
Total Dipole Moment    :      1.27501      -0.59849      -0.02770
                        -----------------------------------------
Magnitude (a.u.)       :      1.40876
Magnitude (Debye)      :      3.58079

                             ****ORCA TERMINATED NORMALLY****
TOTAL RUN TIME: 0 days 0 hours 17 minutes 38 seconds 317 msec
