                         Program Version 3.0.3 - RELEASE   -
|  1> ! RI-MP2 RIJK def2-TZVP def2-TZVP/C def2-TZVP/JK TIGHTSCF
|  2> % maxcore 2000
|  3> % mp2 density relaxed end
|  4> *xyz 0 1
|  5>  O       -0.2746809581     1.7321143372     0.8053400758
|  6>  C       -0.1058971927     0.3310761062     0.7963904890
|  7>  C       -1.2806262879    -0.4643094947     0.2111467862
|  8>  C       -2.6510334146     0.1868086056     0.2589841343
|  9>  C       -1.9209244968     0.0371998452    -1.0520816172
| 10>  O       -1.3326006331     1.1582993541    -1.6787328787
| 11>  C       -1.1375108770    -1.9389648345     0.4668100819
| 12>  C       -1.7260982995    -3.0178344157    -0.4068434248
| 13>  C       -0.2345314207    -2.8014311693    -0.3856852684
| 14>  H       -0.4232294083     1.9798158937    -0.1174474224
| 15>  H        0.8117157495     0.0386492006     0.2606965366
| 16>  H        0.0269012413     0.0297196435     1.8425803241
| 17>  H       -3.5226714991    -0.4358501941     0.4299573190
| 18>  H       -2.6824755577     1.1805588998     0.6923854162
| 19>  H       -2.3078342504    -0.6891178370    -1.7640236838
| 20>  H       -2.0434805714     1.7066305044    -2.0285190226
| 21>  H       -1.1291724563    -2.1752506844     1.5291908745
| 22>  H       -2.1264971964    -3.8964919385     0.0868304357
| 23>  H       -2.2651416044    -2.7393034310    -1.3054392475
| 24>  H        0.2116806605    -2.3389720625    -1.2599308922
| 25>  H        0.3944108230    -3.5394946288     0.0993924842
| 26> *
| 27>
| 28>                          ****END OF INPUT****

CARTESIAN COORDINATES (ANGSTROEM)
---------------------------------
  O     -0.274681    1.732114    0.805340
  C     -0.105897    0.331076    0.796390
  C     -1.280626   -0.464309    0.211147
  C     -2.651033    0.186809    0.258984
  C     -1.920924    0.037200   -1.052082
  O     -1.332601    1.158299   -1.678733
  C     -1.137511   -1.938965    0.466810
  C     -1.726098   -3.017834   -0.406843
  C     -0.234531   -2.801431   -0.385685
  H     -0.423229    1.979816   -0.117447
  H      0.811716    0.038649    0.260697
  H      0.026901    0.029720    1.842580
  H     -3.522671   -0.435850    0.429957
  H     -2.682476    1.180559    0.692385
  H     -2.307834   -0.689118   -1.764024
  H     -2.043481    1.706631   -2.028519
  H     -1.129172   -2.175251    1.529191
  H     -2.126497   -3.896492    0.086830
  H     -2.265142   -2.739303   -1.305439
  H      0.211681   -2.338972   -1.259931
  H      0.394411   -3.539495    0.099392

 Total Charge           Charge          ....    0
 Multiplicity           Mult            ....    1
 Number of Electrons    NEL             ....   70
 Basis Dimension        Dim             ....  351

ORBITAL ENERGIES
----------------

  NO   OCC          E(Eh)            E(eV)
   0   2.0000     -20.578934      -559.9813
   1   2.0000     -20.536422      -558.8245
   2   2.0000     -11.288590      -307.1782
   3   2.0000     -11.268749      -306.6382
   4   2.0000     -11.241506      -305.8969
   5   2.0000     -11.237674      -305.7927
   6   2.0000     -11.230086      -305.5862
   7   2.0000     -11.227124      -305.5056
   8   2.0000     -11.223288      -305.4012
   9   2.0000      -1.386528       -37.7293
  10   2.0000      -1.344629       -36.5892
  11   2.0000      -1.168063       -31.7846
  12   2.0000      -1.111943       -30.2575
  13   2.0000      -0.947590       -25.7852
  14   2.0000      -0.844801       -22.9882
  15   2.0000      -0.833728       -22.6869
  16   2.0000      -0.825676       -22.4678
  17   2.0000      -0.753073       -20.4922
  18   2.0000      -0.720846       -19.6152
  19   2.0000      -0.676505       -18.4086
  20   2.0000      -0.659420       -17.9437
  21   2.0000      -0.655882       -17.8475
  22   2.0000      -0.631760       -17.1911
  23   2.0000      -0.596548       -16.2329
  24   2.0000      -0.577804       -15.7229
  25   2.0000      -0.556227       -15.1357
  26   2.0000      -0.543317       -14.7844
  27   2.0000      -0.517743       -14.0885
  28   2.0000      -0.514825       -14.0091
  29   2.0000      -0.489609       -13.3229
  30   2.0000      -0.452235       -12.3060
  31   2.0000      -0.441021       -12.0008
  32   2.0000      -0.418485       -11.3876
  33   2.0000      -0.401349       -10.9213
  34   2.0000      -0.381342       -10.3769
  35   0.0000       0.132495         3.6054
  36   0.0000       0.151567         4.1243
  37   0.0000       0.157590         4.2882
  38   0.0000       0.161175         4.3858
  39   0.0000       0.183698         4.9987

MULLIKEN ATOMIC CHARGES
-----------------------
   0 O :   -0.491223
   1 C :   -0.008740
   2 C :    0.096856
   3 C :   -0.303667
   4 C :   -0.050713
   5 O :   -0.504143
   6 C :   -0.122608
   7 C :   -0.266886
   8 C :   -0.263401
   9 H :    0.331949
  10 H :    0.106514
  11 H :    0.105940
  12 H :    0.132209
  13 H :    0.150585
  14 H :    0.106023
  15 H :    0.333752
  16 H :    0.121256
  17 H :    0.132063
  18 H :    0.124950
  19 H :    0.135984
  20 H :    0.133300
Sum of atomic charges:   -0.0000000

LOEWDIN ATOMIC CHARGES
----------------------
   0 O :   -0.042898
   1 C :   -0.299200
   2 C :   -0.232161
   3 C :   -0.191926
   4 C :   -0.291580
   5 O :   -0.015012
   6 C :   -0.188061
   7 C :   -0.225051
   8 C :   -0.219155
   9 H :    0.167645
  10 H :    0.125285
  11 H :    0.134117
  12 H :    0.135976
  13 H :    0.143416
  14 H :    0.132932
  15 H :    0.182760
  16 H :    0.155153
  17 H :    0.131848
  18 H :    0.128978
  19 H :    0.136532
  20 H :    0.130402

  Mayer bond orders larger than 0.1
B(  0-O ,  1-C ) :   0.9324 B(  0-O ,  9-H ) :   0.8179 B(  1-C ,  2-C ) :   0.9170
B(  1-C , 10-H ) :   0.9373 B(  1-C , 11-H ) :   0.9315 B(  2-C ,  3-C ) :   0.8441
B(  2-C ,  4-C ) :   0.8297 B(  2-C ,  6-C ) :   0.8936 B(  3-C ,  4-C ) :   0.9264
B(  3-C , 12-H ) :   0.9169 B(  3-C , 13-H ) :   0.9086 B(  4-C ,  5-O ) :   0.9566
B(  4-C , 14-H ) :   0.9551 B(  5-O , 15-H ) :   0.8364 B(  6-C ,  7-C ) :   0.8735
B(  6-C ,  8-C ) :   0.8679 B(  6-C , 16-H ) :   0.9343 B(  7-C ,  8-C ) :   0.9048
B(  7-C , 17-H ) :   0.9307 B(  7-C , 18-H ) :   0.9306 B(  8-C , 19-H ) :   0.9292
B(  8-C , 20-H ) :   0.9304

MP2 TOTAL ENERGY:     -423.487075792 Eh
FINAL SINGLE POINT ENERGY      -423.487075792340

DIPOLE MOMENT
-------------
                                X             Y             Z
Electronic contribution:      0.28500       4.66606      -0.56523
Nuclear contribution   :     -0.96768      -5.16011       0.03213
                        -----------------------------------------
Total Dipole Moment    :     -0.68268      -0.49405      -0.53310
                        -----------------------------------------
Magnitude (a.u.)       :      0.99717
Magnitude (Debye)      :      2.53459

                             ****ORCA TERMINATED NORMALLY****
TOTAL RUN TIME: 0 days 0 hours 18 minutes 41 seconds 787 msec
