                         Program Version 3.0.3 - RELEASE   -
|  1> ! RI-MP2 RIJK def2-TZVP def2-TZVP/C def2-TZVP/JK TIGHTSCF
|  2> % maxcore 2000
|  3> % mp2 density relaxed end
|  4> *xyz 0 1
|  5>  C       -0.6228580119     1.1858933459    -0.6914446309
|  6>  O       -0.7775558238    -0.2174224029    -0.6820416115
|  7>  C       -0.9308837060    -0.7461425831     0.6136039225
|  8>  C       -1.0609066699    -2.2784237358     0.5270503271
|  9>  O       -0.9134610909    -2.8171190691     1.8127410535
| 10>  C       -2.3991202064    -2.7128106330    -0.0679106189
| 11>  O       -3.1837492306    -3.3310488422     0.6288380537
| 12>  C       -2.7502034628    -2.4069862385    -1.5070928327
| 13>  O       -4.0238048462    -2.8773936277    -1.8418514578
| 14>  H       -0.5047024131     1.4930525591    -1.7327584101
| 15>  H       -1.5008052677     1.6938690946    -0.2647469332
| 16>  H        0.2667109211     1.4953164067    -0.1228092249
| 17>  H       -0.0518662128    -0.5321564923     1.2395478581
| 18>  H       -1.8118031588    -0.3197140449     1.1217149735
| 19>  H       -0.2588534321    -2.6356246438    -0.1375738297
| 20>  H       -1.7542243097    -3.2609846789     2.0075170761
| 21>  H       -2.6618449396    -1.3230073272    -1.6626245815
| 22>  H       -1.9696001695    -2.8618952066    -2.1408879585
| 23>  H       -4.3457718392    -3.3466114303    -1.0578620250
| 24> *
| 25>
| 26>                          ****END OF INPUT****

CARTESIAN COORDINATES (ANGSTROEM)
---------------------------------
  C     -0.622858    1.185893   -0.691445
  O     -0.777556   -0.217422   -0.682042
  C     -0.930884   -0.746143    0.613604
  C     -1.060907   -2.278424    0.527050
  O     -0.913461   -2.817119    1.812741
  C     -2.399120   -2.712811   -0.067911
  O     -3.183749   -3.331049    0.628838
  C     -2.750203   -2.406986   -1.507093
  O     -4.023805   -2.877394   -1.841851
  H     -0.504702    1.493053   -1.732758
  H     -1.500805    1.693869   -0.264747
  H      0.266711    1.495316   -0.122809
  H     -0.051866   -0.532156    1.239548
  H     -1.811803   -0.319714    1.121715
  H     -0.258853   -2.635625   -0.137574
  H     -1.754224   -3.260985    2.007517
  H     -2.661845   -1.323007   -1.662625
  H     -1.969600   -2.861895   -2.140888
  H     -4.345772   -3.346611   -1.057862

 Total Charge           Charge          ....    0
 Multiplicity           Mult            ....    1
 Number of Electrons    NEL             ....   72
 Basis Dimension        Dim             ....  339

ORBITAL ENERGIES
----------------

  NO   OCC          E(Eh)            E(eV)
   0   2.0000     -20.580590      -560.0263
   1   2.0000     -20.579836      -560.0058
   2   2.0000     -20.567084      -559.6588
   3   2.0000     -20.560093      -559.4686
   4   2.0000     -11.355135      -308.9889
   5   2.0000     -11.309815      -307.7557
   6   2.0000     -11.299302      -307.4696
   7   2.0000     -11.295861      -307.3760
   8   2.0000     -11.289169      -307.1939
   9   2.0000      -1.436571       -39.0911
  10   2.0000      -1.402203       -38.1559
  11   2.0000      -1.378190       -37.5025
  12   2.0000      -1.361908       -37.0594
  13   2.0000      -1.059517       -28.8309
  14   2.0000      -0.988865       -26.9084
  15   2.0000      -0.931044       -25.3350
  16   2.0000      -0.871112       -23.7042
  17   2.0000      -0.783664       -21.3246
  18   2.0000      -0.753748       -20.5105
  19   2.0000      -0.706940       -19.2368
  20   2.0000      -0.697985       -18.9931
  21   2.0000      -0.670668       -18.2498
  22   2.0000      -0.668298       -18.1853
  23   2.0000      -0.645278       -17.5589
  24   2.0000      -0.624236       -16.9863
  25   2.0000      -0.613971       -16.7070
  26   2.0000      -0.583187       -15.8693
  27   2.0000      -0.572948       -15.5907
  28   2.0000      -0.551623       -15.0104
  29   2.0000      -0.538818       -14.6620
  30   2.0000      -0.533687       -14.5224
  31   2.0000      -0.508389       -13.8340
  32   2.0000      -0.462915       -12.5966
  33   2.0000      -0.459086       -12.4924
  34   2.0000      -0.449987       -12.2448
  35   2.0000      -0.438575       -11.9342
  36   0.0000       0.113721         3.0945
  37   0.0000       0.133813         3.6412
  38   0.0000       0.149667         4.0727
  39   0.0000       0.166699         4.5361
  40   0.0000       0.183138         4.9834

MULLIKEN ATOMIC CHARGES
-----------------------
   0 C :   -0.218246
   1 O :   -0.325805
   2 C :   -0.055940
   3 C :    0.099316
   4 O :   -0.474483
   5 C :    0.168719
   6 O :   -0.360640
   7 C :   -0.024090
   8 O :   -0.482216
   9 H :    0.145175
  10 H :    0.120746
  11 H :    0.122269
  12 H :    0.124005
  13 H :    0.104064
  14 H :    0.112389
  15 H :    0.340239
  16 H :    0.147835
  17 H :    0.120563
  18 H :    0.336099
Sum of atomic charges:   -0.0000000

LOEWDIN ATOMIC CHARGES
----------------------
   0 C :   -0.352848
   1 O :    0.133783
   2 C :   -0.306276
   3 C :   -0.331226
   4 O :    0.002692
   5 C :   -0.300752
   6 O :    0.127606
   7 C :   -0.331974
   8 O :   -0.032283
   9 H :    0.115753
  10 H :    0.104423
  11 H :    0.106297
  12 H :    0.131898
  13 H :    0.125429
  14 H :    0.155218
  15 H :    0.184061
  16 H :    0.144797
  17 H :    0.142299
  18 H :    0.181100

  Mayer bond orders larger than 0.1
B(  0-C ,  1-O ) :   0.8983 B(  0-C ,  9-H ) :   0.9387 B(  0-C , 10-H ) :   0.9380
B(  0-C , 11-H ) :   0.9353 B(  1-O ,  2-C ) :   0.9198 B(  2-C ,  3-C ) :   0.8702
B(  2-C , 12-H ) :   0.9183 B(  2-C , 13-H ) :   0.9131 B(  3-C ,  4-O ) :   1.0786
B(  3-C ,  5-C ) :   0.9222 B(  3-C , 14-H ) :   0.9233 B(  4-O , 15-H ) :   0.8000
B(  5-C ,  6-O ) :   1.8063 B(  5-C ,  7-C ) :   0.9722 B(  7-C ,  8-O ) :   0.9986
B(  7-C , 16-H ) :   0.9012 B(  7-C , 17-H ) :   0.8962 B(  8-O , 18-H ) :   0.8111

MP2 TOTAL ENERGY:     -496.534146160 Eh
FINAL SINGLE POINT ENERGY      -496.534146159567

DIPOLE MOMENT
-------------
                                X             Y             Z
Electronic contribution:     -3.28643      -6.96729       1.36841
Nuclear contribution   :      3.79755       7.83113      -1.34207
                        -----------------------------------------
Total Dipole Moment    :      0.51112       0.86385       0.02634
                        -----------------------------------------
Magnitude (a.u.)       :      1.00408
Magnitude (Debye)      :      2.55216

                             ****ORCA TERMINATED NORMALLY****
TOTAL RUN TIME: 0 days 0 hours 14 minutes 41 seconds 739 msec
