                         Program Version 3.0.3 - RELEASE   -
|  1> ! RI-MP2 RIJK def2-TZVP def2-TZVP/C def2-TZVP/JK TIGHTSCF
|  2> % maxcore 2000
|  3> % mp2 density relaxed end
|  4> *xyz 0 1
|  5>  O        0.0236188057     1.3950149087     0.2239763914
|  6>  C        0.0098695120    -0.0001407949     0.0726779597
|  7>  C       -0.4349693091    -0.7853282043     1.2943633924
|  8>  C       -1.2857213454    -0.7313300322     0.0660123846
|  9>  C       -2.7296759445    -0.2481339259    -0.1637907490
| 10>  C       -2.5230505651    -0.6247034371    -1.6644220800
| 11>  C       -1.9049914395    -1.8044698217    -0.8521224373
| 12>  C       -3.1648956159    -1.7295234814     0.0652692527
| 13>  H       -0.2665481298     1.7842510191    -0.6073875475
| 14>  H        0.8456344809    -0.4062995937    -0.5000512243
| 15>  H        0.1035895177    -1.6950791875     1.5416385037
| 16>  H       -0.7393364807    -0.1893589842     2.1492194419
| 17>  H       -3.1965613094     0.6511131917     0.2389581268
| 18>  H       -3.4269981654    -0.8511900705    -2.2369027770
| 19>  H       -1.8273853419    -0.0076375897    -2.2396867712
| 20>  H       -1.4223180170    -2.6999364076    -1.2461608894
| 21>  H       -3.0565894312    -2.1195935572     1.0796430634
| 22>  H       -4.1132429913    -2.0311015315    -0.3887006109
| 23> *
| 24>
| 25>                          ****END OF INPUT****

CARTESIAN COORDINATES (ANGSTROEM)
---------------------------------
  O      0.023619    1.395015    0.223976
  C      0.009870   -0.000141    0.072678
  C     -0.434969   -0.785328    1.294363
  C     -1.285721   -0.731330    0.066012
  C     -2.729676   -0.248134   -0.163791
  C     -2.523051   -0.624703   -1.664422
  C     -1.904991   -1.804470   -0.852122
  C     -3.164896   -1.729523    0.065269
  H     -0.266548    1.784251   -0.607388
  H      0.845634   -0.406300   -0.500051
  H      0.103590   -1.695079    1.541639
  H     -0.739336   -0.189359    2.149219
  H     -3.196561    0.651113    0.238958
  H     -3.426998   -0.851190   -2.236903
  H     -1.827385   -0.007638   -2.239687
  H     -1.422318   -2.699936   -1.246161
  H     -3.056589   -2.119594    1.079643
  H     -4.113243   -2.031102   -0.388701

 Total Charge           Charge          ....    0
 Multiplicity           Mult            ....    1
 Number of Electrons    NEL             ....   60
 Basis Dimension        Dim             ....  308

ORBITAL ENERGIES
----------------

  NO   OCC          E(Eh)            E(eV)
   0   2.0000     -20.558588      -559.4276
   1   2.0000     -11.275341      -306.8176
   2   2.0000     -11.247127      -306.0499
   3   2.0000     -11.246174      -306.0240
   4   2.0000     -11.240175      -305.8607
   5   2.0000     -11.232417      -305.6496
   6   2.0000     -11.230005      -305.5840
   7   2.0000     -11.217284      -305.2378
   8   2.0000      -1.365583       -37.1594
   9   2.0000      -1.218107       -33.1464
  10   2.0000      -1.096598       -29.8400
  11   2.0000      -0.906165       -24.6580
  12   2.0000      -0.860235       -23.4082
  13   2.0000      -0.839923       -22.8555
  14   2.0000      -0.810317       -22.0499
  15   2.0000      -0.725643       -19.7458
  16   2.0000      -0.688470       -18.7342
  17   2.0000      -0.679037       -18.4775
  18   2.0000      -0.642959       -17.4958
  19   2.0000      -0.602214       -16.3871
  20   2.0000      -0.578650       -15.7459
  21   2.0000      -0.547162       -14.8890
  22   2.0000      -0.522088       -14.2067
  23   2.0000      -0.491047       -13.3621
  24   2.0000      -0.471247       -12.8233
  25   2.0000      -0.457671       -12.4539
  26   2.0000      -0.448744       -12.2110
  27   2.0000      -0.440156       -11.9773
  28   2.0000      -0.397918       -10.8279
  29   2.0000      -0.381584       -10.3834
  30   0.0000       0.134532         3.6608
  31   0.0000       0.158374         4.3096
  32   0.0000       0.162455         4.4206
  33   0.0000       0.166008         4.5173
  34   0.0000       0.193818         5.2741

MULLIKEN ATOMIC CHARGES
-----------------------
   0 O :   -0.466799
   1 C :   -0.024067
   2 C :   -0.273346
   3 C :   -0.054266
   4 C :   -0.094447
   5 C :   -0.215416
   6 C :   -0.064534
   7 C :   -0.208139
   8 H :    0.321066
   9 H :    0.106716
  10 H :    0.127410
  11 H :    0.131174
  12 H :    0.136731
  13 H :    0.112236
  14 H :    0.103704
  15 H :    0.132689
  16 H :    0.117324
  17 H :    0.111965
Sum of atomic charges:   -0.0000000

LOEWDIN ATOMIC CHARGES
----------------------
   0 O :   -0.009011
   1 C :   -0.298101
   2 C :   -0.186803
   3 C :   -0.193055
   4 C :   -0.143519
   5 C :   -0.189630
   6 C :   -0.144441
   7 C :   -0.185908
   8 H :    0.179187
   9 H :    0.131176
  10 H :    0.134539
  11 H :    0.142630
  12 H :    0.127902
  13 H :    0.127507
  14 H :    0.124861
  15 H :    0.125738
  16 H :    0.130129
  17 H :    0.126799

  Mayer bond orders larger than 0.1
B(  0-O ,  1-C ) :   1.0275 B(  0-O ,  8-H ) :   0.8450 B(  1-C ,  2-C ) :   0.9114
B(  1-C ,  3-C ) :   0.8601 B(  1-C ,  9-H ) :   0.9675 B(  2-C ,  3-C ) :   0.9105
B(  2-C , 10-H ) :   0.9089 B(  2-C , 11-H ) :   0.9077 B(  3-C ,  4-C ) :   0.8375
B(  3-C ,  6-C ) :   0.8192 B(  4-C ,  5-C ) :   0.9080 B(  4-C ,  7-C ) :   0.9131
B(  4-C , 12-H ) :   0.8927 B(  5-C ,  6-C ) :   0.9038 B(  5-C , 13-H ) :   0.9213
B(  5-C , 14-H ) :   0.9361 B(  6-C ,  7-C ) :   0.9162 B(  6-C , 15-H ) :   0.8858
B(  7-C , 16-H ) :   0.9271 B(  7-C , 17-H ) :   0.9278

MP2 TOTAL ENERGY:     -347.119084316 Eh
FINAL SINGLE POINT ENERGY      -347.119084316411

DIPOLE MOMENT
-------------
                                X             Y             Z
Electronic contribution:      2.00313       1.98182       0.45040
Nuclear contribution   :     -2.27512      -2.26076      -0.97417
                        -----------------------------------------
Total Dipole Moment    :     -0.27199      -0.27894      -0.52377
                        -----------------------------------------
Magnitude (a.u.)       :      0.65278
Magnitude (Debye)      :      1.65923

                             ****ORCA TERMINATED NORMALLY****
TOTAL RUN TIME: 0 days 0 hours 12 minutes 36 seconds 299 msec
