                         Program Version 3.0.3 - RELEASE   -
|  1> ! RI-MP2 RIJK def2-TZVP def2-TZVP/C def2-TZVP/JK TIGHTSCF
|  2> % maxcore 2000
|  3> % mp2 density relaxed end
|  4> *xyz 0 1
|  5>  C       -0.7168998489     1.7225189682     0.2454317006
|  6>  O       -0.5786231978     0.4426422070     0.8244499978
|  7>  C       -1.2756225695    -0.5727490700     0.1336676519
|  8>  C       -0.7034303451    -1.0915213115    -1.2123310870
|  9>  C       -1.0243911445    -2.5351603126    -0.7276912500
| 10>  C       -0.0623569969    -3.6627715009    -1.0776638266
| 11>  C       -1.1111713244    -1.9907781218     0.7395477825
| 12>  C        0.1517268576    -2.1421857530     1.5907502348
| 13>  O        0.0352925142    -1.4486863403     2.8193960150
| 14>  H       -0.1491688805     2.4237244760     0.8611483210
| 15>  H       -0.3214778203     1.7485216813    -0.7799516607
| 16>  H       -1.7704602787     2.0400611616     0.2198444023
| 17>  H       -2.3351696898    -0.2923756976     0.0346945229
| 18>  H       -1.1649838395    -0.7468482274    -2.1407235300
| 19>  H        0.3760159981    -0.9167629902    -1.2637401383
| 20>  H       -2.0316477443    -2.8110308557    -1.0584636899
| 21>  H        0.9647193969    -3.4291385528    -0.7807810445
| 22>  H       -0.3482181218    -4.5992342565    -0.5861172252
| 23>  H       -0.0600098212    -3.8447257484    -2.1581387390
| 24>  H       -1.9609877562    -2.3421849116     1.3313115759
| 25>  H        0.3046156772    -3.1979888407     1.8399055263
| 26>  H        1.0404288242    -1.8098900988     1.0320566191
| 27>  H       -0.0975104289    -0.5232449542     2.5773937710
| 28> *
| 29>
| 30>                          ****END OF INPUT****

CARTESIAN COORDINATES (ANGSTROEM)
---------------------------------
  C     -0.716900    1.722519    0.245432
  O     -0.578623    0.442642    0.824450
  C     -1.275623   -0.572749    0.133668
  C     -0.703430   -1.091521   -1.212331
  C     -1.024391   -2.535160   -0.727691
  C     -0.062357   -3.662772   -1.077664
  C     -1.111171   -1.990778    0.739548
  C      0.151727   -2.142186    1.590750
  O      0.035293   -1.448686    2.819396
  H     -0.149169    2.423724    0.861148
  H     -0.321478    1.748522   -0.779952
  H     -1.770460    2.040061    0.219844
  H     -2.335170   -0.292376    0.034695
  H     -1.164984   -0.746848   -2.140724
  H      0.376016   -0.916763   -1.263740
  H     -2.031648   -2.811031   -1.058464
  H      0.964719   -3.429139   -0.780781
  H     -0.348218   -4.599234   -0.586117
  H     -0.060010   -3.844726   -2.158139
  H     -1.960988   -2.342185    1.331312
  H      0.304616   -3.197989    1.839906
  H      1.040429   -1.809890    1.032057
  H     -0.097510   -0.523245    2.577394

 Total Charge           Charge          ....    0
 Multiplicity           Mult            ....    1
 Number of Electrons    NEL             ....   72
 Basis Dimension        Dim             ....  363

ORBITAL ENERGIES
----------------

  NO   OCC          E(Eh)            E(eV)
   0   2.0000     -20.567344      -559.6659
   1   2.0000     -20.531356      -558.6866
   2   2.0000     -11.283074      -307.0281
   3   2.0000     -11.279675      -306.9356
   4   2.0000     -11.262892      -306.4789
   5   2.0000     -11.234268      -305.7000
   6   2.0000     -11.223526      -305.4077
   7   2.0000     -11.223351      -305.4029
   8   2.0000     -11.217315      -305.2387
   9   2.0000      -1.388708       -37.7887
  10   2.0000      -1.338683       -36.4274
  11   2.0000      -1.138395       -30.9773
  12   2.0000      -0.991268       -26.9738
  13   2.0000      -0.956948       -26.0399
  14   2.0000      -0.936640       -25.4873
  15   2.0000      -0.852788       -23.2056
  16   2.0000      -0.826428       -22.4882
  17   2.0000      -0.742253       -20.1977
  18   2.0000      -0.697014       -18.9667
  19   2.0000      -0.665039       -18.0966
  20   2.0000      -0.660858       -17.9829
  21   2.0000      -0.635281       -17.2869
  22   2.0000      -0.628791       -17.1103
  23   2.0000      -0.589916       -16.0524
  24   2.0000      -0.572755       -15.5855
  25   2.0000      -0.561728       -15.2854
  26   2.0000      -0.558582       -15.1998
  27   2.0000      -0.548274       -14.9193
  28   2.0000      -0.511163       -13.9094
  29   2.0000      -0.509549       -13.8655
  30   2.0000      -0.485429       -13.2092
  31   2.0000      -0.473159       -12.8753
  32   2.0000      -0.446910       -12.1610
  33   2.0000      -0.429020       -11.6742
  34   2.0000      -0.414947       -11.2913
  35   2.0000      -0.409916       -11.1544
  36   0.0000       0.129557         3.5254
  37   0.0000       0.144530         3.9329
  38   0.0000       0.150694         4.1006
  39   0.0000       0.173201         4.7130
  40   0.0000       0.185877         5.0580

MULLIKEN ATOMIC CHARGES
-----------------------
   0 C :   -0.229794
   1 O :   -0.342039
   2 C :    0.062667
   3 C :   -0.287297
   4 C :   -0.043373
   5 C :   -0.422551
   6 C :   -0.054062
   7 C :   -0.056629
   8 O :   -0.488881
   9 H :    0.143455
  10 H :    0.121733
  11 H :    0.116727
  12 H :    0.084295
  13 H :    0.125795
  14 H :    0.116824
  15 H :    0.100737
  16 H :    0.127196
  17 H :    0.136861
  18 H :    0.134408
  19 H :    0.108076
  20 H :    0.115121
  21 H :    0.100941
  22 H :    0.329791
Sum of atomic charges:   -0.0000000

LOEWDIN ATOMIC CHARGES
----------------------
   0 C :   -0.349779
   1 O :    0.141723
   2 C :   -0.287808
   3 C :   -0.208029
   4 C :   -0.231099
   5 C :   -0.300071
   6 C :   -0.199941
   7 C :   -0.329558
   8 O :   -0.048901
   9 H :    0.114614
  10 H :    0.105684
  11 H :    0.104285
  12 H :    0.135080
  13 H :    0.123551
  14 H :    0.141120
  15 H :    0.150925
  16 H :    0.123543
  17 H :    0.125696
  18 H :    0.125604
  19 H :    0.143958
  20 H :    0.129297
  21 H :    0.118909
  22 H :    0.171196

  Mayer bond orders larger than 0.1
B(  0-C ,  1-O ) :   0.9079 B(  0-C ,  9-H ) :   0.9396 B(  0-C , 10-H ) :   0.9361
B(  0-C , 11-H ) :   0.9352 B(  1-O ,  2-C ) :   0.9188 B(  2-C ,  3-C ) :   0.9228
B(  2-C ,  6-C ) :   0.9061 B(  2-C , 12-H ) :   0.9420 B(  3-C ,  4-C ) :   0.9361
B(  3-C , 13-H ) :   0.9184 B(  3-C , 14-H ) :   0.9099 B(  4-C ,  5-C ) :   0.8797
B(  4-C ,  6-C ) :   0.8592 B(  4-C , 15-H ) :   0.9220 B(  5-C , 16-H ) :   0.9380
B(  5-C , 17-H ) :   0.9421 B(  5-C , 18-H ) :   0.9386 B(  6-C ,  7-C ) :   0.9231
B(  6-C , 19-H ) :   0.9153 B(  7-C ,  8-O ) :   0.9346 B(  7-C , 20-H ) :   0.9321
B(  7-C , 21-H ) :   0.9277 B(  8-O , 22-H ) :   0.8257

MP2 TOTAL ENERGY:     -424.704246911 Eh
FINAL SINGLE POINT ENERGY      -424.704246910663

DIPOLE MOMENT
-------------
                                X             Y             Z
Electronic contribution:     -0.66546       1.63915       5.05585
Nuclear contribution   :      0.31341      -1.21544      -6.19541
                        -----------------------------------------
Total Dipole Moment    :     -0.35206       0.42371      -1.13956
                        -----------------------------------------
Magnitude (a.u.)       :      1.26573
Magnitude (Debye)      :      3.21723

                             ****ORCA TERMINATED NORMALLY****
TOTAL RUN TIME: 0 days 0 hours 30 minutes 36 seconds 284 msec
