                         Program Version 3.0.3 - RELEASE   -
|  1> ! RI-MP2 RIJK def2-TZVP def2-TZVP/C def2-TZVP/JK TIGHTSCF
|  2> % maxcore 2000
|  3> % mp2 density relaxed end
|  4> *xyz 0 1
|  5>  C       -0.1189182333     1.5198552246    -0.0490815913
|  6>  C        0.0969590225     0.0276887032    -0.0521143576
|  7>  C        1.2682159275    -0.6552522401    -0.7882013490
|  8>  N        1.2080326100    -1.7679747424     0.2325751816
|  9>  C        0.6025944240    -0.7555195293     1.1771071408
| 10>  C        0.1221064758    -2.6635673697    -0.1809019453
| 11>  C       -1.1768263054    -1.9433537297    -0.5840881119
| 12>  O       -2.1706760052    -2.5048584921    -0.9493252638
| 13>  O       -1.1411745712    -0.5856801675    -0.5027457098
| 14>  H        0.7873483095     2.0335019842     0.2838542150
| 15>  H       -0.3732400530     1.8722233917    -1.0530325392
| 16>  H       -0.9403005166     1.7867867404     0.6223653441
| 17>  H        1.1117852060    -0.9545907375    -1.8282128155
| 18>  H        2.2115492798    -0.1113685687    -0.6926854003
| 19>  H        1.3933185782    -0.2346251801     1.7232162148
| 20>  H       -0.1429684714    -1.1436005852     1.8765549053
| 21>  H        0.4434146137    -3.2722027099    -1.0323781880
| 22>  H       -0.1199399010    -3.3570632520     0.6309876600
| 23> *
| 24>
| 25>                          ****END OF INPUT****

CARTESIAN COORDINATES (ANGSTROEM)
---------------------------------
  C     -0.118918    1.519855   -0.049082
  C      0.096959    0.027689   -0.052114
  C      1.268216   -0.655252   -0.788201
  N      1.208033   -1.767975    0.232575
  C      0.602594   -0.755520    1.177107
  C      0.122106   -2.663567   -0.180902
  C     -1.176826   -1.943354   -0.584088
  O     -2.170676   -2.504858   -0.949325
  O     -1.141175   -0.585680   -0.502746
  H      0.787348    2.033502    0.283854
  H     -0.373240    1.872223   -1.053033
  H     -0.940301    1.786787    0.622365
  H      1.111785   -0.954591   -1.828213
  H      2.211549   -0.111369   -0.692685
  H      1.393319   -0.234625    1.723216
  H     -0.142968   -1.143601    1.876555
  H      0.443415   -3.272203   -1.032378
  H     -0.119940   -3.357063    0.630988

 Total Charge           Charge          ....    0
 Multiplicity           Mult            ....    1
 Number of Electrons    NEL             ....   68
 Basis Dimension        Dim             ....  333

ORBITAL ENERGIES
----------------

  NO   OCC          E(Eh)            E(eV)
   0   2.0000     -20.601206      -560.5873
   1   2.0000     -20.539658      -558.9125
   2   2.0000     -15.579338      -423.9353
   3   2.0000     -11.379344      -309.6477
   4   2.0000     -11.319558      -308.0208
   5   2.0000     -11.280147      -306.9484
   6   2.0000     -11.275083      -306.8106
   7   2.0000     -11.275078      -306.8105
   8   2.0000     -11.237170      -305.7789
   9   2.0000      -1.459044       -39.7026
  10   2.0000      -1.367659       -37.2159
  11   2.0000      -1.268888       -34.5282
  12   2.0000      -1.077977       -29.3332
  13   2.0000      -0.988145       -26.8888
  14   2.0000      -0.948119       -25.7996
  15   2.0000      -0.890343       -24.2275
  16   2.0000      -0.845100       -22.9963
  17   2.0000      -0.752943       -20.4886
  18   2.0000      -0.691296       -18.8111
  19   2.0000      -0.675463       -18.3803
  20   2.0000      -0.667441       -18.1620
  21   2.0000      -0.647945       -17.6315
  22   2.0000      -0.645816       -17.5735
  23   2.0000      -0.597330       -16.2542
  24   2.0000      -0.571720       -15.5573
  25   2.0000      -0.567946       -15.4546
  26   2.0000      -0.566173       -15.4064
  27   2.0000      -0.551684       -15.0121
  28   2.0000      -0.510451       -13.8901
  29   2.0000      -0.504287       -13.7223
  30   2.0000      -0.492515       -13.4020
  31   2.0000      -0.464582       -12.6419
  32   2.0000      -0.438898       -11.9430
  33   2.0000      -0.378835       -10.3086
  34   0.0000       0.123437         3.3589
  35   0.0000       0.144846         3.9415
  36   0.0000       0.153808         4.1853
  37   0.0000       0.164811         4.4847
  38   0.0000       0.176088         4.7916

MULLIKEN ATOMIC CHARGES
-----------------------
   0 C :   -0.399091
   1 C :    0.237993
   2 C :   -0.228892
   3 N :   -0.158250
   4 C :   -0.228890
   5 C :   -0.205803
   6 C :    0.208094
   7 O :   -0.277132
   8 O :   -0.219054
   9 H :    0.130792
  10 H :    0.146715
  11 H :    0.146709
  12 H :    0.138184
  13 H :    0.129673
  14 H :    0.129674
  15 H :    0.138184
  16 H :    0.155547
  17 H :    0.155548
Sum of atomic charges:    0.0000000

LOEWDIN ATOMIC CHARGES
----------------------
   0 C :   -0.268459
   1 C :   -0.335652
   2 C :   -0.203370
   3 N :    0.077416
   4 C :   -0.203370
   5 C :   -0.269348
   6 C :   -0.474216
   7 O :    0.139735
   8 O :    0.288009
   9 H :    0.132200
  10 H :    0.135000
  11 H :    0.134998
  12 H :    0.132886
  13 H :    0.138325
  14 H :    0.138325
  15 H :    0.132887
  16 H :    0.152317
  17 H :    0.152317

  Mayer bond orders larger than 0.1
B(  0-C ,  1-C ) :   0.8982 B(  0-C ,  9-H ) :   0.9379 B(  0-C , 10-H ) :   0.9328
B(  0-C , 11-H ) :   0.9328 B(  1-C ,  2-C ) :   0.9311 B(  1-C ,  4-C ) :   0.9311
B(  1-C ,  8-O ) :   0.8055 B(  2-C ,  3-N ) :   0.9111 B(  2-C , 12-H ) :   0.9243
B(  2-C , 13-H ) :   0.9108 B(  3-N ,  4-C ) :   0.9111 B(  3-N ,  5-C ) :   0.9333
B(  4-C , 14-H ) :   0.9108 B(  4-C , 15-H ) :   0.9243 B(  5-C ,  6-C ) :   0.9158
B(  5-C , 16-H ) :   0.9144 B(  5-C , 17-H ) :   0.9144 B(  6-C ,  7-O ) :   2.0307
B(  6-C ,  8-O ) :   1.1276

MP2 TOTAL ENERGY:     -438.374769541 Eh
FINAL SINGLE POINT ENERGY      -438.374769540952

DIPOLE MOMENT
-------------
                                X             Y             Z
Electronic contribution:     -4.40099      -4.67887      -1.72931
Nuclear contribution   :      5.53358       5.52909       2.15627
                        -----------------------------------------
Total Dipole Moment    :      1.13259       0.85022       0.42696
                        -----------------------------------------
Magnitude (a.u.)       :      1.47917
Magnitude (Debye)      :      3.75975

                             ****ORCA TERMINATED NORMALLY****
TOTAL RUN TIME: 0 days 0 hours 18 minutes 7 seconds 590 msec
