                         Program Version 3.0.3 - RELEASE   -
|  1> ! RI-MP2 RIJK def2-TZVP def2-TZVP/C def2-TZVP/JK TIGHTSCF
|  2> % maxcore 2000
|  3> % mp2 density relaxed end
|  4> *xyz 0 1
|  5>  C        0.0890985370     1.4727892977     0.0635409795
|  6>  N       -0.0955933369     0.0281572110     0.0796698473
|  7>  C        0.5467407481    -0.7417592171     1.0127497016
|  8>  C        0.7151351831    -2.0995346307     1.1226392219
|  9>  C        0.2553791830    -3.1698623026     0.1830596936
| 10>  C        1.4165931354    -2.2251656408     2.3556811082
| 11>  C        1.8808396869    -3.4824990426     3.0194078483
| 12>  N        1.6474224844    -1.0688712500     2.9348749853
| 13>  O        1.0876831574    -0.1060572401     2.0596419178
| 14>  H        1.1206760952     1.7764678099    -0.1626944848
| 15>  H       -0.5788492576     1.8996936977    -0.6875104542
| 16>  H       -0.1782004543     1.8854943399     1.0383784289
| 17>  H       -0.1632471044    -0.4077317574    -0.8266452579
| 18>  H        1.0039505165    -3.4239808216    -0.5793576923
| 19>  H        0.0237484788    -4.0943893101     0.7215013038
| 20>  H       -0.6588777069    -2.8722828284    -0.3432311547
| 21>  H        2.5994665420    -4.0189748936     2.3905028691
| 22>  H        2.3584889617    -3.2471153822     3.9723290012
| 23>  H        1.0416145806    -4.1611111291     3.2075025577
| 24> *
| 25>
| 26>                          ****END OF INPUT****

CARTESIAN COORDINATES (ANGSTROEM)
---------------------------------
  C      0.089099    1.472789    0.063541
  N     -0.095593    0.028157    0.079670
  C      0.546741   -0.741759    1.012750
  C      0.715135   -2.099535    1.122639
  C      0.255379   -3.169862    0.183060
  C      1.416593   -2.225166    2.355681
  C      1.880840   -3.482499    3.019408
  N      1.647422   -1.068871    2.934875
  O      1.087683   -0.106057    2.059642
  H      1.120676    1.776468   -0.162694
  H     -0.578849    1.899694   -0.687510
  H     -0.178200    1.885494    1.038378
  H     -0.163247   -0.407732   -0.826645
  H      1.003951   -3.423981   -0.579358
  H      0.023748   -4.094389    0.721501
  H     -0.658878   -2.872283   -0.343231
  H      2.599467   -4.018975    2.390503
  H      2.358489   -3.247115    3.972329
  H      1.041615   -4.161111    3.207503

 Total Charge           Charge          ....    0
 Multiplicity           Mult            ....    1
 Number of Electrons    NEL             ....   68
 Basis Dimension        Dim             ....  339

ORBITAL ENERGIES
----------------

  NO   OCC          E(Eh)            E(eV)
   0   2.0000     -20.619319      -561.0802
   1   2.0000     -15.588141      -424.1749
   2   2.0000     -15.587217      -424.1497
   3   2.0000     -11.338744      -308.5429
   4   2.0000     -11.270706      -306.6915
   5   2.0000     -11.265780      -306.5575
   6   2.0000     -11.233585      -305.6814
   7   2.0000     -11.230530      -305.5983
   8   2.0000     -11.212560      -305.1093
   9   2.0000      -1.471369       -40.0380
  10   2.0000      -1.252659       -34.0866
  11   2.0000      -1.155245       -31.4358
  12   2.0000      -1.064762       -28.9736
  13   2.0000      -0.977073       -26.5875
  14   2.0000      -0.959734       -26.1157
  15   2.0000      -0.921245       -25.0683
  16   2.0000      -0.796729       -21.6801
  17   2.0000      -0.758177       -20.6310
  18   2.0000      -0.708613       -19.2824
  19   2.0000      -0.664587       -18.0843
  20   2.0000      -0.647610       -17.6224
  21   2.0000      -0.614411       -16.7190
  22   2.0000      -0.599500       -16.3132
  23   2.0000      -0.574931       -15.6447
  24   2.0000      -0.568935       -15.4815
  25   2.0000      -0.567434       -15.4407
  26   2.0000      -0.559265       -15.2184
  27   2.0000      -0.545625       -14.8472
  28   2.0000      -0.529121       -14.3981
  29   2.0000      -0.522610       -14.2209
  30   2.0000      -0.457632       -12.4528
  31   2.0000      -0.451543       -12.2871
  32   2.0000      -0.397309       -10.8113
  33   2.0000      -0.302863        -8.2413
  34   0.0000       0.120656         3.2832
  35   0.0000       0.142135         3.8677
  36   0.0000       0.156476         4.2579
  37   0.0000       0.167386         4.5548
  38   0.0000       0.186268         5.0686

MULLIKEN ATOMIC CHARGES
-----------------------
   0 C :   -0.283551
   1 N :   -0.356965
   2 C :    0.286102
   3 C :   -0.111385
   4 C :   -0.430392
   5 C :    0.093931
   6 C :   -0.450978
   7 N :   -0.145617
   8 O :   -0.147806
   9 H :    0.133807
  10 H :    0.139392
  11 H :    0.156455
  12 H :    0.241947
  13 H :    0.149919
  14 H :    0.145557
  15 H :    0.137224
  16 H :    0.142639
  17 H :    0.159101
  18 H :    0.140620
Sum of atomic charges:   -0.0000000

LOEWDIN ATOMIC CHARGES
----------------------
   0 C :   -0.318062
   1 N :    0.053813
   2 C :   -0.341951
   3 C :   -0.200665
   4 C :   -0.276938
   5 C :   -0.299144
   6 C :   -0.267864
   7 N :    0.038676
   8 O :    0.272392
   9 H :    0.111063
  10 H :    0.118819
  11 H :    0.125596
  12 H :    0.188436
  13 H :    0.128975
  14 H :    0.134126
  15 H :    0.129381
  16 H :    0.132834
  17 H :    0.138272
  18 H :    0.132241

  Mayer bond orders larger than 0.1
B(  0-C ,  1-N ) :   0.8952 B(  0-C ,  9-H ) :   0.9332 B(  0-C , 10-H ) :   0.9332
B(  0-C , 11-H ) :   0.9343 B(  1-N ,  2-C ) :   1.1154 B(  1-N , 12-H ) :   0.8727
B(  2-C ,  3-C ) :   1.4207 B(  2-C ,  8-O ) :   1.1351 B(  3-C ,  4-C ) :   0.8566
B(  3-C ,  5-C ) :   1.2221 B(  4-C , 13-H ) :   0.9337 B(  4-C , 14-H ) :   0.9414
B(  4-C , 15-H ) :   0.9431 B(  5-C ,  6-C ) :   0.8628 B(  5-C ,  7-N ) :   1.6637
B(  6-C , 16-H ) :   0.9320 B(  6-C , 17-H ) :   0.9479 B(  6-C , 18-H ) :   0.9355
B(  7-N ,  8-O ) :   0.8331

MP2 TOTAL ENERGY:     -418.495784263 Eh
FINAL SINGLE POINT ENERGY      -418.495784262857

DIPOLE MOMENT
-------------
                                X             Y             Z
Electronic contribution:      1.17192       3.68344       3.58471
Nuclear contribution   :     -1.61703      -3.99805      -4.97169
                        -----------------------------------------
Total Dipole Moment    :     -0.44511      -0.31461      -1.38699
                        -----------------------------------------
Magnitude (a.u.)       :      1.49025
Magnitude (Debye)      :      3.78791

                             ****ORCA TERMINATED NORMALLY****
TOTAL RUN TIME: 0 days 0 hours 20 minutes 1 seconds 514 msec
