                         Program Version 3.0.3 - RELEASE   -
|  1> ! RI-MP2 RIJK def2-TZVP def2-TZVP/C def2-TZVP/JK TIGHTSCF
|  2> % maxcore 2000
|  3> % mp2 density relaxed end
|  4> *xyz 0 1
|  5>  C       -0.0049580670     1.5808545476    -0.0274858568
|  6>  C        0.0608017092     0.0523297193     0.0250935030
|  7>  C        0.7987925320    -0.5987976196    -1.1709056251
|  8>  C        1.5501020162    -1.8235490231    -0.6134757817
|  9>  O        2.8037567546    -1.9410298361    -1.2716962086
| 10>  C        1.6479930543    -1.5151107904     0.8640287306
| 11>  C        0.8405792344    -0.5065162984     1.2125006713
| 12>  C        0.6642685085    -0.0104083563     2.5343052673
| 13>  N        0.4933023572     0.4184387750     3.5970439367
| 14>  H        1.0000281928     2.0131195132    -0.0739612499
| 15>  H       -0.5566461392     1.9098800369    -0.9135035636
| 16>  H       -0.5087313636     1.9874698139     0.8545212824
| 17>  H       -0.9666314756    -0.3334610006     0.0828354145
| 18>  H        0.1309349421    -0.8500460957    -1.9972918238
| 19>  H        1.5601190651     0.0902508860    -1.5517487332
| 20>  H        0.9647112504    -2.7476016721    -0.7551801353
| 21>  H        3.1891509367    -2.7940200244    -1.0479071612
| 22>  H        2.2739920419    -2.0785841451     1.5467455933
| 23> *
| 24>
| 25>                          ****END OF INPUT****

CARTESIAN COORDINATES (ANGSTROEM)
---------------------------------
  C     -0.004958    1.580855   -0.027486
  C      0.060802    0.052330    0.025094
  C      0.798793   -0.598798   -1.170906
  C      1.550102   -1.823549   -0.613476
  O      2.803757   -1.941030   -1.271696
  C      1.647993   -1.515111    0.864029
  C      0.840579   -0.506516    1.212501
  C      0.664269   -0.010408    2.534305
  N      0.493302    0.418439    3.597044
  H      1.000028    2.013120   -0.073961
  H     -0.556646    1.909880   -0.913504
  H     -0.508731    1.987470    0.854521
  H     -0.966631   -0.333461    0.082835
  H      0.130935   -0.850046   -1.997292
  H      1.560119    0.090251   -1.551749
  H      0.964711   -2.747602   -0.755180
  H      3.189151   -2.794020   -1.047907
  H      2.273992   -2.078584    1.546746

 Total Charge           Charge          ....    0
 Multiplicity           Mult            ....    1
 Number of Electrons    NEL             ....   66
 Basis Dimension        Dim             ....  333

ORBITAL ENERGIES
----------------

  NO   OCC          E(Eh)            E(eV)
   0   2.0000     -20.576003      -559.9015
   1   2.0000     -15.574390      -423.8007
   2   2.0000     -11.308389      -307.7169
   3   2.0000     -11.280963      -306.9706
   4   2.0000     -11.276883      -306.8596
   5   2.0000     -11.268389      -306.6284
   6   2.0000     -11.259605      -306.3894
   7   2.0000     -11.238681      -305.8200
   8   2.0000     -11.227566      -305.5176
   9   2.0000      -1.382248       -37.6129
  10   2.0000      -1.222956       -33.2783
  11   2.0000      -1.165795       -31.7229
  12   2.0000      -1.034130       -28.1401
  13   2.0000      -1.007720       -27.4215
  14   2.0000      -0.909773       -24.7562
  15   2.0000      -0.827894       -22.5281
  16   2.0000      -0.805187       -21.9103
  17   2.0000      -0.728697       -19.8289
  18   2.0000      -0.707943       -19.2641
  19   2.0000      -0.659270       -17.9396
  20   2.0000      -0.617520       -16.8036
  21   2.0000      -0.599570       -16.3151
  22   2.0000      -0.576978       -15.7004
  23   2.0000      -0.559168       -15.2157
  24   2.0000      -0.554414       -15.0864
  25   2.0000      -0.534124       -14.5342
  26   2.0000      -0.525808       -14.3080
  27   2.0000      -0.514395       -13.9974
  28   2.0000      -0.487616       -13.2687
  29   2.0000      -0.482292       -13.1238
  30   2.0000      -0.469913       -12.7870
  31   2.0000      -0.454582       -12.3698
  32   2.0000      -0.373961       -10.1760
  33   0.0000       0.088383         2.4050
  34   0.0000       0.119746         3.2585
  35   0.0000       0.134915         3.6712
  36   0.0000       0.156871         4.2687
  37   0.0000       0.167319         4.5530

MULLIKEN ATOMIC CHARGES
-----------------------
   0 C :   -0.421522
   1 C :   -0.021784
   2 C :   -0.246598
   3 C :    0.127817
   4 O :   -0.457086
   5 C :   -0.228857
   6 C :    0.144354
   7 C :   -0.226498
   8 N :   -0.047053
   9 H :    0.135633
  10 H :    0.139618
  11 H :    0.152021
  12 H :    0.112293
  13 H :    0.134034
  14 H :    0.128589
  15 H :    0.099141
  16 H :    0.318869
  17 H :    0.157030
Sum of atomic charges:   -0.0000000

LOEWDIN ATOMIC CHARGES
----------------------
   0 C :   -0.282838
   1 C :   -0.213529
   2 C :   -0.186949
   3 C :   -0.322213
   4 O :   -0.015920
   5 C :   -0.067980
   6 C :   -0.138000
   7 C :   -0.150884
   8 N :    0.076402
   9 H :    0.128492
  10 H :    0.127838
  11 H :    0.130634
  12 H :    0.161624
  13 H :    0.137925
  14 H :    0.153562
  15 H :    0.139814
  16 H :    0.175590
  17 H :    0.146431

  Mayer bond orders larger than 0.1
B(  0-C ,  1-C ) :   0.9058 B(  0-C ,  9-H ) :   0.9309 B(  0-C , 10-H ) :   0.9347
B(  0-C , 11-H ) :   0.9341 B(  1-C ,  2-C ) :   0.9355 B(  1-C ,  6-C ) :   0.8837
B(  1-C , 12-H ) :   0.9119 B(  2-C ,  3-C ) :   0.9376 B(  2-C , 13-H ) :   0.9278
B(  2-C , 14-H ) :   0.9191 B(  3-C ,  4-O ) :   1.0377 B(  3-C ,  5-C ) :   0.9257
B(  3-C , 15-H ) :   0.9366 B(  4-O , 16-H ) :   0.8442 B(  5-C ,  6-C ) :   1.6603
B(  5-C , 17-H ) :   0.8993 B(  6-C ,  7-C ) :   0.9009 B(  7-C ,  8-N ) :   2.8499

MP2 TOTAL ENERGY:     -401.287747435 Eh
FINAL SINGLE POINT ENERGY      -401.287747435368

DIPOLE MOMENT
-------------
                                X             Y             Z
Electronic contribution:      1.88633      -2.55920       6.55683
Nuclear contribution   :     -1.94326       1.59830      -7.74456
                        -----------------------------------------
Total Dipole Moment    :     -0.05693      -0.96091      -1.18773
                        -----------------------------------------
Magnitude (a.u.)       :      1.52882
Magnitude (Debye)      :      3.88595

                             ****ORCA TERMINATED NORMALLY****
TOTAL RUN TIME: 0 days 0 hours 18 minutes 33 seconds 900 msec
