                         Program Version 3.0.3 - RELEASE   -
|  1> ! RI-MP2 RIJK def2-TZVP def2-TZVP/C def2-TZVP/JK TIGHTSCF
|  2> % maxcore 2000
|  3> % mp2 density relaxed end
|  4> *xyz 0 1
|  5>  C        0.0990557566     1.4730437457     0.0483895316
|  6>  C        0.0628022873    -0.0261835743    -0.0038926233
|  7>  C        0.2259222053    -0.7218463961    -1.1419040978
|  8>  C        0.1754290045    -2.1917105483    -1.2196440249
|  9>  O        0.5070035116    -2.7891551890    -2.2251724399
| 10>  C       -0.3936525959    -2.9521212365    -0.0186056928
| 11>  C       -0.3310579582    -2.2117510796     1.2951652938
| 12>  N        0.9749884117    -1.6670073513     1.6801111012
| 13>  C       -0.1220665903    -0.7366948986     1.2892002007
| 14>  H        0.9139922944     1.8170217439     0.6978510028
| 15>  H        0.2368375267     1.9103837294    -0.9427144393
| 16>  H       -0.8298197189     1.8711361729     0.4764353720
| 17>  H        0.4258479023    -0.2193048748    -2.0837306491
| 18>  H       -1.4428554972    -3.1691335585    -0.2612439423
| 19>  H        0.1178076614    -3.9172372261     0.0430909722
| 20>  H       -0.9591126566    -2.6128337762     2.0881962196
| 21>  H        1.0674582820    -1.6718418264     2.6935202159
| 22>  H       -0.5786059768    -0.1537354961     2.0851977395
| 23> *
| 24>
| 25>                          ****END OF INPUT****

CARTESIAN COORDINATES (ANGSTROEM)
---------------------------------
  C      0.099056    1.473044    0.048390
  C      0.062802   -0.026184   -0.003893
  C      0.225922   -0.721846   -1.141904
  C      0.175429   -2.191711   -1.219644
  O      0.507004   -2.789155   -2.225172
  C     -0.393653   -2.952121   -0.018606
  C     -0.331058   -2.211751    1.295165
  N      0.974988   -1.667007    1.680111
  C     -0.122067   -0.736695    1.289200
  H      0.913992    1.817022    0.697851
  H      0.236838    1.910384   -0.942714
  H     -0.829820    1.871136    0.476435
  H      0.425848   -0.219305   -2.083731
  H     -1.442855   -3.169134   -0.261244
  H      0.117808   -3.917237    0.043091
  H     -0.959113   -2.612834    2.088196
  H      1.067458   -1.671842    2.693520
  H     -0.578606   -0.153735    2.085198

 Total Charge           Charge          ....    0
 Multiplicity           Mult            ....    1
 Number of Electrons    NEL             ....   66
 Basis Dimension        Dim             ....  333

ORBITAL ENERGIES
----------------

  NO   OCC          E(Eh)            E(eV)
   0   2.0000     -20.529028      -558.6232
   1   2.0000     -15.576933      -423.8699
   2   2.0000     -11.322786      -308.1087
   3   2.0000     -11.280975      -306.9709
   4   2.0000     -11.280069      -306.9463
   5   2.0000     -11.270807      -306.6943
   6   2.0000     -11.241318      -305.8918
   7   2.0000     -11.238776      -305.8226
   8   2.0000     -11.228200      -305.5349
   9   2.0000      -1.372088       -37.3364
  10   2.0000      -1.284830       -34.9620
  11   2.0000      -1.108023       -30.1508
  12   2.0000      -1.036315       -28.1996
  13   2.0000      -0.965584       -26.2749
  14   2.0000      -0.916519       -24.9398
  15   2.0000      -0.838196       -22.8085
  16   2.0000      -0.796818       -21.6825
  17   2.0000      -0.735091       -20.0028
  18   2.0000      -0.679726       -18.4963
  19   2.0000      -0.663563       -18.0565
  20   2.0000      -0.638856       -17.3842
  21   2.0000      -0.604403       -16.4466
  22   2.0000      -0.591568       -16.0974
  23   2.0000      -0.577236       -15.7074
  24   2.0000      -0.569028       -15.4840
  25   2.0000      -0.548199       -14.9173
  26   2.0000      -0.522946       -14.2301
  27   2.0000      -0.515298       -14.0220
  28   2.0000      -0.497495       -13.5375
  29   2.0000      -0.471369       -12.8266
  30   2.0000      -0.411415       -11.1952
  31   2.0000      -0.403387       -10.9767
  32   2.0000      -0.358027        -9.7424
  33   0.0000       0.093050         2.5320
  34   0.0000       0.119663         3.2562
  35   0.0000       0.142002         3.8641
  36   0.0000       0.161440         4.3930
  37   0.0000       0.176096         4.7918

MULLIKEN ATOMIC CHARGES
-----------------------
   0 C :   -0.440751
   1 C :    0.069237
   2 C :   -0.194995
   3 C :    0.156813
   4 O :   -0.294687
   5 C :   -0.151748
   6 C :   -0.090809
   7 N :   -0.385177
   8 C :    0.009594
   9 H :    0.150196
  10 H :    0.146245
  11 H :    0.144986
  12 H :    0.127730
  13 H :    0.130570
  14 H :    0.132836
  15 H :    0.130331
  16 H :    0.219828
  17 H :    0.139801
Sum of atomic charges:   -0.0000000

LOEWDIN ATOMIC CHARGES
----------------------
   0 C :   -0.260861
   1 C :   -0.147195
   2 C :   -0.104078
   3 C :   -0.315081
   4 O :    0.140630
   5 C :   -0.205105
   6 C :   -0.250626
   7 N :    0.019420
   8 C :   -0.207893
   9 H :    0.137441
  10 H :    0.132594
  11 H :    0.134596
  12 H :    0.155010
  13 H :    0.160161
  14 H :    0.157514
  15 H :    0.140036
  16 H :    0.168615
  17 H :    0.144822

  Mayer bond orders larger than 0.1
B(  0-C ,  1-C ) :   0.8820 B(  0-C ,  9-H ) :   0.9226 B(  0-C , 10-H ) :   0.9470
B(  0-C , 11-H ) :   0.9334 B(  1-C ,  2-C ) :   1.6306 B(  1-C ,  8-C ) :   0.9271
B(  2-C ,  3-C ) :   1.0121 B(  2-C , 12-H ) :   0.9239 B(  3-C ,  4-O ) :   1.9652
B(  3-C ,  5-C ) :   0.9275 B(  5-C ,  6-C ) :   0.9111 B(  5-C , 13-H ) :   0.8965
B(  5-C , 14-H ) :   0.8951 B(  6-C ,  7-N ) :   0.9600 B(  6-C ,  8-C ) :   0.8952
B(  6-C , 15-H ) :   0.9282 B(  7-N ,  8-C ) :   0.8572 B(  7-N , 16-H ) :   0.8666
B(  8-C , 17-H ) :   0.9185

MP2 TOTAL ENERGY:     -401.264902651 Eh
FINAL SINGLE POINT ENERGY      -401.264902650980

DIPOLE MOMENT
-------------
                                X             Y             Z
Electronic contribution:      1.33734      -4.49592      -3.23430
Nuclear contribution   :     -2.16009       5.36260       4.76814
                        -----------------------------------------
Total Dipole Moment    :     -0.82275       0.86668       1.53385
                        -----------------------------------------
Magnitude (a.u.)       :      1.94441
Magnitude (Debye)      :      4.94230

                             ****ORCA TERMINATED NORMALLY****
TOTAL RUN TIME: 0 days 0 hours 18 minutes 58 seconds 132 msec
