                         Program Version 3.0.3 - RELEASE   -
|  1> ! RI-MP2 RIJK def2-TZVP def2-TZVP/C def2-TZVP/JK TIGHTSCF
|  2> % maxcore 2000
|  3> % mp2 density relaxed end
|  4> *xyz 0 1
|  5>  O        0.1479747745     1.2874516257     0.1843760895
|  6>  C       -0.0345334880    -0.1194664344     0.1280450249
|  7>  C       -1.4910373359    -0.4625737309    -0.1037189580
|  8>  C       -2.5645916076     0.5614185366     0.0361839683
|  9>  N       -2.2385003022    -0.0006525295    -1.2740838187
| 10>  C       -1.6181001116     0.8409514190    -2.2651316941
| 11>  C       -1.0592380114     0.1380471650    -3.4915594845
| 12>  C       -2.3760259969     0.8736150747    -3.5700015148
| 13>  O       -3.5658721106     0.1585252518    -3.6579749908
| 14>  H        1.0898135239     1.4709731761     0.1242012040
| 15>  H        0.5724471219    -0.5647085650    -0.6751923563
| 16>  H        0.2751371224    -0.5932789247     1.0734774185
| 17>  H       -1.7184492840    -1.4920019077     0.1703815167
| 18>  H       -3.5355921885     0.2913288621     0.4422447132
| 19>  H       -2.2397272412     1.5776038492     0.2390102052
| 20>  H       -1.1089097251     1.7338285121    -1.9134703987
| 21>  H       -0.1805327543     0.5622755287    -3.9660045292
| 22>  H       -1.1158888739    -0.9451647578    -3.5059298599
| 23>  H       -2.4179282282     1.8064569247    -4.1240680786
| 24>  H       -3.6342030034    -0.3137107856    -2.8126969965
| 25> *
| 26>
| 27>                          ****END OF INPUT****

CARTESIAN COORDINATES (ANGSTROEM)
---------------------------------
  O      0.147975    1.287452    0.184376
  C     -0.034533   -0.119466    0.128045
  C     -1.491037   -0.462574   -0.103719
  C     -2.564592    0.561419    0.036184
  N     -2.238500   -0.000653   -1.274084
  C     -1.618100    0.840951   -2.265132
  C     -1.059238    0.138047   -3.491559
  C     -2.376026    0.873615   -3.570002
  O     -3.565872    0.158525   -3.657975
  H      1.089814    1.470973    0.124201
  H      0.572447   -0.564709   -0.675192
  H      0.275137   -0.593279    1.073477
  H     -1.718449   -1.492002    0.170382
  H     -3.535592    0.291329    0.442245
  H     -2.239727    1.577604    0.239010
  H     -1.108910    1.733829   -1.913470
  H     -0.180533    0.562276   -3.966005
  H     -1.115889   -0.945165   -3.505930
  H     -2.417928    1.806457   -4.124068
  H     -3.634203   -0.313711   -2.812697

 Total Charge           Charge          ....    0
 Multiplicity           Mult            ....    1
 Number of Electrons    NEL             ....   70
 Basis Dimension        Dim             ....  345

ORBITAL ENERGIES
----------------

  NO   OCC          E(Eh)            E(eV)
   0   2.0000     -20.571095      -559.7679
   1   2.0000     -20.537942      -558.8658
   2   2.0000     -15.566541      -423.5871
   3   2.0000     -11.293436      -307.3100
   4   2.0000     -11.270859      -306.6957
   5   2.0000     -11.267208      -306.5963
   6   2.0000     -11.255840      -306.2870
   7   2.0000     -11.252095      -306.1851
   8   2.0000     -11.215924      -305.2008
   9   2.0000      -1.377911       -37.4949
  10   2.0000      -1.355339       -36.8807
  11   2.0000      -1.277031       -34.7498
  12   2.0000      -1.116048       -30.3692
  13   2.0000      -0.986423       -26.8419
  14   2.0000      -0.911279       -24.7972
  15   2.0000      -0.823972       -22.4214
  16   2.0000      -0.808752       -22.0072
  17   2.0000      -0.758908       -20.6509
  18   2.0000      -0.729592       -19.8532
  19   2.0000      -0.698344       -19.0029
  20   2.0000      -0.675028       -18.3684
  21   2.0000      -0.645363       -17.5612
  22   2.0000      -0.628282       -17.0964
  23   2.0000      -0.611615       -16.6429
  24   2.0000      -0.569884       -15.5073
  25   2.0000      -0.558076       -15.1860
  26   2.0000      -0.533539       -14.5183
  27   2.0000      -0.533266       -14.5109
  28   2.0000      -0.521033       -14.1780
  29   2.0000      -0.510151       -13.8819
  30   2.0000      -0.469775       -12.7832
  31   2.0000      -0.455057       -12.3827
  32   2.0000      -0.403125       -10.9696
  33   2.0000      -0.387899       -10.5553
  34   2.0000      -0.359381        -9.7793
  35   0.0000       0.122636         3.3371
  36   0.0000       0.152369         4.1462
  37   0.0000       0.167657         4.5622
  38   0.0000       0.174275         4.7423
  39   0.0000       0.186146         5.0653

MULLIKEN ATOMIC CHARGES
-----------------------
   0 O :   -0.482792
   1 C :   -0.060591
   2 C :   -0.083090
   3 C :   -0.175954
   4 N :   -0.267352
   5 C :   -0.059574
   6 C :   -0.268120
   7 C :    0.090769
   8 O :   -0.477167
   9 H :    0.319732
  10 H :    0.116453
  11 H :    0.113372
  12 H :    0.123177
  13 H :    0.136223
  14 H :    0.148739
  15 H :    0.126722
  16 H :    0.122245
  17 H :    0.132565
  18 H :    0.114497
  19 H :    0.330148
Sum of atomic charges:    0.0000000

LOEWDIN ATOMIC CHARGES
----------------------
   0 O :   -0.041195
   1 C :   -0.331622
   2 C :   -0.258177
   3 C :   -0.227167
   4 N :    0.125109
   5 C :   -0.267745
   6 C :   -0.222259
   7 C :   -0.318314
   8 O :   -0.007830
   9 H :    0.175204
  10 H :    0.125735
  11 H :    0.125205
  12 H :    0.145725
  13 H :    0.123982
  14 H :    0.133580
  15 H :    0.139315
  16 H :    0.129982
  17 H :    0.138214
  18 H :    0.134757
  19 H :    0.177499

  Mayer bond orders larger than 0.1
B(  0-O ,  1-C ) :   0.9759 B(  0-O ,  9-H ) :   0.8442 B(  1-C ,  2-C ) :   0.9269
B(  1-C , 10-H ) :   0.9258 B(  1-C , 11-H ) :   0.9265 B(  2-C ,  3-C ) :   0.9497
B(  2-C ,  4-N ) :   0.9284 B(  2-C , 12-H ) :   0.9169 B(  3-C ,  4-N ) :   0.8415
B(  3-C , 13-H ) :   0.9208 B(  3-C , 14-H ) :   0.9155 B(  4-N ,  5-C ) :   0.8754
B(  5-C ,  6-C ) :   0.8779 B(  5-C ,  7-C ) :   0.8810 B(  5-C , 15-H ) :   0.9187
B(  6-C ,  7-C ) :   0.8739 B(  6-C , 16-H ) :   0.9167 B(  6-C , 17-H ) :   0.9200
B(  7-C ,  8-O ) :   1.0096 B(  7-C , 18-H ) :   0.9477 B(  8-O , 19-H ) :   0.8052

MP2 TOTAL ENERGY:     -439.502565320 Eh
FINAL SINGLE POINT ENERGY      -439.502565319691

DIPOLE MOMENT
-------------
                                X             Y             Z
Electronic contribution:     -2.30725       0.50401      -0.96077
Nuclear contribution   :      3.62486      -0.56716       1.93493
                        -----------------------------------------
Total Dipole Moment    :      1.31760      -0.06315       0.97416
                        -----------------------------------------
Magnitude (a.u.)       :      1.63983
Magnitude (Debye)      :      4.16812

                             ****ORCA TERMINATED NORMALLY****
TOTAL RUN TIME: 0 days 0 hours 26 minutes 8 seconds 472 msec
