                         Program Version 3.0.3 - RELEASE   -
|  1> ! RI-MP2 RIJK def2-TZVP def2-TZVP/C def2-TZVP/JK TIGHTSCF
|  2> % maxcore 2000
|  3> % mp2 density relaxed end
|  4> *xyz 0 1
|  5>  C       -0.2652852473     1.4790513398    -0.6173395115
|  6>  C       -0.1101113416     0.0346742097    -0.1749404773
|  7>  O       -1.4006078042    -0.5204175510    -0.0006049617
|  8>  C       -1.3549891817    -1.8705046577     0.4136039332
|  9>  C       -2.7056053361    -2.3922331365     0.5768869707
| 10>  C       -3.8140762927    -2.8339113728     0.7329616255
| 11>  C       -5.1503566351    -3.3934244601     0.8650731292
| 12>  C       -5.5302052522    -4.2874785552    -0.3181411201
| 13>  O       -6.1714569807    -5.2964523593    -0.2100551127
| 14>  H        0.7162697474     1.9398526196    -0.7626066652
| 15>  H       -0.8185946762     1.5339318563    -1.5589374257
| 16>  H       -0.8118438302     2.0537243494     0.1355109295
| 17>  H        0.4538365443    -0.5440527854    -0.9265227165
| 18>  H        0.4592557622    -0.0242499238     0.7685167077
| 19>  H       -0.8068660915    -2.4829702550    -0.3239863380
| 20>  H       -0.8043498868    -1.9651092541     1.3661622851
| 21>  H       -5.2741634302    -3.9714752285     1.7866768191
| 22>  H       -5.8925913581    -2.5807633352     0.8969185835
| 23>  H       -5.1723009094    -3.9161553402    -1.3027808948
| 24> *
| 25>
| 26>                          ****END OF INPUT****

CARTESIAN COORDINATES (ANGSTROEM)
---------------------------------
  C     -0.265285    1.479051   -0.617340
  C     -0.110111    0.034674   -0.174940
  O     -1.400608   -0.520418   -0.000605
  C     -1.354989   -1.870505    0.413604
  C     -2.705605   -2.392233    0.576887
  C     -3.814076   -2.833911    0.732962
  C     -5.150357   -3.393424    0.865073
  C     -5.530205   -4.287479   -0.318141
  O     -6.171457   -5.296452   -0.210055
  H      0.716270    1.939853   -0.762607
  H     -0.818595    1.533932   -1.558937
  H     -0.811844    2.053724    0.135511
  H      0.453837   -0.544053   -0.926523
  H      0.459256   -0.024250    0.768517
  H     -0.806866   -2.482970   -0.323986
  H     -0.804350   -1.965109    1.366162
  H     -5.274163   -3.971475    1.786677
  H     -5.892591   -2.580763    0.896919
  H     -5.172301   -3.916155   -1.302781

 Total Charge           Charge          ....    0
 Multiplicity           Mult            ....    1
 Number of Electrons    NEL             ....   68
 Basis Dimension        Dim             ....  339

ORBITAL ENERGIES
----------------

  NO   OCC          E(Eh)            E(eV)
   0   2.0000     -20.568343      -559.6931
   1   2.0000     -20.565772      -559.6231
   2   2.0000     -11.342944      -308.6572
   3   2.0000     -11.312082      -307.8174
   4   2.0000     -11.285076      -307.0825
   5   2.0000     -11.272634      -306.7440
   6   2.0000     -11.241721      -305.9028
   7   2.0000     -11.236810      -305.7691
   8   2.0000     -11.221290      -305.3468
   9   2.0000      -1.406440       -38.2712
  10   2.0000      -1.390657       -37.8417
  11   2.0000      -1.094809       -29.7913
  12   2.0000      -1.049347       -28.5542
  13   2.0000      -1.001898       -27.2630
  14   2.0000      -0.929460       -25.2919
  15   2.0000      -0.843675       -22.9576
  16   2.0000      -0.816865       -22.2280
  17   2.0000      -0.712976       -19.4011
  18   2.0000      -0.688628       -18.7385
  19   2.0000      -0.677523       -18.4363
  20   2.0000      -0.676149       -18.3989
  21   2.0000      -0.644339       -17.5333
  22   2.0000      -0.638403       -17.3718
  23   2.0000      -0.605863       -16.4864
  24   2.0000      -0.599258       -16.3066
  25   2.0000      -0.551134       -14.9971
  26   2.0000      -0.539007       -14.6671
  27   2.0000      -0.522842       -14.2273
  28   2.0000      -0.517970       -14.0947
  29   2.0000      -0.493101       -13.4180
  30   2.0000      -0.446957       -12.1623
  31   2.0000      -0.437743       -11.9116
  32   2.0000      -0.392981       -10.6936
  33   2.0000      -0.381981       -10.3942
  34   0.0000       0.121493         3.3060
  35   0.0000       0.132679         3.6104
  36   0.0000       0.147076         4.0021
  37   0.0000       0.156261         4.2521
  38   0.0000       0.168661         4.5895

MULLIKEN ATOMIC CHARGES
-----------------------
   0 C :   -0.365452
   1 C :   -0.047319
   2 O :   -0.276099
   3 C :   -0.228873
   4 C :   -0.011383
   5 C :    0.059541
   6 C :   -0.234794
   7 C :    0.117899
   8 O :   -0.254344
   9 H :    0.123867
  10 H :    0.131964
  11 H :    0.132202
  12 H :    0.092534
  13 H :    0.092753
  14 H :    0.127166
  15 H :    0.126963
  16 H :    0.154453
  17 H :    0.166720
  18 H :    0.092202
Sum of atomic charges:   -0.0000000

LOEWDIN ATOMIC CHARGES
----------------------
   0 C :   -0.315118
   1 C :   -0.352442
   2 O :    0.163115
   3 C :   -0.315167
   4 C :   -0.064111
   5 C :   -0.074831
   6 C :   -0.244223
   7 C :   -0.274922
   8 O :    0.141924
   9 H :    0.125045
  10 H :    0.125074
  11 H :    0.125145
  12 H :    0.116526
  13 H :    0.116579
  14 H :    0.137232
  15 H :    0.137820
  16 H :    0.163437
  17 H :    0.173028
  18 H :    0.115891

  Mayer bond orders larger than 0.1
B(  0-C ,  1-C ) :   0.9519 B(  0-C ,  9-H ) :   0.9328 B(  0-C , 10-H ) :   0.9361
B(  0-C , 11-H ) :   0.9361 B(  1-C ,  2-O ) :   0.9138 B(  1-C , 12-H ) :   0.9238
B(  1-C , 13-H ) :   0.9241 B(  2-O ,  3-C ) :   1.0452 B(  3-C ,  4-C ) :   1.0360
B(  3-C , 14-H ) :   0.9349 B(  3-C , 15-H ) :   0.9355 B(  4-C ,  5-C ) :   2.7071
B(  5-C ,  6-C ) :   0.8753 B(  6-C ,  7-C ) :   0.8892 B(  6-C , 16-H ) :   0.9087
B(  6-C , 17-H ) :   0.9244 B(  7-C ,  8-O ) :   2.0016 B(  7-C , 18-H ) :   0.9289

MP2 TOTAL ENERGY:     -422.271397956 Eh
FINAL SINGLE POINT ENERGY      -422.271397955778

DIPOLE MOMENT
-------------
                                X             Y             Z
Electronic contribution:     -9.48154      -9.46301       1.10045
Nuclear contribution   :     10.39657      10.14867      -1.00799
                        -----------------------------------------
Total Dipole Moment    :      0.91503       0.68566       0.09247
                        -----------------------------------------
Magnitude (a.u.)       :      1.14715
Magnitude (Debye)      :      2.91583

                             ****ORCA TERMINATED NORMALLY****
TOTAL RUN TIME: 0 days 0 hours 13 minutes 40 seconds 473 msec
