                         Program Version 3.0.3 - RELEASE   -
|  1> ! RI-MP2 RIJK def2-TZVP def2-TZVP/C def2-TZVP/JK TIGHTSCF
|  2> % maxcore 2000
|  3> % mp2 density relaxed end
|  4> *xyz 0 1
|  5>  C       -0.0091392499     1.5428663143    -0.4049291019
|  6>  C       -0.0023816893     0.0633708361    -0.0838008035
|  7>  C        1.2550834021    -0.7354065483    -0.1192775157
|  8>  N        0.5641392895    -0.5000973093     1.1479319259
|  9>  C        1.2077525485     0.3615688260     2.1180860051
| 10>  C        0.3062131305     0.9400143241     3.2400836554
| 11>  C        1.4397289713     0.6278525566     4.2547532301
| 12>  C        2.0414815998    -0.3555469532     3.2135657966
| 13>  H        0.9480396157     2.0237539685    -0.1909825082
| 14>  H       -0.2192048354     1.6879961618    -1.4700816057
| 15>  H       -0.7880781613     2.0676828760     0.1592029109
| 16>  H       -0.9207651742    -0.4450250137    -0.3759202379
| 17>  H        1.2637318256    -1.7615136031    -0.4782960093
| 18>  H        2.1788534718    -0.1856384469    -0.3015174071
| 19>  H        1.8090794369     1.1628350650     1.6604020775
| 20>  H       -0.0337556065     1.9740913663     3.1427712691
| 21>  H       -0.5606652175     0.2907920227     3.3910254142
| 22>  H        2.0875446176     1.4926943782     4.4240876916
| 23>  H        1.1499050675     0.2194945295     5.2250432677
| 24>  H        1.6680386303    -1.3731949259     3.3559983565
| 25>  H        3.1273090072    -0.3849391949     3.0945523584
| 26> *
| 27>
| 28>                          ****END OF INPUT****

CARTESIAN COORDINATES (ANGSTROEM)
---------------------------------
  C     -0.009139    1.542866   -0.404929
  C     -0.002382    0.063371   -0.083801
  C      1.255083   -0.735407   -0.119278
  N      0.564139   -0.500097    1.147932
  C      1.207753    0.361569    2.118086
  C      0.306213    0.940014    3.240084
  C      1.439729    0.627853    4.254753
  C      2.041482   -0.355547    3.213566
  H      0.948040    2.023754   -0.190983
  H     -0.219205    1.687996   -1.470082
  H     -0.788078    2.067683    0.159203
  H     -0.920765   -0.445025   -0.375920
  H      1.263732   -1.761514   -0.478296
  H      2.178853   -0.185638   -0.301517
  H      1.809079    1.162835    1.660402
  H     -0.033756    1.974091    3.142771
  H     -0.560665    0.290792    3.391025
  H      2.087545    1.492694    4.424088
  H      1.149905    0.219495    5.225043
  H      1.668039   -1.373195    3.355998
  H      3.127309   -0.384939    3.094552

 Total Charge           Charge          ....    0
 Multiplicity           Mult            ....    1
 Number of Electrons    NEL             ....   62
 Basis Dimension        Dim             ....  326

ORBITAL ENERGIES
----------------

  NO   OCC          E(Eh)            E(eV)
   0   2.0000     -15.548398      -423.0934
   1   2.0000     -11.255974      -306.2906
   2   2.0000     -11.248650      -306.0913
   3   2.0000     -11.245966      -306.0183
   4   2.0000     -11.221810      -305.3610
   5   2.0000     -11.215707      -305.1949
   6   2.0000     -11.212280      -305.1017
   7   2.0000     -11.211400      -305.0777
   8   2.0000      -1.266242       -34.4562
   9   2.0000      -1.119601       -30.4659
  10   2.0000      -0.992670       -27.0119
  11   2.0000      -0.930773       -25.3276
  12   2.0000      -0.891587       -24.2613
  13   2.0000      -0.827102       -22.5066
  14   2.0000      -0.791371       -21.5343
  15   2.0000      -0.735818       -20.0226
  16   2.0000      -0.671975       -18.2854
  17   2.0000      -0.652973       -17.7683
  18   2.0000      -0.634336       -17.2612
  19   2.0000      -0.576913       -15.6986
  20   2.0000      -0.573031       -15.5930
  21   2.0000      -0.554280       -15.0827
  22   2.0000      -0.533244       -14.5103
  23   2.0000      -0.516714       -14.0605
  24   2.0000      -0.507358       -13.8059
  25   2.0000      -0.482395       -13.1266
  26   2.0000      -0.452220       -12.3055
  27   2.0000      -0.449372       -12.2280
  28   2.0000      -0.432069       -11.7572
  29   2.0000      -0.411648       -11.2015
  30   2.0000      -0.357280        -9.7221
  31   0.0000       0.138422         3.7666
  32   0.0000       0.155903         4.2423
  33   0.0000       0.160298         4.3619
  34   0.0000       0.173077         4.7097
  35   0.0000       0.187692         5.1074

MULLIKEN ATOMIC CHARGES
-----------------------
   0 C :   -0.393136
   1 C :   -0.028455
   2 C :   -0.192374
   3 N :   -0.210733
   4 C :   -0.047603
   5 C :   -0.216594
   6 C :   -0.215336
   7 C :   -0.200250
   8 H :    0.127439
   9 H :    0.140498
  10 H :    0.133975
  11 H :    0.116273
  12 H :    0.129157
  13 H :    0.111789
  14 H :    0.068023
  15 H :    0.111990
  16 H :    0.114435
  17 H :    0.110197
  18 H :    0.115524
  19 H :    0.113765
  20 H :    0.111417
Sum of atomic charges:    0.0000000

LOEWDIN ATOMIC CHARGES
----------------------
   0 C :   -0.301496
   1 C :   -0.278327
   2 C :   -0.246775
   3 N :    0.124438
   4 C :   -0.281949
   5 C :   -0.222892
   6 C :   -0.245553
   7 C :   -0.220320
   8 H :    0.123576
   9 H :    0.130085
  10 H :    0.126385
  11 H :    0.140585
  12 H :    0.122567
  13 H :    0.123837
  14 H :    0.133614
  15 H :    0.120683
  16 H :    0.138920
  17 H :    0.130935
  18 H :    0.122247
  19 H :    0.138671
  20 H :    0.120769

  Mayer bond orders larger than 0.1
B(  0-C ,  1-C ) :   0.9091 B(  0-C ,  8-H ) :   0.9347 B(  0-C ,  9-H ) :   0.9309
B(  0-C , 10-H ) :   0.9381 B(  1-C ,  2-C ) :   0.9476 B(  1-C ,  3-N ) :   0.8862
B(  1-C , 11-H ) :   0.9272 B(  2-C ,  3-N ) :   0.8751 B(  2-C , 12-H ) :   0.9218
B(  2-C , 13-H ) :   0.9182 B(  3-N ,  4-C ) :   0.9988 B(  4-C ,  5-C ) :   0.9186
B(  4-C ,  7-C ) :   0.9201 B(  4-C , 14-H ) :   0.9224 B(  5-C ,  6-C ) :   0.9366
B(  5-C , 15-H ) :   0.9277 B(  5-C , 16-H ) :   0.9252 B(  6-C ,  7-C ) :   0.9343
B(  6-C , 17-H ) :   0.9258 B(  6-C , 18-H ) :   0.9281 B(  7-C , 19-H ) :   0.9254
B(  7-C , 20-H ) :   0.9281

MP2 TOTAL ENERGY:     -328.490866860 Eh
FINAL SINGLE POINT ENERGY      -328.490866860276

DIPOLE MOMENT
-------------
                                X             Y             Z
Electronic contribution:     -0.44088      -2.75942      -0.32615
Nuclear contribution   :      0.60346       3.14537       0.04202
                        -----------------------------------------
Total Dipole Moment    :      0.16259       0.38594      -0.28413
                        -----------------------------------------
Magnitude (a.u.)       :      0.50608
Magnitude (Debye)      :      1.28635

                             ****ORCA TERMINATED NORMALLY****
TOTAL RUN TIME: 0 days 0 hours 13 minutes 57 seconds 655 msec
