                         Program Version 3.0.3 - RELEASE   -
|  1> ! RI-MP2 RIJK def2-TZVP def2-TZVP/C def2-TZVP/JK TIGHTSCF
|  2> % maxcore 2000
|  3> % mp2 density relaxed end
|  4> *xyz 0 1
|  5>  C        0.0916653631     1.5915737848    -0.0219741524
|  6>  C       -0.0461619279     0.0669214266    -0.0225815926
|  7>  C        0.6393518368    -0.6042390861    -1.2020523927
|  8>  C        0.5402190310    -2.1387515190    -1.2467046911
|  9>  C        0.5876385959    -2.4150120129    -2.7472706557
| 10>  O       -0.0575631129    -3.5898667415    -3.1546797941
| 11>  C       -0.0988571960    -1.1722823328    -3.3124703973
| 12>  O       -0.6717773755    -1.1077278802    -4.3653608868
| 13>  O        0.0021639033    -0.1543857274    -2.4372451845
| 14>  H        1.1434194838     1.8941275036     0.0278259574
| 15>  H       -0.3390981716     2.0200933271    -0.9305899823
| 16>  H       -0.4222501432     2.0287717445     0.8386560628
| 17>  H        0.3873481554    -0.3546014270     0.8932796775
| 18>  H       -1.1044506035    -0.2202720968    -0.0313883171
| 19>  H        1.6884285565    -0.2836547060    -1.2565443320
| 20>  H        1.3348318863    -2.6232046487    -0.6769374478
| 21>  H       -0.4269318384    -2.4729901788    -0.8560894020
| 22>  H        1.6351657771    -2.3934181592    -3.0983384545
| 23>  H       -0.4818744801    -3.3807518003    -3.9993826549
| 24> *
| 25>
| 26>                          ****END OF INPUT****

CARTESIAN COORDINATES (ANGSTROEM)
---------------------------------
  C      0.091665    1.591574   -0.021974
  C     -0.046162    0.066921   -0.022582
  C      0.639352   -0.604239   -1.202052
  C      0.540219   -2.138752   -1.246705
  C      0.587639   -2.415012   -2.747271
  O     -0.057563   -3.589867   -3.154680
  C     -0.098857   -1.172282   -3.312470
  O     -0.671777   -1.107728   -4.365361
  O      0.002164   -0.154386   -2.437245
  H      1.143419    1.894128    0.027826
  H     -0.339098    2.020093   -0.930590
  H     -0.422250    2.028772    0.838656
  H      0.387348   -0.354601    0.893280
  H     -1.104451   -0.220272   -0.031388
  H      1.688429   -0.283655   -1.256544
  H      1.334832   -2.623205   -0.676937
  H     -0.426932   -2.472990   -0.856089
  H      1.635166   -2.393418   -3.098338
  H     -0.481874   -3.380752   -3.999383

 Total Charge           Charge          ....    0
 Multiplicity           Mult            ....    1
 Number of Electrons    NEL             ....   70
 Basis Dimension        Dim             ....  339

ORBITAL ENERGIES
----------------

  NO   OCC          E(Eh)            E(eV)
   0   2.0000     -20.610491      -560.8400
   1   2.0000     -20.573667      -559.8379
   2   2.0000     -20.552582      -559.2642
   3   2.0000     -11.383801      -309.7690
   4   2.0000     -11.313876      -307.8662
   5   2.0000     -11.311833      -307.8106
   6   2.0000     -11.251936      -306.1807
   7   2.0000     -11.243085      -305.9399
   8   2.0000     -11.225195      -305.4531
   9   2.0000      -1.470215       -40.0066
  10   2.0000      -1.388625       -37.7864
  11   2.0000      -1.372485       -37.3472
  12   2.0000      -1.100646       -29.9501
  13   2.0000      -1.057890       -28.7866
  14   2.0000      -0.960686       -26.1416
  15   2.0000      -0.866103       -23.5679
  16   2.0000      -0.837863       -22.7994
  17   2.0000      -0.792727       -21.5712
  18   2.0000      -0.738758       -20.1026
  19   2.0000      -0.698387       -19.0041
  20   2.0000      -0.685219       -18.6458
  21   2.0000      -0.645434       -17.5631
  22   2.0000      -0.629118       -17.1192
  23   2.0000      -0.605033       -16.4638
  24   2.0000      -0.601979       -16.3807
  25   2.0000      -0.591912       -16.1067
  26   2.0000      -0.565990       -15.4014
  27   2.0000      -0.547267       -14.8919
  28   2.0000      -0.530115       -14.4252
  29   2.0000      -0.514077       -13.9887
  30   2.0000      -0.504735       -13.7345
  31   2.0000      -0.497931       -13.5494
  32   2.0000      -0.461360       -12.5542
  33   2.0000      -0.459141       -12.4939
  34   2.0000      -0.442119       -12.0307
  35   0.0000       0.122549         3.3347
  36   0.0000       0.141757         3.8574
  37   0.0000       0.149542         4.0693
  38   0.0000       0.164506         4.4764
  39   0.0000       0.174490         4.7481

MULLIKEN ATOMIC CHARGES
-----------------------
   0 C :   -0.400917
   1 C :   -0.189621
   2 C :    0.013813
   3 C :   -0.196233
   4 C :    0.071483
   5 O :   -0.469277
   6 C :    0.229677
   7 O :   -0.308975
   8 O :   -0.212146
   9 H :    0.121711
  10 H :    0.152696
  11 H :    0.138518
  12 H :    0.116700
  13 H :    0.119663
  14 H :    0.104548
  15 H :    0.141523
  16 H :    0.125980
  17 H :    0.103488
  18 H :    0.337369
Sum of atomic charges:   -0.0000000

LOEWDIN ATOMIC CHARGES
----------------------
   0 C :   -0.313778
   1 C :   -0.274258
   2 C :   -0.261572
   3 C :   -0.208080
   4 C :   -0.330373
   5 O :   -0.002463
   6 C :   -0.467854
   7 O :    0.129328
   8 O :    0.284770
   9 H :    0.121827
  10 H :    0.128230
  11 H :    0.123585
  12 H :    0.145805
  13 H :    0.144005
  14 H :    0.145402
  15 H :    0.142798
  16 H :    0.151992
  17 H :    0.151125
  18 H :    0.189513

  Mayer bond orders larger than 0.1
B(  0-C ,  1-C ) :   0.9247 B(  0-C ,  9-H ) :   0.9355 B(  0-C , 10-H ) :   0.9366
B(  0-C , 11-H ) :   0.9391 B(  1-C ,  2-C ) :   0.9294 B(  1-C , 12-H ) :   0.9265
B(  1-C , 13-H ) :   0.9237 B(  2-C ,  3-C ) :   0.9104 B(  2-C ,  8-O ) :   0.8408
B(  2-C , 14-H ) :   0.9212 B(  3-C ,  4-C ) :   0.8952 B(  3-C ,  5-O ) :  -0.1049
B(  3-C , 15-H ) :   0.9199 B(  3-C , 16-H ) :   0.9097 B(  4-C ,  5-O ) :   1.0721
B(  4-C ,  6-C ) :   0.9150 B(  4-C , 17-H ) :   0.9258 B(  5-O , 18-H ) :   0.8161
B(  6-C ,  7-O ) :   1.9797 B(  6-C ,  8-O ) :   1.1509

MP2 TOTAL ENERGY:     -459.484289956 Eh
FINAL SINGLE POINT ENERGY      -459.484289956144

DIPOLE MOMENT
-------------
                                X             Y             Z
Electronic contribution:     -1.57319      -4.49427      -9.75878
Nuclear contribution   :      2.29512       4.60910      10.96790
                        -----------------------------------------
Total Dipole Moment    :      0.72193       0.11484       1.20912
                        -----------------------------------------
Magnitude (a.u.)       :      1.41292
Magnitude (Debye)      :      3.59135

                             ****ORCA TERMINATED NORMALLY****
TOTAL RUN TIME: 0 days 0 hours 26 minutes 28 seconds 848 msec
