                         Program Version 3.0.3 - RELEASE   -
|  1> ! RI-MP2 RIJK def2-TZVP def2-TZVP/C def2-TZVP/JK TIGHTSCF
|  2> % maxcore 2000
|  3> % mp2 density relaxed end
|  4> *xyz 0 1
|  5>  C       -0.1124796969     1.3495453302     0.0091203619
|  6>  C       -0.1749541071    -0.1565704449     0.1632442273
|  7>  O       -1.5176565884    -0.5771062670    -0.1811448594
|  8>  C       -1.7596011514    -1.8904892919    -0.1006541497
|  9>  O       -0.9591349986    -2.7318391706     0.2128807893
| 10>  C       -3.2239462443    -2.1754280252    -0.4229891752
| 11>  O       -3.4263016363    -3.5308931186    -0.7719530238
| 12>  C       -3.3749489280    -4.4389754531     0.2335643094
| 13>  O       -3.4745634810    -5.6092563100     0.0348148475
| 14>  H        0.8912657117     1.7035148184     0.2614289688
| 15>  H       -0.3340910258     1.6470098345    -1.0194543115
| 16>  H       -0.8282426270     1.8416330002     0.6733829609
| 17>  H        0.5291338073    -0.6700861966    -0.4978325441
| 18>  H        0.0383682169    -0.4775793674     1.1872790498
| 19>  H       -3.8314372275    -1.8826303518     0.4445880394
| 20>  H       -3.5484385456    -1.5738591977    -1.2728269359
| 21>  H       -3.2623419678    -3.9737418785     1.2296701549
| 22> *
| 23>
| 24>                          ****END OF INPUT****

CARTESIAN COORDINATES (ANGSTROEM)
---------------------------------
  C     -0.112480    1.349545    0.009120
  C     -0.174954   -0.156570    0.163244
  O     -1.517657   -0.577106   -0.181145
  C     -1.759601   -1.890489   -0.100654
  O     -0.959135   -2.731839    0.212881
  C     -3.223946   -2.175428   -0.422989
  O     -3.426302   -3.530893   -0.771953
  C     -3.374949   -4.438975    0.233564
  O     -3.474563   -5.609256    0.034815
  H      0.891266    1.703515    0.261429
  H     -0.334091    1.647010   -1.019454
  H     -0.828243    1.841633    0.673383
  H      0.529134   -0.670086   -0.497833
  H      0.038368   -0.477579    1.187279
  H     -3.831437   -1.882630    0.444588
  H     -3.548439   -1.573859   -1.272827
  H     -3.262342   -3.973742    1.229670

 Total Charge           Charge          ....    0
 Multiplicity           Mult            ....    1
 Number of Electrons    NEL             ....   70
 Basis Dimension        Dim             ....  327

ORBITAL ENERGIES
----------------

  NO   OCC          E(Eh)            E(eV)
   0   2.0000     -20.624241      -561.2141
   1   2.0000     -20.617657      -561.0350
   2   2.0000     -20.567428      -559.6682
   3   2.0000     -20.551826      -559.2436
   4   2.0000     -11.402030      -310.2650
   5   2.0000     -11.384956      -309.8004
   6   2.0000     -11.331107      -308.3351
   7   2.0000     -11.307454      -307.6915
   8   2.0000     -11.239933      -305.8541
   9   2.0000      -1.487848       -40.4864
  10   2.0000      -1.466709       -39.9112
  11   2.0000      -1.387406       -37.7532
  12   2.0000      -1.376196       -37.4482
  13   2.0000      -1.072603       -29.1870
  14   2.0000      -1.017378       -27.6843
  15   2.0000      -0.894021       -24.3275
  16   2.0000      -0.854516       -23.2526
  17   2.0000      -0.805740       -21.9253
  18   2.0000      -0.745755       -20.2930
  19   2.0000      -0.734318       -19.9818
  20   2.0000      -0.711374       -19.3575
  21   2.0000      -0.691229       -18.8093
  22   2.0000      -0.680702       -18.5228
  23   2.0000      -0.625145       -17.0110
  24   2.0000      -0.622605       -16.9419
  25   2.0000      -0.596211       -16.2237
  26   2.0000      -0.578155       -15.7324
  27   2.0000      -0.563241       -15.3266
  28   2.0000      -0.552844       -15.0437
  29   2.0000      -0.531844       -14.4722
  30   2.0000      -0.523790       -14.2531
  31   2.0000      -0.495196       -13.4750
  32   2.0000      -0.481262       -13.0958
  33   2.0000      -0.462199       -12.5771
  34   2.0000      -0.453819       -12.3491
  35   0.0000       0.117067         3.1856
  36   0.0000       0.131777         3.5858
  37   0.0000       0.150531         4.0962
  38   0.0000       0.167181         4.5492
  39   0.0000       0.176587         4.8052

MULLIKEN ATOMIC CHARGES
-----------------------
   0 C :   -0.360198
   1 C :   -0.076184
   2 O :   -0.249400
   3 C :    0.289119
   4 O :   -0.312750
   5 C :   -0.104467
   6 O :   -0.210540
   7 C :    0.220833
   8 O :   -0.261602
   9 H :    0.136034
  10 H :    0.136850
  11 H :    0.134436
  12 H :    0.133984
  13 H :    0.128533
  14 H :    0.151398
  15 H :    0.166157
  16 H :    0.077795
Sum of atomic charges:    0.0000000

LOEWDIN ATOMIC CHARGES
----------------------
   0 C :   -0.313761
   1 C :   -0.292786
   2 O :    0.253414
   3 C :   -0.497757
   4 O :    0.143034
   5 C :   -0.277759
   6 O :    0.246442
   7 C :   -0.435816
   8 O :    0.131731
   9 H :    0.130913
  10 H :    0.126821
  11 H :    0.126105
  12 H :    0.131452
  13 H :    0.129968
  14 H :    0.142120
  15 H :    0.149200
  16 H :    0.106681

  Mayer bond orders larger than 0.1
B(  0-C ,  1-C ) :   0.9442 B(  0-C ,  9-H ) :   0.9328 B(  0-C , 10-H ) :   0.9328
B(  0-C , 11-H ) :   0.9327 B(  1-C ,  2-O ) :   0.8129 B(  1-C , 12-H ) :   0.9344
B(  1-C , 13-H ) :   0.9335 B(  2-O ,  3-C ) :   1.1466 B(  3-C ,  4-O ) :   1.9270
B(  3-C ,  5-C ) :   0.9085 B(  5-C ,  6-O ) :   0.8883 B(  5-C , 14-H ) :   0.9299
B(  5-C , 15-H ) :   0.9155 B(  6-O ,  7-C ) :   1.0265 B(  7-C ,  8-O ) :   2.0317
B(  7-C , 16-H ) :   0.9120

MP2 TOTAL ENERGY:     -495.381578709 Eh
FINAL SINGLE POINT ENERGY      -495.381578709191

DIPOLE MOMENT
-------------
                                X             Y             Z
Electronic contribution:     -5.08604     -11.00196      -1.18624
Nuclear contribution   :      5.28874      13.26757       1.60267
                        -----------------------------------------
Total Dipole Moment    :      0.20270       2.26561       0.41642
                        -----------------------------------------
Magnitude (a.u.)       :      2.31246
Magnitude (Debye)      :      5.87781

                             ****ORCA TERMINATED NORMALLY****
TOTAL RUN TIME: 0 days 0 hours 11 minutes 35 seconds 27 msec
