                         Program Version 3.0.3 - RELEASE   -
|  1> ! RI-MP2 RIJK def2-TZVP def2-TZVP/C def2-TZVP/JK TIGHTSCF
|  2> % maxcore 2000
|  3> % mp2 density relaxed end
|  4> *xyz 0 1
|  5>  N        0.0366979473     1.4505862125     0.0478698737
|  6>  C       -0.0466578811     0.0517391236    -0.0364981045
|  7>  C       -1.1753348819    -0.7515310131    -0.0126296617
|  8>  N       -0.7261524157    -2.0576447149     0.0017673018
|  9>  C       -0.9049871237    -3.3311612844    -0.7449598990
| 10>  C        0.6536134431    -3.4950879546    -0.7255579505
| 11>  C        0.6501497122    -2.0867090712    -0.1517611167
| 12>  C        1.1052782732    -0.7934480155    -0.1888733234
| 13>  O        2.3637347460    -0.2586490091    -0.2931462258
| 14>  H        0.9612412871     1.7478652404     0.3342765300
| 15>  H       -0.6572886885     1.8570467557     0.6610460324
| 16>  H       -2.2088684766    -0.4854294697     0.1454671342
| 17>  H       -1.5048043343    -4.0752595373    -0.2140230435
| 18>  H       -1.3023167226    -3.1837493180    -1.7536518614
| 19>  H        1.0287775388    -4.2884286380    -0.0722600739
| 20>  H        1.1039620179    -3.6068939943    -1.7150484918
| 21>  H        3.0084109388    -0.9688201422    -0.2302601198
| 22> *
| 23>
| 24>                          ****END OF INPUT****

CARTESIAN COORDINATES (ANGSTROEM)
---------------------------------
  N      0.036698    1.450586    0.047870
  C     -0.046658    0.051739   -0.036498
  C     -1.175335   -0.751531   -0.012630
  N     -0.726152   -2.057645    0.001767
  C     -0.904987   -3.331161   -0.744960
  C      0.653613   -3.495088   -0.725558
  C      0.650150   -2.086709   -0.151761
  C      1.105278   -0.793448   -0.188873
  O      2.363735   -0.258649   -0.293146
  H      0.961241    1.747865    0.334277
  H     -0.657289    1.857047    0.661046
  H     -2.208868   -0.485429    0.145467
  H     -1.504804   -4.075260   -0.214023
  H     -1.302317   -3.183749   -1.753652
  H      1.028778   -4.288429   -0.072260
  H      1.103962   -3.606894   -1.715048
  H      3.008411   -0.968820   -0.230260

 Total Charge           Charge          ....    0
 Multiplicity           Mult            ....    1
 Number of Electrons    NEL             ....   66
 Basis Dimension        Dim             ....  327

ORBITAL ENERGIES
----------------

  NO   OCC          E(Eh)            E(eV)
   0   2.0000     -20.578772      -559.9768
   1   2.0000     -15.575702      -423.8364
   2   2.0000     -15.546276      -423.0357
   3   2.0000     -11.278383      -306.9004
   4   2.0000     -11.271009      -306.6998
   5   2.0000     -11.250779      -306.1493
   6   2.0000     -11.250679      -306.1465
   7   2.0000     -11.244316      -305.9734
   8   2.0000     -11.232766      -305.6591
   9   2.0000      -1.390325       -37.8327
  10   2.0000      -1.302857       -35.4525
  11   2.0000      -1.192106       -32.4388
  12   2.0000      -1.070943       -29.1418
  13   2.0000      -0.997359       -27.1395
  14   2.0000      -0.908527       -24.7223
  15   2.0000      -0.871105       -23.7040
  16   2.0000      -0.768425       -20.9099
  17   2.0000      -0.763001       -20.7623
  18   2.0000      -0.702831       -19.1250
  19   2.0000      -0.665056       -18.0971
  20   2.0000      -0.654115       -17.7994
  21   2.0000      -0.640124       -17.4187
  22   2.0000      -0.585083       -15.9209
  23   2.0000      -0.583809       -15.8862
  24   2.0000      -0.569436       -15.4951
  25   2.0000      -0.540476       -14.7071
  26   2.0000      -0.532130       -14.4800
  27   2.0000      -0.510585       -13.8937
  28   2.0000      -0.508600       -13.8397
  29   2.0000      -0.474139       -12.9020
  30   2.0000      -0.448941       -12.2163
  31   2.0000      -0.296050        -8.0559
  32   2.0000      -0.274621        -7.4728
  33   0.0000       0.124130         3.3778
  34   0.0000       0.143803         3.9131
  35   0.0000       0.153465         4.1760
  36   0.0000       0.169366         4.6087
  37   0.0000       0.184385         5.0174

MULLIKEN ATOMIC CHARGES
-----------------------
   0 N :   -0.531460
   1 C :    0.172945
   2 C :   -0.257591
   3 N :   -0.061520
   4 C :   -0.122067
   5 C :   -0.204482
   6 C :   -0.007275
   7 C :    0.018463
   8 O :   -0.465014
   9 H :    0.255191
  10 H :    0.242066
  11 H :    0.126298
  12 H :    0.119095
  13 H :    0.120309
  14 H :    0.130198
  15 H :    0.132179
  16 H :    0.332664
Sum of atomic charges:    0.0000000

LOEWDIN ATOMIC CHARGES
----------------------
   0 N :   -0.091983
   1 C :   -0.252970
   2 C :   -0.231442
   3 N :    0.255666
   4 C :   -0.195648
   5 C :   -0.210992
   6 C :   -0.209884
   7 C :   -0.279130
   8 O :    0.042195
   9 H :    0.170496
  10 H :    0.164945
  11 H :    0.129309
  12 H :    0.122204
  13 H :    0.129502
  14 H :    0.131643
  15 H :    0.134670
  16 H :    0.191419

  Mayer bond orders larger than 0.1
B(  0-N ,  1-C ) :   0.9994 B(  0-N ,  9-H ) :   0.8733 B(  0-N , 10-H ) :   0.8786
B(  1-C ,  2-C ) :   1.4379 B(  1-C ,  7-C ) :   1.2562 B(  2-C ,  3-N ) :   1.1439
B(  2-C , 11-H ) :   0.9317 B(  3-N ,  4-C ) :   0.8839 B(  3-N ,  6-C ) :   1.0544
B(  4-C ,  5-C ) :   0.9725 B(  4-C , 12-H ) :   0.9168 B(  4-C , 13-H ) :   0.9112
B(  5-C ,  6-C ) :   0.9106 B(  5-C , 14-H ) :   0.9243 B(  5-C , 15-H ) :   0.9096
B(  6-C ,  7-C ) :   1.4057 B(  7-C ,  8-O ) :   1.0949 B(  8-O , 16-H ) :   0.8351

MP2 TOTAL ENERGY:     -417.282702174 Eh
FINAL SINGLE POINT ENERGY      -417.282702173630

DIPOLE MOMENT
-------------
                                X             Y             Z
Electronic contribution:      1.55058       2.28273       1.07707
Nuclear contribution   :     -1.50638      -3.06230      -0.90087
                        -----------------------------------------
Total Dipole Moment    :      0.04420      -0.77958       0.17619
                        -----------------------------------------
Magnitude (a.u.)       :      0.80046
Magnitude (Debye)      :      2.03461

                             ****ORCA TERMINATED NORMALLY****
TOTAL RUN TIME: 0 days 0 hours 16 minutes 45 seconds 891 msec
