                         Program Version 3.0.3 - RELEASE   -
|  1> ! RI-MP2 RIJK def2-TZVP def2-TZVP/C def2-TZVP/JK TIGHTSCF
|  2> % maxcore 2000
|  3> % mp2 density relaxed end
|  4> *xyz 0 1
|  5>  C       -0.1405497370     1.5444882762    -0.0514729462
|  6>  C        0.0930864202     0.0348049827     0.0183857446
|  7>  C        0.7353434220    -0.5038032650    -1.2514135655
|  8>  N        2.1547920197    -0.1652429539    -1.4233415048
|  9>  C        1.7718648200    -1.5749180602    -1.2234180332
| 10>  C        2.2371125549    -2.2041797575     0.0822680072
| 11>  C        1.3352662000    -1.8322504969     1.2785938951
| 12>  C        0.9034487940    -0.3732272204     1.2546431341
| 13>  O        1.1345120712     0.3918066272     2.1604143451
| 14>  H        0.8092516441     2.0625270499    -0.2074253850
| 15>  H       -0.8134694758     1.7946525619    -0.8779880456
| 16>  H       -0.5753106156     1.9125948002     0.8797367361
| 17>  H       -0.8749296095    -0.4802574997     0.1320925260
| 18>  H        0.0977368520    -0.4539077221    -2.1331492513
| 19>  H        2.3723168545     0.0184000677    -2.3983910916
| 20>  H        1.8182057198    -2.2222942665    -2.0966157895
| 21>  H        2.2635310976    -3.2938531288    -0.0196175366
| 22>  H        3.2630962748    -1.8758241496     0.2772726368
| 23>  H        0.4210574594    -2.4398630617     1.2324038379
| 24>  H        1.8287893037    -2.0357849036     2.2311450165
| 25> *
| 26>
| 27>                          ****END OF INPUT****

CARTESIAN COORDINATES (ANGSTROEM)
---------------------------------
  C     -0.140550    1.544488   -0.051473
  C      0.093086    0.034805    0.018386
  C      0.735343   -0.503803   -1.251414
  N      2.154792   -0.165243   -1.423342
  C      1.771865   -1.574918   -1.223418
  C      2.237113   -2.204180    0.082268
  C      1.335266   -1.832250    1.278594
  C      0.903449   -0.373227    1.254643
  O      1.134512    0.391807    2.160414
  H      0.809252    2.062527   -0.207425
  H     -0.813469    1.794653   -0.877988
  H     -0.575311    1.912595    0.879737
  H     -0.874930   -0.480257    0.132093
  H      0.097737   -0.453908   -2.133149
  H      2.372317    0.018400   -2.398391
  H      1.818206   -2.222294   -2.096616
  H      2.263531   -3.293853   -0.019618
  H      3.263096   -1.875824    0.277273
  H      0.421057   -2.439863    1.232404
  H      1.828789   -2.035785    2.231145

 Total Charge           Charge          ....    0
 Multiplicity           Mult            ....    1
 Number of Electrons    NEL             ....   68
 Basis Dimension        Dim             ....  345

ORBITAL ENERGIES
----------------

  NO   OCC          E(Eh)            E(eV)
   0   2.0000     -20.537400      -558.8511
   1   2.0000     -15.563151      -423.4949
   2   2.0000     -11.321001      -308.0601
   3   2.0000     -11.271643      -306.7170
   4   2.0000     -11.270293      -306.6803
   5   2.0000     -11.242635      -305.9277
   6   2.0000     -11.238498      -305.8151
   7   2.0000     -11.235076      -305.7220
   8   2.0000     -11.210397      -305.0504
   9   2.0000      -1.381637       -37.5963
  10   2.0000      -1.275655       -34.7123
  11   2.0000      -1.078350       -29.3434
  12   2.0000      -1.051142       -28.6030
  13   2.0000      -0.934699       -25.4345
  14   2.0000      -0.907886       -24.7048
  15   2.0000      -0.828720       -22.5506
  16   2.0000      -0.804301       -21.8861
  17   2.0000      -0.731850       -19.9147
  18   2.0000      -0.693796       -18.8791
  19   2.0000      -0.656802       -17.8725
  20   2.0000      -0.635324       -17.2880
  21   2.0000      -0.614740       -16.7279
  22   2.0000      -0.604725       -16.4554
  23   2.0000      -0.568732       -15.4760
  24   2.0000      -0.553962       -15.0741
  25   2.0000      -0.533425       -14.5152
  26   2.0000      -0.525113       -14.2890
  27   2.0000      -0.512202       -13.9377
  28   2.0000      -0.495317       -13.4783
  29   2.0000      -0.479134       -13.0379
  30   2.0000      -0.461430       -12.5562
  31   2.0000      -0.454049       -12.3553
  32   2.0000      -0.400199       -10.8900
  33   2.0000      -0.390186       -10.6175
  34   0.0000       0.115122         3.1326
  35   0.0000       0.141511         3.8507
  36   0.0000       0.154075         4.1926
  37   0.0000       0.168914         4.5964
  38   0.0000       0.173237         4.7140

MULLIKEN ATOMIC CHARGES
-----------------------
   0 C :   -0.426024
   1 C :   -0.020907
   2 C :   -0.045454
   3 N :   -0.411721
   4 C :   -0.057418
   5 C :   -0.208178
   6 C :   -0.215237
   7 C :    0.155827
   8 O :   -0.279300
   9 H :    0.147742
  10 H :    0.124235
  11 H :    0.149011
  12 H :    0.101401
  13 H :    0.130552
  14 H :    0.217324
  15 H :    0.129715
  16 H :    0.119925
  17 H :    0.127766
  18 H :    0.125110
  19 H :    0.135631
Sum of atomic charges:   -0.0000000

LOEWDIN ATOMIC CHARGES
----------------------
   0 C :   -0.282497
   1 C :   -0.238859
   2 C :   -0.233870
   3 N :    0.012081
   4 C :   -0.248846
   5 C :   -0.238016
   6 C :   -0.219105
   7 C :   -0.293975
   8 O :    0.159970
   9 H :    0.132542
  10 H :    0.121721
  11 H :    0.130100
  12 H :    0.169058
  13 H :    0.139401
  14 H :    0.166680
  15 H :    0.136967
  16 H :    0.140739
  17 H :    0.148080
  18 H :    0.151766
  19 H :    0.146060

  Mayer bond orders larger than 0.1
B(  0-C ,  1-C ) :   0.8928 B(  0-C ,  9-H ) :   0.9372 B(  0-C , 10-H ) :   0.9370
B(  0-C , 11-H ) :   0.9323 B(  1-C ,  2-C ) :   0.9052 B(  1-C ,  7-C ) :   0.8870
B(  1-C , 12-H ) :   0.9061 B(  2-C ,  3-N ) :   0.8776 B(  2-C ,  4-C ) :   0.9163
B(  2-C , 13-H ) :   0.9217 B(  3-N ,  4-C ) :   0.9159 B(  3-N , 14-H ) :   0.8655
B(  4-C ,  5-C ) :   0.9109 B(  4-C , 15-H ) :   0.9207 B(  5-C ,  6-C ) :   0.9346
B(  5-C , 16-H ) :   0.9307 B(  5-C , 17-H ) :   0.9206 B(  6-C ,  7-C ) :   0.9220
B(  6-C , 18-H ) :   0.9110 B(  6-C , 19-H ) :   0.9255 B(  7-C ,  8-O ) :   2.0305

MP2 TOTAL ENERGY:     -402.470782410 Eh
FINAL SINGLE POINT ENERGY      -402.470782410254

DIPOLE MOMENT
-------------
                                X             Y             Z
Electronic contribution:      1.34438       0.45487       2.59517
Nuclear contribution   :     -1.77490      -1.44686      -3.83910
                        -----------------------------------------
Total Dipole Moment    :     -0.43052      -0.99199      -1.24392
                        -----------------------------------------
Magnitude (a.u.)       :      1.64825
Magnitude (Debye)      :      4.18951

                             ****ORCA TERMINATED NORMALLY****
TOTAL RUN TIME: 0 days 0 hours 19 minutes 24 seconds 304 msec
