                         Program Version 3.0.3 - RELEASE   -
|  1> ! RI-MP2 RIJK def2-TZVP def2-TZVP/C def2-TZVP/JK TIGHTSCF
|  2> % maxcore 2000
|  3> % mp2 density relaxed end
|  4> *xyz 0 1
|  5>  C        0.0589478545     1.6689904215     0.0339809339
|  6>  C        0.0160539011     0.1592650479    -0.0128901858
|  7>  C        0.5722388747    -0.6691479377    -1.1664231054
|  8>  C        1.5668876619    -0.0248290049    -2.1292343316
|  9>  C        2.8900113443    -0.0176651097    -1.3099934749
| 10>  O        2.4848396737    -0.0186986978     0.0694682166
| 11>  C        1.2500039413    -0.6881267037     0.1754840672
| 12>  C        3.7464701659    -1.1681792578    -1.6133918030
| 13>  C        4.4443011860    -2.1136990669    -1.8664281017
| 14>  H        1.0506266964     2.0513148506    -0.2176226258
| 15>  H       -0.6686256522     2.1124560142    -0.6546064474
| 16>  H       -0.1774937379     2.0242218527     1.0423830741
| 17>  H       -0.8825145677    -0.2731084991     0.4224325681
| 18>  H       -0.0041609697    -1.5172676726    -1.5153402200
| 19>  H        1.6702081780    -0.6022918451    -3.0492123192
| 20>  H        1.2876209565     0.9969611785    -2.4018180534
| 21>  H        3.4601641461     0.9047588289    -1.4630546345
| 22>  H        1.2630029879    -1.5492784704     0.8358710262
| 23>  H        5.0677332592    -2.9455959485    -2.0837118136
| 24> *
| 25>
| 26>                          ****END OF INPUT****

CARTESIAN COORDINATES (ANGSTROEM)
---------------------------------
  C      0.058948    1.668990    0.033981
  C      0.016054    0.159265   -0.012890
  C      0.572239   -0.669148   -1.166423
  C      1.566888   -0.024829   -2.129234
  C      2.890011   -0.017665   -1.309993
  O      2.484840   -0.018699    0.069468
  C      1.250004   -0.688127    0.175484
  C      3.746470   -1.168179   -1.613392
  C      4.444301   -2.113699   -1.866428
  H      1.050627    2.051315   -0.217623
  H     -0.668626    2.112456   -0.654606
  H     -0.177494    2.024222    1.042383
  H     -0.882515   -0.273108    0.422433
  H     -0.004161   -1.517268   -1.515340
  H      1.670208   -0.602292   -3.049212
  H      1.287621    0.996961   -2.401818
  H      3.460164    0.904759   -1.463055
  H      1.263003   -1.549278    0.835871
  H      5.067733   -2.945596   -2.083712

 Total Charge           Charge          ....    0
 Multiplicity           Mult            ....    1
 Number of Electrons    NEL             ....   66
 Basis Dimension        Dim             ....  339

ORBITAL ENERGIES
----------------

  NO   OCC          E(Eh)            E(eV)
   0   2.0000     -20.561950      -559.5191
   1   2.0000     -11.310316      -307.7693
   2   2.0000     -11.277184      -306.8678
   3   2.0000     -11.238338      -305.8107
   4   2.0000     -11.235666      -305.7380
   5   2.0000     -11.233417      -305.6768
   6   2.0000     -11.232898      -305.6627
   7   2.0000     -11.226211      -305.4807
   8   2.0000     -11.217104      -305.2329
   9   2.0000      -1.390735       -37.8438
  10   2.0000      -1.140523       -31.0352
  11   2.0000      -1.069390       -29.0996
  12   2.0000      -1.004457       -27.3327
  13   2.0000      -0.967260       -26.3205
  14   2.0000      -0.877901       -23.8889
  15   2.0000      -0.796860       -21.6837
  16   2.0000      -0.764952       -20.8154
  17   2.0000      -0.727007       -19.7829
  18   2.0000      -0.706087       -19.2136
  19   2.0000      -0.672351       -18.2956
  20   2.0000      -0.636064       -17.3082
  21   2.0000      -0.604297       -16.4438
  22   2.0000      -0.590324       -16.0635
  23   2.0000      -0.559220       -15.2171
  24   2.0000      -0.543174       -14.7805
  25   2.0000      -0.535282       -14.5658
  26   2.0000      -0.512246       -13.9389
  27   2.0000      -0.482537       -13.1305
  28   2.0000      -0.478839       -13.0299
  29   2.0000      -0.405678       -11.0391
  30   2.0000      -0.401153       -10.9159
  31   2.0000      -0.387713       -10.5502
  32   2.0000      -0.379900       -10.3376
  33   0.0000       0.135519         3.6877
  34   0.0000       0.151847         4.1320
  35   0.0000       0.161266         4.3883
  36   0.0000       0.168922         4.5966
  37   0.0000       0.174538         4.7494

MULLIKEN ATOMIC CHARGES
-----------------------
   0 C :   -0.413135
   1 C :   -0.122714
   2 C :   -0.129878
   3 C :   -0.263942
   4 C :    0.046050
   5 O :   -0.319635
   6 C :    0.061496
   7 C :   -0.100699
   8 C :   -0.131184
   9 H :    0.142873
  10 H :    0.131785
  11 H :    0.137325
  12 H :    0.116052
  13 H :    0.133644
  14 H :    0.141986
  15 H :    0.134407
  16 H :    0.117872
  17 H :    0.126114
  18 H :    0.191584
Sum of atomic charges:   -0.0000000

LOEWDIN ATOMIC CHARGES
----------------------
   0 C :   -0.292944
   1 C :   -0.213819
   2 C :   -0.184355
   3 C :   -0.197552
   4 C :   -0.278584
   5 O :    0.208626
   6 C :   -0.256023
   7 C :   -0.082970
   8 C :   -0.089533
   9 H :    0.129178
  10 H :    0.125100
  11 H :    0.128862
  12 H :    0.151877
  13 H :    0.145263
  14 H :    0.147346
  15 H :    0.140265
  16 H :    0.157285
  17 H :    0.134638
  18 H :    0.127340

  Mayer bond orders larger than 0.1
B(  0-C ,  1-C ) :   0.8975 B(  0-C ,  9-H ) :   0.9374 B(  0-C , 10-H ) :   0.9370
B(  0-C , 11-H ) :   0.9354 B(  1-C ,  2-C ) :   0.8789 B(  1-C ,  6-C ) :   0.8831
B(  1-C , 12-H ) :   0.9244 B(  2-C ,  3-C ) :   0.9313 B(  2-C ,  6-C ) :   0.8464
B(  2-C , 13-H ) :   0.9183 B(  3-C ,  4-C ) :   0.9170 B(  3-C , 14-H ) :   0.9257
B(  3-C , 15-H ) :   0.9223 B(  4-C ,  5-O ) :   0.9009 B(  4-C ,  7-C ) :   1.1511
B(  4-C , 16-H ) :   0.9237 B(  5-O ,  6-C ) :   0.9406 B(  6-C , 17-H ) :   0.9346
B(  7-C ,  8-C ) :   2.5747 B(  8-C , 18-H ) :   0.8948

MP2 TOTAL ENERGY:     -385.154081810 Eh
FINAL SINGLE POINT ENERGY      -385.154081809597

DIPOLE MOMENT
-------------
                                X             Y             Z
Electronic contribution:      5.61709      -3.82059       0.17468
Nuclear contribution   :     -6.07308       3.69344      -0.61512
                        -----------------------------------------
Total Dipole Moment    :     -0.45599      -0.12715      -0.44044
                        -----------------------------------------
Magnitude (a.u.)       :      0.64660
Magnitude (Debye)      :      1.64351

                             ****ORCA TERMINATED NORMALLY****
TOTAL RUN TIME: 0 days 0 hours 19 minutes 21 seconds 153 msec
