                         Program Version 3.0.3 - RELEASE   -
|  1> ! RI-MP2 RIJK def2-TZVP def2-TZVP/C def2-TZVP/JK TIGHTSCF
|  2> % maxcore 2000
|  3> % mp2 density relaxed end
|  4> *xyz 0 1
|  5>  O        0.4137195514     1.2480883504     0.3040598914
|  6>  C        0.1585863656    -0.0472397869     0.0006526525
|  7>  C       -0.2574799080    -0.6894102972    -1.1408810657
|  8>  C       -0.3185402111    -2.0808058990    -0.8177010326
|  9>  C        0.0512694561    -2.2322877168     0.4932305291
| 10>  C        0.1096152885    -3.4546609937     1.3576469272
| 11>  C        1.3622544493    -3.5655974807     2.1155070195
| 12>  N        2.3402835423    -3.6113364950     2.7294068901
| 13>  N        0.3333968200    -0.9689978516     0.9913092118
| 14>  H        0.2961230075     1.7760910095    -0.4913383413
| 15>  H       -0.4894033938    -0.2271895965    -2.0874841426
| 16>  H       -0.6151860125    -2.8789182764    -1.4814377532
| 17>  H       -0.7164030639    -3.4908966203     2.0830962616
| 18>  H        0.0016164904    -4.3397054785     0.7230639658
| 19>  H        0.7209525084    -0.7591467673     1.8962832165
| 20> *
| 21>
| 22>                          ****END OF INPUT****

CARTESIAN COORDINATES (ANGSTROEM)
---------------------------------
  O      0.413720    1.248088    0.304060
  C      0.158586   -0.047240    0.000653
  C     -0.257480   -0.689410   -1.140881
  C     -0.318540   -2.080806   -0.817701
  C      0.051269   -2.232288    0.493231
  C      0.109615   -3.454661    1.357647
  C      1.362254   -3.565597    2.115507
  N      2.340284   -3.611336    2.729407
  N      0.333397   -0.968998    0.991309
  H      0.296123    1.776091   -0.491338
  H     -0.489403   -0.227190   -2.087484
  H     -0.615186   -2.878918   -1.481438
  H     -0.716403   -3.490897    2.083096
  H      0.001616   -4.339705    0.723064
  H      0.720953   -0.759147    1.896283

 Total Charge           Charge          ....    0
 Multiplicity           Mult            ....    1
 Number of Electrons    NEL             ....   64
 Basis Dimension        Dim             ....  315

ORBITAL ENERGIES
----------------

  NO   OCC          E(Eh)            E(eV)
   0   2.0000     -20.610021      -560.8272
   1   2.0000     -15.613393      -424.8620
   2   2.0000     -15.574155      -423.7943
   3   2.0000     -11.335459      -308.4535
   4   2.0000     -11.297451      -307.4193
   5   2.0000     -11.278979      -306.9166
   6   2.0000     -11.274626      -306.7982
   7   2.0000     -11.229735      -305.5766
   8   2.0000     -11.215841      -305.1986
   9   2.0000      -1.433245       -39.0006
  10   2.0000      -1.300573       -35.3904
  11   2.0000      -1.223357       -33.2892
  12   2.0000      -1.080560       -29.4035
  13   2.0000      -1.060299       -28.8522
  14   2.0000      -0.951487       -25.8913
  15   2.0000      -0.826426       -22.4882
  16   2.0000      -0.804222       -21.8840
  17   2.0000      -0.753514       -20.5042
  18   2.0000      -0.706503       -19.2249
  19   2.0000      -0.672145       -18.2900
  20   2.0000      -0.646207       -17.5842
  21   2.0000      -0.627043       -17.0627
  22   2.0000      -0.613944       -16.7063
  23   2.0000      -0.603372       -16.4186
  24   2.0000      -0.569310       -15.4917
  25   2.0000      -0.554009       -15.0753
  26   2.0000      -0.540733       -14.7141
  27   2.0000      -0.533620       -14.5205
  28   2.0000      -0.466905       -12.7051
  29   2.0000      -0.464019       -12.6266
  30   2.0000      -0.368863       -10.0373
  31   2.0000      -0.295472        -8.0402
  32   0.0000       0.121704         3.3117
  33   0.0000       0.127914         3.4807
  34   0.0000       0.152699         4.1551
  35   0.0000       0.160907         4.3785
  36   0.0000       0.170969         4.6523

MULLIKEN ATOMIC CHARGES
-----------------------
   0 O :   -0.433580
   1 C :    0.242376
   2 C :   -0.239974
   3 C :   -0.234080
   4 C :    0.124594
   5 C :   -0.154151
   6 C :   -0.177860
   7 N :   -0.064790
   8 N :   -0.281713
   9 H :    0.345439
  10 H :    0.137638
  11 H :    0.132735
  12 H :    0.168258
  13 H :    0.173178
  14 H :    0.261928
Sum of atomic charges:   -0.0000000

LOEWDIN ATOMIC CHARGES
----------------------
   0 O :    0.065171
   1 C :   -0.361805
   2 C :   -0.205321
   3 C :   -0.172046
   4 C :   -0.230592
   5 C :   -0.215657
   6 C :   -0.189073
   7 N :    0.056877
   8 N :    0.220504
   9 H :    0.202020
  10 H :    0.138286
  11 H :    0.141648
  12 H :    0.170222
  13 H :    0.177834
  14 H :    0.201931

  Mayer bond orders larger than 0.1
B(  0-O ,  1-C ) :   1.1111 B(  0-O ,  9-H ) :   0.8282 B(  1-C ,  2-C ) :   1.4813
B(  1-C ,  8-N ) :   1.1563 B(  2-C ,  3-C ) :   1.2055 B(  2-C , 10-H ) :   0.9226
B(  3-C ,  4-C ) :   1.5139 B(  3-C , 11-H ) :   0.9246 B(  4-C ,  5-C ) :   0.9109
B(  4-C ,  8-N ) :   1.0576 B(  5-C ,  6-C ) :   0.9165 B(  5-C , 12-H ) :   0.9022
B(  5-C , 13-H ) :   0.9176 B(  6-C ,  7-N ) :   2.8523 B(  8-N , 14-H ) :   0.8610

MP2 TOTAL ENERGY:     -416.146723649 Eh
FINAL SINGLE POINT ENERGY      -416.146723649101

DIPOLE MOMENT
-------------
                                X             Y             Z
Electronic contribution:      2.23274       0.60495       2.41141
Nuclear contribution   :     -3.34989      -0.09150      -3.15789
                        -----------------------------------------
Total Dipole Moment    :     -1.11716       0.51345      -0.74648
                        -----------------------------------------
Magnitude (a.u.)       :      1.43837
Magnitude (Debye)      :      3.65605

                             ****ORCA TERMINATED NORMALLY****
TOTAL RUN TIME: 0 days 0 hours 14 minutes 5 seconds 567 msec
