                         Program Version 3.0.3 - RELEASE   -
|  1> ! RI-MP2 RIJK def2-TZVP def2-TZVP/C def2-TZVP/JK TIGHTSCF
|  2> % maxcore 2000
|  3> % mp2 density relaxed end
|  4> *xyz 0 1
|  5>  C        0.0622556011     1.5375245169     0.0807656772
|  6>  C       -0.0255596512     0.0459319228     0.0015775927
|  7>  C        0.0885964464    -0.7117164496    -1.0949253011
|  8>  C       -0.0200776580    -2.1747916880    -0.7959113010
|  9>  C        1.3135662073    -2.9475641244    -0.5020017122
| 10>  C        0.8542044063    -3.1753763865     0.9665181099
| 11>  C       -0.3721298380    -2.2447430155     0.7340316166
| 12>  O       -1.6344425294    -2.7400194367     1.1238309397
| 13>  C       -0.2644797809    -0.7900150497     1.2424529792
| 14>  H        0.8787360759     1.8534851162     0.7431799227
| 15>  H        0.2307918471     1.9854850905    -0.9023714032
| 16>  H       -0.8576449142     1.9661899501     0.4989718904
| 17>  H        0.2722347798    -0.3198560251    -2.0910478476
| 18>  H       -0.7038216572    -2.7216376958    -1.4538826333
| 19>  H        1.4766591057    -3.8550278456    -1.0879983515
| 20>  H        2.1969816496    -2.3126115531    -0.5952160979
| 21>  H        0.5403200845    -4.2070060882     1.1577763857
| 22>  H        1.5497546394    -2.8828478476     1.7580886856
| 23>  H       -1.7289133148    -3.6306770227     0.7702826360
| 24>  H        0.5438615149    -0.6646548162     1.9753488108
| 25>  H       -1.1939572344    -0.5111589818     1.7537852013
| 26> *
| 27>
| 28>                          ****END OF INPUT****

CARTESIAN COORDINATES (ANGSTROEM)
---------------------------------
  C      0.062256    1.537525    0.080766
  C     -0.025560    0.045932    0.001578
  C      0.088596   -0.711716   -1.094925
  C     -0.020078   -2.174792   -0.795911
  C      1.313566   -2.947564   -0.502002
  C      0.854204   -3.175376    0.966518
  C     -0.372130   -2.244743    0.734032
  O     -1.634443   -2.740019    1.123831
  C     -0.264480   -0.790015    1.242453
  H      0.878736    1.853485    0.743180
  H      0.230792    1.985485   -0.902371
  H     -0.857645    1.966190    0.498972
  H      0.272235   -0.319856   -2.091048
  H     -0.703822   -2.721638   -1.453883
  H      1.476659   -3.855028   -1.087998
  H      2.196982   -2.312612   -0.595216
  H      0.540320   -4.207006    1.157776
  H      1.549755   -2.882848    1.758089
  H     -1.728913   -3.630677    0.770283
  H      0.543862   -0.664655    1.975349
  H     -1.193957   -0.511159    1.753785

 Total Charge           Charge          ....    0
 Multiplicity           Mult            ....    1
 Number of Electrons    NEL             ....   68
 Basis Dimension        Dim             ....  351

ORBITAL ENERGIES
----------------

  NO   OCC          E(Eh)            E(eV)
   0   2.0000     -20.552960      -559.2745
   1   2.0000     -11.279069      -306.9191
   2   2.0000     -11.228760      -305.5501
   3   2.0000     -11.222406      -305.3772
   4   2.0000     -11.220351      -305.3213
   5   2.0000     -11.220210      -305.3174
   6   2.0000     -11.219556      -305.2997
   7   2.0000     -11.217535      -305.2447
   8   2.0000     -11.211623      -305.0838
   9   2.0000      -1.362146       -37.0659
  10   2.0000      -1.149970       -31.2923
  11   2.0000      -1.065419       -28.9915
  12   2.0000      -0.964898       -26.2562
  13   2.0000      -0.961385       -26.1606
  14   2.0000      -0.861362       -23.4388
  15   2.0000      -0.847983       -23.0748
  16   2.0000      -0.745911       -20.2973
  17   2.0000      -0.724162       -19.7054
  18   2.0000      -0.674249       -18.3472
  19   2.0000      -0.646371       -17.5886
  20   2.0000      -0.602350       -16.3908
  21   2.0000      -0.590055       -16.0562
  22   2.0000      -0.581692       -15.8286
  23   2.0000      -0.574680       -15.6378
  24   2.0000      -0.560871       -15.2621
  25   2.0000      -0.543285       -14.7835
  26   2.0000      -0.522002       -14.2044
  27   2.0000      -0.509875       -13.8744
  28   2.0000      -0.480694       -13.0804
  29   2.0000      -0.470934       -12.8148
  30   2.0000      -0.463882       -12.6229
  31   2.0000      -0.426603       -11.6085
  32   2.0000      -0.397961       -10.8291
  33   2.0000      -0.330322        -8.9885
  34   0.0000       0.132506         3.6057
  35   0.0000       0.148779         4.0485
  36   0.0000       0.156998         4.2721
  37   0.0000       0.166076         4.5192
  38   0.0000       0.178967         4.8700

MULLIKEN ATOMIC CHARGES
-----------------------
   0 C :   -0.434850
   1 C :   -0.003103
   2 C :   -0.256300
   3 C :    0.036208
   4 C :   -0.262496
   5 C :   -0.246274
   6 C :    0.222128
   7 O :   -0.459829
   8 C :   -0.233081
   9 H :    0.136210
  10 H :    0.135207
  11 H :    0.140845
  12 H :    0.118589
  13 H :    0.100084
  14 H :    0.108977
  15 H :    0.121468
  16 H :    0.104572
  17 H :    0.113836
  18 H :    0.311475
  19 H :    0.118328
  20 H :    0.128004
Sum of atomic charges:    0.0000000

LOEWDIN ATOMIC CHARGES
----------------------
   0 C :   -0.275112
   1 C :   -0.181157
   2 C :   -0.129477
   3 C :   -0.177105
   4 C :   -0.213502
   5 C :   -0.211398
   6 C :   -0.309702
   7 O :    0.011214
   8 C :   -0.168350
   9 H :    0.130399
  10 H :    0.129628
  11 H :    0.131831
  12 H :    0.137530
  13 H :    0.143416
  14 H :    0.124341
  15 H :    0.132532
  16 H :    0.131354
  17 H :    0.127322
  18 H :    0.172803
  19 H :    0.143710
  20 H :    0.149723

  Mayer bond orders larger than 0.1
B(  0-C ,  1-C ) :   0.8936 B(  0-C ,  9-H ) :   0.9285 B(  0-C , 10-H ) :   0.9468
B(  0-C , 11-H ) :   0.9349 B(  1-C ,  2-C ) :   1.7499 B(  1-C ,  8-C ) :   0.9893
B(  2-C ,  3-C ) :   0.9166 B(  2-C , 12-H ) :   0.9217 B(  3-C ,  4-C ) :   0.9208
B(  3-C ,  6-C ) :   0.9225 B(  3-C , 13-H ) :   0.9067 B(  4-C ,  5-C ) :   0.9748
B(  4-C , 14-H ) :   0.9235 B(  4-C , 15-H ) :   0.9142 B(  5-C ,  6-C ) :   0.9175
B(  5-C , 16-H ) :   0.9121 B(  5-C , 17-H ) :   0.9153 B(  6-C ,  7-O ) :   1.0012
B(  6-C ,  8-C ) :   0.9061 B(  7-O , 18-H ) :   0.8410 B(  8-C , 19-H ) :   0.9125
B(  8-C , 20-H ) :   0.9000

MP2 TOTAL ENERGY:     -386.420072665 Eh
FINAL SINGLE POINT ENERGY      -386.420072664817

DIPOLE MOMENT
-------------
                                X             Y             Z
Electronic contribution:     -2.91558      -2.60425      -0.08407
Nuclear contribution   :      3.27901       2.39006      -0.16572
                        -----------------------------------------
Total Dipole Moment    :      0.36343      -0.21418      -0.24979
                        -----------------------------------------
Magnitude (a.u.)       :      0.49025
Magnitude (Debye)      :      1.24613

                             ****ORCA TERMINATED NORMALLY****
TOTAL RUN TIME: 0 days 0 hours 20 minutes 39 seconds 819 msec
