                         Program Version 3.0.3 - RELEASE   -
|  1> ! RI-MP2 RIJK def2-TZVP def2-TZVP/C def2-TZVP/JK TIGHTSCF
|  2> % maxcore 2000
|  3> % mp2 density relaxed end
|  4> *xyz 0 1
|  5>  C        0.0715956451     1.5203160121    -0.2603957535
|  6>  C        0.0135204030     0.0713257271    -0.1381348068
|  7>  C       -0.0314865421    -1.1269980289    -0.0243439969
|  8>  C       -0.0717270756    -2.5612531615     0.0695826479
|  9>  N       -0.2596741710    -3.1663424654     1.4097059288
| 10>  C       -1.3188149455    -3.3239039727     0.4086513869
| 11>  C       -2.6104037267    -2.6362055036     0.6933343169
| 12>  C       -3.7745070358    -2.8120666720    -0.1827203923
| 13>  O       -3.6993050338    -3.4850978784     1.0743410544
| 14>  H        0.9553933924     1.8350581640    -0.8261956086
| 15>  H       -0.8108055591     1.9152136578    -0.7761080019
| 16>  H        0.1220676804     1.9972985865     0.7245709859
| 17>  H        0.6066597305    -3.0750908146    -0.6094842418
| 18>  H        0.2924743959    -4.0167620353     1.4840984907
| 19>  H       -1.4351273589    -4.2942146950    -0.0716594732
| 20>  H       -2.5211400730    -1.7194945248     1.2730038912
| 21>  H       -4.5207780118    -2.0220353916    -0.2518718223
| 22>  H       -3.6968018840    -3.4521840138    -1.0612920554
| 23> *
| 24>
| 25>                          ****END OF INPUT****

CARTESIAN COORDINATES (ANGSTROEM)
---------------------------------
  C      0.071596    1.520316   -0.260396
  C      0.013520    0.071326   -0.138135
  C     -0.031487   -1.126998   -0.024344
  C     -0.071727   -2.561253    0.069583
  N     -0.259674   -3.166342    1.409706
  C     -1.318815   -3.323904    0.408651
  C     -2.610404   -2.636206    0.693334
  C     -3.774507   -2.812067   -0.182720
  O     -3.699305   -3.485098    1.074341
  H      0.955393    1.835058   -0.826196
  H     -0.810806    1.915214   -0.776108
  H      0.122068    1.997299    0.724571
  H      0.606660   -3.075091   -0.609484
  H      0.292474   -4.016762    1.484098
  H     -1.435127   -4.294215   -0.071659
  H     -2.521140   -1.719495    1.273004
  H     -4.520778   -2.022035   -0.251872
  H     -3.696802   -3.452184   -1.061292

 Total Charge           Charge          ....    0
 Multiplicity           Mult            ....    1
 Number of Electrons    NEL             ....   66
 Basis Dimension        Dim             ....  333

ORBITAL ENERGIES
----------------

  NO   OCC          E(Eh)            E(eV)
   0   2.0000     -20.567429      -559.6682
   1   2.0000     -15.572630      -423.7528
   2   2.0000     -11.291312      -307.2522
   3   2.0000     -11.287843      -307.1578
   4   2.0000     -11.283096      -307.0287
   5   2.0000     -11.277671      -306.8810
   6   2.0000     -11.250060      -306.1297
   7   2.0000     -11.230984      -305.6106
   8   2.0000     -11.222740      -305.3863
   9   2.0000      -1.410841       -38.3909
  10   2.0000      -1.278424       -34.7877
  11   2.0000      -1.062875       -28.9223
  12   2.0000      -0.982014       -26.7220
  13   2.0000      -0.970793       -26.4166
  14   2.0000      -0.900004       -24.4904
  15   2.0000      -0.888832       -24.1864
  16   2.0000      -0.806575       -21.9480
  17   2.0000      -0.730351       -19.8739
  18   2.0000      -0.703356       -19.1393
  19   2.0000      -0.663706       -18.0604
  20   2.0000      -0.639838       -17.4109
  21   2.0000      -0.610071       -16.6009
  22   2.0000      -0.590882       -16.0787
  23   2.0000      -0.589764       -16.0483
  24   2.0000      -0.558869       -15.2076
  25   2.0000      -0.536891       -14.6095
  26   2.0000      -0.523189       -14.2367
  27   2.0000      -0.506637       -13.7863
  28   2.0000      -0.456665       -12.4265
  29   2.0000      -0.436583       -11.8800
  30   2.0000      -0.421147       -11.4600
  31   2.0000      -0.375585       -10.2202
  32   2.0000      -0.357293        -9.7224
  33   0.0000       0.129316         3.5189
  34   0.0000       0.136293         3.7087
  35   0.0000       0.160518         4.3679
  36   0.0000       0.175018         4.7625
  37   0.0000       0.187301         5.0967

MULLIKEN ATOMIC CHARGES
-----------------------
   0 C :   -0.477444
   1 C :    0.073797
   2 C :    0.051475
   3 C :   -0.292321
   4 N :   -0.363053
   5 C :    0.034952
   6 C :    0.017083
   7 C :   -0.084572
   8 O :   -0.328731
   9 H :    0.162711
  10 H :    0.161142
  11 H :    0.166259
  12 H :    0.137924
  13 H :    0.223254
  14 H :    0.135710
  15 H :    0.150010
  16 H :    0.117989
  17 H :    0.113816
Sum of atomic charges:   -0.0000000

LOEWDIN ATOMIC CHARGES
----------------------
   0 C :   -0.293457
   1 C :   -0.090255
   2 C :   -0.069717
   3 C :   -0.240075
   4 N :    0.026804
   5 C :   -0.233404
   6 C :   -0.268019
   7 C :   -0.263277
   8 O :    0.147183
   9 H :    0.141881
  10 H :    0.140634
  11 H :    0.143004
  12 H :    0.153670
  13 H :    0.169805
  14 H :    0.146598
  15 H :    0.149068
  16 H :    0.119961
  17 H :    0.119597

  Mayer bond orders larger than 0.1
B(  0-C ,  1-C ) :   0.8696 B(  0-C ,  9-H ) :   0.9487 B(  0-C , 10-H ) :   0.9449
B(  0-C , 11-H ) :   0.9411 B(  1-C ,  2-C ) :   2.6798 B(  1-C ,  3-C ) :  -0.1563
B(  2-C ,  3-C ) :   1.1003 B(  3-C ,  4-N ) :   0.9982 B(  3-C ,  5-C ) :   0.8775
B(  3-C , 12-H ) :   0.9450 B(  4-N ,  5-C ) :   0.8501 B(  4-N , 13-H ) :   0.8652
B(  5-C ,  6-C ) :   0.9519 B(  5-C , 14-H ) :   0.9195 B(  6-C ,  7-C ) :   0.9716
B(  6-C ,  8-O ) :   0.8817 B(  6-C , 15-H ) :   0.9074 B(  7-C ,  8-O ) :   0.9104
B(  7-C , 16-H ) :   0.9222 B(  7-C , 17-H ) :   0.9079

MP2 TOTAL ENERGY:     -401.164739464 Eh
FINAL SINGLE POINT ENERGY      -401.164739463540

DIPOLE MOMENT
-------------
                                X             Y             Z
Electronic contribution:     -0.64327      -4.34689       2.09438
Nuclear contribution   :      1.07051       4.63290      -3.08172
                        -----------------------------------------
Total Dipole Moment    :      0.42724       0.28601      -0.98734
                        -----------------------------------------
Magnitude (a.u.)       :      1.11318
Magnitude (Debye)      :      2.82949

                             ****ORCA TERMINATED NORMALLY****
TOTAL RUN TIME: 0 days 0 hours 16 minutes 38 seconds 573 msec
