                         Program Version 3.0.3 - RELEASE   -
|  1> ! RI-MP2 RIJK def2-TZVP def2-TZVP/C def2-TZVP/JK TIGHTSCF
|  2> % maxcore 2000
|  3> % mp2 density relaxed end
|  4> *xyz 0 1
|  5>  C       -0.0618203262     1.5367345385    -0.1988949704
|  6>  C        0.0234456833     0.0490450661     0.1354386795
|  7>  O        0.7426612989    -0.1876047876     1.3454904626
|  8>  C       -1.3509494511    -0.5951477163     0.1906865886
|  9>  N       -1.8391057057    -1.2505101408    -1.0345897104
| 10>  C       -1.5573258601    -2.0646138388     0.1535007881
| 11>  C       -0.4006422524    -3.0507618552     0.0644013932
| 12>  C       -0.8487654817    -4.3807204642    -0.3473798268
| 13>  N       -1.2236410746    -5.4274732266    -0.6619523976
| 14>  H        0.9375388770     1.9780264249    -0.2323755485
| 15>  H       -0.5462951738     1.6873168609    -1.1685658609
| 16>  H       -0.6494976130     2.0731679156     0.5573129149
| 17>  H        0.6068491897    -0.4538087495    -0.6414098743
| 18>  H        0.3182105602     0.3171647300     2.0481688072
| 19>  H       -2.0777473197    -0.0365974356     0.7835695974
| 20>  H       -2.8383660815    -1.1160183284    -1.1579133426
| 21>  H       -2.4079418528    -2.4436342800     0.7161236406
| 22>  H        0.3407213390    -2.6933898209    -0.6546804357
| 23>  H        0.0999610043    -3.1248697721     1.0358583749
| 24> *
| 25>
| 26>                          ****END OF INPUT****

CARTESIAN COORDINATES (ANGSTROEM)
---------------------------------
  C     -0.061820    1.536735   -0.198895
  C      0.023446    0.049045    0.135439
  O      0.742661   -0.187605    1.345490
  C     -1.350949   -0.595148    0.190687
  N     -1.839106   -1.250510   -1.034590
  C     -1.557326   -2.064614    0.153501
  C     -0.400642   -3.050762    0.064401
  C     -0.848765   -4.380720   -0.347380
  N     -1.223641   -5.427473   -0.661952
  H      0.937539    1.978026   -0.232376
  H     -0.546295    1.687317   -1.168566
  H     -0.649498    2.073168    0.557313
  H      0.606849   -0.453809   -0.641410
  H      0.318211    0.317165    2.048169
  H     -2.077747   -0.036597    0.783570
  H     -2.838366   -1.116018   -1.157913
  H     -2.407942   -2.443634    0.716124
  H      0.340721   -2.693390   -0.654680
  H      0.099961   -3.124870    1.035858

 Total Charge           Charge          ....    0
 Multiplicity           Mult            ....    1
 Number of Electrons    NEL             ....   68
 Basis Dimension        Dim             ....  339

ORBITAL ENERGIES
----------------

  NO   OCC          E(Eh)            E(eV)
   0   2.0000     -20.570778      -559.7593
   1   2.0000     -15.580213      -423.9592
   2   2.0000     -15.564681      -423.5365
   3   2.0000     -11.298336      -307.4434
   4   2.0000     -11.289810      -307.2114
   5   2.0000     -11.281034      -306.9725
   6   2.0000     -11.279805      -306.9391
   7   2.0000     -11.269624      -306.6620
   8   2.0000     -11.232824      -305.6607
   9   2.0000      -1.377078       -37.4722
  10   2.0000      -1.287876       -35.0449
  11   2.0000      -1.213973       -33.0339
  12   2.0000      -1.056038       -28.7363
  13   2.0000      -1.040263       -28.3070
  14   2.0000      -0.923877       -25.1400
  15   2.0000      -0.863082       -23.4856
  16   2.0000      -0.809849       -22.0371
  17   2.0000      -0.743393       -20.2287
  18   2.0000      -0.689428       -18.7603
  19   2.0000      -0.685518       -18.6539
  20   2.0000      -0.644031       -17.5250
  21   2.0000      -0.631195       -17.1757
  22   2.0000      -0.618575       -16.8323
  23   2.0000      -0.580826       -15.8051
  24   2.0000      -0.567914       -15.4537
  25   2.0000      -0.551484       -15.0066
  26   2.0000      -0.541762       -14.7421
  27   2.0000      -0.504128       -13.7180
  28   2.0000      -0.500095       -13.6083
  29   2.0000      -0.480130       -13.0650
  30   2.0000      -0.471887       -12.8407
  31   2.0000      -0.453848       -12.3498
  32   2.0000      -0.449490       -12.2312
  33   2.0000      -0.411363       -11.1938
  34   0.0000       0.115486         3.1425
  35   0.0000       0.131876         3.5885
  36   0.0000       0.143726         3.9110
  37   0.0000       0.153877         4.1872
  38   0.0000       0.175728         4.7818

MULLIKEN ATOMIC CHARGES
-----------------------
   0 C :   -0.411259
   1 C :    0.094818
   2 O :   -0.475370
   3 C :   -0.053375
   4 N :   -0.400458
   5 C :   -0.038238
   6 C :   -0.126534
   7 C :   -0.178695
   8 N :   -0.058129
   9 H :    0.154065
  10 H :    0.145266
  11 H :    0.115889
  12 H :    0.103340
  13 H :    0.312097
  14 H :    0.127400
  15 H :    0.227518
  16 H :    0.139253
  17 H :    0.155236
  18 H :    0.167176
Sum of atomic charges:   -0.0000000

LOEWDIN ATOMIC CHARGES
----------------------
   0 C :   -0.297553
   1 C :   -0.359447
   2 O :   -0.020161
   3 C :   -0.248575
   4 N :    0.016722
   5 C :   -0.242874
   6 C :   -0.222209
   7 C :   -0.187472
   8 N :    0.055008
   9 H :    0.128668
  10 H :    0.133092
  11 H :    0.121075
  12 H :    0.149822
  13 H :    0.174475
  14 H :    0.140978
  15 H :    0.170280
  16 H :    0.146415
  17 H :    0.170394
  18 H :    0.171362

  Mayer bond orders larger than 0.1
B(  0-C ,  1-C ) :   0.9398 B(  0-C ,  9-H ) :   0.9432 B(  0-C , 10-H ) :   0.9341
B(  0-C , 11-H ) :   0.9221 B(  1-C ,  2-O ) :   0.8964 B(  1-C ,  3-C ) :   0.9028
B(  1-C , 12-H ) :   0.9317 B(  2-O , 13-H ) :   0.8427 B(  3-C ,  4-N ) :   0.9117
B(  3-C ,  5-C ) :   0.8929 B(  3-C , 14-H ) :   0.9038 B(  4-N ,  5-C ) :   0.9303
B(  4-N , 15-H ) :   0.8653 B(  5-C ,  6-C ) :   0.9011 B(  5-C , 16-H ) :   0.9176
B(  6-C ,  7-C ) :   0.9277 B(  6-C , 17-H ) :   0.9111 B(  6-C , 18-H ) :   0.9113
B(  7-C ,  8-N ) :   2.8812

MP2 TOTAL ENERGY:     -418.494726347 Eh
FINAL SINGLE POINT ENERGY      -418.494726347227

DIPOLE MOMENT
-------------
                                X             Y             Z
Electronic contribution:     -1.09735      -9.50857      -0.46802
Nuclear contribution   :      0.70034      11.48692       1.28929
                        -----------------------------------------
Total Dipole Moment    :     -0.39701       1.97836       0.82127
                        -----------------------------------------
Magnitude (a.u.)       :      2.17853
Magnitude (Debye)      :      5.53738

                             ****ORCA TERMINATED NORMALLY****
TOTAL RUN TIME: 0 days 0 hours 18 minutes 59 seconds 630 msec
