                         Program Version 3.0.3 - RELEASE   -
|  1> ! RI-MP2 RIJK def2-TZVP def2-TZVP/C def2-TZVP/JK TIGHTSCF
|  2> % maxcore 2000
|  3> % mp2 density relaxed end
|  4> *xyz 0 1
|  5>  C       -0.2409966963     1.1494448673    -0.3483595618
|  6>  C        1.1511839232     1.0425038097     0.1731164643
|  7>  N        0.2886923872    -0.1298244948     0.1093453788
|  8>  C       -0.1989430348    -0.7075418185     1.3478972396
|  9>  C       -0.7659665577     0.1701121445     2.5019239668
| 10>  O       -2.1013046743    -0.3144256597     2.2664732968
| 11>  C       -1.6419979077    -1.2480413398     1.2659432465
| 12>  H       -0.9723712959     1.6691985599     0.2661432167
| 13>  H       -0.4214266157     1.2181315268    -1.4173771250
| 14>  H        1.9996318841     1.0438358276    -0.5055222239
| 15>  H        1.3495073048     1.4861428368     1.1476016566
| 16>  H        0.5463216051    -1.4346230770     1.6796920434
| 17>  H       -0.3981607994    -0.1049468637     3.4990200094
| 18>  H       -0.6951433705     1.2591536554     2.3935844889
| 19>  H       -2.1328813432    -1.0960792256     0.2979373583
| 20>  H       -1.7763352188    -2.2898297490     1.5821139445
| 21> *
| 22>
| 23>                          ****END OF INPUT****

CARTESIAN COORDINATES (ANGSTROEM)
---------------------------------
  C     -0.240997    1.149445   -0.348360
  C      1.151184    1.042504    0.173116
  N      0.288692   -0.129824    0.109345
  C     -0.198943   -0.707542    1.347897
  C     -0.765967    0.170112    2.501924
  O     -2.101305   -0.314426    2.266473
  C     -1.641998   -1.248041    1.265943
  H     -0.972371    1.669199    0.266143
  H     -0.421427    1.218132   -1.417377
  H      1.999632    1.043836   -0.505522
  H      1.349507    1.486143    1.147602
  H      0.546322   -1.434623    1.679692
  H     -0.398161   -0.104947    3.499020
  H     -0.695143    1.259154    2.393584
  H     -2.132881   -1.096079    0.297937
  H     -1.776335   -2.289830    1.582114

 Total Charge           Charge          ....    0
 Multiplicity           Mult            ....    1
 Number of Electrons    NEL             ....   54
 Basis Dimension        Dim             ....  271

ORBITAL ENERGIES
----------------

  NO   OCC          E(Eh)            E(eV)
   0   2.0000     -20.548314      -559.1480
   1   2.0000     -15.566079      -423.5745
   2   2.0000     -11.279146      -306.9212
   3   2.0000     -11.275212      -306.8141
   4   2.0000     -11.265948      -306.5620
   5   2.0000     -11.260463      -306.4128
   6   2.0000     -11.258353      -306.3554
   7   2.0000      -1.379374       -37.5347
   8   2.0000      -1.277409       -34.7601
   9   2.0000      -1.029893       -28.0248
  10   2.0000      -0.937572       -25.5126
  11   2.0000      -0.883561       -24.0429
  12   2.0000      -0.848905       -23.0999
  13   2.0000      -0.751877       -20.4596
  14   2.0000      -0.710021       -19.3206
  15   2.0000      -0.684835       -18.6353
  16   2.0000      -0.661271       -17.9941
  17   2.0000      -0.604105       -16.4385
  18   2.0000      -0.589318       -16.0362
  19   2.0000      -0.563363       -15.3299
  20   2.0000      -0.532456       -14.4889
  21   2.0000      -0.520430       -14.1616
  22   2.0000      -0.493855       -13.4385
  23   2.0000      -0.468677       -12.7534
  24   2.0000      -0.435913       -11.8618
  25   2.0000      -0.418242       -11.3809
  26   2.0000      -0.374087       -10.1794
  27   0.0000       0.146791         3.9944
  28   0.0000       0.155835         4.2405
  29   0.0000       0.159763         4.3474
  30   0.0000       0.178497         4.8571
  31   0.0000       0.201645         5.4870

MULLIKEN ATOMIC CHARGES
-----------------------
   0 C :   -0.193806
   1 C :   -0.186915
   2 N :   -0.227159
   3 C :   -0.048753
   4 C :   -0.044380
   5 O :   -0.330784
   6 C :   -0.019265
   7 H :    0.140295
   8 H :    0.132762
   9 H :    0.131466
  10 H :    0.128515
  11 H :    0.115830
  12 H :    0.099616
  13 H :    0.098354
  14 H :    0.105062
  15 H :    0.099162
Sum of atomic charges:   -0.0000000

LOEWDIN ATOMIC CHARGES
----------------------
   0 C :   -0.264267
   1 C :   -0.264749
   2 N :    0.110332
   3 C :   -0.283686
   4 C :   -0.269838
   5 O :    0.107895
   6 C :   -0.248823
   7 H :    0.126415
   8 H :    0.125084
   9 H :    0.124668
  10 H :    0.122821
  11 H :    0.142399
  12 H :    0.117340
  13 H :    0.115283
  14 H :    0.121823
  15 H :    0.117304

  Mayer bond orders larger than 0.1
B(  0-C ,  1-C ) :   0.9252 B(  0-C ,  2-N ) :   0.8831 B(  0-C ,  7-H ) :   0.9251
B(  0-C ,  8-H ) :   0.9293 B(  1-C ,  2-N ) :   0.8839 B(  1-C ,  9-H ) :   0.9258
B(  1-C , 10-H ) :   0.9274 B(  2-N ,  3-C ) :   0.9481 B(  3-C ,  4-C ) :   0.9466
B(  3-C ,  6-C ) :   0.9519 B(  3-C , 11-H ) :   0.9307 B(  4-C ,  5-O ) :   0.9579
B(  4-C , 12-H ) :   0.9116 B(  4-C , 13-H ) :   0.9046 B(  5-O ,  6-C ) :   0.9477
B(  6-C , 14-H ) :   0.9062 B(  6-C , 15-H ) :   0.9194

MP2 TOTAL ENERGY:     -325.158802444 Eh
FINAL SINGLE POINT ENERGY      -325.158802444290

DIPOLE MOMENT
-------------
                                X             Y             Z
Electronic contribution:     -1.52079      -1.43693       0.62566
Nuclear contribution   :      2.10455       1.65459      -0.63842
                        -----------------------------------------
Total Dipole Moment    :      0.58377       0.21767      -0.01276
                        -----------------------------------------
Magnitude (a.u.)       :      0.62316
Magnitude (Debye)      :      1.58394

                             ****ORCA TERMINATED NORMALLY****
TOTAL RUN TIME: 0 days 0 hours 7 minutes 49 seconds 195 msec
