                         Program Version 3.0.3 - RELEASE   -
|  1> ! RI-MP2 RIJK def2-TZVP def2-TZVP/C def2-TZVP/JK TIGHTSCF
|  2> % maxcore 2000
|  3> % mp2 density relaxed end
|  4> *xyz 0 1
|  5>  C       -0.2300780880     1.4615441193    -0.0212646032
|  6>  N        0.0660146201     0.0401848418     0.0774098642
|  7>  C        1.3880256203    -0.5086071623    -0.1957236630
|  8>  C        2.5876422147     0.3764521349    -0.1312464493
|  9>  C        2.7450977536     0.9110120811     1.0831055832
| 10>  C        1.7074748861     0.4143209063     2.0619146607
| 11>  C        0.8055040610    -0.4877906784     1.2213158722
| 12>  C        0.2349806167    -1.7207298517     1.8241389278
| 13>  O        0.5310371734    -2.1442703514     2.9151407981
| 14>  H        0.6043987070     2.1269174418     0.2350241061
| 15>  H       -0.5387326265     1.6765353192    -1.0488300879
| 16>  H       -1.0728868521     1.6842342207     0.6397954876
| 17>  H        1.3935713772    -1.3973111260    -0.8217425862
| 18>  H        3.2188254726     0.5593135289    -0.9928331081
| 19>  H        3.5047592942     1.6348562027     1.3572876030
| 20>  H        2.1419496767    -0.1764000007     2.8762246387
| 21>  H        1.1553875036     1.2356626087     2.5366809897
| 22>  H       -0.4998795106    -2.2332641447     1.1664608565
| 23> *
| 24>
| 25>                          ****END OF INPUT****

CARTESIAN COORDINATES (ANGSTROEM)
---------------------------------
  C     -0.230078    1.461544   -0.021265
  N      0.066015    0.040185    0.077410
  C      1.388026   -0.508607   -0.195724
  C      2.587642    0.376452   -0.131246
  C      2.745098    0.911012    1.083106
  C      1.707475    0.414321    2.061915
  C      0.805504   -0.487791    1.221316
  C      0.234981   -1.720730    1.824139
  O      0.531037   -2.144270    2.915141
  H      0.604399    2.126917    0.235024
  H     -0.538733    1.676535   -1.048830
  H     -1.072887    1.684234    0.639795
  H      1.393571   -1.397311   -0.821743
  H      3.218825    0.559314   -0.992833
  H      3.504759    1.634856    1.357288
  H      2.141950   -0.176400    2.876225
  H      1.155388    1.235663    2.536681
  H     -0.499880   -2.233264    1.166461

 Total Charge           Charge          ....    0
 Multiplicity           Mult            ....    1
 Number of Electrons    NEL             ....   66
 Basis Dimension        Dim             ....  333

ORBITAL ENERGIES
----------------

  NO   OCC          E(Eh)            E(eV)
   0   2.0000     -20.552518      -559.2625
   1   2.0000     -15.579454      -423.9385
   2   2.0000     -11.328529      -308.2649
   3   2.0000     -11.282618      -307.0156
   4   2.0000     -11.277040      -306.8639
   5   2.0000     -11.254159      -306.2412
   6   2.0000     -11.246636      -306.0365
   7   2.0000     -11.242208      -305.9160
   8   2.0000     -11.241051      -305.8846
   9   2.0000      -1.392139       -37.8820
  10   2.0000      -1.300494       -35.3882
  11   2.0000      -1.106156       -30.1000
  12   2.0000      -1.010400       -27.4944
  13   2.0000      -0.987291       -26.8656
  14   2.0000      -0.882644       -24.0180
  15   2.0000      -0.843216       -22.9451
  16   2.0000      -0.765604       -20.8331
  17   2.0000      -0.739080       -20.1114
  18   2.0000      -0.708227       -19.2718
  19   2.0000      -0.665788       -18.1170
  20   2.0000      -0.642738       -17.4898
  21   2.0000      -0.615024       -16.7357
  22   2.0000      -0.598562       -16.2877
  23   2.0000      -0.579098       -15.7581
  24   2.0000      -0.563668       -15.3382
  25   2.0000      -0.553671       -15.0662
  26   2.0000      -0.537286       -14.6203
  27   2.0000      -0.526282       -14.3209
  28   2.0000      -0.484695       -13.1892
  29   2.0000      -0.438491       -11.9320
  30   2.0000      -0.424744       -11.5579
  31   2.0000      -0.391810       -10.6617
  32   2.0000      -0.357592        -9.7306
  33   0.0000       0.119278         3.2457
  34   0.0000       0.131759         3.5853
  35   0.0000       0.141864         3.8603
  36   0.0000       0.167366         4.5543
  37   0.0000       0.174231         4.7411

MULLIKEN ATOMIC CHARGES
-----------------------
   0 C :   -0.305633
   1 N :   -0.226884
   2 C :   -0.024145
   3 C :   -0.196484
   4 C :   -0.203956
   5 C :   -0.182679
   6 C :    0.167908
   7 C :    0.035591
   8 O :   -0.277673
   9 H :    0.126626
  10 H :    0.143640
  11 H :    0.144000
  12 H :    0.136650
  13 H :    0.137888
  14 H :    0.133179
  15 H :    0.159800
  16 H :    0.136413
  17 H :    0.095759
Sum of atomic charges:   -0.0000000

LOEWDIN ATOMIC CHARGES
----------------------
   0 C :   -0.316136
   1 N :    0.144869
   2 C :   -0.182438
   3 C :   -0.148654
   4 C :   -0.144275
   5 C :   -0.194967
   6 C :   -0.238952
   7 C :   -0.263821
   8 O :    0.128985
   9 H :    0.113993
  10 H :    0.122068
  11 H :    0.122290
  12 H :    0.143517
  13 H :    0.141571
  14 H :    0.138820
  15 H :    0.159812
  16 H :    0.151347
  17 H :    0.121971

  Mayer bond orders larger than 0.1
B(  0-C ,  1-N ) :   0.8744 B(  0-C ,  9-H ) :   0.9158 B(  0-C , 10-H ) :   0.9376
B(  0-C , 11-H ) :   0.9356 B(  1-N ,  2-C ) :   0.9187 B(  1-N ,  6-C ) :   0.8428
B(  2-C ,  3-C ) :   0.9378 B(  2-C ,  6-C ) :   0.8051 B(  2-C , 12-H ) :   0.9123
B(  3-C ,  4-C ) :   1.7472 B(  3-C , 13-H ) :   0.9258 B(  4-C ,  5-C ) :   0.9589
B(  4-C , 14-H ) :   0.9314 B(  5-C ,  6-C ) :   0.9369 B(  5-C , 15-H ) :   0.8893
B(  5-C , 16-H ) :   0.9061 B(  6-C ,  7-C ) :   0.8531 B(  7-C ,  8-O ) :   1.9867
B(  7-C , 17-H ) :   0.9617

MP2 TOTAL ENERGY:     -401.238626756 Eh
FINAL SINGLE POINT ENERGY      -401.238626756268

DIPOLE MOMENT
-------------
                                X             Y             Z
Electronic contribution:     -0.01887      -5.43337       2.15257
Nuclear contribution   :      0.34317       6.35977      -2.89055
                        -----------------------------------------
Total Dipole Moment    :      0.32430       0.92640      -0.73798
                        -----------------------------------------
Magnitude (a.u.)       :      1.22801
Magnitude (Debye)      :      3.12136

                             ****ORCA TERMINATED NORMALLY****
TOTAL RUN TIME: 0 days 0 hours 19 minutes 16 seconds 765 msec
