                         Program Version 3.0.3 - RELEASE   -
|  1> ! RI-MP2 RIJK def2-TZVP def2-TZVP/C def2-TZVP/JK TIGHTSCF
|  2> % maxcore 2000
|  3> % mp2 density relaxed end
|  4> *xyz 0 1
|  5>  O       -0.1591179331     1.4428471125     0.4387615549
|  6>  C       -0.0047654107     0.0699703384     0.2251480717
|  7>  C       -0.7297509290    -0.9052360960     1.1183732687
|  8>  C       -1.2073817396    -0.6635530198    -0.2985718143
|  9>  C       -2.4974534613     0.1081840959    -0.5452118308
| 10>  C       -3.6870801446    -0.7043514541    -0.3450731254
| 11>  C       -4.6655913282    -1.3934354835    -0.1761046987
| 12>  C       -5.7716957554    -2.1692191887     0.0165507995
| 13>  N       -6.7129719312    -2.8303893918     0.1814748673
| 14>  H        0.3052709247     1.6753390255     1.2493748542
| 15>  H        0.9671302385    -0.2226408389    -0.1709035122
| 16>  H       -0.2617707953    -1.8529375133     1.3594505407
| 17>  H       -1.3291525247    -0.4777788385     1.9159640936
| 18>  H       -1.0163379098    -1.4538568670    -1.0172587966
| 19>  H       -2.5290607596     0.9803980904     0.1165921408
| 20>  H       -2.5049696707     0.5056477990    -1.5686209034
| 21> *
| 22>
| 23>                          ****END OF INPUT****

CARTESIAN COORDINATES (ANGSTROEM)
---------------------------------
  O     -0.159118    1.442847    0.438762
  C     -0.004765    0.069970    0.225148
  C     -0.729751   -0.905236    1.118373
  C     -1.207382   -0.663553   -0.298572
  C     -2.497453    0.108184   -0.545212
  C     -3.687080   -0.704351   -0.345073
  C     -4.665591   -1.393435   -0.176105
  C     -5.771696   -2.169219    0.016551
  N     -6.712972   -2.830389    0.181475
  H      0.305271    1.675339    1.249375
  H      0.967130   -0.222641   -0.170904
  H     -0.261771   -1.852938    1.359451
  H     -1.329153   -0.477779    1.915964
  H     -1.016338   -1.453857   -1.017259
  H     -2.529061    0.980398    0.116592
  H     -2.504970    0.505648   -1.568621

 Total Charge           Charge          ....    0
 Multiplicity           Mult            ....    1
 Number of Electrons    NEL             ....   64
 Basis Dimension        Dim             ....  321

ORBITAL ENERGIES
----------------

  NO   OCC          E(Eh)            E(eV)
   0   2.0000     -20.583740      -560.1120
   1   2.0000     -15.586352      -424.1262
   2   2.0000     -11.304954      -307.6234
   3   2.0000     -11.295347      -307.3620
   4   2.0000     -11.288853      -307.1853
   5   2.0000     -11.277724      -306.8825
   6   2.0000     -11.268725      -306.6376
   7   2.0000     -11.261047      -306.4287
   8   2.0000     -11.246228      -306.0254
   9   2.0000      -1.394010       -37.9329
  10   2.0000      -1.227329       -33.3973
  11   2.0000      -1.165817       -31.7235
  12   2.0000      -1.095869       -29.8201
  13   2.0000      -1.013203       -27.5707
  14   2.0000      -0.875536       -23.8246
  15   2.0000      -0.848884       -23.0993
  16   2.0000      -0.810063       -22.0429
  17   2.0000      -0.735879       -20.0243
  18   2.0000      -0.687790       -18.7157
  19   2.0000      -0.661924       -18.0119
  20   2.0000      -0.637753       -17.3541
  21   2.0000      -0.617469       -16.8022
  22   2.0000      -0.572135       -15.5686
  23   2.0000      -0.569290       -15.4912
  24   2.0000      -0.546026       -14.8581
  25   2.0000      -0.529986       -14.4217
  26   2.0000      -0.523732       -14.2515
  27   2.0000      -0.516611       -14.0577
  28   2.0000      -0.439109       -11.9488
  29   2.0000      -0.424994       -11.5647
  30   2.0000      -0.396379       -10.7860
  31   2.0000      -0.394489       -10.7346
  32   0.0000       0.103602         2.8192
  33   0.0000       0.105385         2.8677
  34   0.0000       0.122700         3.3388
  35   0.0000       0.141201         3.8423
  36   0.0000       0.150028         4.0825

MULLIKEN ATOMIC CHARGES
-----------------------
   0 O :   -0.473849
   1 C :    0.027703
   2 C :   -0.312458
   3 C :   -0.046358
   4 C :   -0.350073
   5 C :   -0.082983
   6 C :    0.274180
   7 C :   -0.220646
   8 N :   -0.042690
   9 H :    0.330735
  10 H :    0.118498
  11 H :    0.138977
  12 H :    0.146502
  13 H :    0.140389
  14 H :    0.189745
  15 H :    0.162328
Sum of atomic charges:   -0.0000000

LOEWDIN ATOMIC CHARGES
----------------------
   0 O :   -0.002067
   1 C :   -0.317994
   2 C :   -0.212603
   3 C :   -0.195983
   4 C :   -0.218244
   5 C :    0.011032
   6 C :   -0.063122
   7 C :   -0.180325
   8 N :    0.091934
   9 H :    0.184056
  10 H :    0.132818
  11 H :    0.135018
  12 H :    0.141311
  13 H :    0.153293
  14 H :    0.172401
  15 H :    0.168475

  Mayer bond orders larger than 0.1
B(  0-O ,  1-C ) :   1.0088 B(  0-O ,  9-H ) :   0.8370 B(  1-C ,  2-C ) :   0.8914
B(  1-C ,  3-C ) :   0.8700 B(  1-C , 10-H ) :   0.9494 B(  2-C ,  3-C ) :   0.8907
B(  2-C , 11-H ) :   0.9216 B(  2-C , 12-H ) :   0.9227 B(  3-C ,  4-C ) :   0.8948
B(  3-C , 13-H ) :   0.9168 B(  4-C ,  5-C ) :   1.0311 B(  4-C ,  6-C ) :  -0.1113
B(  4-C , 14-H ) :   0.9332 B(  4-C , 15-H ) :   0.9132 B(  5-C ,  6-C ) :   2.5277
B(  5-C ,  8-N ) :   0.1124 B(  6-C ,  7-C ) :   0.9767 B(  7-C ,  8-N ) :   2.7698

MP2 TOTAL ENERGY:     -400.012840754 Eh
FINAL SINGLE POINT ENERGY      -400.012840753734

DIPOLE MOMENT
-------------
                                X             Y             Z
Electronic contribution:     -9.62973      -3.04743      -0.95276
Nuclear contribution   :     11.71138       3.85450       1.15550
                        -----------------------------------------
Total Dipole Moment    :      2.08165       0.80708       0.20274
                        -----------------------------------------
Magnitude (a.u.)       :      2.24182
Magnitude (Debye)      :      5.69825

                             ****ORCA TERMINATED NORMALLY****
TOTAL RUN TIME: 0 days 0 hours 12 minutes 45 seconds 730 msec
