                         Program Version 3.0.3 - RELEASE   -
|  1> ! RI-MP2 RIJK def2-TZVP def2-TZVP/C def2-TZVP/JK TIGHTSCF
|  2> % maxcore 2000
|  3> % mp2 density relaxed end
|  4> *xyz 0 1
|  5>  C        0.0219464819     1.4714607331     0.0746019688
|  6>  C       -0.0684569271    -0.0068875124    -0.0336407000
|  7>  N        0.0261219164    -0.7069604957    -1.0962911696
|  8>  C       -0.0258525171    -2.0903531882    -0.6526109829
|  9>  C       -0.5730313391    -2.1509264134     0.7102650863
| 10>  C        0.9018600646    -2.5380461232     0.5386514467
| 11>  C        1.2180389624    -1.3478363046     1.3546750276
| 12>  O        2.1229139482    -0.9185474202     1.9953018989
| 13>  N       -0.1774969373    -0.7885403925     1.2026405711
| 14>  H        0.8579039649     1.7422535158     0.7291517719
| 15>  H        0.1681607518     1.9169730467    -0.9096177263
| 16>  H       -0.8861512257     1.8716043704     0.5370491657
| 17>  H       -0.2050735146    -2.8541864703    -1.3985529730
| 18>  H       -1.3884153301    -2.7036363357     1.1563245123
| 19>  H        1.3920017506    -3.5017033597     0.5274207526
| 20> *
| 21>
| 22>                          ****END OF INPUT****

CARTESIAN COORDINATES (ANGSTROEM)
---------------------------------
  C      0.021946    1.471461    0.074602
  C     -0.068457   -0.006888   -0.033641
  N      0.026122   -0.706960   -1.096291
  C     -0.025853   -2.090353   -0.652611
  C     -0.573031   -2.150926    0.710265
  C      0.901860   -2.538046    0.538651
  C      1.218039   -1.347836    1.354675
  O      2.122914   -0.918547    1.995302
  N     -0.177497   -0.788540    1.202641
  H      0.857904    1.742254    0.729152
  H      0.168161    1.916973   -0.909618
  H     -0.886151    1.871604    0.537049
  H     -0.205074   -2.854186   -1.398553
  H     -1.388415   -2.703636    1.156325
  H      1.392002   -3.501703    0.527421

 Total Charge           Charge          ....    0
 Multiplicity           Mult            ....    1
 Number of Electrons    NEL             ....   64
 Basis Dimension        Dim             ....  315

ORBITAL ENERGIES
----------------

  NO   OCC          E(Eh)            E(eV)
   0   2.0000     -20.566709      -559.6486
   1   2.0000     -15.599780      -424.4916
   2   2.0000     -15.569928      -423.6793
   3   2.0000     -11.381488      -309.7060
   4   2.0000     -11.329743      -308.2980
   5   2.0000     -11.304962      -307.6237
   6   2.0000     -11.303388      -307.5808
   7   2.0000     -11.277379      -306.8731
   8   2.0000     -11.241349      -305.8927
   9   2.0000      -1.427752       -38.8511
  10   2.0000      -1.358110       -36.9560
  11   2.0000      -1.199832       -32.6491
  12   2.0000      -1.121328       -30.5129
  13   2.0000      -1.000747       -27.2317
  14   2.0000      -0.925524       -25.1848
  15   2.0000      -0.841587       -22.9008
  16   2.0000      -0.799359       -21.7517
  17   2.0000      -0.734026       -19.9739
  18   2.0000      -0.711036       -19.3483
  19   2.0000      -0.690081       -18.7781
  20   2.0000      -0.646142       -17.5824
  21   2.0000      -0.631053       -17.1718
  22   2.0000      -0.597693       -16.2641
  23   2.0000      -0.577326       -15.7098
  24   2.0000      -0.565248       -15.3812
  25   2.0000      -0.545800       -14.8520
  26   2.0000      -0.520208       -14.1556
  27   2.0000      -0.498755       -13.5718
  28   2.0000      -0.461904       -12.5690
  29   2.0000      -0.451294       -12.2803
  30   2.0000      -0.423240       -11.5170
  31   2.0000      -0.374502       -10.1907
  32   0.0000       0.112972         3.0741
  33   0.0000       0.143801         3.9130
  34   0.0000       0.149707         4.0737
  35   0.0000       0.163529         4.4498
  36   0.0000       0.175131         4.7656

MULLIKEN ATOMIC CHARGES
-----------------------
   0 C :   -0.426706
   1 C :    0.144041
   2 N :   -0.207701
   3 C :   -0.027680
   4 C :   -0.024124
   5 C :   -0.196761
   6 C :    0.199091
   7 O :   -0.237705
   8 N :   -0.173568
   9 H :    0.164947
  10 H :    0.156544
  11 H :    0.151751
  12 H :    0.149277
  13 H :    0.166709
  14 H :    0.161885
Sum of atomic charges:   -0.0000000

LOEWDIN ATOMIC CHARGES
----------------------
   0 C :   -0.259815
   1 C :   -0.296331
   2 N :    0.140948
   3 C :   -0.199195
   4 C :   -0.151375
   5 C :   -0.114154
   6 C :   -0.347983
   7 O :    0.180418
   8 N :    0.179356
   9 H :    0.146035
  10 H :    0.138890
  11 H :    0.141034
  12 H :    0.152136
  13 H :    0.141880
  14 H :    0.148155

  Mayer bond orders larger than 0.1
B(  0-C ,  1-C ) :   0.8909 B(  0-C ,  9-H ) :   0.9170 B(  0-C , 10-H ) :   0.9464
B(  0-C , 11-H ) :   0.9238 B(  1-C ,  2-N ) :   1.8680 B(  1-C ,  8-N ) :   0.9277
B(  2-N ,  3-C ) :   0.9561 B(  3-C ,  4-C ) :   0.8983 B(  3-C ,  5-C ) :   0.7941
B(  3-C , 12-H ) :   0.9359 B(  4-C ,  5-C ) :   0.7836 B(  4-C ,  8-N ) :   0.9261
B(  4-C , 13-H ) :   0.9012 B(  5-C ,  6-C ) :   1.0094 B(  5-C , 14-H ) :   0.9004
B(  6-C ,  7-O ) :   2.0535 B(  6-C ,  8-N ) :   0.8736

MP2 TOTAL ENERGY:     -416.082636466 Eh
FINAL SINGLE POINT ENERGY      -416.082636466218

DIPOLE MOMENT
-------------
                                X             Y             Z
Electronic contribution:      1.61048      -2.91032       1.72545
Nuclear contribution   :     -2.31886       2.18811      -2.05267
                        -----------------------------------------
Total Dipole Moment    :     -0.70838      -0.72220      -0.32723
                        -----------------------------------------
Magnitude (a.u.)       :      1.06323
Magnitude (Debye)      :      2.70251

                             ****ORCA TERMINATED NORMALLY****
TOTAL RUN TIME: 0 days 0 hours 16 minutes 53 seconds 63 msec
