                         Program Version 3.0.3 - RELEASE   -
|  1> ! RI-MP2 RIJK def2-TZVP def2-TZVP/C def2-TZVP/JK TIGHTSCF
|  2> % maxcore 2000
|  3> % mp2 density relaxed end
|  4> *xyz 0 1
|  5>  C       -0.2312941741     1.6256776259    -0.0562768323
|  6>  C        0.0251829688     0.1249234514    -0.0210822731
|  7>  C        1.1113917120    -0.5852265753    -0.8942607520
|  8>  C        2.4129085445     0.1404713921    -0.4960340720
|  9>  C        2.3654274493    -0.3155076859     0.9758065994
| 10>  C        2.5253430552    -1.8530116106     0.8222402095
| 11>  C        1.1320506571    -1.7601431866     0.1835459692
| 12>  C        0.7853933399    -0.5693050983     1.1200703172
| 13>  O        0.2656445874    -0.7892188572     2.3922673378
| 14>  H        0.6650342996     2.2145240725     0.1594870985
| 15>  H       -0.6106178815     1.9425609364    -1.0343007483
| 16>  H       -0.9870242165     1.8976884508     0.6893625455
| 17>  H       -0.9233536449    -0.4124198613    -0.1449350541
| 18>  H        0.9295855408    -0.7885827584    -1.9484559607
| 19>  H        3.3002284264    -0.2356489182    -1.0144717722
| 20>  H        2.3659435680     1.2209343231    -0.6468744372
| 21>  H        2.9232458552     0.2498942311     1.7237907625
| 22>  H        3.3755773773    -2.2219110203     0.2399158267
| 23>  H        2.4700210293    -2.3750789813     1.7802335347
| 24>  H        0.4592051795    -2.6021820632     0.0274480472
| 25>  H        0.4322163570    -0.0069680569     2.9287581440
| 26> *
| 27>
| 28>                          ****END OF INPUT****

CARTESIAN COORDINATES (ANGSTROEM)
---------------------------------
  C     -0.231294    1.625678   -0.056277
  C      0.025183    0.124923   -0.021082
  C      1.111392   -0.585227   -0.894261
  C      2.412909    0.140471   -0.496034
  C      2.365427   -0.315508    0.975807
  C      2.525343   -1.853012    0.822240
  C      1.132051   -1.760143    0.183546
  C      0.785393   -0.569305    1.120070
  O      0.265645   -0.789219    2.392267
  H      0.665034    2.214524    0.159487
  H     -0.610618    1.942561   -1.034301
  H     -0.987024    1.897688    0.689363
  H     -0.923354   -0.412420   -0.144935
  H      0.929586   -0.788583   -1.948456
  H      3.300228   -0.235649   -1.014472
  H      2.365944    1.220934   -0.646874
  H      2.923246    0.249894    1.723791
  H      3.375577   -2.221911    0.239916
  H      2.470021   -2.375079    1.780234
  H      0.459205   -2.602182    0.027448
  H      0.432216   -0.006968    2.928758

 Total Charge           Charge          ....    0
 Multiplicity           Mult            ....    1
 Number of Electrons    NEL             ....   68
 Basis Dimension        Dim             ....  351

ORBITAL ENERGIES
----------------

  NO   OCC          E(Eh)            E(eV)
   0   2.0000     -20.559719      -559.4584
   1   2.0000     -11.279862      -306.9406
   2   2.0000     -11.230434      -305.5956
   3   2.0000     -11.230396      -305.5946
   4   2.0000     -11.223227      -305.3995
   5   2.0000     -11.223026      -305.3941
   6   2.0000     -11.217810      -305.2521
   7   2.0000     -11.215983      -305.2024
   8   2.0000     -11.213408      -305.1323
   9   2.0000      -1.370414       -37.2909
  10   2.0000      -1.204253       -32.7694
  11   2.0000      -1.037284       -28.2259
  12   2.0000      -0.965754       -26.2795
  13   2.0000      -0.947193       -25.7744
  14   2.0000      -0.877459       -23.8769
  15   2.0000      -0.795665       -21.6511
  16   2.0000      -0.759438       -20.6653
  17   2.0000      -0.720123       -19.5955
  18   2.0000      -0.696529       -18.9535
  19   2.0000      -0.647490       -17.6191
  20   2.0000      -0.627455       -17.0739
  21   2.0000      -0.614735       -16.7278
  22   2.0000      -0.578447       -15.7403
  23   2.0000      -0.561100       -15.2683
  24   2.0000      -0.542518       -14.7627
  25   2.0000      -0.529506       -14.4086
  26   2.0000      -0.516780       -14.0623
  27   2.0000      -0.490538       -13.3482
  28   2.0000      -0.474287       -12.9060
  29   2.0000      -0.455197       -12.3865
  30   2.0000      -0.437279       -11.8990
  31   2.0000      -0.421177       -11.4608
  32   2.0000      -0.392303       -10.6751
  33   2.0000      -0.387618       -10.5476
  34   0.0000       0.129374         3.5204
  35   0.0000       0.153405         4.1744
  36   0.0000       0.165754         4.5104
  37   0.0000       0.169156         4.6030
  38   0.0000       0.187022         5.0891

MULLIKEN ATOMIC CHARGES
-----------------------
   0 C :   -0.435480
   1 C :   -0.069711
   2 C :   -0.052840
   3 C :   -0.291623
   4 C :   -0.123138
   5 C :   -0.227704
   6 C :   -0.135789
   7 C :    0.131401
   8 O :   -0.457974
   9 H :    0.123914
  10 H :    0.137296
  11 H :    0.135669
  12 H :    0.098450
  13 H :    0.129870
  14 H :    0.116132
  15 H :    0.122103
  16 H :    0.123453
  17 H :    0.111242
  18 H :    0.118615
  19 H :    0.121880
  20 H :    0.324233
Sum of atomic charges:    0.0000000

LOEWDIN ATOMIC CHARGES
----------------------
   0 C :   -0.301861
   1 C :   -0.209310
   2 C :   -0.152842
   3 C :   -0.206690
   4 C :   -0.169092
   5 C :   -0.207233
   6 C :   -0.134357
   7 C :   -0.290691
   8 O :    0.024884
   9 H :    0.120835
  10 H :    0.126751
  11 H :    0.126323
  12 H :    0.160679
  13 H :    0.131966
  14 H :    0.135102
  15 H :    0.131905
  16 H :    0.129135
  17 H :    0.123053
  18 H :    0.142689
  19 H :    0.136145
  20 H :    0.182610

  Mayer bond orders larger than 0.1
B(  0-C ,  1-C ) :   0.8726 B(  0-C ,  9-H ) :   0.9400 B(  0-C , 10-H ) :   0.9373
B(  0-C , 11-H ) :   0.9398 B(  1-C ,  2-C ) :   0.8869 B(  1-C ,  7-C ) :   0.9378
B(  1-C , 12-H ) :   0.9198 B(  2-C ,  3-C ) :   0.9103 B(  2-C ,  6-C ) :   0.8861
B(  2-C , 13-H ) :   0.9107 B(  3-C ,  4-C ) :   0.9115 B(  3-C , 14-H ) :   0.9162
B(  3-C , 15-H ) :   0.9396 B(  4-C ,  5-C ) :   0.9197 B(  4-C ,  7-C ) :   0.8868
B(  4-C , 16-H ) :   0.9105 B(  5-C ,  6-C ) :   0.9626 B(  5-C , 17-H ) :   0.9192
B(  5-C , 18-H ) :   0.9147 B(  6-C ,  7-C ) :   0.8766 B(  6-C , 19-H ) :   0.9051
B(  7-C ,  8-O ) :   1.0335 B(  8-O , 20-H ) :   0.8366

MP2 TOTAL ENERGY:     -386.394748938 Eh
FINAL SINGLE POINT ENERGY      -386.394748938327

DIPOLE MOMENT
-------------
                                X             Y             Z
Electronic contribution:     -0.56576      -3.15494       2.78741
Nuclear contribution   :      0.76928       3.66907      -2.88380
                        -----------------------------------------
Total Dipole Moment    :      0.20352       0.51412      -0.09639
                        -----------------------------------------
Magnitude (a.u.)       :      0.56128
Magnitude (Debye)      :      1.42666

                             ****ORCA TERMINATED NORMALLY****
TOTAL RUN TIME: 0 days 0 hours 20 minutes 30 seconds 720 msec
