                         Program Version 3.0.3 - RELEASE   -
|  1> ! RI-MP2 RIJK def2-TZVP def2-TZVP/C def2-TZVP/JK TIGHTSCF
|  2> % maxcore 2000
|  3> % mp2 density relaxed end
|  4> *xyz 0 1
|  5>  C        0.0538679008     0.7206646728     0.3820812697
|  6>  O        0.9793946653     0.4592135367    -0.6610207374
|  7>  C        0.5361989876    -0.4797389180    -1.6111631114
|  8>  C        0.5281650943    -1.9189624276    -1.0744058001
|  9>  C        1.5050716983    -2.9030409831    -1.6441925596
| 10>  N        1.7114904495    -2.3581275555    -0.3076002655
| 11>  C       -0.7414105306    -2.4048361469    -0.5755743470
| 12>  N       -1.7772300432    -2.7683536369    -0.2119192408
| 13>  H       -0.9171209818     1.0444714631    -0.0193509028
| 14>  H       -0.1066001079    -0.1562489925     1.0222211462
| 15>  H        0.4786648428     1.5262517120     0.9844554996
| 16>  H       -0.4626433842    -0.2226011423    -1.9928650207
| 17>  H        1.2478011953    -0.4138517178    -2.4394689482
| 18>  H        1.2418762656    -3.9557735961    -1.6730856863
| 19>  H        2.1202173192    -2.5565495379    -2.4707941147
| 20>  H        2.3799789690    -1.5891171300    -0.3129193210
| 21> *
| 22>
| 23>                          ****END OF INPUT****

CARTESIAN COORDINATES (ANGSTROEM)
---------------------------------
  C      0.053868    0.720665    0.382081
  O      0.979395    0.459214   -0.661021
  C      0.536199   -0.479739   -1.611163
  C      0.528165   -1.918962   -1.074406
  C      1.505072   -2.903041   -1.644193
  N      1.711490   -2.358128   -0.307600
  C     -0.741411   -2.404836   -0.575574
  N     -1.777230   -2.768354   -0.211919
  H     -0.917121    1.044471   -0.019351
  H     -0.106600   -0.156249    1.022221
  H      0.478665    1.526252    0.984455
  H     -0.462643   -0.222601   -1.992865
  H      1.247801   -0.413852   -2.439469
  H      1.241876   -3.955774   -1.673086
  H      2.120217   -2.556550   -2.470794
  H      2.379979   -1.589117   -0.312919

 Total Charge           Charge          ....    0
 Multiplicity           Mult            ....    1
 Number of Electrons    NEL             ....   60
 Basis Dimension        Dim             ....  296

ORBITAL ENERGIES
----------------

  NO   OCC          E(Eh)            E(eV)
   0   2.0000     -20.579376      -559.9933
   1   2.0000     -15.594812      -424.3564
   2   2.0000     -15.575016      -423.8177
   3   2.0000     -11.321140      -308.0639
   4   2.0000     -11.312765      -307.8360
   5   2.0000     -11.295826      -307.3751
   6   2.0000     -11.282984      -307.0256
   7   2.0000     -11.277178      -306.8676
   8   2.0000      -1.400138       -38.0997
   9   2.0000      -1.305921       -35.5359
  10   2.0000      -1.218300       -33.1516
  11   2.0000      -1.027306       -27.9544
  12   2.0000      -0.955346       -25.9963
  13   2.0000      -0.909124       -24.7385
  14   2.0000      -0.870279       -23.6815
  15   2.0000      -0.730998       -19.8915
  16   2.0000      -0.719795       -19.5866
  17   2.0000      -0.678912       -18.4741
  18   2.0000      -0.670353       -18.2412
  19   2.0000      -0.633751       -17.2452
  20   2.0000      -0.584835       -15.9142
  21   2.0000      -0.559709       -15.2305
  22   2.0000      -0.557025       -15.1574
  23   2.0000      -0.547513       -14.8986
  24   2.0000      -0.527154       -14.3446
  25   2.0000      -0.506430       -13.7807
  26   2.0000      -0.472531       -12.8582
  27   2.0000      -0.462402       -12.5826
  28   2.0000      -0.442886       -12.0515
  29   2.0000      -0.417538       -11.3618
  30   0.0000       0.130391         3.5481
  31   0.0000       0.145199         3.9511
  32   0.0000       0.149125         4.0579
  33   0.0000       0.158973         4.3259
  34   0.0000       0.178119         4.8469

MULLIKEN ATOMIC CHARGES
-----------------------
   0 C :   -0.231985
   1 O :   -0.313556
   2 C :   -0.026871
   3 C :    0.162854
   4 C :   -0.172537
   5 N :   -0.351650
   6 C :   -0.206882
   7 N :   -0.049468
   8 H :    0.121346
   9 H :    0.145846
  10 H :    0.145873
  11 H :    0.128500
  12 H :    0.126922
  13 H :    0.144055
  14 H :    0.137730
  15 H :    0.239823
Sum of atomic charges:    0.0000000

LOEWDIN ATOMIC CHARGES
----------------------
   0 C :   -0.340749
   1 O :    0.133483
   2 C :   -0.282760
   3 C :   -0.303395
   4 C :   -0.214794
   5 N :    0.041222
   6 C :   -0.157427
   7 N :    0.071493
   8 H :    0.107653
   9 H :    0.111686
  10 H :    0.116008
  11 H :    0.136259
  12 H :    0.139529
  13 H :    0.135852
  14 H :    0.127640
  15 H :    0.178301

  Mayer bond orders larger than 0.1
B(  0-C ,  1-O ) :   0.8891 B(  0-C ,  8-H ) :   0.9319 B(  0-C ,  9-H ) :   0.9298
B(  0-C , 10-H ) :   0.9367 B(  1-O ,  2-C ) :   0.9427 B(  2-C ,  3-C ) :   0.9078
B(  2-C , 11-H ) :   0.9374 B(  2-C , 12-H ) :   0.9197 B(  3-C ,  4-C ) :   0.9113
B(  3-C ,  5-N ) :   0.8612 B(  3-C ,  6-C ) :   0.9161 B(  4-C ,  5-N ) :   0.9598
B(  4-C , 13-H ) :   0.9133 B(  4-C , 14-H ) :   0.9075 B(  5-N , 15-H ) :   0.8606
B(  6-C ,  7-N ) :   2.8731

MP2 TOTAL ENERGY:     -379.252858480 Eh
FINAL SINGLE POINT ENERGY      -379.252858480075

DIPOLE MOMENT
-------------
                                X             Y             Z
Electronic contribution:     -1.76097      -3.76283       0.28263
Nuclear contribution   :      2.71276       4.43911      -1.17251
                        -----------------------------------------
Total Dipole Moment    :      0.95179       0.67628      -0.88988
                        -----------------------------------------
Magnitude (a.u.)       :      1.46804
Magnitude (Debye)      :      3.73147

                             ****ORCA TERMINATED NORMALLY****
TOTAL RUN TIME: 0 days 0 hours 11 minutes 47 seconds 243 msec
