                         Program Version 3.0.3 - RELEASE   -
|  1> ! RI-MP2 RIJK def2-TZVP def2-TZVP/C def2-TZVP/JK TIGHTSCF
|  2> % maxcore 2000
|  3> % mp2 density relaxed end
|  4> *xyz 0 1
|  5>  C       -0.0457927265     1.4627695155     0.0789214863
|  6>  C        0.0159154651    -0.0366129774    -0.0417123301
|  7>  C        0.6785507299    -0.6542439832    -1.2972224444
|  8>  C        0.0560188066    -2.0817994088    -1.2774586123
|  9>  C       -0.8064308513    -1.9917154538    -0.0000949614
| 10>  C        0.1189363767    -1.9250868908     1.2293867316
| 11>  O        0.6634447966    -0.6037270673     1.1110190409
| 12>  O       -1.2730361311    -0.6351160604    -0.0372924555
| 13>  H        0.9654217469     1.8761386953     0.1088862990
| 14>  H       -0.5756390583     1.8890385026    -0.7763469422
| 15>  H       -0.5653850633     1.7390556859     0.9988423504
| 16>  H        0.4047299039    -0.1008940409    -2.1991245104
| 17>  H        1.7659349263    -0.6526391337    -1.2034430620
| 18>  H       -0.5749422898    -2.2576611347    -2.1513871996
| 19>  H        0.7993484632    -2.8812623446    -1.2271017331
| 20>  H       -1.6451086033    -2.6827035972     0.0731324801
| 21>  H       -0.4348230521    -2.0151173617     2.1715148161
| 22>  H        0.9184028905    -2.6746643549     1.2084885366
| 23> *
| 24>
| 25>                          ****END OF INPUT****

CARTESIAN COORDINATES (ANGSTROEM)
---------------------------------
  C     -0.045793    1.462770    0.078921
  C      0.015915   -0.036613   -0.041712
  C      0.678551   -0.654244   -1.297222
  C      0.056019   -2.081799   -1.277459
  C     -0.806431   -1.991715   -0.000095
  C      0.118936   -1.925087    1.229387
  O      0.663445   -0.603727    1.111019
  O     -1.273036   -0.635116   -0.037292
  H      0.965422    1.876139    0.108886
  H     -0.575639    1.889039   -0.776347
  H     -0.565385    1.739056    0.998842
  H      0.404730   -0.100894   -2.199125
  H      1.765935   -0.652639   -1.203443
  H     -0.574942   -2.257661   -2.151387
  H      0.799348   -2.881262   -1.227102
  H     -1.645109   -2.682704    0.073132
  H     -0.434823   -2.015117    2.171515
  H      0.918403   -2.674664    1.208489

 Total Charge           Charge          ....    0
 Multiplicity           Mult            ....    1
 Number of Electrons    NEL             ....   62
 Basis Dimension        Dim             ....  308

ORBITAL ENERGIES
----------------

  NO   OCC          E(Eh)            E(eV)
   0   2.0000     -20.558759      -559.4323
   1   2.0000     -20.551529      -559.2355
   2   2.0000     -11.331918      -308.3572
   3   2.0000     -11.285354      -307.0901
   4   2.0000     -11.275145      -306.8123
   5   2.0000     -11.229920      -305.5817
   6   2.0000     -11.224697      -305.4395
   7   2.0000     -11.216251      -305.2097
   8   2.0000      -1.440263       -39.1916
   9   2.0000      -1.322209       -35.9791
  10   2.0000      -1.059773       -28.8379
  11   2.0000      -1.052893       -28.6507
  12   2.0000      -0.945331       -25.7238
  13   2.0000      -0.872086       -23.7307
  14   2.0000      -0.807847       -21.9826
  15   2.0000      -0.777491       -21.1566
  16   2.0000      -0.698118       -18.9967
  17   2.0000      -0.681186       -18.5360
  18   2.0000      -0.653535       -17.7836
  19   2.0000      -0.611865       -16.6497
  20   2.0000      -0.580365       -15.7925
  21   2.0000      -0.571799       -15.5594
  22   2.0000      -0.544179       -14.8079
  23   2.0000      -0.533374       -14.5138
  24   2.0000      -0.521278       -14.1847
  25   2.0000      -0.512721       -13.9519
  26   2.0000      -0.497264       -13.5312
  27   2.0000      -0.486796       -13.2464
  28   2.0000      -0.472052       -12.8452
  29   2.0000      -0.439526       -11.9601
  30   2.0000      -0.410991       -11.1836
  31   0.0000       0.139283         3.7901
  32   0.0000       0.153727         4.1831
  33   0.0000       0.172752         4.7008
  34   0.0000       0.179286         4.8786
  35   0.0000       0.199478         5.4281

MULLIKEN ATOMIC CHARGES
-----------------------
   0 C :   -0.407332
   1 C :    0.295384
   2 C :   -0.217846
   3 C :   -0.243078
   4 C :    0.020367
   5 C :   -0.044357
   6 O :   -0.320962
   7 O :   -0.303669
   8 H :    0.139041
   9 H :    0.135696
  10 H :    0.142058
  11 H :    0.113816
  12 H :    0.121422
  13 H :    0.121525
  14 H :    0.114569
  15 H :    0.133420
  16 H :    0.103695
  17 H :    0.096253
Sum of atomic charges:   -0.0000000

LOEWDIN ATOMIC CHARGES
----------------------
   0 C :   -0.260715
   1 C :   -0.446746
   2 C :   -0.210325
   3 C :   -0.232055
   4 C :   -0.299874
   5 C :   -0.274030
   6 O :    0.170860
   7 O :    0.216909
   8 H :    0.134932
   9 H :    0.132837
  10 H :    0.134572
  11 H :    0.136816
  12 H :    0.139496
  13 H :    0.136647
  14 H :    0.135034
  15 H :    0.140345
  16 H :    0.121809
  17 H :    0.123489

  Mayer bond orders larger than 0.1
B(  0-C ,  1-C ) :   0.8498 B(  0-C ,  8-H ) :   0.9376 B(  0-C ,  9-H ) :   0.9443
B(  0-C , 10-H ) :   0.9449 B(  1-C ,  2-C ) :   0.9518 B(  1-C ,  6-O ) :   0.9465
B(  1-C ,  7-O ) :   0.9834 B(  2-C ,  3-C ) :   0.9815 B(  2-C , 11-H ) :   0.9177
B(  2-C , 12-H ) :   0.9143 B(  3-C ,  4-C ) :   0.9577 B(  3-C , 13-H ) :   0.9206
B(  3-C , 14-H ) :   0.9186 B(  4-C ,  5-C ) :   0.9638 B(  4-C ,  7-O ) :   0.9258
B(  4-C , 15-H ) :   0.9091 B(  5-C ,  6-O ) :   0.9413 B(  5-C , 16-H ) :   0.9299
B(  5-C , 17-H ) :   0.9075

MP2 TOTAL ENERGY:     -384.333880609 Eh
FINAL SINGLE POINT ENERGY      -384.333880608998

DIPOLE MOMENT
-------------
                                X             Y             Z
Electronic contribution:     -1.55493      -0.61923       2.25275
Nuclear contribution   :      1.68270       0.15609      -2.66723
                        -----------------------------------------
Total Dipole Moment    :      0.12777      -0.46313      -0.41448
                        -----------------------------------------
Magnitude (a.u.)       :      0.63452
Magnitude (Debye)      :      1.61281

                             ****ORCA TERMINATED NORMALLY****
TOTAL RUN TIME: 0 days 0 hours 12 minutes 57 seconds 816 msec
