                         Program Version 3.0.3 - RELEASE   -
|  1> ! RI-MP2 RIJK def2-TZVP def2-TZVP/C def2-TZVP/JK TIGHTSCF
|  2> % maxcore 2000
|  3> % mp2 density relaxed end
|  4> *xyz 0 1
|  5>  N       -0.0855609867     1.2782082637     0.0101997161
|  6>  C       -0.0282752500     0.0173652184     0.0033769652
|  7>  O        1.1253157816    -0.7363393047    -0.0067413456
|  8>  C        0.7879941943    -2.0975150525    -0.0119367182
|  9>  O        1.6154873298    -2.9487932779    -0.0208257379
| 10>  C       -0.7075799196    -2.1633597089    -0.0042087515
| 11>  C       -1.5170468917    -3.4000297925    -0.0062206975
| 12>  O       -1.0656984197    -4.5159127515    -0.0143881862
| 13>  C       -1.1710641002    -0.9033434618     0.0048071770
| 14>  H        0.8499220192     1.6900510426     0.0072730842
| 15>  H       -2.6123829733    -3.2094505942     0.0006295361
| 16>  H       -2.1958269437    -0.5583410607     0.0121236283
| 17> *
| 18>
| 19>                          ****END OF INPUT****

CARTESIAN COORDINATES (ANGSTROEM)
---------------------------------
  N     -0.085561    1.278208    0.010200
  C     -0.028275    0.017365    0.003377
  O      1.125316   -0.736339   -0.006741
  C      0.787994   -2.097515   -0.011937
  O      1.615487   -2.948793   -0.020826
  C     -0.707580   -2.163360   -0.004209
  C     -1.517047   -3.400030   -0.006221
  O     -1.065698   -4.515913   -0.014388
  C     -1.171064   -0.903343    0.004807
  H      0.849922    1.690051    0.007273
  H     -2.612383   -3.209451    0.000630
  H     -2.195827   -0.558341    0.012124

 Total Charge           Charge          ....    0
 Multiplicity           Mult            ....    1
 Number of Electrons    NEL             ....   64
 Basis Dimension        Dim             ....  297

ORBITAL ENERGIES
----------------

  NO   OCC          E(Eh)            E(eV)
   0   2.0000     -20.649595      -561.9040
   1   2.0000     -20.590375      -560.2926
   2   2.0000     -20.584293      -560.1271
   3   2.0000     -15.593549      -424.3220
   4   2.0000     -11.422310      -310.8168
   5   2.0000     -11.387879      -309.8799
   6   2.0000     -11.371025      -309.4213
   7   2.0000     -11.326754      -308.2166
   8   2.0000     -11.311533      -307.8025
   9   2.0000      -1.510106       -41.0921
  10   2.0000      -1.428268       -38.8652
  11   2.0000      -1.418977       -38.6123
  12   2.0000      -1.247404       -33.9436
  13   2.0000      -1.167124       -31.7591
  14   2.0000      -0.976105       -26.5612
  15   2.0000      -0.912043       -24.8180
  16   2.0000      -0.852116       -23.1873
  17   2.0000      -0.801455       -21.8087
  18   2.0000      -0.748706       -20.3733
  19   2.0000      -0.704310       -19.1652
  20   2.0000      -0.696790       -18.9606
  21   2.0000      -0.694148       -18.8887
  22   2.0000      -0.655812       -17.8455
  23   2.0000      -0.650737       -17.7075
  24   2.0000      -0.602069       -16.3831
  25   2.0000      -0.577484       -15.7141
  26   2.0000      -0.554249       -15.0819
  27   2.0000      -0.511695       -13.9239
  28   2.0000      -0.489625       -13.3234
  29   2.0000      -0.482536       -13.1305
  30   2.0000      -0.453884       -12.3508
  31   2.0000      -0.421501       -11.4696
  32   0.0000       0.004832         0.1315
  33   0.0000       0.112469         3.0604
  34   0.0000       0.130913         3.5623
  35   0.0000       0.148054         4.0287
  36   0.0000       0.173580         4.7234

MULLIKEN ATOMIC CHARGES
-----------------------
   0 N :   -0.319150
   1 C :    0.190474
   2 O :   -0.213243
   3 C :    0.273074
   4 O :   -0.200217
   5 C :    0.036966
   6 C :    0.057900
   7 O :   -0.218442
   8 C :   -0.131426
   9 H :    0.245736
  10 H :    0.099139
  11 H :    0.179187
Sum of atomic charges:   -0.0000000

LOEWDIN ATOMIC CHARGES
----------------------
   0 N :    0.002333
   1 C :   -0.372445
   2 O :    0.297413
   3 C :   -0.373175
   4 O :    0.208602
   5 C :   -0.119957
   6 C :   -0.260142
   7 O :    0.175602
   8 C :   -0.023680
   9 H :    0.180163
  10 H :    0.123566
  11 H :    0.161720

  Mayer bond orders larger than 0.1
B(  0-N ,  1-C ) :   1.9975 B(  0-N ,  9-H ) :   0.8500 B(  1-C ,  2-O ) :   1.0246
B(  1-C ,  8-C ) :   1.0004 B(  2-O ,  3-C ) :   1.0042 B(  3-C ,  4-O ) :   2.0927
B(  3-C ,  5-C ) :   0.9019 B(  5-C ,  6-C ) :   0.8162 B(  5-C ,  8-C ) :   1.6185
B(  5-C , 10-H ) :  -0.1008 B(  6-C ,  7-O ) :   2.0307 B(  6-C , 10-H ) :   0.9825
B(  8-C , 11-H ) :   0.9089

MP2 TOTAL ENERGY:     -471.913009512 Eh
FINAL SINGLE POINT ENERGY      -471.913009511745

DIPOLE MOMENT
-------------
                                X             Y             Z
Electronic contribution:      2.43956      -1.98086      -0.02336
Nuclear contribution   :     -3.45915       2.92994       0.03376
                        -----------------------------------------
Total Dipole Moment    :     -1.01959       0.94908       0.01040
                        -----------------------------------------
Magnitude (a.u.)       :      1.39299
Magnitude (Debye)      :      3.54070

                             ****ORCA TERMINATED NORMALLY****
TOTAL RUN TIME: 0 days 0 hours 12 minutes 4 seconds 882 msec
