                         Program Version 3.0.3 - RELEASE   -
|  1> ! RI-MP2 RIJK def2-TZVP def2-TZVP/C def2-TZVP/JK TIGHTSCF
|  2> % maxcore 2000
|  3> % mp2 density relaxed end
|  4> *xyz 0 1
|  5>  C       -0.0618016044     1.5580651751     0.1529669522
|  6>  C       -0.0112445887     0.0349217542    -0.0001926971
|  7>  C        0.7138781747    -0.4873936361    -1.2687210256
|  8>  C        0.7258639790    -2.0320397961    -1.2475799207
|  9>  C       -0.0025570838    -0.0104233778    -2.5448268060
| 10>  O       -1.3590267724    -0.4382947840    -2.4726588817
| 11>  C        2.1601110425     0.0387476851    -1.3408713664
| 12>  N        2.9524401224    -0.2540968630    -0.2679585247
| 13>  O        2.5847264217     0.6782457372    -2.2870016201
| 14>  H        0.9396395003     2.0004489102     0.1533751785
| 15>  H       -0.6353829959     2.0239216902    -0.6532884532
| 16>  H       -0.5455858934     1.8291202155     1.0965090562
| 17>  H        0.4668867405    -0.4006477744     0.8862737504
| 18>  H       -1.0301758793    -0.3629559103    -0.0238338701
| 19>  H       -0.2972523680    -2.4028840051    -1.3435103149
| 20>  H        1.3143395732    -2.4338083469    -2.0787813918
| 21>  H        1.1455753560    -2.4265243422    -0.3165160489
| 22>  H        0.0708518490     1.0800007265    -2.6292907970
| 23>  H        0.5053491836    -0.4345474733    -3.4206608720
| 24>  H       -1.7986313145    -0.1636730451    -3.2816679877
| 25>  H        2.6482536705    -0.8384296702     0.4895382041
| 26>  H        3.9190150868     0.0238483204    -0.3090566737
| 27> *
| 28>
| 29>                          ****END OF INPUT****

CARTESIAN COORDINATES (ANGSTROEM)
---------------------------------
  C     -0.061802    1.558065    0.152967
  C     -0.011245    0.034922   -0.000193
  C      0.713878   -0.487394   -1.268721
  C      0.725864   -2.032040   -1.247580
  C     -0.002557   -0.010423   -2.544827
  O     -1.359027   -0.438295   -2.472659
  C      2.160111    0.038748   -1.340871
  N      2.952440   -0.254097   -0.267959
  O      2.584726    0.678246   -2.287002
  H      0.939640    2.000449    0.153375
  H     -0.635383    2.023922   -0.653288
  H     -0.545586    1.829120    1.096509
  H      0.466887   -0.400648    0.886274
  H     -1.030176   -0.362956   -0.023834
  H     -0.297252   -2.402884   -1.343510
  H      1.314340   -2.433808   -2.078781
  H      1.145575   -2.426524   -0.316516
  H      0.070852    1.080001   -2.629291
  H      0.505349   -0.434547   -3.420661
  H     -1.798631   -0.163673   -3.281668
  H      2.648254   -0.838430    0.489538
  H      3.919015    0.023848   -0.309057

 Total Charge           Charge          ....    0
 Multiplicity           Mult            ....    1
 Number of Electrons    NEL             ....   72
 Basis Dimension        Dim             ....  357

ORBITAL ENERGIES
----------------

  NO   OCC          E(Eh)            E(eV)
   0   2.0000     -20.555406      -559.3410
   1   2.0000     -20.515421      -558.2530
   2   2.0000     -15.579275      -423.9336
   3   2.0000     -11.346281      -308.7480
   4   2.0000     -11.269726      -306.6648
   5   2.0000     -11.248605      -306.0901
   6   2.0000     -11.226709      -305.4943
   7   2.0000     -11.222006      -305.3663
   8   2.0000     -11.213060      -305.1229
   9   2.0000      -1.380601       -37.5681
  10   2.0000      -1.359774       -37.0013
  11   2.0000      -1.208619       -32.8882
  12   2.0000      -1.099859       -29.9287
  13   2.0000      -0.999502       -27.1978
  14   2.0000      -0.924701       -25.1624
  15   2.0000      -0.869103       -23.6495
  16   2.0000      -0.839545       -22.8452
  17   2.0000      -0.756105       -20.5747
  18   2.0000      -0.719736       -19.5850
  19   2.0000      -0.696270       -18.9465
  20   2.0000      -0.649850       -17.6833
  21   2.0000      -0.640042       -17.4164
  22   2.0000      -0.617005       -16.7896
  23   2.0000      -0.597318       -16.2539
  24   2.0000      -0.587527       -15.9874
  25   2.0000      -0.563489       -15.3333
  26   2.0000      -0.554335       -15.0842
  27   2.0000      -0.543237       -14.7822
  28   2.0000      -0.526588       -14.3292
  29   2.0000      -0.515331       -14.0229
  30   2.0000      -0.491893       -13.3851
  31   2.0000      -0.471296       -12.8246
  32   2.0000      -0.456096       -12.4110
  33   2.0000      -0.440365       -11.9830
  34   2.0000      -0.413412       -11.2495
  35   2.0000      -0.410875       -11.1805
  36   0.0000       0.122306         3.3281
  37   0.0000       0.141927         3.8620
  38   0.0000       0.161978         4.4077
  39   0.0000       0.169262         4.6059
  40   0.0000       0.181073         4.9273

MULLIKEN ATOMIC CHARGES
-----------------------
   0 C :   -0.426940
   1 C :   -0.207862
   2 C :    0.109835
   3 C :   -0.418361
   4 C :   -0.112367
   5 O :   -0.480842
   6 C :    0.228691
   7 N :   -0.475644
   8 O :   -0.342812
   9 H :    0.135706
  10 H :    0.137704
  11 H :    0.134062
  12 H :    0.090170
  13 H :    0.141685
  14 H :    0.161704
  15 H :    0.140862
  16 H :    0.110276
  17 H :    0.127209
  18 H :    0.116763
  19 H :    0.318627
  20 H :    0.256021
  21 H :    0.255513
Sum of atomic charges:    0.0000000

LOEWDIN ATOMIC CHARGES
----------------------
   0 C :   -0.310736
   1 C :   -0.249544
   2 C :   -0.278246
   3 C :   -0.262745
   4 C :   -0.300142
   5 O :   -0.045775
   6 C :   -0.434966
   7 N :   -0.008116
   8 O :    0.088923
   9 H :    0.124939
  10 H :    0.124043
  11 H :    0.122534
  12 H :    0.131650
  13 H :    0.148427
  14 H :    0.134893
  15 H :    0.130011
  16 H :    0.117865
  17 H :    0.125116
  18 H :    0.126527
  19 H :    0.173740
  20 H :    0.168322
  21 H :    0.173278

  Mayer bond orders larger than 0.1
B(  0-C ,  1-C ) :   0.9202 B(  0-C ,  9-H ) :   0.9351 B(  0-C , 10-H ) :   0.9415
B(  0-C , 11-H ) :   0.9390 B(  1-C ,  2-C ) :   0.8906 B(  1-C , 12-H ) :   0.9205
B(  1-C , 13-H ) :   0.9251 B(  2-C ,  3-C ) :   0.9080 B(  2-C ,  4-C ) :   0.9180
B(  2-C ,  6-C ) :   0.8733 B(  3-C , 14-H ) :   0.9315 B(  3-C , 15-H ) :   0.9366
B(  3-C , 16-H ) :   0.9228 B(  4-C ,  5-O ) :   1.0028 B(  4-C , 17-H ) :   0.9306
B(  4-C , 18-H ) :   0.9240 B(  5-O , 19-H ) :   0.8477 B(  6-C ,  7-N ) :   1.1658
B(  6-C ,  8-O ) :   1.9927 B(  7-N , 20-H ) :   0.8677 B(  7-N , 21-H ) :   0.8574

MP2 TOTAL ENERGY:     -440.813279606 Eh
FINAL SINGLE POINT ENERGY      -440.813279606274

DIPOLE MOMENT
-------------
                                X             Y             Z
Electronic contribution:      3.87582       0.69259      -4.07319
Nuclear contribution   :     -3.93881      -1.13372       4.72776
                        -----------------------------------------
Total Dipole Moment    :     -0.06299      -0.44114       0.65458
                        -----------------------------------------
Magnitude (a.u.)       :      0.79186
Magnitude (Debye)      :      2.01274

                             ****ORCA TERMINATED NORMALLY****
TOTAL RUN TIME: 0 days 0 hours 20 minutes 41 seconds 967 msec
