                         Program Version 3.0.3 - RELEASE   -
|  1> ! RI-MP2 RIJK def2-TZVP def2-TZVP/C def2-TZVP/JK TIGHTSCF
|  2> % maxcore 2000
|  3> % mp2 density relaxed end
|  4> *xyz 0 1
|  5>  C       -0.0451594417     1.5571326818     0.0538873648
|  6>  C       -0.0380026201     0.0246713078    -0.0092225701
|  7>  C        0.5026163005    -0.5051060334    -1.3624253777
|  8>  C        1.9909308092    -0.8655100527    -1.2757535180
|  9>  C        2.1782878302    -1.8843479092    -0.1487583588
| 10>  C        1.9866553755    -0.9117052018     1.0224937303
| 11>  C        2.9008692495     0.2319627033     0.5688155073
| 12>  O        2.7688643204     0.2737733896    -0.8589928928
| 13>  O        0.6209316629    -0.5412776650     1.1410110587
| 14>  H        0.9226003896     1.9798663625    -0.2247725455
| 15>  H       -0.7927478665     1.9492600794    -0.6446179305
| 16>  H       -0.3101817789     1.8899388008     1.0611421083
| 17>  H       -1.0742899120    -0.3122220737     0.1048810723
| 18>  H       -0.0470037599    -1.4021583682    -1.6703039289
| 19>  H        0.3423058429     0.2534069538    -2.1348330311
| 20>  H        2.3768647321    -1.1860172778    -2.2468918715
| 21>  H        1.4403058890    -2.6880940340    -0.1499702140
| 22>  H        3.1857337236    -2.3107645347    -0.1528636828
| 23>  H        2.2665960193    -1.3124702572     1.9991879068
| 24>  H        2.6111344410     1.1937115650     1.0007850175
| 25>  H        3.9459141032     0.0254181736     0.8394084656
| 26> *
| 27>
| 28>                          ****END OF INPUT****

CARTESIAN COORDINATES (ANGSTROEM)
---------------------------------
  C     -0.045159    1.557133    0.053887
  C     -0.038003    0.024671   -0.009223
  C      0.502616   -0.505106   -1.362425
  C      1.990931   -0.865510   -1.275754
  C      2.178288   -1.884348   -0.148758
  C      1.986655   -0.911705    1.022494
  C      2.900869    0.231963    0.568816
  O      2.768864    0.273773   -0.858993
  O      0.620932   -0.541278    1.141011
  H      0.922600    1.979866   -0.224773
  H     -0.792748    1.949260   -0.644618
  H     -0.310182    1.889939    1.061142
  H     -1.074290   -0.312222    0.104881
  H     -0.047004   -1.402158   -1.670304
  H      0.342306    0.253407   -2.134833
  H      2.376865   -1.186017   -2.246892
  H      1.440306   -2.688094   -0.149970
  H      3.185734   -2.310765   -0.152864
  H      2.266596   -1.312470    1.999188
  H      2.611134    1.193712    1.000785
  H      3.945914    0.025418    0.839408

 Total Charge           Charge          ....    0
 Multiplicity           Mult            ....    1
 Number of Electrons    NEL             ....   70
 Basis Dimension        Dim             ....  351

ORBITAL ENERGIES
----------------

  NO   OCC          E(Eh)            E(eV)
   0   2.0000     -20.549221      -559.1727
   1   2.0000     -20.547667      -559.1304
   2   2.0000     -11.281533      -306.9861
   3   2.0000     -11.281144      -306.9755
   4   2.0000     -11.279948      -306.9430
   5   2.0000     -11.270106      -306.6752
   6   2.0000     -11.224082      -305.4228
   7   2.0000     -11.223214      -305.3992
   8   2.0000     -11.207560      -304.9732
   9   2.0000      -1.386394       -37.7257
  10   2.0000      -1.351289       -36.7704
  11   2.0000      -1.067685       -29.0532
  12   2.0000      -1.058736       -28.8097
  13   2.0000      -0.983758       -26.7694
  14   2.0000      -0.918611       -24.9967
  15   2.0000      -0.847715       -23.0675
  16   2.0000      -0.797617       -21.7043
  17   2.0000      -0.752150       -20.4671
  18   2.0000      -0.715304       -19.4644
  19   2.0000      -0.653457       -17.7815
  20   2.0000      -0.639493       -17.4015
  21   2.0000      -0.614522       -16.7220
  22   2.0000      -0.607111       -16.5203
  23   2.0000      -0.586665       -15.9640
  24   2.0000      -0.569867       -15.5069
  25   2.0000      -0.556215       -15.1354
  26   2.0000      -0.554067       -15.0769
  27   2.0000      -0.524892       -14.2830
  28   2.0000      -0.520977       -14.1765
  29   2.0000      -0.498595       -13.5675
  30   2.0000      -0.477999       -13.0070
  31   2.0000      -0.464978       -12.6527
  32   2.0000      -0.433928       -11.8078
  33   2.0000      -0.414586       -11.2815
  34   2.0000      -0.399010       -10.8576
  35   0.0000       0.134514         3.6603
  36   0.0000       0.156670         4.2632
  37   0.0000       0.166702         4.5362
  38   0.0000       0.176945         4.8149
  39   0.0000       0.192020         5.2251

MULLIKEN ATOMIC CHARGES
-----------------------
   0 C :   -0.454297
   1 C :    0.124763
   2 C :   -0.261616
   3 C :    0.114139
   4 C :   -0.294553
   5 C :    0.071663
   6 C :   -0.084321
   7 O :   -0.348327
   8 O :   -0.325626
   9 H :    0.149034
  10 H :    0.125417
  11 H :    0.135916
  12 H :    0.095011
  13 H :    0.116590
  14 H :    0.125133
  15 H :    0.114049
  16 H :    0.125537
  17 H :    0.122792
  18 H :    0.120962
  19 H :    0.120247
  20 H :    0.107487
Sum of atomic charges:   -0.0000000

LOEWDIN ATOMIC CHARGES
----------------------
   0 C :   -0.302182
   1 C :   -0.316824
   2 C :   -0.224892
   3 C :   -0.301284
   4 C :   -0.219669
   5 C :   -0.321455
   6 C :   -0.283047
   7 O :    0.152508
   8 O :    0.186187
   9 H :    0.126026
  10 H :    0.124526
  11 H :    0.124254
  12 H :    0.143241
  13 H :    0.142292
  14 H :    0.146331
  15 H :    0.140485
  16 H :    0.143312
  17 H :    0.143278
  18 H :    0.144989
  19 H :    0.126548
  20 H :    0.125378

  Mayer bond orders larger than 0.1
B(  0-C ,  1-C ) :   0.9011 B(  0-C ,  9-H ) :   0.9311 B(  0-C , 10-H ) :   0.9296
B(  0-C , 11-H ) :   0.9398 B(  1-C ,  2-C ) :   0.9207 B(  1-C ,  8-O ) :   0.9138
B(  1-C , 12-H ) :   0.9282 B(  2-C ,  3-C ) :   0.9356 B(  2-C , 13-H ) :   0.9149
B(  2-C , 14-H ) :   0.9208 B(  3-C ,  4-C ) :   0.9427 B(  3-C ,  7-O ) :   0.9188
B(  3-C , 15-H ) :   0.9285 B(  4-C ,  5-C ) :   0.9288 B(  4-C , 16-H ) :   0.9204
B(  4-C , 17-H ) :   0.9126 B(  5-C ,  6-C ) :   0.9236 B(  5-C ,  8-O ) :   0.9441
B(  5-C , 18-H ) :   0.9239 B(  6-C ,  7-O ) :   0.9245 B(  6-C , 19-H ) :   0.9285
B(  6-C , 20-H ) :   0.9171

MP2 TOTAL ENERGY:     -423.537868859 Eh
FINAL SINGLE POINT ENERGY      -423.537868859212

DIPOLE MOMENT
-------------
                                X             Y             Z
Electronic contribution:      2.10556      -1.62701       0.93578
Nuclear contribution   :     -2.12149       1.23084      -1.06043
                        -----------------------------------------
Total Dipole Moment    :     -0.01593      -0.39617      -0.12464
                        -----------------------------------------
Magnitude (a.u.)       :      0.41562
Magnitude (Debye)      :      1.05642

                             ****ORCA TERMINATED NORMALLY****
TOTAL RUN TIME: 0 days 0 hours 25 minutes 2 seconds 480 msec
