                         Program Version 3.0.3 - RELEASE   -
|  1> ! RI-MP2 RIJK def2-TZVP def2-TZVP/C def2-TZVP/JK TIGHTSCF
|  2> % maxcore 2000
|  3> % mp2 density relaxed end
|  4> *xyz 0 1
|  5>  O       -0.1058579282     1.4240114266    -0.0526777823
|  6>  C        0.0281377644     0.0613119116    -0.0172633678
|  7>  C       -1.0196417121    -1.0109283684     0.0499040113
|  8>  N       -0.4728552314    -1.6945929094    -1.1094846907
|  9>  C        0.7871810326    -0.8693067942    -1.0193251750
| 10>  C        1.7744301702    -1.6803344011    -0.1724110312
| 11>  O        2.7422667524    -2.3113421692    -0.5355453443
| 12>  N        1.2425058653    -1.6499480622     1.1068736100
| 13>  C        0.0617235231    -0.8445416307     1.1751819632
| 14>  H        0.6505074940     1.8232870855     0.3929366102
| 15>  H       -2.0824467995    -0.9715298160     0.2585048423
| 16>  H       -0.3194108470    -2.6964263245    -0.9900189008
| 17>  H        1.1645304059    -0.4986751905    -1.9698835712
| 18>  H        1.4696609699    -2.3748382956     1.7695002564
| 19>  H       -0.2555042697    -0.4767415518     2.1429979398
| 20> *
| 21>
| 22>                          ****END OF INPUT****

CARTESIAN COORDINATES (ANGSTROEM)
---------------------------------
  O     -0.105858    1.424011   -0.052678
  C      0.028138    0.061312   -0.017263
  C     -1.019642   -1.010928    0.049904
  N     -0.472855   -1.694593   -1.109485
  C      0.787181   -0.869307   -1.019325
  C      1.774430   -1.680334   -0.172411
  O      2.742267   -2.311342   -0.535545
  N      1.242506   -1.649948    1.106874
  C      0.061724   -0.844542    1.175182
  H      0.650507    1.823287    0.392937
  H     -2.082447   -0.971530    0.258505
  H     -0.319411   -2.696426   -0.990019
  H      1.164530   -0.498675   -1.969884
  H      1.469661   -2.374838    1.769500
  H     -0.255504   -0.476742    2.142998

 Total Charge           Charge          ....    0
 Multiplicity           Mult            ....    1
 Number of Electrons    NEL             ....   66
 Basis Dimension        Dim             ....  315

ORBITAL ENERGIES
----------------

  NO   OCC          E(Eh)            E(eV)
   0   2.0000     -20.594977      -560.4178
   1   2.0000     -20.530382      -558.6601
   2   2.0000     -15.594633      -424.3515
   3   2.0000     -15.576946      -423.8702
   4   2.0000     -11.356763      -309.0332
   5   2.0000     -11.314255      -307.8765
   6   2.0000     -11.291502      -307.2574
   7   2.0000     -11.286821      -307.1300
   8   2.0000     -11.282895      -307.0232
   9   2.0000      -1.411604       -38.4117
  10   2.0000      -1.391761       -37.8717
  11   2.0000      -1.310810       -35.6689
  12   2.0000      -1.219841       -33.1936
  13   2.0000      -1.072305       -29.1789
  14   2.0000      -0.981068       -26.6962
  15   2.0000      -0.856504       -23.3066
  16   2.0000      -0.822002       -22.3678
  17   2.0000      -0.779842       -21.2206
  18   2.0000      -0.752868       -20.4866
  19   2.0000      -0.701503       -19.0889
  20   2.0000      -0.668918       -18.2022
  21   2.0000      -0.655777       -17.8446
  22   2.0000      -0.641072       -17.4444
  23   2.0000      -0.601157       -16.3583
  24   2.0000      -0.598930       -16.2977
  25   2.0000      -0.585438       -15.9306
  26   2.0000      -0.543760       -14.7965
  27   2.0000      -0.509400       -13.8615
  28   2.0000      -0.497181       -13.5290
  29   2.0000      -0.448582       -12.2065
  30   2.0000      -0.422290       -11.4911
  31   2.0000      -0.410166       -11.1612
  32   2.0000      -0.353321        -9.6144
  33   0.0000       0.123391         3.3576
  34   0.0000       0.132148         3.5959
  35   0.0000       0.151791         4.1304
  36   0.0000       0.161984         4.4078
  37   0.0000       0.178158         4.8479

MULLIKEN ATOMIC CHARGES
-----------------------
   0 O :   -0.437975
   1 C :    0.088468
   2 C :   -0.094242
   3 N :   -0.290989
   4 C :    0.050561
   5 C :    0.110765
   6 O :   -0.325292
   7 N :   -0.307281
   8 C :   -0.038131
   9 H :    0.336945
  10 H :    0.146129
  11 H :    0.215135
  12 H :    0.153373
  13 H :    0.245002
  14 H :    0.147532
Sum of atomic charges:    0.0000000

LOEWDIN ATOMIC CHARGES
----------------------
   0 O :    0.050553
   1 C :   -0.307861
   2 C :   -0.196370
   3 N :    0.058600
   4 C :   -0.154322
   5 C :   -0.435657
   6 O :    0.090663
   7 N :    0.135168
   8 C :   -0.218976
   9 H :    0.193163
  10 H :    0.137749
  11 H :    0.164478
  12 H :    0.147155
  13 H :    0.185849
  14 H :    0.149808

  Mayer bond orders larger than 0.1
B(  0-O ,  1-C ) :   1.0413 B(  0-O ,  9-H ) :   0.8284 B(  1-C ,  2-C ) :   0.8564
B(  1-C ,  4-C ) :   0.8612 B(  1-C ,  8-C ) :   0.8918 B(  2-C ,  3-N ) :   1.0355
B(  2-C ,  8-C ) :   0.7896 B(  2-C , 10-H ) :   0.9085 B(  3-N ,  4-C ) :   0.9409
B(  3-N , 11-H ) :   0.8697 B(  4-C ,  5-C ) :   0.8856 B(  4-C ,  7-N ) :  -0.1147
B(  4-C , 12-H ) :   0.9089 B(  5-C ,  6-O ) :   1.9870 B(  5-C ,  7-N ) :   1.1850
B(  7-N ,  8-C ) :   0.9373 B(  7-N , 13-H ) :   0.8607 B(  8-C , 14-H ) :   0.9146

MP2 TOTAL ENERGY:     -453.188587780 Eh
FINAL SINGLE POINT ENERGY      -453.188587780481

DIPOLE MOMENT
-------------
                                X             Y             Z
Electronic contribution:      2.06011      -0.11813      -0.54590
Nuclear contribution   :     -2.65868       0.41991       1.83951
                        -----------------------------------------
Total Dipole Moment    :     -0.59857       0.30178       1.29361
                        -----------------------------------------
Magnitude (a.u.)       :      1.45698
Magnitude (Debye)      :      3.70335

                             ****ORCA TERMINATED NORMALLY****
TOTAL RUN TIME: 0 days 0 hours 16 minutes 23 seconds 569 msec
