                         Program Version 3.0.3 - RELEASE   -
|  1> ! RI-MP2 RIJK def2-TZVP def2-TZVP/C def2-TZVP/JK TIGHTSCF
|  2> % maxcore 2000
|  3> % mp2 density relaxed end
|  4> *xyz 0 1
|  5>  C        2.1245743103     2.9770494530    -1.9345163239
|  6>  C        1.0754641730     1.8858385420    -1.8405757020
|  7>  O        1.6012458747     0.7213220857    -2.5024867302
|  8>  C        0.7943162969    -0.3474568878    -2.5630078522
|  9>  N       -0.3682621641    -0.3444119782    -2.0467590413
| 10>  C        1.4085346405    -1.5103251397    -3.2841947772
| 11>  O        2.5052594047    -1.2921834022    -4.1657387487
| 12>  C        2.7490249742    -2.0739933084    -2.9978607982
| 13>  C        3.7114417763    -1.5381329036    -1.9713654773
| 14>  H        3.0506332853     2.6781985247    -1.4347821199
| 15>  H        2.3562148636     3.2061867461    -2.9783286538
| 16>  H        1.7541361592     3.8876214765    -1.4541626712
| 17>  H        0.8355621233     1.6293593272    -0.8034419480
| 18>  H        0.1374180353     2.1724941255    -2.3264098339
| 19>  H       -0.8350244883    -1.2352291645    -2.2079424315
| 20>  H        0.6521735130    -2.1984723501    -3.6648706218
| 21>  H        2.8536907567    -3.1412871095    -3.2084166778
| 22>  H        3.5450739748    -0.4762145902    -1.7939445037
| 23>  H        3.5979234462    -2.0843929985    -1.0287429260
| 24>  H        4.7403381244    -1.6813722580    -2.3178164612
| 25> *
| 26>
| 27>                          ****END OF INPUT****

CARTESIAN COORDINATES (ANGSTROEM)
---------------------------------
  C      2.124574    2.977049   -1.934516
  C      1.075464    1.885839   -1.840576
  O      1.601246    0.721322   -2.502487
  C      0.794316   -0.347457   -2.563008
  N     -0.368262   -0.344412   -2.046759
  C      1.408535   -1.510325   -3.284195
  O      2.505259   -1.292183   -4.165739
  C      2.749025   -2.073993   -2.997861
  C      3.711442   -1.538133   -1.971365
  H      3.050633    2.678199   -1.434782
  H      2.356215    3.206187   -2.978329
  H      1.754136    3.887621   -1.454163
  H      0.835562    1.629359   -0.803442
  H      0.137418    2.172494   -2.326410
  H     -0.835024   -1.235229   -2.207942
  H      0.652174   -2.198472   -3.664871
  H      2.853691   -3.141287   -3.208417
  H      3.545074   -0.476215   -1.793945
  H      3.597923   -2.084393   -1.028743
  H      4.740338   -1.681372   -2.317816

 Total Charge           Charge          ....    0
 Multiplicity           Mult            ....    1
 Number of Electrons    NEL             ....   70
 Basis Dimension        Dim             ....  345

ORBITAL ENERGIES
----------------

  NO   OCC          E(Eh)            E(eV)
   0   2.0000     -20.589662      -560.2732
   1   2.0000     -20.578921      -559.9809
   2   2.0000     -15.538540      -422.8252
   3   2.0000     -11.344682      -308.7045
   4   2.0000     -11.303440      -307.5822
   5   2.0000     -11.302480      -307.5561
   6   2.0000     -11.280781      -306.9657
   7   2.0000     -11.226775      -305.4961
   8   2.0000     -11.219679      -305.3030
   9   2.0000      -1.438410       -39.1411
  10   2.0000      -1.415419       -38.5155
  11   2.0000      -1.198742       -32.6194
  12   2.0000      -1.035059       -28.1654
  13   2.0000      -1.017505       -27.6877
  14   2.0000      -0.950878       -25.8747
  15   2.0000      -0.870088       -23.6763
  16   2.0000      -0.826143       -22.4805
  17   2.0000      -0.782068       -21.2812
  18   2.0000      -0.716009       -19.4836
  19   2.0000      -0.687477       -18.7072
  20   2.0000      -0.672320       -18.2948
  21   2.0000      -0.667496       -18.1635
  22   2.0000      -0.597365       -16.2551
  23   2.0000      -0.581980       -15.8365
  24   2.0000      -0.579380       -15.7657
  25   2.0000      -0.561269       -15.2729
  26   2.0000      -0.548902       -14.9364
  27   2.0000      -0.542916       -14.7735
  28   2.0000      -0.518254       -14.1024
  29   2.0000      -0.503891       -13.7116
  30   2.0000      -0.492382       -13.3984
  31   2.0000      -0.468284       -12.7427
  32   2.0000      -0.445254       -12.1160
  33   2.0000      -0.433027       -11.7833
  34   2.0000      -0.394923       -10.7464
  35   0.0000       0.133727         3.6389
  36   0.0000       0.143457         3.9037
  37   0.0000       0.160519         4.3679
  38   0.0000       0.164947         4.4884
  39   0.0000       0.181937         4.9508

MULLIKEN ATOMIC CHARGES
-----------------------
   0 C :   -0.361500
   1 C :   -0.058761
   2 O :   -0.245370
   3 C :    0.193610
   4 N :   -0.398642
   5 C :   -0.018381
   6 O :   -0.319592
   7 C :    0.073827
   8 C :   -0.395669
   9 H :    0.128908
  10 H :    0.136003
  11 H :    0.131480
  12 H :    0.118660
  13 H :    0.124239
  14 H :    0.215350
  15 H :    0.137661
  16 H :    0.112574
  17 H :    0.159047
  18 H :    0.128140
  19 H :    0.138417
Sum of atomic charges:   -0.0000000

LOEWDIN ATOMIC CHARGES
----------------------
   0 C :   -0.316284
   1 C :   -0.306555
   2 O :    0.265851
   3 C :   -0.417472
   4 N :   -0.062941
   5 C :   -0.248746
   6 O :    0.184425
   7 C :   -0.282648
   8 C :   -0.294107
   9 H :    0.123097
  10 H :    0.126289
  11 H :    0.127680
  12 H :    0.127622
  13 H :    0.129942
  14 H :    0.166228
  15 H :    0.145027
  16 H :    0.137439
  17 H :    0.132786
  18 H :    0.131355
  19 H :    0.131010

  Mayer bond orders larger than 0.1
B(  0-C ,  1-C ) :   0.9348 B(  0-C ,  9-H ) :   0.9344 B(  0-C , 10-H ) :   0.9328
B(  0-C , 11-H ) :   0.9366 B(  1-C ,  2-O ) :   0.8300 B(  1-C , 12-H ) :   0.9326
B(  1-C , 13-H ) :   0.9307 B(  2-O ,  3-C ) :   1.1374 B(  3-C ,  4-N ) :   1.8861
B(  3-C ,  5-C ) :   0.9368 B(  4-N , 14-H ) :   0.8652 B(  5-C ,  6-O ) :   0.9146
B(  5-C ,  7-C ) :   0.9464 B(  5-C , 15-H ) :   0.9178 B(  6-O ,  7-C ) :   0.8901
B(  7-C ,  8-C ) :   0.8899 B(  7-C , 16-H ) :   0.9244 B(  8-C , 17-H ) :   0.9346
B(  8-C , 18-H ) :   0.9247 B(  8-C , 19-H ) :   0.9330

MP2 TOTAL ENERGY:     -439.548611147 Eh
FINAL SINGLE POINT ENERGY      -439.548611146718

DIPOLE MOMENT
-------------
                                X             Y             Z
Electronic contribution:     -3.06460      -4.43152      -4.43195
Nuclear contribution   :      3.23300       4.05685       4.88579
                        -----------------------------------------
Total Dipole Moment    :      0.16839      -0.37467       0.45384
                        -----------------------------------------
Magnitude (a.u.)       :      0.61213
Magnitude (Debye)      :      1.55592

                             ****ORCA TERMINATED NORMALLY****
TOTAL RUN TIME: 0 days 0 hours 16 minutes 11 seconds 364 msec
