                         Program Version 3.0.3 - RELEASE   -
|  1> ! RI-MP2 RIJK def2-TZVP def2-TZVP/C def2-TZVP/JK TIGHTSCF
|  2> % maxcore 2000
|  3> % mp2 density relaxed end
|  4> *xyz 0 1
|  5>  C       -0.0033571248     1.4721139722    -0.0398348361
|  6>  C        0.0101971628    -0.0453286519     0.0063582216
|  7>  O        0.0160437287    -0.6605130818     1.0497811578
|  8>  C        0.0161092620    -0.7609246739    -1.3143530727
|  9>  C        1.0886869318    -0.6608291008    -2.4535753276
| 10>  C        0.0236822332    -1.6758429821    -2.9578090640
| 11>  C        0.0307078202    -2.2980104458    -1.5304901570
| 12>  C       -1.0598877773    -0.6814886651    -2.4519840416
| 13>  H        0.8729091518     1.8448244717    -0.5819450672
| 14>  H       -0.8862221069     1.8291444880    -0.5817958384
| 15>  H       -0.0068325608     1.8723996643     0.9746607027
| 16>  H        1.1528680890     0.2915232424    -2.9871856150
| 17>  H        2.0786908622    -1.0586643923    -2.2155030113
| 18>  H        0.0281092108    -2.2098237671    -3.9081363090
| 19>  H        0.9391874894    -2.8213278996    -1.2238392318
| 20>  H       -0.8670634655    -2.8387181507    -1.2224868882
| 21>  H       -2.0416955431    -1.0982851117    -2.2124224567
| 22>  H       -1.1431666036     0.2694439644    -2.9854938756
| 23> *
| 24>
| 25>                          ****END OF INPUT****

CARTESIAN COORDINATES (ANGSTROEM)
---------------------------------
  C     -0.003357    1.472114   -0.039835
  C      0.010197   -0.045329    0.006358
  O      0.016044   -0.660513    1.049781
  C      0.016109   -0.760925   -1.314353
  C      1.088687   -0.660829   -2.453575
  C      0.023682   -1.675843   -2.957809
  C      0.030708   -2.298010   -1.530490
  C     -1.059888   -0.681489   -2.451984
  H      0.872909    1.844824   -0.581945
  H     -0.886222    1.829144   -0.581796
  H     -0.006833    1.872400    0.974661
  H      1.152868    0.291523   -2.987186
  H      2.078691   -1.058664   -2.215503
  H      0.028109   -2.209824   -3.908136
  H      0.939187   -2.821328   -1.223839
  H     -0.867063   -2.838718   -1.222487
  H     -2.041696   -1.098285   -2.212422
  H     -1.143167    0.269444   -2.985494

 Total Charge           Charge          ....    0
 Multiplicity           Mult            ....    1
 Number of Electrons    NEL             ....   60
 Basis Dimension        Dim             ....  308

ORBITAL ENERGIES
----------------

  NO   OCC          E(Eh)            E(eV)
   0   2.0000     -20.542531      -558.9907
   1   2.0000     -11.326456      -308.2085
   2   2.0000     -11.258396      -306.3565
   3   2.0000     -11.252898      -306.2069
   4   2.0000     -11.243241      -305.9441
   5   2.0000     -11.243215      -305.9434
   6   2.0000     -11.233340      -305.6747
   7   2.0000     -11.232157      -305.6425
   8   2.0000      -1.384259       -37.6676
   9   2.0000      -1.220219       -33.2038
  10   2.0000      -1.015986       -27.6464
  11   2.0000      -0.917506       -24.9666
  12   2.0000      -0.914530       -24.8856
  13   2.0000      -0.897335       -24.4177
  14   2.0000      -0.768006       -20.8985
  15   2.0000      -0.732590       -19.9348
  16   2.0000      -0.675224       -18.3738
  17   2.0000      -0.631443       -17.1824
  18   2.0000      -0.625878       -17.0310
  19   2.0000      -0.616773       -16.7832
  20   2.0000      -0.599435       -16.3115
  21   2.0000      -0.566114       -15.4048
  22   2.0000      -0.511180       -13.9099
  23   2.0000      -0.508472       -13.8362
  24   2.0000      -0.496336       -13.5060
  25   2.0000      -0.462769       -12.5926
  26   2.0000      -0.461238       -12.5509
  27   2.0000      -0.458876       -12.4866
  28   2.0000      -0.451047       -12.2736
  29   2.0000      -0.395665       -10.7666
  30   0.0000       0.129130         3.5138
  31   0.0000       0.138994         3.7822
  32   0.0000       0.153945         4.1891
  33   0.0000       0.172001         4.6804
  34   0.0000       0.173898         4.7320

MULLIKEN ATOMIC CHARGES
-----------------------
   0 C :   -0.425839
   1 C :    0.137492
   2 O :   -0.277130
   3 C :   -0.003681
   4 C :   -0.210948
   5 C :   -0.139433
   6 C :   -0.172253
   7 C :   -0.210935
   8 H :    0.146663
   9 H :    0.146640
  10 H :    0.153786
  11 H :    0.117207
  12 H :    0.122848
  13 H :    0.139059
  14 H :    0.118228
  15 H :    0.118244
  16 H :    0.122855
  17 H :    0.117200
Sum of atomic charges:   -0.0000000

LOEWDIN ATOMIC CHARGES
----------------------
   0 C :   -0.274570
   1 C :   -0.323415
   2 O :    0.155718
   3 C :   -0.190356
   4 C :   -0.168886
   5 C :   -0.183316
   6 C :   -0.164070
   7 C :   -0.168866
   8 H :    0.137400
   9 H :    0.137395
  10 H :    0.133247
  11 H :    0.128872
  12 H :    0.131540
  13 H :    0.123697
  14 H :    0.132595
  15 H :    0.132598
  16 H :    0.131546
  17 H :    0.128872

  Mayer bond orders larger than 0.1
B(  0-C ,  1-C ) :   0.9624 B(  0-C ,  3-C ) :  -0.1118 B(  0-C ,  8-H ) :   0.9141
B(  0-C ,  9-H ) :   0.9141 B(  0-C , 10-H ) :   0.9389 B(  1-C ,  2-O ) :   2.0578
B(  1-C ,  3-C ) :   0.7894 B(  2-O ,  3-C ) :  -0.1059 B(  3-C ,  4-C ) :   0.8661
B(  3-C ,  6-C ) :   0.8526 B(  3-C ,  7-C ) :   0.8661 B(  4-C ,  5-C ) :   0.9032
B(  4-C , 11-H ) :   0.9286 B(  4-C , 12-H ) :   0.9303 B(  5-C ,  6-C ) :   0.9088
B(  5-C ,  7-C ) :   0.9031 B(  5-C , 13-H ) :   0.9002 B(  6-C , 14-H ) :   0.9308
B(  6-C , 15-H ) :   0.9308 B(  7-C , 16-H ) :   0.9303 B(  7-C , 17-H ) :   0.9286

MP2 TOTAL ENERGY:     -347.168108843 Eh
FINAL SINGLE POINT ENERGY      -347.168108842629

DIPOLE MOMENT
-------------
                                X             Y             Z
Electronic contribution:      0.01779      -1.84783       3.85075
Nuclear contribution   :     -0.02236       2.31606      -4.85127
                        -----------------------------------------
Total Dipole Moment    :     -0.00457       0.46823      -1.00051
                        -----------------------------------------
Magnitude (a.u.)       :      1.10466
Magnitude (Debye)      :      2.80783

                             ****ORCA TERMINATED NORMALLY****
TOTAL RUN TIME: 0 days 0 hours 14 minutes 19 seconds 768 msec
