                         Program Version 3.0.3 - RELEASE   -
|  1> ! RI-MP2 RIJK def2-TZVP def2-TZVP/C def2-TZVP/JK TIGHTSCF
|  2> % maxcore 2000
|  3> % mp2 density relaxed end
|  4> *xyz 0 1
|  5>  C       -0.0264982776     1.4590680418     0.1321648441
|  6>  C       -0.0477700368    -0.0433944160     0.0198868094
|  7>  C       -1.2747267691    -0.7887442848    -0.4762773805
|  8>  C       -0.7704094221    -2.2190961085    -0.3931830533
|  9>  C       -1.6361872293    -3.3874150421    -0.7880405519
| 10>  C        0.2105272096    -2.3452208039     0.7628329511
| 11>  C        0.6908199345    -0.9006967592     1.0367822512
| 12>  C        1.2064208775    -0.8016314461    -0.3882753825
| 13>  C        0.7267687139    -2.2464098242    -0.6620106257
| 14>  H        0.9391556577     1.8148087426     0.5065023126
| 15>  H       -0.1993053210     1.9337707363    -0.8406253753
| 16>  H       -0.8005550802     1.8182205336     0.8201894485
| 17>  H       -2.1485126547    -0.6204794859     0.1662541626
| 18>  H       -1.5446260583    -0.5044942109    -1.5014686810
| 19>  H       -1.9435172396    -3.3187238530    -1.8379751373
| 20>  H       -1.1038251523    -4.3358968631    -0.6609953069
| 21>  H       -2.5452323189    -3.4340138600    -0.1773109356
| 22>  H        0.2345012202    -3.1814691129     1.4490831205
| 23>  H        1.1198363063    -0.5191180326     1.9539344091
| 24>  H        2.1039479164    -0.3299892826    -0.7661962847
| 25>  H        1.2199591739    -2.9928719486    -1.2706016245
| 26> *
| 27>
| 28>                          ****END OF INPUT****

CARTESIAN COORDINATES (ANGSTROEM)
---------------------------------
  C     -0.026498    1.459068    0.132165
  C     -0.047770   -0.043394    0.019887
  C     -1.274727   -0.788744   -0.476277
  C     -0.770409   -2.219096   -0.393183
  C     -1.636187   -3.387415   -0.788041
  C      0.210527   -2.345221    0.762833
  C      0.690820   -0.900697    1.036782
  C      1.206421   -0.801631   -0.388275
  C      0.726769   -2.246410   -0.662011
  H      0.939156    1.814809    0.506502
  H     -0.199305    1.933771   -0.840625
  H     -0.800555    1.818221    0.820189
  H     -2.148513   -0.620479    0.166254
  H     -1.544626   -0.504494   -1.501469
  H     -1.943517   -3.318724   -1.837975
  H     -1.103825   -4.335897   -0.660995
  H     -2.545232   -3.434014   -0.177311
  H      0.234501   -3.181469    1.449083
  H      1.119836   -0.519118    1.953934
  H      2.103948   -0.329989   -0.766196
  H      1.219959   -2.992872   -1.270602

 Total Charge           Charge          ....    0
 Multiplicity           Mult            ....    1
 Number of Electrons    NEL             ....   66
 Basis Dimension        Dim             ....  351

ORBITAL ENERGIES
----------------

  NO   OCC          E(Eh)            E(eV)
   0   2.0000     -11.230009      -305.5841
   1   2.0000     -11.230002      -305.5839
   2   2.0000     -11.222511      -305.3800
   3   2.0000     -11.221973      -305.3654
   4   2.0000     -11.221901      -305.3635
   5   2.0000     -11.221355      -305.3486
   6   2.0000     -11.215802      -305.1975
   7   2.0000     -11.215801      -305.1975
   8   2.0000     -11.212983      -305.1208
   9   2.0000      -1.238680       -33.7062
  10   2.0000      -1.071804       -29.1653
  11   2.0000      -1.008824       -27.4515
  12   2.0000      -0.937078       -25.4992
  13   2.0000      -0.925454       -25.1829
  14   2.0000      -0.865214       -23.5437
  15   2.0000      -0.745653       -20.2903
  16   2.0000      -0.717479       -19.5236
  17   2.0000      -0.715784       -19.4775
  18   2.0000      -0.681988       -18.5578
  19   2.0000      -0.603640       -16.4259
  20   2.0000      -0.588944       -16.0260
  21   2.0000      -0.583667       -15.8824
  22   2.0000      -0.557341       -15.1660
  23   2.0000      -0.553528       -15.0623
  24   2.0000      -0.551174       -14.9982
  25   2.0000      -0.539241       -14.6735
  26   2.0000      -0.504272       -13.7219
  27   2.0000      -0.480631       -13.0786
  28   2.0000      -0.459204       -12.4956
  29   2.0000      -0.432667       -11.7735
  30   2.0000      -0.387843       -10.5538
  31   2.0000      -0.368373       -10.0239
  32   2.0000      -0.326902        -8.8955
  33   0.0000       0.140585         3.8255
  34   0.0000       0.150796         4.1034
  35   0.0000       0.173452         4.7199
  36   0.0000       0.175924         4.7871
  37   0.0000       0.194700         5.2981

MULLIKEN ATOMIC CHARGES
-----------------------
   0 C :   -0.447337
   1 C :    0.068321
   2 C :   -0.123061
   3 C :    0.068322
   4 C :   -0.447337
   5 C :   -0.164725
   6 C :   -0.164647
   7 C :   -0.164720
   8 C :   -0.164643
   9 H :    0.135006
  10 H :    0.134178
  11 H :    0.134195
  12 H :    0.103643
  13 H :    0.103642
  14 H :    0.134195
  15 H :    0.135006
  16 H :    0.134179
  17 H :    0.131443
  18 H :    0.131449
  19 H :    0.131443
  20 H :    0.131450
Sum of atomic charges:    0.0000000

LOEWDIN ATOMIC CHARGES
----------------------
   0 C :   -0.266188
   1 C :   -0.219913
   2 C :   -0.159979
   3 C :   -0.219913
   4 C :   -0.266188
   5 C :   -0.118715
   6 C :   -0.118700
   7 C :   -0.118715
   8 C :   -0.118699
   9 H :    0.130627
  10 H :    0.127531
  11 H :    0.127538
  12 H :    0.143248
  13 H :    0.143248
  14 H :    0.127537
  15 H :    0.130627
  16 H :    0.127531
  17 H :    0.137278
  18 H :    0.137283
  19 H :    0.137279
  20 H :    0.137283

  Mayer bond orders larger than 0.1
B(  0-C ,  1-C ) :   0.8695 B(  0-C ,  9-H ) :   0.9415 B(  0-C , 10-H ) :   0.9423
B(  0-C , 11-H ) :   0.9423 B(  1-C ,  2-C ) :   0.9618 B(  1-C ,  6-C ) :   0.8723
B(  1-C ,  7-C ) :   0.8722 B(  2-C ,  3-C ) :   0.9618 B(  2-C , 12-H ) :   0.9082
B(  2-C , 13-H ) :   0.9082 B(  3-C ,  4-C ) :   0.8695 B(  3-C ,  5-C ) :   0.8722
B(  3-C ,  8-C ) :   0.8723 B(  4-C , 14-H ) :   0.9423 B(  4-C , 15-H ) :   0.9415
B(  4-C , 16-H ) :   0.9423 B(  5-C ,  6-C ) :   0.8901 B(  5-C ,  8-C ) :   0.8861
B(  5-C , 17-H ) :   0.9337 B(  6-C ,  7-C ) :   0.8861 B(  6-C , 18-H ) :   0.9337
B(  7-C ,  8-C ) :   0.8901 B(  7-C , 19-H ) :   0.9337 B(  8-C , 20-H ) :   0.9337

MP2 TOTAL ENERGY:     -349.273284788 Eh
FINAL SINGLE POINT ENERGY      -349.273284787535

DIPOLE MOMENT
-------------
                                X             Y             Z
Electronic contribution:      2.85736      -1.13056       0.95607
Nuclear contribution   :     -2.90262       1.14847      -0.97121
                        -----------------------------------------
Total Dipole Moment    :     -0.04526       0.01791      -0.01514
                        -----------------------------------------
Magnitude (a.u.)       :      0.05098
Magnitude (Debye)      :      0.12958

                             ****ORCA TERMINATED NORMALLY****
TOTAL RUN TIME: 0 days 0 hours 20 minutes 35 seconds 37 msec
