                         Program Version 3.0.3 - RELEASE   -
|  1> ! RI-MP2 RIJK def2-TZVP def2-TZVP/C def2-TZVP/JK TIGHTSCF
|  2> % maxcore 2000
|  3> % mp2 density relaxed end
|  4> *xyz 0 1
|  5>  O        0.0728151215     1.4175873403    -0.0417442233
|  6>  C        0.0063098863     0.0493574595     0.0025388130
|  7>  C        0.0320959500    -0.8141236740     1.3262559581
|  8>  C       -1.4433709497    -0.4610504014     1.5908319844
|  9>  C       -1.3315990687    -0.7877971266     0.0900293152
| 10>  N       -0.4401248238    -1.9739601744     0.4519057402
| 11>  C        0.5493459707    -2.1370200657    -0.6432125698
| 12>  C        0.8760779709    -0.6885071863    -0.9722850014
| 13>  O        1.6134516108    -0.1708220066    -1.7754668916
| 14>  H        0.7119045544     1.6299649897    -0.7419176465
| 15>  H        0.8566962985    -0.9320173390     2.0317453088
| 16>  H       -2.0033288807    -1.1782258778     2.1932689060
| 17>  H       -1.6556862494     0.5763043170     1.8471258908
| 18>  H       -2.1165414888    -0.8746165930    -0.6635671542
| 19>  H        1.4247488621    -2.6969543851    -0.2998039147
| 20>  H        0.1100794158    -2.6712014867    -1.4914384151
| 21> *
| 22>
| 23>                          ****END OF INPUT****

CARTESIAN COORDINATES (ANGSTROEM)
---------------------------------
  O      0.072815    1.417587   -0.041744
  C      0.006310    0.049357    0.002539
  C      0.032096   -0.814124    1.326256
  C     -1.443371   -0.461050    1.590832
  C     -1.331599   -0.787797    0.090029
  N     -0.440125   -1.973960    0.451906
  C      0.549346   -2.137020   -0.643213
  C      0.876078   -0.688507   -0.972285
  O      1.613452   -0.170822   -1.775467
  H      0.711905    1.629965   -0.741918
  H      0.856696   -0.932017    2.031745
  H     -2.003329   -1.178226    2.193269
  H     -1.655686    0.576304    1.847126
  H     -2.116541   -0.874617   -0.663567
  H      1.424749   -2.696954   -0.299804
  H      0.110079   -2.671201   -1.491438

 Total Charge           Charge          ....    0
 Multiplicity           Mult            ....    1
 Number of Electrons    NEL             ....   66
 Basis Dimension        Dim             ....  321

ORBITAL ENERGIES
----------------

  NO   OCC          E(Eh)            E(eV)
   0   2.0000     -20.581344      -560.0468
   1   2.0000     -20.568171      -559.6884
   2   2.0000     -15.583999      -424.0622
   3   2.0000     -11.341972      -308.6308
   4   2.0000     -11.313452      -307.8547
   5   2.0000     -11.294452      -307.3377
   6   2.0000     -11.294401      -307.3363
   7   2.0000     -11.274622      -306.7981
   8   2.0000     -11.246845      -306.0422
   9   2.0000      -1.423524       -38.7361
  10   2.0000      -1.388399       -37.7802
  11   2.0000      -1.319149       -35.8959
  12   2.0000      -1.082453       -29.4551
  13   2.0000      -0.987177       -26.8624
  14   2.0000      -0.909424       -24.7467
  15   2.0000      -0.899180       -24.4679
  16   2.0000      -0.791906       -21.5489
  17   2.0000      -0.753769       -20.5111
  18   2.0000      -0.712978       -19.4011
  19   2.0000      -0.700438       -19.0599
  20   2.0000      -0.666178       -18.1276
  21   2.0000      -0.640275       -17.4228
  22   2.0000      -0.634901       -17.2765
  23   2.0000      -0.607985       -16.5441
  24   2.0000      -0.570128       -15.5140
  25   2.0000      -0.528974       -14.3941
  26   2.0000      -0.528355       -14.3773
  27   2.0000      -0.501466       -13.6456
  28   2.0000      -0.491226       -13.3669
  29   2.0000      -0.473319       -12.8797
  30   2.0000      -0.462550       -12.5866
  31   2.0000      -0.426263       -11.5992
  32   2.0000      -0.383662       -10.4400
  33   0.0000       0.122499         3.3334
  34   0.0000       0.138370         3.7652
  35   0.0000       0.160183         4.3588
  36   0.0000       0.165813         4.5120
  37   0.0000       0.172233         4.6867

MULLIKEN ATOMIC CHARGES
-----------------------
   0 O :   -0.454019
   1 C :    0.180254
   2 C :   -0.078833
   3 C :   -0.198984
   4 C :   -0.078790
   5 N :   -0.222783
   6 C :   -0.168158
   7 C :    0.124058
   8 O :   -0.298580
   9 H :    0.338495
  10 H :    0.147293
  11 H :    0.123621
  12 H :    0.139307
  13 H :    0.147290
  14 H :    0.149907
  15 H :    0.149921
Sum of atomic charges:   -0.0000000

LOEWDIN ATOMIC CHARGES
----------------------
   0 O :    0.050334
   1 C :   -0.313854
   2 C :   -0.150944
   3 C :   -0.192213
   4 C :   -0.150934
   5 N :    0.137802
   6 C :   -0.238623
   7 C :   -0.306012
   8 O :    0.144969
   9 H :    0.196236
  10 H :    0.128821
  11 H :    0.133573
  12 H :    0.138699
  13 H :    0.128825
  14 H :    0.146653
  15 H :    0.146667

  Mayer bond orders larger than 0.1
B(  0-O ,  1-C ) :   1.1321 B(  0-O ,  9-H ) :   0.8002 B(  1-C ,  2-C ) :   0.8683
B(  1-C ,  4-C ) :   0.8685 B(  1-C ,  7-C ) :   0.8982 B(  2-C ,  3-C ) :   0.9375
B(  2-C ,  5-N ) :   0.8706 B(  2-C , 10-H ) :   0.8776 B(  3-C ,  4-C ) :   0.9375
B(  3-C , 11-H ) :   0.9133 B(  3-C , 12-H ) :   0.9104 B(  4-C ,  5-N ) :   0.8706
B(  4-C , 13-H ) :   0.8776 B(  5-N ,  6-C ) :   0.9494 B(  6-C ,  7-C ) :   0.9302
B(  6-C , 14-H ) :   0.9111 B(  6-C , 15-H ) :   0.9111 B(  7-C ,  8-O ) :   1.9422

MP2 TOTAL ENERGY:     -437.125119289 Eh
FINAL SINGLE POINT ENERGY      -437.125119289143

DIPOLE MOMENT
-------------
                                X             Y             Z
Electronic contribution:      2.39969       1.70461      -2.61029
Nuclear contribution   :     -2.60958      -1.95897       2.83683
                        -----------------------------------------
Total Dipole Moment    :     -0.20989      -0.25436       0.22654
                        -----------------------------------------
Magnitude (a.u.)       :      0.40009
Magnitude (Debye)      :      1.01695

                             ****ORCA TERMINATED NORMALLY****
TOTAL RUN TIME: 0 days 0 hours 16 minutes 41 seconds 226 msec
