                         Program Version 3.0.3 - RELEASE   -
|  1> ! RI-MP2 RIJK def2-TZVP def2-TZVP/C def2-TZVP/JK TIGHTSCF
|  2> % maxcore 2000
|  3> % mp2 density relaxed end
|  4> *xyz 0 1
|  5>  O        0.1465074188     1.3810795899     0.0616459370
|  6>  C        0.0493135654    -0.0095476596    -0.0017285054
|  7>  C       -0.5025403456    -0.7300883132     1.2040571616
|  8>  O       -0.9586128387     0.0965834026     2.2495751676
|  9>  C       -1.3123469661    -0.6786535745    -0.0700868539
| 10>  C       -2.5918720892     0.1638915158    -0.1465926095
| 11>  C       -3.4224937415    -0.5068931556    -1.2593146145
| 12>  C       -3.0379945653    -1.9918968902    -1.1633171479
| 13>  C       -1.5188080904    -1.9502332110    -0.9055259112
| 14>  H       -0.2732455879     1.6382809393     0.8946092212
| 15>  H        0.8722128907    -0.4452794591    -0.5630500449
| 16>  H       -0.0866251535    -1.6858272129     1.5215561391
| 17>  H       -0.2306487585     0.2141074526     2.8702678932
| 18>  H       -3.1276290750     0.1294485099     0.8081141583
| 19>  H       -2.3718825643     1.2138658012    -0.3575345332
| 20>  H       -4.4961831428    -0.3296221735    -1.1501923753
| 21>  H       -3.1245408224    -0.1123916127    -2.2384441368
| 22>  H       -3.5487053553    -2.4523217894    -0.3086487705
| 23>  H       -3.3033359278    -2.5699612918    -2.0532478239
| 24>  H       -0.9789840354    -1.8653879391    -1.8575634861
| 25>  H       -1.1480412953    -2.8521020889    -0.4075318849
| 26> *
| 27>
| 28>                          ****END OF INPUT****

CARTESIAN COORDINATES (ANGSTROEM)
---------------------------------
  O      0.146507    1.381080    0.061646
  C      0.049314   -0.009548   -0.001729
  C     -0.502540   -0.730088    1.204057
  O     -0.958613    0.096583    2.249575
  C     -1.312347   -0.678654   -0.070087
  C     -2.591872    0.163892   -0.146593
  C     -3.422494   -0.506893   -1.259315
  C     -3.037995   -1.991897   -1.163317
  C     -1.518808   -1.950233   -0.905526
  H     -0.273246    1.638281    0.894609
  H      0.872213   -0.445279   -0.563050
  H     -0.086625   -1.685827    1.521556
  H     -0.230649    0.214107    2.870268
  H     -3.127629    0.129449    0.808114
  H     -2.371883    1.213866   -0.357535
  H     -4.496183   -0.329622   -1.150192
  H     -3.124541   -0.112392   -2.238444
  H     -3.548705   -2.452322   -0.308649
  H     -3.303336   -2.569961   -2.053248
  H     -0.978984   -1.865388   -1.857563
  H     -1.148041   -2.852102   -0.407532

 Total Charge           Charge          ....    0
 Multiplicity           Mult            ....    1
 Number of Electrons    NEL             ....   70
 Basis Dimension        Dim             ....  351

ORBITAL ENERGIES
----------------

  NO   OCC          E(Eh)            E(eV)
   0   2.0000     -20.578817      -559.9781
   1   2.0000     -20.554913      -559.3276
   2   2.0000     -11.282168      -307.0034
   3   2.0000     -11.275524      -306.8226
   4   2.0000     -11.228635      -305.5467
   5   2.0000     -11.221852      -305.3621
   6   2.0000     -11.216983      -305.2296
   7   2.0000     -11.214444      -305.1605
   8   2.0000     -11.213161      -305.1256
   9   2.0000      -1.393496       -37.9190
  10   2.0000      -1.356201       -36.9041
  11   2.0000      -1.146728       -31.2041
  12   2.0000      -1.066003       -29.0074
  13   2.0000      -0.962657       -26.1952
  14   2.0000      -0.898131       -24.4394
  15   2.0000      -0.828097       -22.5337
  16   2.0000      -0.784944       -21.3594
  17   2.0000      -0.747190       -20.3321
  18   2.0000      -0.709604       -19.3093
  19   2.0000      -0.693590       -18.8735
  20   2.0000      -0.647836       -17.6285
  21   2.0000      -0.636225       -17.3126
  22   2.0000      -0.619357       -16.8536
  23   2.0000      -0.569712       -15.5026
  24   2.0000      -0.568848       -15.4791
  25   2.0000      -0.554463       -15.0877
  26   2.0000      -0.538351       -14.6493
  27   2.0000      -0.509808       -13.8726
  28   2.0000      -0.503432       -13.6991
  29   2.0000      -0.480419       -13.0729
  30   2.0000      -0.468286       -12.7427
  31   2.0000      -0.466007       -12.6807
  32   2.0000      -0.459693       -12.5089
  33   2.0000      -0.390740       -10.6326
  34   2.0000      -0.367654       -10.0044
  35   0.0000       0.128030         3.4839
  36   0.0000       0.141535         3.8514
  37   0.0000       0.158282         4.3071
  38   0.0000       0.170015         4.6263
  39   0.0000       0.185626         5.0511

MULLIKEN ATOMIC CHARGES
-----------------------
   0 O :   -0.470003
   1 C :    0.019876
   2 C :   -0.053905
   3 O :   -0.479047
   4 C :    0.075552
   5 C :   -0.259509
   6 C :   -0.217274
   7 C :   -0.204898
   8 C :   -0.247683
   9 H :    0.329663
  10 H :    0.120821
  11 H :    0.109650
  12 H :    0.329083
  13 H :    0.134105
  14 H :    0.123730
  15 H :    0.120992
  16 H :    0.110708
  17 H :    0.106175
  18 H :    0.121748
  19 H :    0.115164
  20 H :    0.115052
Sum of atomic charges:   -0.0000000

LOEWDIN ATOMIC CHARGES
----------------------
   0 O :    0.000585
   1 C :   -0.291793
   2 C :   -0.292462
   3 O :   -0.006872
   4 C :   -0.206496
   5 C :   -0.208669
   6 C :   -0.253155
   7 C :   -0.254722
   8 C :   -0.210327
   9 H :    0.177934
  10 H :    0.138115
  11 H :    0.129986
  12 H :    0.183054
  13 H :    0.143180
  14 H :    0.139106
  15 H :    0.131665
  16 H :    0.137605
  17 H :    0.137200
  18 H :    0.131036
  19 H :    0.140338
  20 H :    0.134692

  Mayer bond orders larger than 0.1
B(  0-O ,  1-C ) :   0.9787 B(  0-O ,  9-H ) :   0.8178 B(  1-C ,  2-C ) :   0.9245
B(  1-C ,  4-C ) :   0.8328 B(  1-C , 10-H ) :   0.9423 B(  2-C ,  3-O ) :   1.0466
B(  2-C ,  4-C ) :   0.8173 B(  2-C , 11-H ) :   0.9353 B(  3-O , 12-H ) :   0.8364
B(  4-C ,  5-C ) :   0.9250 B(  4-C ,  8-C ) :   0.8594 B(  5-C ,  6-C ) :   0.9444
B(  5-C , 13-H ) :   0.9323 B(  5-C , 14-H ) :   0.9168 B(  6-C ,  7-C ) :   0.9336
B(  6-C , 15-H ) :   0.9347 B(  6-C , 16-H ) :   0.9318 B(  7-C ,  8-C ) :   0.9426
B(  7-C , 17-H ) :   0.9276 B(  7-C , 18-H ) :   0.9335 B(  8-C , 19-H ) :   0.9375
B(  8-C , 20-H ) :   0.9191

MP2 TOTAL ENERGY:     -423.517391926 Eh
FINAL SINGLE POINT ENERGY      -423.517391926459

DIPOLE MOMENT
-------------
                                X             Y             Z
Electronic contribution:      4.50015       3.22058       3.62890
Nuclear contribution   :     -4.35019      -3.77139      -3.15818
                        -----------------------------------------
Total Dipole Moment    :      0.14996      -0.55080       0.47072
                        -----------------------------------------
Magnitude (a.u.)       :      0.73990
Magnitude (Debye)      :      1.88067

                             ****ORCA TERMINATED NORMALLY****
TOTAL RUN TIME: 0 days 0 hours 17 minutes 54 seconds 131 msec
