                         Program Version 3.0.3 - RELEASE   -
|  1> ! RI-MP2 RIJK def2-TZVP def2-TZVP/C def2-TZVP/JK TIGHTSCF
|  2> % maxcore 2000
|  3> % mp2 density relaxed end
|  4> *xyz 0 1
|  5>  N       -0.0892360699     1.2818342800     0.3767776687
|  6>  C       -0.0108388780     0.0989990456    -0.0504434250
|  7>  N       -1.1628506029    -0.6702871852    -0.2121854336
|  8>  C       -1.1051191650    -1.9411081379    -0.6686414099
|  9>  N       -0.0286891057    -2.5685390419    -0.9952003382
| 10>  C        1.1733320511    -1.8913622050    -0.8710342463
| 11>  O        2.2503279486    -2.3240501049    -1.1286133596
| 12>  O        1.1310961269    -0.5483238027    -0.3903170396
| 13>  H        0.8336893332     1.7065824342     0.4383886723
| 14>  H       -2.0346003410    -0.2244604720     0.0301420079
| 15>  H       -2.0639305274    -2.4482456702    -0.7559828566
| 16> *
| 17>
| 18>                          ****END OF INPUT****

CARTESIAN COORDINATES (ANGSTROEM)
---------------------------------
  N     -0.089236    1.281834    0.376778
  C     -0.010839    0.098999   -0.050443
  N     -1.162851   -0.670287   -0.212185
  C     -1.105119   -1.941108   -0.668641
  N     -0.028689   -2.568539   -0.995200
  C      1.173332   -1.891362   -0.871034
  O      2.250328   -2.324050   -1.128613
  O      1.131096   -0.548324   -0.390317
  H      0.833689    1.706582    0.438389
  H     -2.034600   -0.224460    0.030142
  H     -2.063931   -2.448246   -0.755983

 Total Charge           Charge          ....    0
 Multiplicity           Mult            ....    1
 Number of Electrons    NEL             ....   58
 Basis Dimension        Dim             ....  266

ORBITAL ENERGIES
----------------

  NO   OCC          E(Eh)            E(eV)
   0   2.0000     -20.646684      -561.8248
   1   2.0000     -20.559239      -559.4453
   2   2.0000     -15.661622      -426.1744
   3   2.0000     -15.592175      -424.2847
   4   2.0000     -15.560896      -423.4335
   5   2.0000     -11.430475      -311.0390
   6   2.0000     -11.417492      -310.6857
   7   2.0000     -11.393919      -310.0443
   8   2.0000      -1.508607       -41.0513
   9   2.0000      -1.411432       -38.4070
  10   2.0000      -1.346235       -36.6329
  11   2.0000      -1.269199       -34.5367
  12   2.0000      -1.200960       -32.6798
  13   2.0000      -0.968445       -26.3527
  14   2.0000      -0.919541       -25.0220
  15   2.0000      -0.823090       -22.3974
  16   2.0000      -0.815437       -22.1892
  17   2.0000      -0.730117       -19.8675
  18   2.0000      -0.707325       -19.2473
  19   2.0000      -0.682058       -18.5597
  20   2.0000      -0.666761       -18.1435
  21   2.0000      -0.609436       -16.5836
  22   2.0000      -0.594342       -16.1729
  23   2.0000      -0.571867       -15.5613
  24   2.0000      -0.509703       -13.8697
  25   2.0000      -0.484988       -13.1972
  26   2.0000      -0.465016       -12.6537
  27   2.0000      -0.456751       -12.4288
  28   2.0000      -0.402887       -10.9631
  29   0.0000       0.075126         2.0443
  30   0.0000       0.106548         2.8993
  31   0.0000       0.147955         4.0261
  32   0.0000       0.167992         4.5713
  33   0.0000       0.169298         4.6068

MULLIKEN ATOMIC CHARGES
-----------------------
   0 N :   -0.395923
   1 C :    0.278269
   2 N :   -0.271240
   3 C :    0.122672
   4 N :   -0.288146
   5 C :    0.301892
   6 O :   -0.233616
   7 O :   -0.204265
   8 H :    0.246049
   9 H :    0.277776
  10 H :    0.166532
Sum of atomic charges:   -0.0000000

LOEWDIN ATOMIC CHARGES
----------------------
   0 N :   -0.061595
   1 C :   -0.472454
   2 N :    0.169090
   3 C :   -0.250968
   4 N :    0.104079
   5 C :   -0.500711
   6 O :    0.176985
   7 O :    0.292863
   8 H :    0.179329
   9 H :    0.214914
  10 H :    0.148468

  Mayer bond orders larger than 0.1
B(  0-N ,  1-C ) :   1.9796 B(  0-N ,  8-H ) :   0.8509 B(  1-C ,  2-N ) :   0.9854
B(  1-C ,  7-O ) :   1.0943 B(  2-N ,  3-C ) :   1.1616 B(  2-N ,  9-H ) :   0.8509
B(  3-C ,  4-N ) :   1.6337 B(  3-C , 10-H ) :   0.9170 B(  4-N ,  5-C ) :   1.1097
B(  5-C ,  6-O ) :   2.0752 B(  5-C ,  7-O ) :   0.9331

MP2 TOTAL ENERGY:     -430.093210128 Eh
FINAL SINGLE POINT ENERGY      -430.093210128214

DIPOLE MOMENT
-------------
                                X             Y             Z
Electronic contribution:      2.14135      -1.61333      -0.77917
Nuclear contribution   :     -3.86899       2.05548       1.10289
                        -----------------------------------------
Total Dipole Moment    :     -1.72764       0.44215       0.32372
                        -----------------------------------------
Magnitude (a.u.)       :      1.81247
Magnitude (Debye)      :      4.60693

                             ****ORCA TERMINATED NORMALLY****
TOTAL RUN TIME: 0 days 0 hours 8 minutes 30 seconds 491 msec
