                         Program Version 3.0.3 - RELEASE   -
|  1> ! RI-MP2 RIJK def2-TZVP def2-TZVP/C def2-TZVP/JK TIGHTSCF
|  2> % maxcore 2000
|  3> % mp2 density relaxed end
|  4> *xyz 0 1
|  5>  C       -0.0318331791     1.4522899116     0.0370066149
|  6>  N        0.0158857382     0.0009379452     0.0142161028
|  7>  C        0.5127613764    -0.4998344387    -1.2637959246
|  8>  C        0.6534126197    -2.0152597768    -1.2874547238
|  9>  N        1.8738118827    -2.5526301885    -0.6890047509
| 10>  C        0.5702064321    -2.7930023797    -0.0138201219
| 11>  C        0.4089225914    -2.0394447040     1.2675357600
| 12>  O        0.0264591266    -2.5687085905     2.2846105413
| 13>  C        0.7304173231    -0.5527155241     1.1660831272
| 14>  H        0.9654284824     1.9245814277    -0.0495729087
| 15>  H       -0.6471978207     1.8126901890    -0.7941355813
| 16>  H       -0.4889231825     1.7930409762     0.9708105384
| 17>  H       -0.1964660977    -0.1904842796    -2.0402535536
| 18>  H        1.4952555939    -0.0613449138    -1.5252909878
| 19>  H        0.2707638428    -2.5087123614    -2.1771351600
| 20>  H        2.1637040210    -3.4057576468    -1.1598044967
| 21>  H        0.1533978146    -3.7955412725    -0.0157746575
| 22>  H        1.8266169197    -0.4116721002     1.1058636983
| 23>  H        0.3711609055    -0.0742927830     2.0797447836
| 24> *
| 25>
| 26>                          ****END OF INPUT****

CARTESIAN COORDINATES (ANGSTROEM)
---------------------------------
  C     -0.031833    1.452290    0.037007
  N      0.015886    0.000938    0.014216
  C      0.512761   -0.499834   -1.263796
  C      0.653413   -2.015260   -1.287455
  N      1.873812   -2.552630   -0.689005
  C      0.570206   -2.793002   -0.013820
  C      0.408923   -2.039445    1.267536
  O      0.026459   -2.568709    2.284611
  C      0.730417   -0.552716    1.166083
  H      0.965428    1.924581   -0.049573
  H     -0.647198    1.812690   -0.794136
  H     -0.488923    1.793041    0.970811
  H     -0.196466   -0.190484   -2.040254
  H      1.495256   -0.061345   -1.525291
  H      0.270764   -2.508712   -2.177135
  H      2.163704   -3.405758   -1.159804
  H      0.153398   -3.795541   -0.015775
  H      1.826617   -0.411672    1.105864
  H      0.371161   -0.074293    2.079745

 Total Charge           Charge          ....    0
 Multiplicity           Mult            ....    1
 Number of Electrons    NEL             ....   68
 Basis Dimension        Dim             ....  339

ORBITAL ENERGIES
----------------

  NO   OCC          E(Eh)            E(eV)
   0   2.0000     -20.544560      -559.0459
   1   2.0000     -15.580624      -423.9703
   2   2.0000     -15.562189      -423.4687
   3   2.0000     -11.327800      -308.2451
   4   2.0000     -11.282723      -307.0185
   5   2.0000     -11.275317      -306.8170
   6   2.0000     -11.265548      -306.5511
   7   2.0000     -11.260292      -306.4081
   8   2.0000     -11.252942      -306.2081
   9   2.0000      -1.388496       -37.7829
  10   2.0000      -1.291066       -35.1317
  11   2.0000      -1.235511       -33.6200
  12   2.0000      -1.012383       -27.5484
  13   2.0000      -0.993959       -27.0470
  14   2.0000      -0.926748       -25.2181
  15   2.0000      -0.863296       -23.4915
  16   2.0000      -0.820173       -22.3181
  17   2.0000      -0.735812       -20.0225
  18   2.0000      -0.718488       -19.5511
  19   2.0000      -0.674884       -18.3645
  20   2.0000      -0.649355       -17.6698
  21   2.0000      -0.641508       -17.4563
  22   2.0000      -0.618485       -16.8298
  23   2.0000      -0.588019       -16.0008
  24   2.0000      -0.566370       -15.4117
  25   2.0000      -0.558924       -15.2091
  26   2.0000      -0.539062       -14.6686
  27   2.0000      -0.524947       -14.2845
  28   2.0000      -0.506269       -13.7763
  29   2.0000      -0.490466       -13.3463
  30   2.0000      -0.476458       -12.9651
  31   2.0000      -0.425272       -11.5722
  32   2.0000      -0.399344       -10.8667
  33   2.0000      -0.365173        -9.9369
  34   0.0000       0.123272         3.3544
  35   0.0000       0.140398         3.8204
  36   0.0000       0.147101         4.0028
  37   0.0000       0.172026         4.6811
  38   0.0000       0.185037         5.0351

MULLIKEN ATOMIC CHARGES
-----------------------
   0 C :   -0.324204
   1 N :   -0.158277
   2 C :   -0.167290
   3 C :   -0.021896
   4 N :   -0.391240
   5 C :   -0.040205
   6 C :    0.123729
   7 O :   -0.271774
   8 C :   -0.112743
   9 H :    0.110627
  10 H :    0.133824
  11 H :    0.140807
  12 H :    0.118357
  13 H :    0.103621
  14 H :    0.138595
  15 H :    0.224368
  16 H :    0.142607
  17 H :    0.116995
  18 H :    0.134100
Sum of atomic charges:    0.0000000

LOEWDIN ATOMIC CHARGES
----------------------
   0 C :   -0.326950
   1 N :    0.066087
   2 C :   -0.265825
   3 C :   -0.244682
   4 N :    0.018774
   5 C :   -0.206940
   6 C :   -0.310202
   7 O :    0.157572
   8 C :   -0.239889
   9 H :    0.103598
  10 H :    0.119411
  11 H :    0.120347
  12 H :    0.138541
  13 H :    0.129443
  14 H :    0.141639
  15 H :    0.171858
  16 H :    0.145810
  17 H :    0.136455
  18 H :    0.144953

  Mayer bond orders larger than 0.1
B(  0-C ,  1-N ) :   0.9115 B(  0-C ,  9-H ) :   0.9275 B(  0-C , 10-H ) :   0.9362
B(  0-C , 11-H ) :   0.9381 B(  1-N ,  2-C ) :   0.9577 B(  1-N ,  8-C ) :   0.8503
B(  2-C ,  3-C ) :   0.9181 B(  2-C , 12-H ) :   0.9238 B(  2-C , 13-H ) :   0.9203
B(  3-C ,  4-N ) :   0.9526 B(  3-C ,  5-C ) :   0.8555 B(  3-C , 14-H ) :   0.9185
B(  4-N ,  5-C ) :   0.8367 B(  4-N , 15-H ) :   0.8662 B(  5-C ,  6-C ) :   0.9698
B(  5-C ,  8-C ) :  -0.1112 B(  5-C , 16-H ) :   0.9202 B(  6-C ,  7-O ) :   2.0456
B(  6-C ,  8-C ) :   0.9193 B(  8-C , 17-H ) :   0.8757 B(  8-C , 18-H ) :   0.9168

MP2 TOTAL ENERGY:     -418.485071458 Eh
FINAL SINGLE POINT ENERGY      -418.485071458078

DIPOLE MOMENT
-------------
                                X             Y             Z
Electronic contribution:     -0.40853      -6.95735       3.69376
Nuclear contribution   :      0.56196       7.20900      -5.01777
                        -----------------------------------------
Total Dipole Moment    :      0.15343       0.25165      -1.32401
                        -----------------------------------------
Magnitude (a.u.)       :      1.35642
Magnitude (Debye)      :      3.44774

                             ****ORCA TERMINATED NORMALLY****
TOTAL RUN TIME: 0 days 0 hours 19 minutes 13 seconds 630 msec
