                         Program Version 3.0.3 - RELEASE   -
|  1> ! RI-MP2 RIJK def2-TZVP def2-TZVP/C def2-TZVP/JK TIGHTSCF
|  2> % maxcore 2000
|  3> % mp2 density relaxed end
|  4> *xyz 0 1
|  5>  C        0.3994542064     1.4708543578     0.2277400544
|  6>  C        0.1691416863    -0.0401908049     0.1225201768
|  7>  C        0.4814416278    -0.5606910973    -1.2737115368
|  8>  O        1.8731826493    -0.3770825120    -1.6260344510
|  9>  C        2.0782283512    -1.8032511323    -1.8477735476
| 10>  C        2.4842025528    -2.0624136724    -3.2942466303
| 11>  C        3.1188143413    -2.3451336842    -0.8739545942
| 12>  C        0.5746276142    -2.0890359642    -1.5321481010
| 13>  C        0.1894560888    -3.0754894591    -0.4372593125
| 14>  H        1.4319792111     1.7148275548    -0.0372747055
| 15>  H       -0.2605430634     2.0206656889    -0.4526041027
| 16>  H        0.2099902056     1.8321763863     1.2429204646
| 17>  H        0.7957298979    -0.5576586157     0.8578752106
| 18>  H       -0.8742103736    -0.2829973570     0.3645785206
| 19>  H       -0.1639359009    -0.0391524515    -1.9966293076
| 20>  H        3.4616301936    -1.6155917421    -3.5040341889
| 21>  H        2.5498310276    -3.1378194052    -3.4948039824
| 22>  H        1.7555712131    -1.6256259383    -3.9831472809
| 23>  H        2.8513030942    -2.1285522263     0.1627982020
| 24>  H        3.2391719876    -3.4283938536    -0.9833753111
| 25>  H        4.0866674373    -1.8741313298    -1.0743806700
| 26>  H        0.0407472389    -2.3614554528    -2.4476256245
| 27>  H        0.6761952264    -2.8626132004     0.5173863167
| 28>  H       -0.8924444017    -3.0596768361    -0.2674550429
| 29>  H        0.4581192781    -4.0974585427    -0.7258971157
| 30> *
| 31>
| 32>                          ****END OF INPUT****

CARTESIAN COORDINATES (ANGSTROEM)
---------------------------------
  C      0.399454    1.470854    0.227740
  C      0.169142   -0.040191    0.122520
  C      0.481442   -0.560691   -1.273712
  O      1.873183   -0.377083   -1.626034
  C      2.078228   -1.803251   -1.847774
  C      2.484203   -2.062414   -3.294247
  C      3.118814   -2.345134   -0.873955
  C      0.574628   -2.089036   -1.532148
  C      0.189456   -3.075489   -0.437259
  H      1.431979    1.714828   -0.037275
  H     -0.260543    2.020666   -0.452604
  H      0.209990    1.832176    1.242920
  H      0.795730   -0.557659    0.857875
  H     -0.874210   -0.282997    0.364579
  H     -0.163936   -0.039152   -1.996629
  H      3.461630   -1.615592   -3.504034
  H      2.549831   -3.137819   -3.494804
  H      1.755571   -1.625626   -3.983147
  H      2.851303   -2.128552    0.162798
  H      3.239172   -3.428394   -0.983375
  H      4.086667   -1.874131   -1.074381
  H      0.040747   -2.361455   -2.447626
  H      0.676195   -2.862613    0.517386
  H     -0.892444   -3.059677   -0.267455
  H      0.458119   -4.097459   -0.725897

 Total Charge           Charge          ....    0
 Multiplicity           Mult            ....    1
 Number of Electrons    NEL             ....   72
 Basis Dimension        Dim             ....  375

ORBITAL ENERGIES
----------------

  NO   OCC          E(Eh)            E(eV)
   0   2.0000     -20.532488      -558.7174
   1   2.0000     -11.281421      -306.9831
   2   2.0000     -11.271429      -306.7112
   3   2.0000     -11.228251      -305.5362
   4   2.0000     -11.219279      -305.2921
   5   2.0000     -11.217070      -305.2320
   6   2.0000     -11.211843      -305.0898
   7   2.0000     -11.211202      -305.0723
   8   2.0000     -11.206621      -304.9476
   9   2.0000      -1.366172       -37.1754
  10   2.0000      -1.061462       -28.8838
  11   2.0000      -1.054878       -28.7047
  12   2.0000      -1.001763       -27.2594
  13   2.0000      -0.937949       -25.5229
  14   2.0000      -0.908706       -24.7272
  15   2.0000      -0.859666       -23.3927
  16   2.0000      -0.791692       -21.5430
  17   2.0000      -0.698170       -18.9982
  18   2.0000      -0.673418       -18.3246
  19   2.0000      -0.639171       -17.3927
  20   2.0000      -0.627251       -17.0684
  21   2.0000      -0.596789       -16.2394
  22   2.0000      -0.582449       -15.8492
  23   2.0000      -0.566571       -15.4172
  24   2.0000      -0.558098       -15.1866
  25   2.0000      -0.551990       -15.0204
  26   2.0000      -0.532466       -14.4891
  27   2.0000      -0.524631       -14.2759
  28   2.0000      -0.519453       -14.1350
  29   2.0000      -0.503787       -13.7087
  30   2.0000      -0.493597       -13.4314
  31   2.0000      -0.484988       -13.1972
  32   2.0000      -0.477348       -12.9893
  33   2.0000      -0.431787       -11.7495
  34   2.0000      -0.416742       -11.3401
  35   2.0000      -0.397520       -10.8171
  36   0.0000       0.128010         3.4833
  37   0.0000       0.154844         4.2135
  38   0.0000       0.158906         4.3240
  39   0.0000       0.165994         4.5169
  40   0.0000       0.187405         5.0996

MULLIKEN ATOMIC CHARGES
-----------------------
   0 C :   -0.396844
   1 C :   -0.207104
   2 C :    0.063144
   3 O :   -0.343166
   4 C :    0.203177
   5 C :   -0.403373
   6 C :   -0.400157
   7 C :   -0.065626
   8 C :   -0.417992
   9 H :    0.146806
  10 H :    0.117575
  11 H :    0.130872
  12 H :    0.101605
  13 H :    0.104871
  14 H :    0.080617
  15 H :    0.131863
  16 H :    0.123757
  17 H :    0.130553
  18 H :    0.127689
  19 H :    0.124871
  20 H :    0.138070
  21 H :    0.108406
  22 H :    0.126216
  23 H :    0.137228
  24 H :    0.136941
Sum of atomic charges:    0.0000000

LOEWDIN ATOMIC CHARGES
----------------------
   0 C :   -0.316147
   1 C :   -0.278236
   2 C :   -0.263291
   3 O :    0.172561
   4 C :   -0.339916
   5 C :   -0.273523
   6 C :   -0.271358
   7 C :   -0.202156
   8 C :   -0.295758
   9 H :    0.127240
  10 H :    0.120197
  11 H :    0.119466
  12 H :    0.136177
  13 H :    0.139066
  14 H :    0.134784
  15 H :    0.128338
  16 H :    0.126958
  17 H :    0.126884
  18 H :    0.124055
  19 H :    0.127722
  20 H :    0.131191
  21 H :    0.150162
  22 H :    0.122340
  23 H :    0.126711
  24 H :    0.126532

  Mayer bond orders larger than 0.1
B(  0-C ,  1-C ) :   0.9226 B(  0-C ,  9-H ) :   0.9364 B(  0-C , 10-H ) :   0.9374
B(  0-C , 11-H ) :   0.9413 B(  1-C ,  2-C ) :   0.9284 B(  1-C , 12-H ) :   0.9321
B(  1-C , 13-H ) :   0.9243 B(  2-C ,  3-O ) :   0.9214 B(  2-C ,  7-C ) :   0.9255
B(  2-C , 14-H ) :   0.9108 B(  3-O ,  4-C ) :   0.9138 B(  4-C ,  5-C ) :   0.9113
B(  4-C ,  6-C ) :   0.9111 B(  4-C ,  7-C ) :   0.8884 B(  5-C , 15-H ) :   0.9355
B(  5-C , 16-H ) :   0.9313 B(  5-C , 17-H ) :   0.9357 B(  6-C , 18-H ) :   0.9417
B(  6-C , 19-H ) :   0.9280 B(  6-C , 20-H ) :   0.9314 B(  7-C ,  8-C ) :   0.9194
B(  7-C , 21-H ) :   0.9367 B(  8-C , 22-H ) :   0.9371 B(  8-C , 23-H ) :   0.9379
B(  8-C , 24-H ) :   0.9384

MP2 TOTAL ENERGY:     -388.820160558 Eh
FINAL SINGLE POINT ENERGY      -388.820160558311

DIPOLE MOMENT
-------------
                                X             Y             Z
Electronic contribution:      0.60576       1.55442      -2.51569
Nuclear contribution   :     -0.96897      -2.14534       2.59001
                        -----------------------------------------
Total Dipole Moment    :     -0.36322      -0.59092       0.07432
                        -----------------------------------------
Magnitude (a.u.)       :      0.69760
Magnitude (Debye)      :      1.77315

                             ****ORCA TERMINATED NORMALLY****
TOTAL RUN TIME: 0 days 0 hours 35 minutes 41 seconds 16 msec
