                         Program Version 3.0.3 - RELEASE   -
|  1> ! RI-MP2 RIJK def2-TZVP def2-TZVP/C def2-TZVP/JK TIGHTSCF
|  2> % maxcore 2000
|  3> % mp2 density relaxed end
|  4> *xyz 0 1
|  5>  N        0.0380441438     1.3657874560     0.1428663604
|  6>  C        0.0088866209    -0.0239065406     0.0655616681
|  7>  N       -1.0442185202    -0.7884708951     0.0879058974
|  8>  N       -0.5931481830    -2.1141532106     0.0791550258
|  9>  C        0.7076265177    -2.0774873500     0.0517143978
| 10>  N        1.5785267175    -3.1618706336     0.1123116865
| 11>  N        1.1598729892    -0.7777484607     0.0283175916
| 12>  H        0.5208869199     1.7997807774    -0.6367545438
| 13>  H       -0.9130116191     1.7141358285     0.1825757666
| 14>  H        1.0374469478    -4.0184229124     0.1435164356
| 15>  H        2.2229991075    -3.2016515714    -0.6702208881
| 16>  H        2.0967423380    -0.4601870275     0.2113096620
| 17> *
| 18>
| 19>                          ****END OF INPUT****

CARTESIAN COORDINATES (ANGSTROEM)
---------------------------------
  N      0.038044    1.365787    0.142866
  C      0.008887   -0.023907    0.065562
  N     -1.044219   -0.788471    0.087906
  N     -0.593148   -2.114153    0.079155
  C      0.707627   -2.077487    0.051714
  N      1.578527   -3.161871    0.112312
  N      1.159873   -0.777748    0.028318
  H      0.520887    1.799781   -0.636755
  H     -0.913012    1.714136    0.182576
  H      1.037447   -4.018423    0.143516
  H      2.222999   -3.201652   -0.670221
  H      2.096742   -0.460187    0.211310

 Total Charge           Charge          ....    0
 Multiplicity           Mult            ....    1
 Number of Electrons    NEL             ....   52
 Basis Dimension        Dim             ....  247

ORBITAL ENERGIES
----------------

  NO   OCC          E(Eh)            E(eV)
   0   2.0000     -15.621067      -425.0708
   1   2.0000     -15.584793      -424.0838
   2   2.0000     -15.584789      -424.0837
   3   2.0000     -15.557340      -423.3367
   4   2.0000     -15.556758      -423.3209
   5   2.0000     -11.333951      -308.4125
   6   2.0000     -11.333916      -308.4115
   7   2.0000      -1.393224       -37.9116
   8   2.0000      -1.246553       -33.9204
   9   2.0000      -1.216893       -33.1134
  10   2.0000      -1.189301       -32.3625
  11   2.0000      -1.043967       -28.4078
  12   2.0000      -0.836903       -22.7733
  13   2.0000      -0.831209       -22.6183
  14   2.0000      -0.759700       -20.6725
  15   2.0000      -0.697026       -18.9671
  16   2.0000      -0.692492       -18.8437
  17   2.0000      -0.653154       -17.7732
  18   2.0000      -0.622970       -16.9519
  19   2.0000      -0.618974       -16.8431
  20   2.0000      -0.516434       -14.0529
  21   2.0000      -0.479426       -13.0458
  22   2.0000      -0.448146       -12.1947
  23   2.0000      -0.426442       -11.6041
  24   2.0000      -0.421255       -11.4629
  25   2.0000      -0.316995        -8.6259
  26   0.0000       0.112581         3.0635
  27   0.0000       0.131969         3.5910
  28   0.0000       0.153944         4.1890
  29   0.0000       0.184397         5.0177
  30   0.0000       0.196999         5.3606

MULLIKEN ATOMIC CHARGES
-----------------------
   0 N :   -0.522400
   1 C :    0.259046
   2 N :   -0.211183
   3 N :   -0.211207
   4 C :    0.259106
   5 N :   -0.522397
   6 N :   -0.359118
   7 H :    0.254074
   8 H :    0.269822
   9 H :    0.269826
  10 H :    0.254072
  11 H :    0.260358
Sum of atomic charges:    0.0000000

LOEWDIN ATOMIC CHARGES
----------------------
   0 N :   -0.091758
   1 C :   -0.457455
   2 N :    0.012940
   3 N :    0.012927
   4 C :   -0.457451
   5 N :   -0.091733
   6 N :    0.172966
   7 H :    0.169787
   8 H :    0.182155
   9 H :    0.182157
  10 H :    0.169786
  11 H :    0.195680

  Mayer bond orders larger than 0.1
B(  0-N ,  1-C ) :   1.0692 B(  0-N ,  7-H ) :   0.8699 B(  0-N ,  8-H ) :   0.8704
B(  1-C ,  2-N ) :   1.6846 B(  1-C ,  6-N ) :   1.1022 B(  2-N ,  3-N ) :   0.9516
B(  3-N ,  4-C ) :   1.6846 B(  4-C ,  5-N ) :   1.0691 B(  4-C ,  6-N ) :   1.1022
B(  5-N ,  9-H ) :   0.8704 B(  5-N , 10-H ) :   0.8699 B(  6-N , 11-H ) :   0.8547

MP2 TOTAL ENERGY:     -352.320199528 Eh
FINAL SINGLE POINT ENERGY      -352.320199527607

DIPOLE MOMENT
-------------
                                X             Y             Z
Electronic contribution:     -1.46866      -0.50155       0.24926
Nuclear contribution   :      3.25663       1.11523      -1.05014
                        -----------------------------------------
Total Dipole Moment    :      1.78797       0.61368      -0.80088
                        -----------------------------------------
Magnitude (a.u.)       :      2.05301
Magnitude (Debye)      :      5.21832

                             ****ORCA TERMINATED NORMALLY****
TOTAL RUN TIME: 0 days 0 hours 5 minutes 57 seconds 488 msec
