                         Program Version 3.0.3 - RELEASE   -
|  1> ! RI-MP2 RIJK def2-TZVP def2-TZVP/C def2-TZVP/JK TIGHTSCF
|  2> % maxcore 2000
|  3> % mp2 density relaxed end
|  4> *xyz 0 1
|  5>  C       -0.1519795598     1.5125044449    -0.0285115774
|  6>  C        0.1092443558     0.0479780012     0.0189561880
|  7>  C        0.6438721065    -0.9792474988    -0.8840433654
|  8>  C        1.3868261005    -1.7030014485     0.2419517245
|  9>  C        0.3959892559    -0.9787954668     1.1987642060
| 10>  C       -0.9344830173    -1.5605126297     0.7483287077
| 11>  O       -1.8573405196    -2.1107869672     1.2611317866
| 12>  N       -0.8444428228    -0.9891186458    -0.5917821859
| 13>  H        0.7422082036     2.0789746057     0.2515772922
| 14>  H       -0.4478520802     1.8078609441    -1.0388401535
| 15>  H       -0.9592418525     1.7888402109     0.6576161511
| 16>  H        0.8964978003    -0.9153060377    -1.9348801794
| 17>  H        1.3886199936    -2.7974579082     0.2580843806
| 18>  H        2.4067412303    -1.3239305538     0.3412730542
| 19>  H        0.6261606958    -0.7784892204     2.2414507007
| 20> *
| 21>
| 22>                          ****END OF INPUT****

CARTESIAN COORDINATES (ANGSTROEM)
---------------------------------
  C     -0.151980    1.512504   -0.028512
  C      0.109244    0.047978    0.018956
  C      0.643872   -0.979247   -0.884043
  C      1.386826   -1.703001    0.241952
  C      0.395989   -0.978795    1.198764
  C     -0.934483   -1.560513    0.748329
  O     -1.857341   -2.110787    1.261132
  N     -0.844443   -0.989119   -0.591782
  H      0.742208    2.078975    0.251577
  H     -0.447852    1.807861   -1.038840
  H     -0.959242    1.788840    0.657616
  H      0.896498   -0.915306   -1.934880
  H      1.388620   -2.797458    0.258084
  H      2.406741   -1.323931    0.341273
  H      0.626161   -0.778489    2.241451

 Total Charge           Charge          ....    0
 Multiplicity           Mult            ....    1
 Number of Electrons    NEL             ....   58
 Basis Dimension        Dim             ....  290

ORBITAL ENERGIES
----------------

  NO   OCC          E(Eh)            E(eV)
   0   2.0000     -20.547340      -559.1216
   1   2.0000     -15.583558      -424.0502
   2   2.0000     -11.357399      -309.0505
   3   2.0000     -11.301909      -307.5406
   4   2.0000     -11.291412      -307.2549
   5   2.0000     -11.269814      -306.6672
   6   2.0000     -11.261821      -306.4497
   7   2.0000     -11.246923      -306.0443
   8   2.0000      -1.409412       -38.3520
   9   2.0000      -1.330908       -36.2159
  10   2.0000      -1.059440       -28.8288
  11   2.0000      -1.021851       -27.8060
  12   2.0000      -0.973841       -26.4996
  13   2.0000      -0.862521       -23.4704
  14   2.0000      -0.760380       -20.6910
  15   2.0000      -0.725430       -19.7400
  16   2.0000      -0.693019       -18.8580
  17   2.0000      -0.666305       -18.1311
  18   2.0000      -0.644906       -17.5488
  19   2.0000      -0.606081       -16.4923
  20   2.0000      -0.590589       -16.0708
  21   2.0000      -0.581801       -15.8316
  22   2.0000      -0.551117       -14.9967
  23   2.0000      -0.521854       -14.2004
  24   2.0000      -0.508602       -13.8398
  25   2.0000      -0.463555       -12.6140
  26   2.0000      -0.446483       -12.1494
  27   2.0000      -0.415913       -11.3176
  28   2.0000      -0.395815       -10.7707
  29   0.0000       0.125755         3.4220
  30   0.0000       0.143452         3.9035
  31   0.0000       0.164067         4.4645
  32   0.0000       0.177361         4.8262
  33   0.0000       0.183020         4.9802

MULLIKEN ATOMIC CHARGES
-----------------------
   0 C :   -0.410836
   1 C :    0.113765
   2 C :   -0.098476
   3 C :   -0.217319
   4 C :   -0.110831
   5 C :    0.172979
   6 O :   -0.237756
   7 N :   -0.220496
   8 H :    0.143139
   9 H :    0.154580
  10 H :    0.151076
  11 H :    0.144471
  12 H :    0.131919
  13 H :    0.133139
  14 H :    0.150645
Sum of atomic charges:    0.0000000

LOEWDIN ATOMIC CHARGES
----------------------
   0 C :   -0.266915
   1 C :   -0.182950
   2 C :   -0.176679
   3 C :   -0.191035
   4 C :   -0.124019
   5 C :   -0.376890
   6 O :    0.168978
   7 N :    0.176662
   8 H :    0.134592
   9 H :    0.141306
  10 H :    0.138176
  11 H :    0.140284
  12 H :    0.132453
  13 H :    0.144641
  14 H :    0.141395

  Mayer bond orders larger than 0.1
B(  0-C ,  1-C ) :   0.8140 B(  0-C ,  8-H ) :   0.9386 B(  0-C ,  9-H ) :   0.9427
B(  0-C , 10-H ) :   0.9381 B(  1-C ,  2-C ) :   0.8767 B(  1-C ,  4-C ) :   0.8006
B(  1-C ,  7-N ) :   0.7318 B(  2-C ,  3-C ) :   0.9286 B(  2-C ,  7-N ) :   0.8837
B(  2-C , 11-H ) :   0.9185 B(  3-C ,  4-C ) :   0.9181 B(  3-C , 12-H ) :   0.9196
B(  3-C , 13-H ) :   0.9148 B(  4-C ,  5-C ) :   0.8990 B(  4-C , 14-H ) :   0.8961
B(  5-C ,  6-O ) :   2.0862 B(  5-C ,  7-N ) :   0.9736

MP2 TOTAL ENERGY:     -362.005181380 Eh
FINAL SINGLE POINT ENERGY      -362.005181380198

DIPOLE MOMENT
-------------
                                X             Y             Z
Electronic contribution:     -3.92840      -4.51245       0.88205
Nuclear contribution   :      5.50707       5.37029      -0.96042
                        -----------------------------------------
Total Dipole Moment    :      1.57866       0.85784      -0.07837
                        -----------------------------------------
Magnitude (a.u.)       :      1.79839
Magnitude (Debye)      :      4.57115

                             ****ORCA TERMINATED NORMALLY****
TOTAL RUN TIME: 0 days 0 hours 11 minutes 53 seconds 417 msec
