                         Program Version 3.0.3 - RELEASE   -
|  1> ! RI-MP2 RIJK def2-TZVP def2-TZVP/C def2-TZVP/JK TIGHTSCF
|  2> % maxcore 2000
|  3> % mp2 density relaxed end
|  4> *xyz 0 1
|  5>  C       -0.3003787719     1.6190417184    -0.0198282540
|  6>  C       -0.0267403808     0.1267899308    -0.0927996585
|  7>  C        1.0316161810    -0.3268505819    -1.1277941860
|  8>  C        1.8559381820    -0.6880390644     0.1036524341
|  9>  O        2.9224645253    -1.1469822249     0.3526159272
| 10>  O        0.8953585214    -0.2759054376     0.9977334688
| 11>  C       -1.2933695882    -0.6970916232    -0.0365804544
| 12>  C       -1.3035779809    -2.0888970087     0.4713511807
| 13>  N       -1.9167992430    -0.9996065936     1.2584120772
| 14>  H        0.6337382682     2.1872650464    -0.0222089877
| 15>  H       -0.9017634702     1.9337335124    -0.8786340131
| 16>  H       -0.8546980978     1.8636226921     0.8906593210
| 17>  H        0.7584879359    -1.1801281297    -1.7504025596
| 18>  H        1.4715635589     0.4585535846    -1.7450441520
| 19>  H       -2.0073130965    -0.4251089260    -0.8129211537
| 20>  H       -2.0058169509    -2.8057248510     0.0561960826
| 21>  H       -0.3715588299    -2.5132361782     0.8312744637
| 22>  H       -1.2669524727    -0.7419862154     2.0001063136
| 23> *
| 24>
| 25>                          ****END OF INPUT****

CARTESIAN COORDINATES (ANGSTROEM)
---------------------------------
  C     -0.300379    1.619042   -0.019828
  C     -0.026740    0.126790   -0.092800
  C      1.031616   -0.326851   -1.127794
  C      1.855938   -0.688039    0.103652
  O      2.922465   -1.146982    0.352616
  O      0.895359   -0.275905    0.997733
  C     -1.293370   -0.697092   -0.036580
  C     -1.303578   -2.088897    0.471351
  N     -1.916799   -0.999607    1.258412
  H      0.633738    2.187265   -0.022209
  H     -0.901763    1.933734   -0.878634
  H     -0.854698    1.863623    0.890659
  H      0.758488   -1.180128   -1.750403
  H      1.471564    0.458554   -1.745044
  H     -2.007313   -0.425109   -0.812921
  H     -2.005817   -2.805725    0.056196
  H     -0.371559   -2.513236    0.831274
  H     -1.266952   -0.741986    2.000106

 Total Charge           Charge          ....    0
 Multiplicity           Mult            ....    1
 Number of Electrons    NEL             ....   68
 Basis Dimension        Dim             ....  333

ORBITAL ENERGIES
----------------

  NO   OCC          E(Eh)            E(eV)
   0   2.0000     -20.606601      -560.7341
   1   2.0000     -20.559288      -559.4467
   2   2.0000     -15.568438      -423.6387
   3   2.0000     -11.391640      -309.9823
   4   2.0000     -11.330183      -308.3099
   5   2.0000     -11.277946      -306.8885
   6   2.0000     -11.269213      -306.6509
   7   2.0000     -11.265780      -306.5575
   8   2.0000     -11.243744      -305.9578
   9   2.0000      -1.470489       -40.0140
  10   2.0000      -1.387209       -37.7479
  11   2.0000      -1.272655       -34.6307
  12   2.0000      -1.086118       -29.5548
  13   2.0000      -1.011292       -27.5187
  14   2.0000      -0.924124       -25.1467
  15   2.0000      -0.881606       -23.9897
  16   2.0000      -0.814103       -22.1529
  17   2.0000      -0.757609       -20.6156
  18   2.0000      -0.727406       -19.7937
  19   2.0000      -0.696401       -18.9500
  20   2.0000      -0.685202       -18.6453
  21   2.0000      -0.650141       -17.6912
  22   2.0000      -0.629187       -17.1210
  23   2.0000      -0.598380       -16.2827
  24   2.0000      -0.590010       -16.0550
  25   2.0000      -0.571399       -15.5486
  26   2.0000      -0.556731       -15.1494
  27   2.0000      -0.527074       -14.3424
  28   2.0000      -0.519122       -14.1260
  29   2.0000      -0.496041       -13.4980
  30   2.0000      -0.481291       -13.0966
  31   2.0000      -0.460970       -12.5436
  32   2.0000      -0.450829       -12.2677
  33   2.0000      -0.401278       -10.9193
  34   0.0000       0.122867         3.3434
  35   0.0000       0.148278         4.0348
  36   0.0000       0.154894         4.2149
  37   0.0000       0.160429         4.3655
  38   0.0000       0.169424         4.6103

MULLIKEN ATOMIC CHARGES
-----------------------
   0 C :   -0.407256
   1 C :    0.250422
   2 C :   -0.294056
   3 C :    0.226380
   4 O :   -0.251149
   5 O :   -0.280205
   6 C :   -0.081143
   7 C :   -0.187774
   8 N :   -0.360087
   9 H :    0.145195
  10 H :    0.142538
  11 H :    0.153081
  12 H :    0.152831
  13 H :    0.151123
  14 H :    0.129082
  15 H :    0.127032
  16 H :    0.149661
  17 H :    0.234327
Sum of atomic charges:    0.0000000

LOEWDIN ATOMIC CHARGES
----------------------
   0 C :   -0.258066
   1 C :   -0.302342
   2 C :   -0.167610
   3 C :   -0.457404
   4 O :    0.158706
   5 O :    0.258670
   6 C :   -0.254490
   7 C :   -0.256090
   8 N :   -0.006492
   9 H :    0.132717
  10 H :    0.135356
  11 H :    0.136827
  12 H :    0.152683
  13 H :    0.150264
  14 H :    0.151431
  15 H :    0.125819
  16 H :    0.128703
  17 H :    0.171318

  Mayer bond orders larger than 0.1
B(  0-C ,  1-C ) :   0.9317 B(  0-C ,  9-H ) :   0.9273 B(  0-C , 10-H ) :   0.9296
B(  0-C , 11-H ) :   0.9292 B(  1-C ,  2-C ) :   0.8553 B(  1-C ,  5-O ) :   0.8084
B(  1-C ,  6-C ) :   0.9511 B(  2-C ,  3-C ) :   0.9609 B(  2-C , 12-H ) :   0.8972
B(  2-C , 13-H ) :   0.9027 B(  3-C ,  4-O ) :   2.0765 B(  3-C ,  5-O ) :   1.0757
B(  6-C ,  7-C ) :   0.9308 B(  6-C ,  8-N ) :   0.9323 B(  6-C , 14-H ) :   0.9065
B(  7-C ,  8-N ) :   0.9217 B(  7-C , 15-H ) :   0.9171 B(  7-C , 16-H ) :   0.9170
B(  8-N , 17-H ) :   0.8659

MP2 TOTAL ENERGY:     -438.370348517 Eh
FINAL SINGLE POINT ENERGY      -438.370348517272

DIPOLE MOMENT
-------------
                                X             Y             Z
Electronic contribution:      5.58342      -2.48923       2.21694
Nuclear contribution   :     -6.16560       3.00609      -3.27329
                        -----------------------------------------
Total Dipole Moment    :     -0.58218       0.51685      -1.05635
                        -----------------------------------------
Magnitude (a.u.)       :      1.31223
Magnitude (Debye)      :      3.33542

                             ****ORCA TERMINATED NORMALLY****
TOTAL RUN TIME: 0 days 0 hours 18 minutes 0 seconds 224 msec
