                         Program Version 3.0.3 - RELEASE   -
|  1> ! RI-MP2 RIJK def2-TZVP def2-TZVP/C def2-TZVP/JK TIGHTSCF
|  2> % maxcore 2000
|  3> % mp2 density relaxed end
|  4> *xyz 0 1
|  5>  N       -0.1388045872     1.2698413086    -0.2059070677
|  6>  C       -0.0044722790     0.0280029622     0.0335813574
|  7>  O       -1.1514784621    -0.7038253554     0.1316906255
|  8>  C       -1.0759219256    -1.9335523097     0.8309795002
|  9>  C       -1.4499279805    -1.8793337848     2.2893032234
| 10>  C       -2.4062376709    -2.4541237203     1.2587242194
| 11>  C        0.0312773497    -2.8391185382     0.3430164267
| 12>  C        1.3029502270    -2.0452931408     0.2332054630
| 13>  C        1.2644917368    -0.7150487826     0.1289356979
| 14>  H        0.7784443485     1.6989891723    -0.3210077972
| 15>  H       -0.9564971613    -2.5570008099     2.9778167561
| 16>  H       -1.6892132801    -0.9038012447     2.6958242309
| 17>  H       -3.2688829230    -1.8552210519     0.9911956004
| 18>  H       -2.5681518171    -3.5264873355     1.2375485100
| 19>  H        0.1566152509    -3.6800974557     1.0333042754
| 20>  H       -0.2233874976    -3.2758515968    -0.6342668995
| 21>  H        2.2510210287    -2.5754513106     0.2310744047
| 22>  H        2.1705578429    -0.1225457261     0.0561119636
| 23> *
| 24>
| 25>                          ****END OF INPUT****

CARTESIAN COORDINATES (ANGSTROEM)
---------------------------------
  N     -0.138805    1.269841   -0.205907
  C     -0.004472    0.028003    0.033581
  O     -1.151478   -0.703825    0.131691
  C     -1.075922   -1.933552    0.830980
  C     -1.449928   -1.879334    2.289303
  C     -2.406238   -2.454124    1.258724
  C      0.031277   -2.839119    0.343016
  C      1.302950   -2.045293    0.233205
  C      1.264492   -0.715049    0.128936
  H      0.778444    1.698989   -0.321008
  H     -0.956497   -2.557001    2.977817
  H     -1.689213   -0.903801    2.695824
  H     -3.268883   -1.855221    0.991196
  H     -2.568152   -3.526487    1.237549
  H      0.156615   -3.680097    1.033304
  H     -0.223387   -3.275852   -0.634267
  H      2.251021   -2.575451    0.231074
  H      2.170558   -0.122546    0.056112

 Total Charge           Charge          ....    0
 Multiplicity           Mult            ....    1
 Number of Electrons    NEL             ....   66
 Basis Dimension        Dim             ....  333

ORBITAL ENERGIES
----------------

  NO   OCC          E(Eh)            E(eV)
   0   2.0000     -20.584188      -560.1242
   1   2.0000     -15.531200      -422.6254
   2   2.0000     -11.336089      -308.4707
   3   2.0000     -11.303111      -307.5733
   4   2.0000     -11.265491      -306.5496
   5   2.0000     -11.252458      -306.1949
   6   2.0000     -11.249421      -306.1123
   7   2.0000     -11.233756      -305.6860
   8   2.0000     -11.232738      -305.6583
   9   2.0000      -1.424388       -38.7596
  10   2.0000      -1.201371       -32.6910
  11   2.0000      -1.145392       -31.1677
  12   2.0000      -1.101374       -29.9699
  13   2.0000      -0.979416       -26.6513
  14   2.0000      -0.851555       -23.1720
  15   2.0000      -0.841741       -22.9049
  16   2.0000      -0.833986       -22.6939
  17   2.0000      -0.715124       -19.4595
  18   2.0000      -0.701733       -19.0951
  19   2.0000      -0.682405       -18.5692
  20   2.0000      -0.643711       -17.5163
  21   2.0000      -0.628978       -17.1154
  22   2.0000      -0.621010       -16.8985
  23   2.0000      -0.593640       -16.1538
  24   2.0000      -0.577046       -15.7022
  25   2.0000      -0.547180       -14.8895
  26   2.0000      -0.523230       -14.2378
  27   2.0000      -0.504419       -13.7259
  28   2.0000      -0.458470       -12.4756
  29   2.0000      -0.443002       -12.0547
  30   2.0000      -0.415790       -11.3142
  31   2.0000      -0.396282       -10.7834
  32   2.0000      -0.359558        -9.7841
  33   0.0000       0.099579         2.7097
  34   0.0000       0.129531         3.5247
  35   0.0000       0.154664         4.2086
  36   0.0000       0.167855         4.5676
  37   0.0000       0.171887         4.6773

MULLIKEN ATOMIC CHARGES
-----------------------
   0 N :   -0.309495
   1 C :    0.163302
   2 O :   -0.228702
   3 C :    0.196807
   4 C :   -0.311633
   5 C :   -0.274158
   6 C :   -0.147739
   7 C :   -0.189601
   8 C :   -0.199339
   9 H :    0.215892
  10 H :    0.128750
  11 H :    0.145838
  12 H :    0.146414
  13 H :    0.131291
  14 H :    0.130897
  15 H :    0.130985
  16 H :    0.136305
  17 H :    0.134185
Sum of atomic charges:    0.0000000

LOEWDIN ATOMIC CHARGES
----------------------
   0 N :   -0.040166
   1 C :   -0.397820
   2 O :    0.310853
   3 C :   -0.315717
   4 C :   -0.201849
   5 C :   -0.197841
   6 C :   -0.205846
   7 C :   -0.129093
   8 C :   -0.148252
   9 H :    0.165280
  10 H :    0.132835
  11 H :    0.141786
  12 H :    0.143709
  13 H :    0.135346
  14 H :    0.154911
  15 H :    0.156233
  16 H :    0.144989
  17 H :    0.150643

  Mayer bond orders larger than 0.1
B(  0-N ,  1-C ) :   1.9722 B(  0-N ,  9-H ) :   0.8613 B(  1-C ,  2-O ) :   1.0911
B(  1-C ,  8-C ) :   1.0195 B(  2-O ,  3-C ) :   0.9268 B(  3-C ,  4-C ) :   0.8780
B(  3-C ,  5-C ) :   0.8723 B(  3-C ,  6-C ) :   0.9372 B(  4-C ,  5-C ) :   0.9307
B(  4-C , 10-H ) :   0.9146 B(  4-C , 11-H ) :   0.9198 B(  5-C , 12-H ) :   0.9168
B(  5-C , 13-H ) :   0.9244 B(  6-C ,  7-C ) :   0.9513 B(  6-C , 14-H ) :   0.9159
B(  6-C , 15-H ) :   0.8825 B(  7-C ,  8-C ) :   1.7241 B(  7-C , 16-H ) :   0.9172
B(  8-C , 17-H ) :   0.9125

MP2 TOTAL ENERGY:     -401.249743933 Eh
FINAL SINGLE POINT ENERGY      -401.249743932753

DIPOLE MOMENT
-------------
                                X             Y             Z
Electronic contribution:      0.54065       4.03163      -2.62799
Nuclear contribution   :      0.40134      -5.27507       3.01345
                        -----------------------------------------
Total Dipole Moment    :      0.94199      -1.24344       0.38547
                        -----------------------------------------
Magnitude (a.u.)       :      1.60688
Magnitude (Debye)      :      4.08437

                             ****ORCA TERMINATED NORMALLY****
TOTAL RUN TIME: 0 days 0 hours 18 minutes 28 seconds 40 msec
