                         Program Version 3.0.3 - RELEASE   -
|  1> ! RI-MP2 RIJK def2-TZVP def2-TZVP/C def2-TZVP/JK TIGHTSCF
|  2> % maxcore 2000
|  3> % mp2 density relaxed end
|  4> *xyz 0 1
|  5>  C       -0.1316309528     1.4048181844    -0.0063189530
|  6>  N        0.0172146191    -0.0311734067     0.0911788948
|  7>  C        0.6679557888    -0.6487581626     1.0908638638
|  8>  N        1.2159779108     0.0438619573     2.0563625963
|  9>  O        1.8726725957    -0.6693089310     3.0567644549
| 10>  N        1.9726659802    -2.0104802791     3.0838475688
| 11>  C        1.4314481823    -2.7013147253     2.1292189971
| 12>  C        0.7144049755    -2.1243827800     1.0161375996
| 13>  O        0.1917316276    -2.7410381263     0.0988745259
| 14>  H        0.8446265252     1.8995240162    -0.0600229368
| 15>  H       -0.6996697365     1.6391625899    -0.9073922004
| 16>  H       -0.6614034293     1.8058114808     0.8649808646
| 17>  H       -0.3671041683    -0.6549629484    -0.6019080728
| 18>  H        1.5449615219    -3.7778397292     2.2047380773
| 19> *
| 20>
| 21>                          ****END OF INPUT****

CARTESIAN COORDINATES (ANGSTROEM)
---------------------------------
  C     -0.131631    1.404818   -0.006319
  N      0.017215   -0.031173    0.091179
  C      0.667956   -0.648758    1.090864
  N      1.215978    0.043862    2.056363
  O      1.872673   -0.669309    3.056764
  N      1.972666   -2.010480    3.083848
  C      1.431448   -2.701315    2.129219
  C      0.714405   -2.124383    1.016138
  O      0.191732   -2.741038    0.098875
  H      0.844627    1.899524   -0.060023
  H     -0.699670    1.639163   -0.907392
  H     -0.661403    1.805811    0.864981
  H     -0.367104   -0.654963   -0.601908
  H      1.544962   -3.777840    2.204738

 Total Charge           Charge          ....    0
 Multiplicity           Mult            ....    1
 Number of Electrons    NEL             ....   66
 Basis Dimension        Dim             ....  309

ORBITAL ENERGIES
----------------

  NO   OCC          E(Eh)            E(eV)
   0   2.0000     -20.680614      -562.7481
   1   2.0000     -20.585286      -560.1541
   2   2.0000     -15.691338      -426.9830
   3   2.0000     -15.643253      -425.6746
   4   2.0000     -15.601117      -424.5280
   5   2.0000     -11.375785      -309.5508
   6   2.0000     -11.350117      -308.8524
   7   2.0000     -11.305522      -307.6389
   8   2.0000     -11.276786      -306.8569
   9   2.0000      -1.527241       -41.5584
  10   2.0000      -1.424709       -38.7683
  11   2.0000      -1.304178       -35.4885
  12   2.0000      -1.230988       -33.4969
  13   2.0000      -1.153519       -31.3889
  14   2.0000      -0.989530       -26.9265
  15   2.0000      -0.952818       -25.9275
  16   2.0000      -0.893442       -24.3118
  17   2.0000      -0.796600       -21.6766
  18   2.0000      -0.761262       -20.7150
  19   2.0000      -0.696224       -18.9452
  20   2.0000      -0.693389       -18.8681
  21   2.0000      -0.685211       -18.6455
  22   2.0000      -0.632889       -17.2218
  23   2.0000      -0.631752       -17.1909
  24   2.0000      -0.612725       -16.6731
  25   2.0000      -0.582271       -15.8444
  26   2.0000      -0.574059       -15.6209
  27   2.0000      -0.531414       -14.4605
  28   2.0000      -0.522390       -14.2149
  29   2.0000      -0.511648       -13.9226
  30   2.0000      -0.436273       -11.8716
  31   2.0000      -0.435949       -11.8628
  32   2.0000      -0.359521        -9.7831
  33   0.0000       0.039287         1.0691
  34   0.0000       0.119071         3.2401
  35   0.0000       0.134427         3.6579
  36   0.0000       0.164277         4.4702
  37   0.0000       0.168214         4.5773

MULLIKEN ATOMIC CHARGES
-----------------------
   0 C :   -0.270780
   1 N :   -0.313331
   2 C :    0.121786
   3 N :   -0.128092
   4 O :   -0.035631
   5 N :   -0.043418
   6 C :   -0.105296
   7 C :    0.240478
   8 O :   -0.347149
   9 H :    0.149136
  10 H :    0.144819
  11 H :    0.149214
  12 H :    0.271167
  13 H :    0.167096
Sum of atomic charges:    0.0000000

LOEWDIN ATOMIC CHARGES
----------------------
   0 C :   -0.307599
   1 N :    0.105245
   2 C :   -0.340195
   3 N :    0.036087
   4 O :    0.176982
   5 N :    0.040125
   6 C :   -0.211355
   7 C :   -0.349757
   8 O :    0.125213
   9 H :    0.122371
  10 H :    0.123119
  11 H :    0.122424
  12 H :    0.200400
  13 H :    0.156941

  Mayer bond orders larger than 0.1
B(  0-C ,  1-N ) :   0.8670 B(  0-C ,  9-H ) :   0.9330 B(  0-C , 10-H ) :   0.9299
B(  0-C , 11-H ) :   0.9330 B(  1-N ,  2-C ) :   1.2183 B(  1-N , 12-H ) :   0.8466
B(  2-C ,  3-N ) :   1.5640 B(  2-C ,  7-C ) :   0.9360 B(  3-N ,  4-O ) :   0.8354
B(  4-O ,  5-N ) :   0.9447 B(  5-N ,  6-C ) :   1.6088 B(  6-C ,  7-C ) :   1.0886
B(  6-C , 13-H ) :   0.9173 B(  7-C ,  8-O ) :   1.7845

MP2 TOTAL ENERGY:     -469.180478934 Eh
FINAL SINGLE POINT ENERGY      -469.180478934437

DIPOLE MOMENT
-------------
                                X             Y             Z
Electronic contribution:      2.96588      -5.23973       4.31210
Nuclear contribution   :     -3.46125       5.65772      -5.07922
                        -----------------------------------------
Total Dipole Moment    :     -0.49537       0.41799      -0.76711
                        -----------------------------------------
Magnitude (a.u.)       :      1.00427
Magnitude (Debye)      :      2.55266

                             ****ORCA TERMINATED NORMALLY****
TOTAL RUN TIME: 0 days 0 hours 14 minutes 54 seconds 507 msec
