                         Program Version 3.0.3 - RELEASE   -
|  1> ! RI-MP2 RIJK def2-TZVP def2-TZVP/C def2-TZVP/JK TIGHTSCF
|  2> % maxcore 2000
|  3> % mp2 density relaxed end
|  4> *xyz 0 1
|  5>  C       -0.1455709227     1.4070013802     0.6227070764
|  6>  C       -0.1330649525    -0.1093844022     0.4374836799
|  7>  N       -1.4063362380    -0.6406544818    -0.0528308666
|  8>  C       -1.8606495722    -0.1125336872    -1.3454616245
|  9>  C       -0.9608722902    -0.3833672292    -2.5629132856
| 10>  C       -1.4309460010    -2.0934040222     0.0293454010
| 11>  C       -2.7797514405    -2.6409099290    -0.1671062636
| 12>  N       -3.8319546472    -3.0890884488    -0.3294845779
| 13>  H        0.7678065700     1.7222452689     1.1357166865
| 14>  H       -0.1858043820     1.9425650341    -0.3299639172
| 15>  H       -1.0054208713     1.7128497715     1.2257678517
| 16>  H        0.7194610592    -0.3957337237    -0.2066304235
| 17>  H        0.0519916496    -0.5791603602     1.4110737643
| 18>  H       -2.8570389076    -0.5272107054    -1.5303663703
| 19>  H       -2.0002369968     0.9658709961    -1.2293406133
| 20>  H        0.0311737000     0.0646049497    -2.4491472967
| 21>  H       -0.8289848692    -1.4541194745    -2.7479412478
| 22>  H       -1.4174477380     0.0475709400    -3.4592640692
| 23>  H       -0.7570326610    -2.6032937541    -0.6850163830
| 24>  H       -1.0953735387    -2.3912737920     1.0295529294
| 25> *
| 26>
| 27>                          ****END OF INPUT****

CARTESIAN COORDINATES (ANGSTROEM)
---------------------------------
  C     -0.145571    1.407001    0.622707
  C     -0.133065   -0.109384    0.437484
  N     -1.406336   -0.640654   -0.052831
  C     -1.860650   -0.112534   -1.345462
  C     -0.960872   -0.383367   -2.562913
  C     -1.430946   -2.093404    0.029345
  C     -2.779751   -2.640910   -0.167106
  N     -3.831955   -3.089088   -0.329485
  H      0.767807    1.722245    1.135717
  H     -0.185804    1.942565   -0.329964
  H     -1.005421    1.712850    1.225768
  H      0.719461   -0.395734   -0.206630
  H      0.051992   -0.579160    1.411074
  H     -2.857039   -0.527211   -1.530366
  H     -2.000237    0.965871   -1.229341
  H      0.031174    0.064605   -2.449147
  H     -0.828985   -1.454119   -2.747941
  H     -1.417448    0.047571   -3.459264
  H     -0.757033   -2.603294   -0.685016
  H     -1.095374   -2.391274    1.029553

 Total Charge           Charge          ....    0
 Multiplicity           Mult            ....    1
 Number of Electrons    NEL             ....   62
 Basis Dimension        Dim             ....  320

ORBITAL ENERGIES
----------------

  NO   OCC          E(Eh)            E(eV)
   0   2.0000     -15.569345      -423.6634
   1   2.0000     -15.568799      -423.6486
   2   2.0000     -11.307555      -307.6942
   3   2.0000     -11.271483      -306.7126
   4   2.0000     -11.266824      -306.5859
   5   2.0000     -11.259612      -306.3896
   6   2.0000     -11.226464      -305.4876
   7   2.0000     -11.225078      -305.4499
   8   2.0000      -1.256537       -34.1921
   9   2.0000      -1.212205       -32.9858
  10   2.0000      -1.040633       -28.3171
  11   2.0000      -1.032683       -28.1007
  12   2.0000      -0.953349       -25.9419
  13   2.0000      -0.881363       -23.9831
  14   2.0000      -0.792119       -21.5546
  15   2.0000      -0.698106       -18.9964
  16   2.0000      -0.686330       -18.6760
  17   2.0000      -0.680959       -18.5298
  18   2.0000      -0.622612       -16.9421
  19   2.0000      -0.586975       -15.9724
  20   2.0000      -0.583186       -15.8693
  21   2.0000      -0.569440       -15.4953
  22   2.0000      -0.553626       -15.0649
  23   2.0000      -0.543016       -14.7762
  24   2.0000      -0.525363       -14.2958
  25   2.0000      -0.517745       -14.0885
  26   2.0000      -0.496722       -13.5165
  27   2.0000      -0.494023       -13.4430
  28   2.0000      -0.462334       -12.5807
  29   2.0000      -0.456934       -12.4338
  30   2.0000      -0.373897       -10.1743
  31   0.0000       0.119639         3.2555
  32   0.0000       0.143508         3.9051
  33   0.0000       0.153545         4.1782
  34   0.0000       0.162666         4.4264
  35   0.0000       0.181792         4.9468

MULLIKEN ATOMIC CHARGES
-----------------------
   0 C :   -0.396726
   1 C :   -0.162357
   2 N :   -0.138077
   3 C :   -0.187724
   4 C :   -0.419906
   5 C :   -0.096576
   6 C :   -0.163786
   7 N :   -0.056123
   8 H :    0.136864
   9 H :    0.132552
  10 H :    0.139255
  11 H :    0.104432
  12 H :    0.115649
  13 H :    0.151633
  14 H :    0.135470
  15 H :    0.132074
  16 H :    0.131197
  17 H :    0.141397
  18 H :    0.144200
  19 H :    0.156553
Sum of atomic charges:   -0.0000000

LOEWDIN ATOMIC CHARGES
----------------------
   0 C :   -0.314941
   1 C :   -0.313654
   2 N :    0.086970
   3 C :   -0.306743
   4 C :   -0.323593
   5 C :   -0.278240
   6 C :   -0.188291
   7 N :    0.060447
   8 H :    0.126267
   9 H :    0.120144
  10 H :    0.126830
  11 H :    0.119211
  12 H :    0.134318
  13 H :    0.142710
  14 H :    0.135702
  15 H :    0.119951
  16 H :    0.120325
  17 H :    0.127762
  18 H :    0.144475
  19 H :    0.160349

  Mayer bond orders larger than 0.1
B(  0-C ,  1-C ) :   0.9247 B(  0-C ,  8-H ) :   0.9351 B(  0-C ,  9-H ) :   0.9381
B(  0-C , 10-H ) :   0.9344 B(  1-C ,  2-N ) :   0.9296 B(  1-C , 11-H ) :   0.9277
B(  1-C , 12-H ) :   0.9247 B(  2-N ,  3-C ) :   0.9099 B(  2-N ,  5-C ) :   0.9674
B(  3-C ,  4-C ) :   0.8971 B(  3-C , 13-H ) :   0.9342 B(  3-C , 14-H ) :   0.9403
B(  4-C , 15-H ) :   0.9339 B(  4-C , 16-H ) :   0.9333 B(  4-C , 17-H ) :   0.9359
B(  5-C ,  6-C ) :   0.9181 B(  5-C , 18-H ) :   0.9165 B(  5-C , 19-H ) :   0.8976
B(  6-C ,  7-N ) :   2.8769

MP2 TOTAL ENERGY:     -344.579482711 Eh
FINAL SINGLE POINT ENERGY      -344.579482711261

DIPOLE MOMENT
-------------
                                X             Y             Z
Electronic contribution:     -7.46102      -8.01100       2.38416
Nuclear contribution   :      8.98541       8.72160      -2.41893
                        -----------------------------------------
Total Dipole Moment    :      1.52439       0.71060      -0.03477
                        -----------------------------------------
Magnitude (a.u.)       :      1.68224
Magnitude (Debye)      :      4.27591

                             ****ORCA TERMINATED NORMALLY****
TOTAL RUN TIME: 0 days 0 hours 14 minutes 46 seconds 850 msec
