                         Program Version 3.0.3 - RELEASE   -
|  1> ! RI-MP2 RIJK def2-TZVP def2-TZVP/C def2-TZVP/JK TIGHTSCF
|  2> % maxcore 2000
|  3> % mp2 density relaxed end
|  4> *xyz 0 1
|  5>  O        0.0197749748    -0.0147034529    -0.1088078722
|  6>  C       -0.0093129719     1.1817605121     0.0411061344
|  7>  N       -1.1273384257     1.9959654978     0.1249813195
|  8>  C       -0.7316034991     3.3700915379     0.2362658380
|  9>  C        0.1918996765     3.9555548799    -0.9215057754
| 10>  C        1.0164978896     4.6445915649     0.1833888016
| 11>  C        0.6515301785     3.3566260899     0.9600825438
| 12>  C        1.1465413999     2.1998160305     0.0645764428
| 13>  O        1.0008427362     2.8248466683    -1.2526952722
| 14>  H       -2.0247036625     1.6805534753    -0.2083546209
| 15>  H       -1.4948018680     4.0375959058     0.6305862058
| 16>  H       -0.1726992829     4.4396248504    -1.8252650518
| 17>  H        2.0642756066     4.8443220823    -0.0442678651
| 18>  H        0.5293939330     5.5242694230     0.6104022804
| 19>  H        0.7379517717     3.2385430433     2.0387067980
| 20>  H        2.1449872132     1.7889881816     0.1921876734
| 21> *
| 22>
| 23>                          ****END OF INPUT****

CARTESIAN COORDINATES (ANGSTROEM)
---------------------------------
  O      0.019775   -0.014703   -0.108808
  C     -0.009313    1.181761    0.041106
  N     -1.127338    1.995965    0.124981
  C     -0.731603    3.370092    0.236266
  C      0.191900    3.955555   -0.921506
  C      1.016498    4.644592    0.183389
  C      0.651530    3.356626    0.960083
  C      1.146541    2.199816    0.064576
  O      1.000843    2.824847   -1.252695
  H     -2.024704    1.680553   -0.208355
  H     -1.494802    4.037596    0.630586
  H     -0.172699    4.439625   -1.825265
  H      2.064276    4.844322   -0.044268
  H      0.529394    5.524269    0.610402
  H      0.737952    3.238543    2.038707
  H      2.144987    1.788988    0.192188

 Total Charge           Charge          ....    0
 Multiplicity           Mult            ....    1
 Number of Electrons    NEL             ....   66
 Basis Dimension        Dim             ....  321

ORBITAL ENERGIES
----------------

  NO   OCC          E(Eh)            E(eV)
   0   2.0000     -20.574382      -559.8574
   1   2.0000     -20.526005      -558.5410
   2   2.0000     -15.586251      -424.1234
   3   2.0000     -11.350326      -308.8581
   4   2.0000     -11.303411      -307.5815
   5   2.0000     -11.302422      -307.5545
   6   2.0000     -11.291922      -307.2688
   7   2.0000     -11.261874      -306.4512
   8   2.0000     -11.245765      -306.0128
   9   2.0000      -1.418776       -38.6069
  10   2.0000      -1.378576       -37.5130
  11   2.0000      -1.251933       -34.0668
  12   2.0000      -1.124650       -30.6033
  13   2.0000      -1.018548       -27.7161
  14   2.0000      -0.916653       -24.9434
  15   2.0000      -0.854414       -23.2498
  16   2.0000      -0.803689       -21.8695
  17   2.0000      -0.773996       -21.0615
  18   2.0000      -0.733890       -19.9702
  19   2.0000      -0.706857       -19.2345
  20   2.0000      -0.659349       -17.9418
  21   2.0000      -0.644532       -17.5386
  22   2.0000      -0.599410       -16.3108
  23   2.0000      -0.583045       -15.8654
  24   2.0000      -0.565702       -15.3935
  25   2.0000      -0.557272       -15.1641
  26   2.0000      -0.531952       -14.4751
  27   2.0000      -0.514652       -14.0044
  28   2.0000      -0.493175       -13.4200
  29   2.0000      -0.480439       -13.0734
  30   2.0000      -0.453181       -12.3317
  31   2.0000      -0.412164       -11.2156
  32   2.0000      -0.376022       -10.2321
  33   0.0000       0.130257         3.5445
  34   0.0000       0.142750         3.8844
  35   0.0000       0.163107         4.4384
  36   0.0000       0.170086         4.6283
  37   0.0000       0.172797         4.7020

MULLIKEN ATOMIC CHARGES
-----------------------
   0 O :   -0.314840
   1 C :    0.152933
   2 N :   -0.317144
   3 C :   -0.046010
   4 C :    0.049749
   5 C :   -0.269413
   6 C :   -0.117818
   7 C :    0.101960
   8 O :   -0.316985
   9 H :    0.244477
  10 H :    0.138833
  11 H :    0.139911
  12 H :    0.135054
  13 H :    0.127163
  14 H :    0.146008
  15 H :    0.146121
Sum of atomic charges:    0.0000000

LOEWDIN ATOMIC CHARGES
----------------------
   0 O :    0.104529
   1 C :   -0.417310
   2 N :    0.137700
   3 C :   -0.218930
   4 C :   -0.253763
   5 C :   -0.204000
   6 C :   -0.170736
   7 C :   -0.199408
   8 O :    0.194175
   9 H :    0.184761
  10 H :    0.146591
  11 H :    0.131285
  12 H :    0.134476
  13 H :    0.143064
  14 H :    0.143034
  15 H :    0.144534

  Mayer bond orders larger than 0.1
B(  0-O ,  1-C ) :   2.0235 B(  1-C ,  2-N ) :   1.1751 B(  1-C ,  7-C ) :   0.8820
B(  2-N ,  3-C ) :   0.9397 B(  2-N ,  7-C ) :  -0.1035 B(  2-N ,  9-H ) :   0.8587
B(  3-C ,  4-C ) :   0.8946 B(  3-C ,  6-C ) :   0.8927 B(  3-C , 10-H ) :   0.9113
B(  4-C ,  5-C ) :   0.9175 B(  4-C ,  8-O ) :   0.9237 B(  4-C , 11-H ) :   0.9115
B(  5-C ,  6-C ) :   0.9250 B(  5-C , 12-H ) :   0.9204 B(  5-C , 13-H ) :   0.9235
B(  6-C ,  7-C ) :   0.9020 B(  6-C , 14-H ) :   0.9045 B(  7-C ,  8-O ) :   0.8445
B(  7-C , 15-H ) :   0.9090

MP2 TOTAL ENERGY:     -437.181867646 Eh
FINAL SINGLE POINT ENERGY      -437.181867646238

DIPOLE MOMENT
-------------
                                X             Y             Z
Electronic contribution:     -0.64861      -5.25379      -1.38415
Nuclear contribution   :      0.12385       6.96336       1.91383
                        -----------------------------------------
Total Dipole Moment    :     -0.52476       1.70957       0.52968
                        -----------------------------------------
Magnitude (a.u.)       :      1.86509
Magnitude (Debye)      :      4.74069

                             ****ORCA TERMINATED NORMALLY****
TOTAL RUN TIME: 0 days 0 hours 18 minutes 30 seconds 907 msec
