                         Program Version 3.0.3 - RELEASE   -
|  1> ! RI-MP2 RIJK def2-TZVP def2-TZVP/C def2-TZVP/JK TIGHTSCF
|  2> % maxcore 2000
|  3> % mp2 density relaxed end
|  4> *xyz 0 1
|  5>  O        0.0854021375     1.4965908634     0.1531715804
|  6>  C        0.0591182156     0.0723094715     0.0863618656
|  7>  C       -1.4152739821    -0.3705508336     0.1750249358
|  8>  O       -2.0698117937    -0.5557782358    -1.0621320356
|  9>  C       -2.0164169771     0.5287321722    -1.9850455452
| 10>  C       -0.9187909659     0.2900528217    -3.0242534040
| 11>  C        0.5206169316     0.3547921223    -2.4652479577
| 12>  C        0.6966593578    -0.4814948361    -1.2057604821
| 13>  O        1.2920009562    -1.5324928377    -1.1847759279
| 14>  H        1.0005438157     1.7798074707     0.2498222693
| 15>  H        0.6054159553    -0.3691266748     0.9299654272
| 16>  H       -1.4647520720    -1.3435221928     0.6702746459
| 17>  H       -1.9360370664     0.3715571671     0.7986938184
| 18>  H       -2.9904850450     0.5583573858    -2.4862068922
| 19>  H       -1.8719414305     1.4826025696    -1.4630516689
| 20>  H       -1.0901120923    -0.6974836537    -3.4660645015
| 21>  H       -1.0167837238     1.0275351132    -3.8293301034
| 22>  H        1.2312160028    -0.0126408326    -3.2091970230
| 23>  H        0.7592633863     1.3962517095    -2.2279756212
| 24> *
| 25>
| 26>                          ****END OF INPUT****

CARTESIAN COORDINATES (ANGSTROEM)
---------------------------------
  O      0.085402    1.496591    0.153172
  C      0.059118    0.072309    0.086362
  C     -1.415274   -0.370551    0.175025
  O     -2.069812   -0.555778   -1.062132
  C     -2.016417    0.528732   -1.985046
  C     -0.918791    0.290053   -3.024253
  C      0.520617    0.354792   -2.465248
  C      0.696659   -0.481495   -1.205760
  O      1.292001   -1.532493   -1.184776
  H      1.000544    1.779807    0.249822
  H      0.605416   -0.369127    0.929965
  H     -1.464752   -1.343522    0.670275
  H     -1.936037    0.371557    0.798694
  H     -2.990485    0.558357   -2.486207
  H     -1.871941    1.482603   -1.463052
  H     -1.090112   -0.697484   -3.466065
  H     -1.016784    1.027535   -3.829330
  H      1.231216   -0.012641   -3.209197
  H      0.759263    1.396252   -2.227976

 Total Charge           Charge          ....    0
 Multiplicity           Mult            ....    1
 Number of Electrons    NEL             ....   70
 Basis Dimension        Dim             ....  339

ORBITAL ENERGIES
----------------

  NO   OCC          E(Eh)            E(eV)
   0   2.0000     -20.581380      -560.0478
   1   2.0000     -20.559775      -559.4599
   2   2.0000     -20.551975      -559.2477
   3   2.0000     -11.332461      -308.3720
   4   2.0000     -11.300582      -307.5045
   5   2.0000     -11.287473      -307.1478
   6   2.0000     -11.279014      -306.9176
   7   2.0000     -11.238523      -305.8158
   8   2.0000     -11.236737      -305.7672
   9   2.0000      -1.402727       -38.1701
  10   2.0000      -1.384950       -37.6864
  11   2.0000      -1.374128       -37.3919
  12   2.0000      -1.077833       -29.3293
  13   2.0000      -1.039622       -28.2896
  14   2.0000      -0.944274       -25.6950
  15   2.0000      -0.895178       -24.3590
  16   2.0000      -0.808863       -22.0103
  17   2.0000      -0.754794       -20.5390
  18   2.0000      -0.722605       -19.6631
  19   2.0000      -0.693002       -18.8575
  20   2.0000      -0.666888       -18.1469
  21   2.0000      -0.645667       -17.5695
  22   2.0000      -0.626459       -17.0468
  23   2.0000      -0.624619       -16.9968
  24   2.0000      -0.597988       -16.2721
  25   2.0000      -0.572605       -15.5814
  26   2.0000      -0.559208       -15.2168
  27   2.0000      -0.548960       -14.9380
  28   2.0000      -0.535827       -14.5806
  29   2.0000      -0.503831       -13.7099
  30   2.0000      -0.492511       -13.4019
  31   2.0000      -0.478210       -13.0128
  32   2.0000      -0.466701       -12.6996
  33   2.0000      -0.423560       -11.5257
  34   2.0000      -0.402245       -10.9456
  35   0.0000       0.121508         3.3064
  36   0.0000       0.127008         3.4561
  37   0.0000       0.156332         4.2540
  38   0.0000       0.173720         4.7272
  39   0.0000       0.178180         4.8485

MULLIKEN ATOMIC CHARGES
-----------------------
   0 O :   -0.476295
   1 C :    0.096561
   2 C :   -0.077799
   3 O :   -0.323567
   4 C :   -0.087927
   5 C :   -0.219727
   6 C :   -0.189695
   7 C :    0.116127
   8 O :   -0.270137
   9 H :    0.321206
  10 H :    0.118627
  11 H :    0.130441
  12 H :    0.118130
  13 H :    0.128098
  14 H :    0.127175
  15 H :    0.121130
  16 H :    0.121031
  17 H :    0.138671
  18 H :    0.107953
Sum of atomic charges:   -0.0000000

LOEWDIN ATOMIC CHARGES
----------------------
   0 O :   -0.017204
   1 C :   -0.320673
   2 C :   -0.300641
   3 O :    0.155503
   4 C :   -0.310094
   5 C :   -0.261400
   6 C :   -0.232976
   7 C :   -0.308931
   8 O :    0.161445
   9 H :    0.176712
  10 H :    0.147077
  11 H :    0.138947
  12 H :    0.131274
  13 H :    0.129154
  14 H :    0.129735
  15 H :    0.145424
  16 H :    0.142184
  17 H :    0.147923
  18 H :    0.146539

  Mayer bond orders larger than 0.1
B(  0-O ,  1-C ) :   0.9546 B(  0-O ,  9-H ) :   0.8442 B(  1-C ,  2-C ) :   0.8696
B(  1-C ,  7-C ) :   0.8671 B(  1-C , 10-H ) :   0.9104 B(  2-C ,  3-O ) :   0.9509
B(  2-C , 11-H ) :   0.9250 B(  2-C , 12-H ) :   0.9385 B(  3-O ,  4-C ) :   0.8946
B(  4-C ,  5-C ) :   0.9384 B(  4-C , 13-H ) :   0.9297 B(  4-C , 14-H ) :   0.9329
B(  5-C ,  6-C ) :   0.9166 B(  5-C , 15-H ) :   0.9203 B(  5-C , 16-H ) :   0.9200
B(  6-C ,  7-C ) :   0.9278 B(  6-C , 17-H ) :   0.9231 B(  6-C , 18-H ) :   0.9051
B(  7-C ,  8-O ) :   2.0239

MP2 TOTAL ENERGY:     -459.442342696 Eh
FINAL SINGLE POINT ENERGY      -459.442342695615

DIPOLE MOMENT
-------------
                                X             Y             Z
Electronic contribution:      2.53454      -2.92204       2.45433
Nuclear contribution   :     -2.39396       3.96221      -2.42172
                        -----------------------------------------
Total Dipole Moment    :      0.14058       1.04016       0.03261
                        -----------------------------------------
Magnitude (a.u.)       :      1.05013
Magnitude (Debye)      :      2.66921

                             ****ORCA TERMINATED NORMALLY****
TOTAL RUN TIME: 0 days 0 hours 20 minutes 11 seconds 982 msec
