                         Program Version 3.0.3 - RELEASE   -
|  1> ! RI-MP2 RIJK def2-TZVP def2-TZVP/C def2-TZVP/JK TIGHTSCF
|  2> % maxcore 2000
|  3> % mp2 density relaxed end
|  4> *xyz 0 1
|  5>  N       -0.2569620641     1.5366821984    -0.1608775188
|  6>  C       -0.0392684194     0.0965291271    -0.0151171901
|  7>  C       -1.3670376914    -0.6576090618     0.2192734912
|  8>  C       -2.0398123347    -0.2988012879     1.5255080104
|  9>  C       -3.0239400255     0.8361803412     1.6157715966
| 10>  C       -3.5092793663    -0.5873589114     1.7177530905
| 11>  C        0.6801495178    -0.4945462172    -1.1672369564
| 12>  N        1.2360996887    -0.9153554052    -2.0900291017
| 13>  H        0.6325602935     2.0149257311    -0.2688585848
| 14>  H       -0.7849208858     1.7185508230    -1.0103061515
| 15>  H        0.5964057008    -0.0505155865     0.8670757388
| 16>  H       -2.0406386918    -0.4534463301    -0.6229686999
| 17>  H       -1.1540974562    -1.7327061533     0.1883983551
| 18>  H       -1.4117635059    -0.4522716068     2.4002479563
| 19>  H       -3.0201982806     1.4491634233     2.5098538256
| 20>  H       -3.2437674707     1.3857126385     0.7073295333
| 21>  H       -4.0578856443    -0.9992043269     0.8765708023
| 22>  H       -3.8384126641    -0.9573476654     2.6823270228
| 23> *
| 24>
| 25>                          ****END OF INPUT****

CARTESIAN COORDINATES (ANGSTROEM)
---------------------------------
  N     -0.256962    1.536682   -0.160878
  C     -0.039268    0.096529   -0.015117
  C     -1.367038   -0.657609    0.219273
  C     -2.039812   -0.298801    1.525508
  C     -3.023940    0.836180    1.615772
  C     -3.509279   -0.587359    1.717753
  C      0.680150   -0.494546   -1.167237
  N      1.236100   -0.915355   -2.090029
  H      0.632560    2.014926   -0.268859
  H     -0.784921    1.718551   -1.010306
  H      0.596406   -0.050516    0.867076
  H     -2.040639   -0.453446   -0.622969
  H     -1.154097   -1.732706    0.188398
  H     -1.411764   -0.452272    2.400248
  H     -3.020198    1.449163    2.509854
  H     -3.243767    1.385713    0.707330
  H     -4.057886   -0.999204    0.876571
  H     -3.838413   -0.957348    2.682327

 Total Charge           Charge          ....    0
 Multiplicity           Mult            ....    1
 Number of Electrons    NEL             ....   60
 Basis Dimension        Dim             ....  308

ORBITAL ENERGIES
----------------

  NO   OCC          E(Eh)            E(eV)
   0   2.0000     -15.571244      -423.7151
   1   2.0000     -15.569983      -423.6808
   2   2.0000     -11.314518      -307.8837
   3   2.0000     -11.270053      -306.6737
   4   2.0000     -11.250447      -306.1402
   5   2.0000     -11.240438      -305.8679
   6   2.0000     -11.230241      -305.5904
   7   2.0000     -11.228542      -305.5442
   8   2.0000      -1.236371       -33.6434
   9   2.0000      -1.201641       -32.6983
  10   2.0000      -1.150491       -31.3064
  11   2.0000      -1.033295       -28.1174
  12   2.0000      -0.909912       -24.7600
  13   2.0000      -0.827719       -22.5234
  14   2.0000      -0.792339       -21.5606
  15   2.0000      -0.721099       -19.6221
  16   2.0000      -0.693894       -18.8818
  17   2.0000      -0.676731       -18.4148
  18   2.0000      -0.629411       -17.1271
  19   2.0000      -0.614218       -16.7137
  20   2.0000      -0.563374       -15.3302
  21   2.0000      -0.558750       -15.2044
  22   2.0000      -0.548077       -14.9139
  23   2.0000      -0.518390       -14.1061
  24   2.0000      -0.507427       -13.8078
  25   2.0000      -0.476930       -12.9779
  26   2.0000      -0.461159       -12.5488
  27   2.0000      -0.435715       -11.8564
  28   2.0000      -0.416265       -11.3271
  29   2.0000      -0.413388       -11.2489
  30   0.0000       0.117757         3.2043
  31   0.0000       0.138368         3.7652
  32   0.0000       0.149507         4.0683
  33   0.0000       0.162769         4.4292
  34   0.0000       0.175699         4.7810

MULLIKEN ATOMIC CHARGES
-----------------------
   0 N :   -0.519067
   1 C :    0.136947
   2 C :   -0.313756
   3 C :   -0.019586
   4 C :   -0.245173
   5 C :   -0.274199
   6 C :   -0.211443
   7 N :   -0.059781
   8 H :    0.239248
   9 H :    0.233541
  10 H :    0.132895
  11 H :    0.133824
  12 H :    0.143323
  13 H :    0.115937
  14 H :    0.129652
  15 H :    0.115405
  16 H :    0.130416
  17 H :    0.131818
Sum of atomic charges:    0.0000000

LOEWDIN ATOMIC CHARGES
----------------------
   0 N :   -0.118375
   1 C :   -0.318861
   2 C :   -0.216516
   3 C :   -0.229934
   4 C :   -0.226289
   5 C :   -0.229504
   6 C :   -0.184609
   7 N :    0.055177
   8 H :    0.160707
   9 H :    0.160899
  10 H :    0.169657
  11 H :    0.149326
  12 H :    0.153051
  13 H :    0.148541
  14 H :    0.131995
  15 H :    0.131019
  16 H :    0.132444
  17 H :    0.131272

  Mayer bond orders larger than 0.1
B(  0-N ,  1-C ) :   0.9382 B(  0-N ,  8-H ) :   0.8906 B(  0-N ,  9-H ) :   0.8880
B(  1-C ,  2-C ) :   0.9257 B(  1-C ,  6-C ) :   0.9200 B(  1-C , 10-H ) :   0.9129
B(  2-C ,  3-C ) :   0.9011 B(  2-C , 11-H ) :   0.9216 B(  2-C , 12-H ) :   0.9375
B(  3-C ,  4-C ) :   0.8891 B(  3-C ,  5-C ) :   0.8895 B(  3-C , 13-H ) :   0.9213
B(  4-C ,  5-C ) :   0.8998 B(  4-C , 14-H ) :   0.9311 B(  4-C , 15-H ) :   0.9331
B(  5-C , 16-H ) :   0.9302 B(  5-C , 17-H ) :   0.9305 B(  6-C ,  7-N ) :   2.8793

MP2 TOTAL ENERGY:     -343.373923366 Eh
FINAL SINGLE POINT ENERGY      -343.373923365972

DIPOLE MOMENT
-------------
                                X             Y             Z
Electronic contribution:      6.68564      -1.53976      -4.96550
Nuclear contribution   :     -7.25571       2.03236       5.78476
                        -----------------------------------------
Total Dipole Moment    :     -0.57006       0.49260       0.81926
                        -----------------------------------------
Magnitude (a.u.)       :      1.11302
Magnitude (Debye)      :      2.82907

                             ****ORCA TERMINATED NORMALLY****
TOTAL RUN TIME: 0 days 0 hours 12 minutes 43 seconds 369 msec
