                         Program Version 3.0.3 - RELEASE   -
|  1> ! RI-MP2 RIJK def2-TZVP def2-TZVP/C def2-TZVP/JK TIGHTSCF
|  2> % maxcore 2000
|  3> % mp2 density relaxed end
|  4> *xyz 0 1
|  5>  C       -0.0078146660     1.5698744487     0.0698594293
|  6>  C       -0.0093834567     0.0415742334     0.0008373502
|  7>  C        0.6711183791    -0.5816011761     1.2313865209
|  8>  N       -1.3824634050    -0.4193232813    -0.2024415818
|  9>  C       -1.6242952179    -1.7422354229    -0.5610320277
| 10>  C       -0.7667751959    -2.6690228273    -1.0877059717
| 11>  O       -1.4426093671    -3.8279417917    -1.3814208017
| 12>  C       -2.7298872356    -3.6326063032    -1.0256195832
| 13>  C       -2.9117767732    -2.3862728613    -0.5196364706
| 14>  H        1.0114092281     1.9536733005     0.1717387603
| 15>  H       -0.4586017929     2.0003459305    -0.8280304698
| 16>  H       -0.5792544674     1.9188799713     0.9391802910
| 17>  H        0.5472342218    -0.2591519859    -0.8965730409
| 18>  H        1.7237459786    -0.2854192524     1.2899692164
| 19>  H        0.1768611318    -0.2495365349     2.1520858791
| 20>  H        0.6234022880    -1.6730489310     1.1948733055
| 21>  H       -2.0161318006    -0.0836923526     0.5110565979
| 22>  H        0.2833079838    -2.6704193233    -1.3188384018
| 23>  H       -3.3969747534    -4.4628521235    -1.1912850349
| 24>  H       -3.8380066895    -1.9590389171    -0.1669205466
| 25> *
| 26>
| 27>                          ****END OF INPUT****

CARTESIAN COORDINATES (ANGSTROEM)
---------------------------------
  C     -0.007815    1.569874    0.069859
  C     -0.009383    0.041574    0.000837
  C      0.671118   -0.581601    1.231387
  N     -1.382463   -0.419323   -0.202442
  C     -1.624295   -1.742235   -0.561032
  C     -0.766775   -2.669023   -1.087706
  O     -1.442609   -3.827942   -1.381421
  C     -2.729887   -3.632606   -1.025620
  C     -2.911777   -2.386273   -0.519636
  H      1.011409    1.953673    0.171739
  H     -0.458602    2.000346   -0.828030
  H     -0.579254    1.918880    0.939180
  H      0.547234   -0.259152   -0.896573
  H      1.723746   -0.285419    1.289969
  H      0.176861   -0.249537    2.152086
  H      0.623402   -1.673049    1.194873
  H     -2.016132   -0.083692    0.511057
  H      0.283308   -2.670419   -1.318838
  H     -3.396975   -4.462852   -1.191285
  H     -3.838007   -1.959039   -0.166921

 Total Charge           Charge          ....    0
 Multiplicity           Mult            ....    1
 Number of Electrons    NEL             ....   68
 Basis Dimension        Dim             ....  345

ORBITAL ENERGIES
----------------

  NO   OCC          E(Eh)            E(eV)
   0   2.0000     -20.607537      -560.7596
   1   2.0000     -15.558969      -423.3811
   2   2.0000     -11.285478      -307.0935
   3   2.0000     -11.264968      -306.5354
   4   2.0000     -11.264007      -306.5092
   5   2.0000     -11.258466      -306.3584
   6   2.0000     -11.221642      -305.3564
   7   2.0000     -11.218308      -305.2657
   8   2.0000     -11.214105      -305.1513
   9   2.0000      -1.444330       -39.3022
  10   2.0000      -1.234466       -33.5915
  11   2.0000      -1.076827       -29.3020
  12   2.0000      -1.021777       -27.8040
  13   2.0000      -0.983576       -26.7645
  14   2.0000      -0.935786       -25.4640
  15   2.0000      -0.822636       -22.3851
  16   2.0000      -0.798551       -21.7297
  17   2.0000      -0.757535       -20.6136
  18   2.0000      -0.731544       -19.9063
  19   2.0000      -0.641703       -17.4616
  20   2.0000      -0.631431       -17.1821
  21   2.0000      -0.625789       -17.0286
  22   2.0000      -0.608151       -16.5486
  23   2.0000      -0.592541       -16.1238
  24   2.0000      -0.573563       -15.6075
  25   2.0000      -0.562596       -15.3090
  26   2.0000      -0.541413       -14.7326
  27   2.0000      -0.538619       -14.6566
  28   2.0000      -0.510767       -13.8987
  29   2.0000      -0.495315       -13.4782
  30   2.0000      -0.482337       -13.1251
  31   2.0000      -0.450748       -12.2655
  32   2.0000      -0.351240        -9.5577
  33   2.0000      -0.290695        -7.9102
  34   0.0000       0.131663         3.5827
  35   0.0000       0.148995         4.0544
  36   0.0000       0.156708         4.2642
  37   0.0000       0.171200         4.6586
  38   0.0000       0.183435         4.9915

MULLIKEN ATOMIC CHARGES
-----------------------
   0 C :   -0.382790
   1 C :    0.019810
   2 C :   -0.392506
   3 N :   -0.330234
   4 C :    0.239972
   5 C :   -0.152953
   6 O :   -0.213438
   7 C :    0.035077
   8 C :   -0.338225
   9 H :    0.128431
  10 H :    0.144025
  11 H :    0.117899
  12 H :    0.091810
  13 H :    0.126193
  14 H :    0.113639
  15 H :    0.151311
  16 H :    0.215182
  17 H :    0.146665
  18 H :    0.145418
  19 H :    0.134715
Sum of atomic charges:    0.0000000

LOEWDIN ATOMIC CHARGES
----------------------
   0 C :   -0.295418
   1 C :   -0.340657
   2 C :   -0.300781
   3 N :    0.083244
   4 C :   -0.266532
   5 C :   -0.255339
   6 O :    0.329095
   7 C :   -0.259707
   8 C :   -0.174652
   9 H :    0.125632
  10 H :    0.126054
  11 H :    0.121687
  12 H :    0.148802
  13 H :    0.123617
  14 H :    0.121256
  15 H :    0.125986
  16 H :    0.183693
  17 H :    0.130039
  18 H :    0.131390
  19 H :    0.142592

  Mayer bond orders larger than 0.1
B(  0-C ,  1-C ) :   0.9267 B(  0-C ,  9-H ) :   0.9374 B(  0-C , 10-H ) :   0.9388
B(  0-C , 11-H ) :   0.9307 B(  1-C ,  2-C ) :   0.9288 B(  1-C ,  3-N ) :   0.9079
B(  1-C , 12-H ) :   0.9258 B(  2-C , 13-H ) :   0.9336 B(  2-C , 14-H ) :   0.9255
B(  2-C , 15-H ) :   0.9347 B(  3-N ,  4-C ) :   1.0511 B(  3-N , 16-H ) :   0.8704
B(  4-C ,  5-C ) :   1.4896 B(  4-C ,  8-C ) :   1.1462 B(  5-C ,  6-O ) :   1.0073
B(  5-C , 17-H ) :   0.9398 B(  6-O ,  7-C ) :   1.0621 B(  7-C ,  8-C ) :   1.5591
B(  7-C , 18-H ) :   0.9366 B(  8-C , 19-H ) :   0.9160

MP2 TOTAL ENERGY:     -402.470503344 Eh
FINAL SINGLE POINT ENERGY      -402.470503343772

DIPOLE MOMENT
-------------
                                X             Y             Z
Electronic contribution:     -5.70890      -9.39573      -5.01409
Nuclear contribution   :      5.73510       9.87959       5.50343
                        -----------------------------------------
Total Dipole Moment    :      0.02619       0.48386       0.48934
                        -----------------------------------------
Magnitude (a.u.)       :      0.68867
Magnitude (Debye)      :      1.75045

                             ****ORCA TERMINATED NORMALLY****
TOTAL RUN TIME: 0 days 0 hours 17 minutes 47 seconds 693 msec
