                         Program Version 3.0.3 - RELEASE   -
|  1> ! RI-MP2 RIJK def2-TZVP def2-TZVP/C def2-TZVP/JK TIGHTSCF
|  2> % maxcore 2000
|  3> % mp2 density relaxed end
|  4> *xyz 0 1
|  5>  C       -0.0616635396     1.4949954724     0.1010136901
|  6>  O        1.2444949940     1.9288566707    -0.2994489611
|  7>  C        2.1193004146     0.8216307474    -0.6131754246
|  8>  C        1.2794409417    -0.3938511267    -0.3862194262
|  9>  C        0.0417578313     0.0101436605     0.0197400746
| 10>  N       -0.7376524341    -1.0899483159     0.2315564082
| 11>  C        0.0180715819    -2.2142520180    -0.0448488021
| 12>  C        1.2807242950    -1.8144528589    -0.4327087875
| 13>  H       -0.2779484084     1.8720974065     1.1131967497
| 14>  H       -0.8144878454     1.9272953962    -0.5771216554
| 15>  H        2.4674559302     0.9322323450    -1.6504259006
| 16>  H        3.0034693760     0.8772011694     0.0383512024
| 17>  H       -1.6955621360    -1.0996431847     0.5349800551
| 18>  H       -0.4074600849    -3.1998342947     0.0582208832
| 19>  H        2.0881780537    -2.4745982092    -0.7104015657
| 20> *
| 21>
| 22>                          ****END OF INPUT****

CARTESIAN COORDINATES (ANGSTROEM)
---------------------------------
  C     -0.061664    1.494995    0.101014
  O      1.244495    1.928857   -0.299449
  C      2.119300    0.821631   -0.613175
  C      1.279441   -0.393851   -0.386219
  C      0.041758    0.010144    0.019740
  N     -0.737652   -1.089948    0.231556
  C      0.018072   -2.214252   -0.044849
  C      1.280724   -1.814453   -0.432709
  H     -0.277948    1.872097    1.113197
  H     -0.814488    1.927295   -0.577122
  H      2.467456    0.932232   -1.650426
  H      3.003469    0.877201    0.038351
  H     -1.695562   -1.099643    0.534980
  H     -0.407460   -3.199834    0.058221
  H      2.088178   -2.474598   -0.710402

 Total Charge           Charge          ....    0
 Multiplicity           Mult            ....    1
 Number of Electrons    NEL             ....   58
 Basis Dimension        Dim             ....  290

ORBITAL ENERGIES
----------------

  NO   OCC          E(Eh)            E(eV)
   0   2.0000     -20.547969      -559.1387
   1   2.0000     -15.611374      -424.8071
   2   2.0000     -11.287281      -307.1425
   3   2.0000     -11.276104      -306.8384
   4   2.0000     -11.258481      -306.3588
   5   2.0000     -11.248888      -306.0978
   6   2.0000     -11.218505      -305.2710
   7   2.0000     -11.207204      -304.9635
   8   2.0000      -1.366334       -37.1798
   9   2.0000      -1.293351       -35.1939
  10   2.0000      -1.062961       -28.9246
  11   2.0000      -1.012654       -27.5557
  12   2.0000      -0.969534       -26.3824
  13   2.0000      -0.850083       -23.1319
  14   2.0000      -0.797058       -21.6890
  15   2.0000      -0.753617       -20.5070
  16   2.0000      -0.718075       -19.5398
  17   2.0000      -0.665202       -18.1011
  18   2.0000      -0.610364       -16.6088
  19   2.0000      -0.601781       -16.3753
  20   2.0000      -0.579832       -15.7780
  21   2.0000      -0.573199       -15.5975
  22   2.0000      -0.562440       -15.3048
  23   2.0000      -0.543602       -14.7922
  24   2.0000      -0.515672       -14.0321
  25   2.0000      -0.476759       -12.9733
  26   2.0000      -0.422777       -11.5043
  27   2.0000      -0.348602        -9.4859
  28   2.0000      -0.291888        -7.9427
  29   0.0000       0.127729         3.4757
  30   0.0000       0.158895         4.3238
  31   0.0000       0.164495         4.4761
  32   0.0000       0.175268         4.7693
  33   0.0000       0.187221         5.0945

MULLIKEN ATOMIC CHARGES
-----------------------
   0 C :   -0.004493
   1 O :   -0.327801
   2 C :   -0.004847
   3 C :   -0.028725
   4 C :    0.015486
   5 N :   -0.288207
   6 C :   -0.033524
   7 C :   -0.278882
   8 H :    0.106620
   9 H :    0.106611
  10 H :    0.108045
  11 H :    0.108047
  12 H :    0.246642
  13 H :    0.144970
  14 H :    0.130058
Sum of atomic charges:    0.0000000

LOEWDIN ATOMIC CHARGES
----------------------
   0 C :   -0.264163
   1 O :    0.135912
   2 C :   -0.245368
   3 C :   -0.166589
   4 C :   -0.216627
   5 N :    0.195410
   6 C :   -0.227840
   7 C :   -0.175453
   8 H :    0.125079
   9 H :    0.125077
  10 H :    0.125914
  11 H :    0.125913
  12 H :    0.191823
  13 H :    0.131240
  14 H :    0.139672

  Mayer bond orders larger than 0.1
B(  0-C ,  1-O ) :   0.9595 B(  0-C ,  4-C ) :   0.9621 B(  0-C ,  8-H ) :   0.9166
B(  0-C ,  9-H ) :   0.9165 B(  1-O ,  2-C ) :   0.9330 B(  2-C ,  3-C ) :   0.9651
B(  2-C , 10-H ) :   0.9169 B(  2-C , 11-H ) :   0.9169 B(  3-C ,  4-C ) :   1.4471
B(  3-C ,  7-C ) :   1.2365 B(  4-C ,  5-N ) :   1.1237 B(  5-N ,  6-C ) :   1.0999
B(  5-N , 12-H ) :   0.8731 B(  6-C ,  7-C ) :   1.5016 B(  6-C , 13-H ) :   0.9196
B(  7-C , 14-H ) :   0.9332

MP2 TOTAL ENERGY:     -362.058685472 Eh
FINAL SINGLE POINT ENERGY      -362.058685472231

DIPOLE MOMENT
-------------
                                X             Y             Z
Electronic contribution:     -0.74612      -0.19995       0.23010
Nuclear contribution   :     -0.12701      -0.42151       0.02674
                        -----------------------------------------
Total Dipole Moment    :     -0.87313      -0.62146       0.25684
                        -----------------------------------------
Magnitude (a.u.)       :      1.10205
Magnitude (Debye)      :      2.80120

                             ****ORCA TERMINATED NORMALLY****
TOTAL RUN TIME: 0 days 0 hours 11 minutes 4 seconds 323 msec
