                         Program Version 3.0.3 - RELEASE   -
|  1> ! RI-MP2 RIJK def2-TZVP def2-TZVP/C def2-TZVP/JK TIGHTSCF
|  2> % maxcore 2000
|  3> % mp2 density relaxed end
|  4> *xyz 0 1
|  5>  O        0.1252443201     1.3863063229    -0.0696402177
|  6>  C        0.0266498131    -0.0210251288     0.1210169338
|  7>  C       -1.3889257125    -0.5019518856     0.0865265838
|  8>  C       -2.0337320224    -1.8872750211    -0.0931565686
|  9>  C       -2.9613238088    -1.6415837668     1.0975119577
| 10>  C       -2.5544537104    -0.1322569421     1.0541707098
| 11>  C       -3.5095419634     0.6406584022     0.1492526878
| 12>  O       -3.4537661278    -0.0600575274    -1.1048046577
| 13>  C       -2.2397946263    -0.7785985751    -1.1086756407
| 14>  H       -0.2841006609     1.5897107416    -0.9175381744
| 15>  H        0.6241284911    -0.5747295021    -0.6216789140
| 16>  H        0.4789471374    -0.2103722607     1.1012553662
| 17>  H       -1.5587639895    -2.8248478475    -0.3623225140
| 18>  H       -4.0241299249    -1.8700029854     0.9633731802
| 19>  H       -2.5965302867    -2.1338846820     2.0019311779
| 20>  H       -2.3139997391     0.3560973338     1.9976027824
| 21>  H       -4.5478411289     0.6332243797     0.4962253281
| 22>  H       -3.1816314594     1.6836019694     0.0190262592
| 23>  H       -1.8097759407    -0.8985307550    -2.0971417598
| 24> *
| 25>
| 26>                          ****END OF INPUT****

CARTESIAN COORDINATES (ANGSTROEM)
---------------------------------
  O      0.125244    1.386306   -0.069640
  C      0.026650   -0.021025    0.121017
  C     -1.388926   -0.501952    0.086527
  C     -2.033732   -1.887275   -0.093157
  C     -2.961324   -1.641584    1.097512
  C     -2.554454   -0.132257    1.054171
  C     -3.509542    0.640658    0.149253
  O     -3.453766   -0.060058   -1.104805
  C     -2.239795   -0.778599   -1.108676
  H     -0.284101    1.589711   -0.917538
  H      0.624128   -0.574730   -0.621679
  H      0.478947   -0.210372    1.101255
  H     -1.558764   -2.824848   -0.362323
  H     -4.024130   -1.870003    0.963373
  H     -2.596530   -2.133885    2.001931
  H     -2.314000    0.356097    1.997603
  H     -4.547841    0.633224    0.496225
  H     -3.181631    1.683602    0.019026
  H     -1.809776   -0.898531   -2.097142

 Total Charge           Charge          ....    0
 Multiplicity           Mult            ....    1
 Number of Electrons    NEL             ....   68
 Basis Dimension        Dim             ....  339

ORBITAL ENERGIES
----------------

  NO   OCC          E(Eh)            E(eV)
   0   2.0000     -20.558700      -559.4307
   1   2.0000     -20.555286      -559.3378
   2   2.0000     -11.284869      -307.0769
   3   2.0000     -11.284533      -307.0678
   4   2.0000     -11.274530      -306.7956
   5   2.0000     -11.240146      -305.8599
   6   2.0000     -11.239452      -305.8410
   7   2.0000     -11.238618      -305.8183
   8   2.0000     -11.231524      -305.6253
   9   2.0000      -1.385746       -37.7081
  10   2.0000      -1.361604       -37.0511
  11   2.0000      -1.185155       -32.2497
  12   2.0000      -1.026115       -27.9220
  13   2.0000      -0.970180       -26.3999
  14   2.0000      -0.910113       -24.7654
  15   2.0000      -0.845811       -23.0157
  16   2.0000      -0.780553       -21.2399
  17   2.0000      -0.734720       -19.9928
  18   2.0000      -0.717574       -19.5262
  19   2.0000      -0.674556       -18.3556
  20   2.0000      -0.649845       -17.6832
  21   2.0000      -0.633561       -17.2401
  22   2.0000      -0.611573       -16.6417
  23   2.0000      -0.594663       -16.1816
  24   2.0000      -0.567961       -15.4550
  25   2.0000      -0.556593       -15.1457
  26   2.0000      -0.535293       -14.5661
  27   2.0000      -0.496001       -13.4969
  28   2.0000      -0.493971       -13.4416
  29   2.0000      -0.484590       -13.1864
  30   2.0000      -0.458675       -12.4812
  31   2.0000      -0.437857       -11.9147
  32   2.0000      -0.387529       -10.5452
  33   2.0000      -0.371128       -10.0989
  34   0.0000       0.130914         3.5624
  35   0.0000       0.152059         4.1377
  36   0.0000       0.160313         4.3623
  37   0.0000       0.174968         4.7611
  38   0.0000       0.183871         5.0034

MULLIKEN ATOMIC CHARGES
-----------------------
   0 O :   -0.463924
   1 C :   -0.008311
   2 C :   -0.100067
   3 C :   -0.166001
   4 C :   -0.218117
   5 C :   -0.053929
   6 C :   -0.046966
   7 O :   -0.321136
   8 C :    0.011847
   9 H :    0.316311
  10 H :    0.104546
  11 H :    0.112416
  12 H :    0.131754
  13 H :    0.112473
  14 H :    0.123204
  15 H :    0.131306
  16 H :    0.114138
  17 H :    0.093608
  18 H :    0.126847
Sum of atomic charges:   -0.0000000

LOEWDIN ATOMIC CHARGES
----------------------
   0 O :   -0.046669
   1 C :   -0.313470
   2 C :   -0.178160
   3 C :   -0.140758
   4 C :   -0.188125
   5 C :   -0.169779
   6 C :   -0.266693
   7 O :    0.168804
   8 C :   -0.245836
   9 H :    0.174515
  10 H :    0.124966
  11 H :    0.134783
  12 H :    0.135572
  13 H :    0.129879
  14 H :    0.138438
  15 H :    0.147765
  16 H :    0.127447
  17 H :    0.122217
  18 H :    0.145104

  Mayer bond orders larger than 0.1
B(  0-O ,  1-C ) :   0.9012 B(  0-O ,  9-H ) :   0.8439 B(  1-C ,  2-C ) :   0.9041
B(  1-C , 10-H ) :   0.9367 B(  1-C , 11-H ) :   0.9259 B(  2-C ,  3-C ) :   0.7384
B(  2-C ,  5-C ) :   0.8635 B(  2-C ,  8-C ) :   0.9207 B(  3-C ,  4-C ) :   0.9545
B(  3-C ,  8-C ) :   0.8470 B(  3-C , 12-H ) :   0.9128 B(  4-C ,  5-C ) :   0.9372
B(  4-C , 13-H ) :   0.9090 B(  4-C , 14-H ) :   0.9277 B(  5-C ,  6-C ) :   0.9625
B(  5-C , 15-H ) :   0.9086 B(  6-C ,  7-O ) :   0.9239 B(  6-C , 16-H ) :   0.9145
B(  6-C , 17-H ) :   0.9273 B(  7-O ,  8-C ) :   0.9902 B(  8-C , 18-H ) :   0.9416

MP2 TOTAL ENERGY:     -422.287695514 Eh
FINAL SINGLE POINT ENERGY      -422.287695514239

DIPOLE MOMENT
-------------
                                X             Y             Z
Electronic contribution:     -0.35250       0.94148      -2.28560
Nuclear contribution   :      0.47944      -1.35805       2.44070
                        -----------------------------------------
Total Dipole Moment    :      0.12694      -0.41657       0.15510
                        -----------------------------------------
Magnitude (a.u.)       :      0.46227
Magnitude (Debye)      :      1.17501

                             ****ORCA TERMINATED NORMALLY****
TOTAL RUN TIME: 0 days 0 hours 18 minutes 4 seconds 126 msec
