                         Program Version 3.0.3 - RELEASE   -
|  1> ! RI-MP2 RIJK def2-TZVP def2-TZVP/C def2-TZVP/JK TIGHTSCF
|  2> % maxcore 2000
|  3> % mp2 density relaxed end
|  4> *xyz 0 1
|  5>  C        0.0247828455     1.5908582773    -0.1304280284
|  6>  C        0.0436576910     0.0651339179    -0.0110845686
|  7>  O        0.8807489210    -0.3447321730     1.0710282135
|  8>  C       -1.3708681902    -0.5240686136     0.0819537423
|  9>  C       -1.4575417242    -2.0535927224     0.0512139493
| 10>  C       -0.9760541025    -2.7988959021     1.3098870748
| 11>  C       -1.5213246501    -4.2261575305     1.1232499640
| 12>  C       -2.8635619228    -4.0582486838     0.3532820109
| 13>  C       -2.8997824272    -2.5789997967    -0.1114356795
| 14>  H        1.0461969218     1.9790544218    -0.1674557038
| 15>  H       -0.5048234761     1.9153920502    -1.0320377349
| 16>  H       -0.4807526654     2.0420088299     0.7329863297
| 17>  H        0.5367757775    -0.3521364304    -0.8986861517
| 18>  H        0.4807251927    -0.0198996850     1.8855149981
| 19>  H       -1.8543617509    -0.1470703331     0.9975350411
| 20>  H       -1.9566299964    -0.1177398893    -0.7538626790
| 21>  H       -0.8620927839    -2.4131323820    -0.8020296733
| 22>  H        0.1055683486    -2.7561295897     1.4432915509
| 23>  H       -1.4321525620    -2.3336097954     2.1957842554
| 24>  H       -0.8164935580    -4.8135817052     0.5244557463
| 25>  H       -1.6438367312    -4.7569993073     2.0715549616
| 26>  H       -2.9120242138    -4.7435625852    -0.4980907647
| 27>  H       -3.7243442542    -4.2913857400     0.9865986879
| 28>  H       -3.5648007752    -1.9950993186     0.5379944722
| 29>  H       -3.2763270942    -2.4620166640    -1.1324512041
| 30> *
| 31>
| 32>                          ****END OF INPUT****

CARTESIAN COORDINATES (ANGSTROEM)
---------------------------------
  C      0.024783    1.590858   -0.130428
  C      0.043658    0.065134   -0.011085
  O      0.880749   -0.344732    1.071028
  C     -1.370868   -0.524069    0.081954
  C     -1.457542   -2.053593    0.051214
  C     -0.976054   -2.798896    1.309887
  C     -1.521325   -4.226158    1.123250
  C     -2.863562   -4.058249    0.353282
  C     -2.899782   -2.579000   -0.111436
  H      1.046197    1.979054   -0.167456
  H     -0.504823    1.915392   -1.032038
  H     -0.480753    2.042009    0.732986
  H      0.536776   -0.352136   -0.898686
  H      0.480725   -0.019900    1.885515
  H     -1.854362   -0.147070    0.997535
  H     -1.956630   -0.117740   -0.753863
  H     -0.862093   -2.413132   -0.802030
  H      0.105568   -2.756130    1.443292
  H     -1.432153   -2.333610    2.195784
  H     -0.816494   -4.813582    0.524456
  H     -1.643837   -4.756999    2.071555
  H     -2.912024   -4.743563   -0.498091
  H     -3.724344   -4.291386    0.986599
  H     -3.564801   -1.995099    0.537994
  H     -3.276327   -2.462017   -1.132451

 Total Charge           Charge          ....    0
 Multiplicity           Mult            ....    1
 Number of Electrons    NEL             ....   72
 Basis Dimension        Dim             ....  375

ORBITAL ENERGIES
----------------

  NO   OCC          E(Eh)            E(eV)
   0   2.0000     -20.548377      -559.1498
   1   2.0000     -11.276430      -306.8472
   2   2.0000     -11.219039      -305.2856
   3   2.0000     -11.217992      -305.2571
   4   2.0000     -11.215201      -305.1811
   5   2.0000     -11.211613      -305.0835
   6   2.0000     -11.211015      -305.0672
   7   2.0000     -11.209188      -305.0175
   8   2.0000     -11.204919      -304.9014
   9   2.0000      -1.354700       -36.8633
  10   2.0000      -1.118669       -30.4405
  11   2.0000      -1.043903       -28.4060
  12   2.0000      -0.979244       -26.6466
  13   2.0000      -0.952908       -25.9300
  14   2.0000      -0.896667       -24.3996
  15   2.0000      -0.812174       -22.1004
  16   2.0000      -0.768816       -20.9205
  17   2.0000      -0.760916       -20.7056
  18   2.0000      -0.661047       -17.9880
  19   2.0000      -0.653089       -17.7715
  20   2.0000      -0.632147       -17.2016
  21   2.0000      -0.614471       -16.7206
  22   2.0000      -0.598969       -16.2988
  23   2.0000      -0.575137       -15.6503
  24   2.0000      -0.562323       -15.3016
  25   2.0000      -0.544006       -14.8032
  26   2.0000      -0.527896       -14.3648
  27   2.0000      -0.516379       -14.0514
  28   2.0000      -0.480630       -13.0786
  29   2.0000      -0.470665       -12.8074
  30   2.0000      -0.468314       -12.7435
  31   2.0000      -0.462315       -12.5802
  32   2.0000      -0.450551       -12.2601
  33   2.0000      -0.446650       -12.1540
  34   2.0000      -0.440799       -11.9947
  35   2.0000      -0.417591       -11.3632
  36   0.0000       0.129926         3.5355
  37   0.0000       0.141916         3.8617
  38   0.0000       0.152422         4.1476
  39   0.0000       0.168428         4.5832
  40   0.0000       0.179675         4.8892

MULLIKEN ATOMIC CHARGES
-----------------------
   0 C :   -0.382203
   1 C :    0.110455
   2 O :   -0.464536
   3 C :   -0.318945
   4 C :    0.004075
   5 C :   -0.284486
   6 C :   -0.209810
   7 C :   -0.213897
   8 C :   -0.231673
   9 H :    0.146788
  10 H :    0.123996
  11 H :    0.112349
  12 H :    0.085406
  13 H :    0.308610
  14 H :    0.111417
  15 H :    0.116523
  16 H :    0.079807
  17 H :    0.150622
  18 H :    0.086364
  19 H :    0.107481
  20 H :    0.118022
  21 H :    0.110486
  22 H :    0.110789
  23 H :    0.104724
  24 H :    0.117634
Sum of atomic charges:    0.0000000

LOEWDIN ATOMIC CHARGES
----------------------
   0 C :   -0.306441
   1 C :   -0.370938
   2 O :   -0.020968
   3 C :   -0.242039
   4 C :   -0.250669
   5 C :   -0.247326
   6 C :   -0.257959
   7 C :   -0.253952
   8 C :   -0.238349
   9 H :    0.125539
  10 H :    0.124363
  11 H :    0.120024
  12 H :    0.143834
  13 H :    0.172201
  14 H :    0.138871
  15 H :    0.147652
  16 H :    0.154244
  17 H :    0.136576
  18 H :    0.133815
  19 H :    0.133646
  20 H :    0.129589
  21 H :    0.130896
  22 H :    0.130327
  23 H :    0.136090
  24 H :    0.130974

  Mayer bond orders larger than 0.1
B(  0-C ,  1-C ) :   0.9361 B(  0-C ,  9-H ) :   0.9446 B(  0-C , 10-H ) :   0.9351
B(  0-C , 11-H ) :   0.9212 B(  1-C ,  2-O ) :   0.8999 B(  1-C ,  3-C ) :   0.9443
B(  1-C , 12-H ) :   0.9245 B(  2-O , 13-H ) :   0.8439 B(  3-C ,  4-C ) :   0.8877
B(  3-C , 14-H ) :   0.9182 B(  3-C , 15-H ) :   0.9273 B(  4-C ,  5-C ) :   0.9213
B(  4-C ,  8-C ) :   0.9241 B(  4-C , 16-H ) :   0.9215 B(  5-C ,  6-C ) :   0.9302
B(  5-C , 17-H ) :   0.9287 B(  5-C , 18-H ) :   0.9258 B(  6-C ,  7-C ) :   0.9303
B(  6-C , 19-H ) :   0.9332 B(  6-C , 20-H ) :   0.9340 B(  7-C ,  8-C ) :   0.9476
B(  7-C , 21-H ) :   0.9354 B(  7-C , 22-H ) :   0.9366 B(  8-C , 23-H ) :   0.9251
B(  8-C , 24-H ) :   0.9287

MP2 TOTAL ENERGY:     -388.841834712 Eh
FINAL SINGLE POINT ENERGY      -388.841834711624

DIPOLE MOMENT
-------------
                                X             Y             Z
Electronic contribution:      2.76229      -0.12392       0.74474
Nuclear contribution   :     -3.23153       0.45007      -0.75077
                        -----------------------------------------
Total Dipole Moment    :     -0.46924       0.32615      -0.00603
                        -----------------------------------------
Magnitude (a.u.)       :      0.57148
Magnitude (Debye)      :      1.45259

                             ****ORCA TERMINATED NORMALLY****
TOTAL RUN TIME: 0 days 0 hours 21 minutes 51 seconds 567 msec
