                         Program Version 3.0.3 - RELEASE   -
|  1> ! RI-MP2 RIJK def2-TZVP def2-TZVP/C def2-TZVP/JK TIGHTSCF
|  2> % maxcore 2000
|  3> % mp2 density relaxed end
|  4> *xyz 0 1
|  5>  C        0.0047844696     1.5080654515    -0.0585528296
|  6>  C       -0.0297876696     0.0553043551    -0.0136337630
|  7>  C       -0.0548248152    -1.1498414694     0.0237720252
|  8>  C       -0.0419395524    -2.5632993675     0.1089630942
|  9>  N       -0.3645466910    -3.4481951144    -1.0866469003
| 10>  C       -1.1574165872    -3.5964475811     0.1288183878
| 11>  C       -0.3616709752    -4.5524235351     1.0239231906
| 12>  C        0.7653981947    -3.4784642782     1.0289572503
| 13>  O        1.7685157392    -3.3373423403     1.6575979624
| 14>  H        0.9064294128     1.8899507466     0.4325323900
| 15>  H        0.0086873978     1.8744838838    -1.0909875310
| 16>  H       -0.8617387179     1.9455986132     0.4494915795
| 17>  H       -0.8708284685    -2.8361801150    -1.7284183308
| 18>  H       -2.2194018345    -3.3920151357     0.1601069098
| 19>  H       -0.7651123345    -4.6723947499     2.0332820583
| 20>  H       -0.1243220482    -5.5257822437     0.5905471064
| 21> *
| 22>
| 23>                          ****END OF INPUT****

CARTESIAN COORDINATES (ANGSTROEM)
---------------------------------
  C      0.004784    1.508065   -0.058553
  C     -0.029788    0.055304   -0.013634
  C     -0.054825   -1.149841    0.023772
  C     -0.041940   -2.563299    0.108963
  N     -0.364547   -3.448195   -1.086647
  C     -1.157417   -3.596448    0.128818
  C     -0.361671   -4.552424    1.023923
  C      0.765398   -3.478464    1.028957
  O      1.768516   -3.337342    1.657598
  H      0.906429    1.889951    0.432532
  H      0.008687    1.874484   -1.090988
  H     -0.861739    1.945599    0.449492
  H     -0.870828   -2.836180   -1.728418
  H     -2.219402   -3.392015    0.160107
  H     -0.765112   -4.672395    2.033282
  H     -0.124322   -5.525782    0.590547

 Total Charge           Charge          ....    0
 Multiplicity           Mult            ....    1
 Number of Electrons    NEL             ....   64
 Basis Dimension        Dim             ....  321

ORBITAL ENERGIES
----------------

  NO   OCC          E(Eh)            E(eV)
   0   2.0000     -20.556980      -559.3839
   1   2.0000     -15.594438      -424.3462
   2   2.0000     -11.344395      -308.6967
   3   2.0000     -11.303602      -307.5867
   4   2.0000     -11.296208      -307.3854
   5   2.0000     -11.257282      -306.3262
   6   2.0000     -11.252766      -306.2033
   7   2.0000     -11.246829      -306.0418
   8   2.0000     -11.235644      -305.7374
   9   2.0000      -1.403548       -38.1925
  10   2.0000      -1.307343       -35.5746
  11   2.0000      -1.074910       -29.2498
  12   2.0000      -1.057388       -28.7730
  13   2.0000      -0.992732       -27.0136
  14   2.0000      -0.911648       -24.8072
  15   2.0000      -0.844211       -22.9722
  16   2.0000      -0.792576       -21.5671
  17   2.0000      -0.713631       -19.4189
  18   2.0000      -0.654141       -17.8001
  19   2.0000      -0.650453       -17.6997
  20   2.0000      -0.642253       -17.4766
  21   2.0000      -0.599470       -16.3124
  22   2.0000      -0.598678       -16.2909
  23   2.0000      -0.596543       -16.2327
  24   2.0000      -0.566850       -15.4248
  25   2.0000      -0.548528       -14.9262
  26   2.0000      -0.521503       -14.1908
  27   2.0000      -0.494950       -13.4683
  28   2.0000      -0.446194       -12.1416
  29   2.0000      -0.422608       -11.4997
  30   2.0000      -0.376677       -10.2499
  31   2.0000      -0.349746        -9.5171
  32   0.0000       0.123266         3.3542
  33   0.0000       0.134596         3.6625
  34   0.0000       0.144655         3.9363
  35   0.0000       0.161270         4.3884
  36   0.0000       0.162028         4.4090

MULLIKEN ATOMIC CHARGES
-----------------------
   0 C :   -0.471772
   1 C :    0.095973
   2 C :    0.038812
   3 C :   -0.070365
   4 N :   -0.347677
   5 C :   -0.115557
   6 C :   -0.127413
   7 C :    0.075223
   8 O :   -0.234400
   9 H :    0.172129
  10 H :    0.165072
  11 H :    0.164805
  12 H :    0.228022
  13 H :    0.156060
  14 H :    0.136425
  15 H :    0.134662
Sum of atomic charges:    0.0000000

LOEWDIN ATOMIC CHARGES
----------------------
   0 C :   -0.289544
   1 C :   -0.069983
   2 C :   -0.060199
   3 C :   -0.203442
   4 N :    0.049459
   5 C :   -0.201119
   6 C :   -0.185079
   7 C :   -0.261808
   8 O :    0.181108
   9 H :    0.146267
  10 H :    0.143141
  11 H :    0.142566
  12 H :    0.180746
  13 H :    0.136327
  14 H :    0.149283
  15 H :    0.142278

  Mayer bond orders larger than 0.1
B(  0-C ,  1-C ) :   0.8483 B(  0-C ,  9-H ) :   0.9456 B(  0-C , 10-H ) :   0.9420
B(  0-C , 11-H ) :   0.9441 B(  1-C ,  2-C ) :   2.6008 B(  1-C ,  3-C ) :  -0.1853
B(  2-C ,  3-C ) :   1.1383 B(  3-C ,  4-N ) :   0.8354 B(  3-C ,  5-C ) :   0.8726
B(  3-C ,  6-C ) :  -0.1470 B(  3-C ,  7-C ) :   0.8416 B(  4-N ,  5-C ) :   1.0107
B(  4-N , 12-H ) :   0.8673 B(  5-C ,  6-C ) :   0.9304 B(  5-C , 13-H ) :   0.8970
B(  6-C ,  7-C ) :   0.9475 B(  6-C , 14-H ) :   0.9015 B(  6-C , 15-H ) :   0.8795
B(  7-C ,  8-O ) :   2.0757

MP2 TOTAL ENERGY:     -399.988080935 Eh
FINAL SINGLE POINT ENERGY      -399.988080935039

DIPOLE MOMENT
-------------
                                X             Y             Z
Electronic contribution:      2.77591      -4.34240       1.01418
Nuclear contribution   :     -4.13335       4.99393      -1.31265
                        -----------------------------------------
Total Dipole Moment    :     -1.35744       0.65153      -0.29847
                        -----------------------------------------
Magnitude (a.u.)       :      1.53500
Magnitude (Debye)      :      3.90165

                             ****ORCA TERMINATED NORMALLY****
TOTAL RUN TIME: 0 days 0 hours 14 minutes 29 seconds 987 msec
