                         Program Version 3.0.3 - RELEASE   -
|  1> ! RI-MP2 RIJK def2-TZVP def2-TZVP/C def2-TZVP/JK TIGHTSCF
|  2> % maxcore 2000
|  3> % mp2 density relaxed end
|  4> *xyz 0 1
|  5>  C       -0.2168011524     1.5858145979    -0.0764536495
|  6>  C        0.0654646670     0.0741943881    -0.0462253413
|  7>  C        0.8399999479    -0.3508467511     1.1606892935
|  8>  C        2.1724977736    -0.6481847629     1.3653211394
|  9>  C        3.6617637517    -0.9145966961     1.1430227166
| 10>  C        3.7071636773    -1.2440504292     2.6863060139
| 11>  N        2.2600043222    -0.9319650489     2.6731629148
| 12>  N        1.0931542153    -0.8434490281     3.3240834631
| 13>  N        0.2379613522    -0.4844243550     2.3910308437
| 14>  H        0.7148893961     2.1603112024    -0.1021702522
| 15>  H       -0.8070745598     1.8549208455    -0.9579693289
| 16>  H       -0.7723620919     1.8873093164     0.8157798384
| 17>  H       -0.8847893459    -0.4704748698    -0.0589650933
| 18>  H        0.6124135896    -0.2204966214    -0.9485041854
| 19>  H        3.8988128330    -1.7595356727     0.4937312420
| 20>  H        4.2594299476    -0.0503752780     0.8472589826
| 21>  H        3.9255568011    -2.2812992443     2.9465554274
| 22>  H        4.2939348052    -0.5627711527     3.3050288451
| 23> *
| 24>
| 25>                          ****END OF INPUT****

CARTESIAN COORDINATES (ANGSTROEM)
---------------------------------
  C     -0.216801    1.585815   -0.076454
  C      0.065465    0.074194   -0.046225
  C      0.840000   -0.350847    1.160689
  C      2.172498   -0.648185    1.365321
  C      3.661764   -0.914597    1.143023
  C      3.707164   -1.244050    2.686306
  N      2.260004   -0.931965    2.673163
  N      1.093154   -0.843449    3.324083
  N      0.237961   -0.484424    2.391031
  H      0.714889    2.160311   -0.102170
  H     -0.807075    1.854921   -0.957969
  H     -0.772362    1.887309    0.815780
  H     -0.884789   -0.470475   -0.058965
  H      0.612414   -0.220497   -0.948504
  H      3.898813   -1.759536    0.493731
  H      4.259430   -0.050375    0.847259
  H      3.925557   -2.281299    2.946555
  H      4.293935   -0.562771    3.305029

 Total Charge           Charge          ....    0
 Multiplicity           Mult            ....    1
 Number of Electrons    NEL             ....   66
 Basis Dimension        Dim             ....  333

ORBITAL ENERGIES
----------------

  NO   OCC          E(Eh)            E(eV)
   0   2.0000     -15.639176      -425.5636
   1   2.0000     -15.627829      -425.2549
   2   2.0000     -15.583182      -424.0400
   3   2.0000     -11.311338      -307.7972
   4   2.0000     -11.279736      -306.9372
   5   2.0000     -11.272222      -306.7327
   6   2.0000     -11.252982      -306.2092
   7   2.0000     -11.229516      -305.5707
   8   2.0000     -11.212538      -305.1087
   9   2.0000      -1.430150       -38.9164
  10   2.0000      -1.240949       -33.7679
  11   2.0000      -1.107350       -30.1325
  12   2.0000      -1.024530       -27.8789
  13   2.0000      -0.995872       -27.0991
  14   2.0000      -0.921761       -25.0824
  15   2.0000      -0.868206       -23.6251
  16   2.0000      -0.798818       -21.7369
  17   2.0000      -0.761347       -20.7173
  18   2.0000      -0.701300       -19.0834
  19   2.0000      -0.676845       -18.4179
  20   2.0000      -0.606450       -16.5023
  21   2.0000      -0.602798       -16.4030
  22   2.0000      -0.586295       -15.9539
  23   2.0000      -0.565533       -15.3889
  24   2.0000      -0.562764       -15.3136
  25   2.0000      -0.546181       -14.8623
  26   2.0000      -0.519201       -14.1282
  27   2.0000      -0.501736       -13.6529
  28   2.0000      -0.491724       -13.3805
  29   2.0000      -0.482433       -13.1277
  30   2.0000      -0.419695       -11.4205
  31   2.0000      -0.388095       -10.5606
  32   2.0000      -0.334844        -9.1116
  33   0.0000       0.123516         3.3610
  34   0.0000       0.141177         3.8416
  35   0.0000       0.146583         3.9887
  36   0.0000       0.161435         4.3929
  37   0.0000       0.176129         4.7927

MULLIKEN ATOMIC CHARGES
-----------------------
   0 C :   -0.386461
   1 C :   -0.251313
   2 C :   -0.032878
   3 C :    0.037001
   4 C :   -0.217668
   5 C :   -0.137192
   6 N :    0.117323
   7 N :   -0.231965
   8 N :   -0.120856
   9 H :    0.117072
  10 H :    0.127715
  11 H :    0.147859
  12 H :    0.134372
  13 H :    0.116640
  14 H :    0.145590
  15 H :    0.146079
  16 H :    0.144530
  17 H :    0.144152
Sum of atomic charges:   -0.0000000

LOEWDIN ATOMIC CHARGES
----------------------
   0 C :   -0.308658
   1 C :   -0.259655
   2 C :   -0.260571
   3 C :   -0.190739
   4 C :   -0.191976
   5 C :   -0.176658
   6 N :    0.204002
   7 N :   -0.049882
   8 N :    0.029815
   9 H :    0.119085
  10 H :    0.119488
  11 H :    0.127515
  12 H :    0.149852
  13 H :    0.142244
  14 H :    0.139407
  15 H :    0.138938
  16 H :    0.134061
  17 H :    0.133732

  Mayer bond orders larger than 0.1
B(  0-C ,  1-C ) :   0.9142 B(  0-C ,  9-H ) :   0.9346 B(  0-C , 10-H ) :   0.9358
B(  0-C , 11-H ) :   0.9394 B(  1-C ,  2-C ) :   0.8956 B(  1-C , 12-H ) :   0.9434
B(  1-C , 13-H ) :   0.9453 B(  2-C ,  3-C ) :   1.3728 B(  2-C ,  8-N ) :   1.4347
B(  3-C ,  4-C ) :   0.8877 B(  3-C ,  6-N ) :   1.1750 B(  4-C ,  5-C ) :   0.9566
B(  4-C , 14-H ) :   0.9145 B(  4-C , 15-H ) :   0.9161 B(  5-C ,  6-N ) :   0.8287
B(  5-C , 16-H ) :   0.9184 B(  5-C , 17-H ) :   0.9184 B(  6-N ,  7-N ) :   1.0248
B(  7-N ,  8-N ) :   1.2248

MP2 TOTAL ENERGY:     -397.405332873 Eh
FINAL SINGLE POINT ENERGY      -397.405332873355

DIPOLE MOMENT
-------------
                                X             Y             Z
Electronic contribution:      0.43732      -4.02931       6.66593
Nuclear contribution   :      1.36724       3.88210      -7.65748
                        -----------------------------------------
Total Dipole Moment    :      1.80456      -0.14721      -0.99155
                        -----------------------------------------
Magnitude (a.u.)       :      2.06429
Magnitude (Debye)      :      5.24701

                             ****ORCA TERMINATED NORMALLY****
TOTAL RUN TIME: 0 days 0 hours 18 minutes 27 seconds 953 msec
