                         Program Version 3.0.3 - RELEASE   -
|  1> ! RI-MP2 RIJK def2-TZVP def2-TZVP/C def2-TZVP/JK TIGHTSCF
|  2> % maxcore 2000
|  3> % mp2 density relaxed end
|  4> *xyz 0 1
|  5>  C        0.8416892512    -0.4791165298     1.3287399193
|  6>  C        0.0992606704    -0.0351896070     0.0625229235
|  7>  C       -1.3271661692    -0.5939235004    -0.0230621870
|  8>  C       -2.1539449312    -0.0441779225     1.0526853241
|  9>  N       -2.7301560387     0.4401187977     1.9300551197
| 10>  C       -2.0977292989    -0.7388699396    -1.3845426796
| 11>  C       -1.1875419419    -1.9200830007    -1.7960835274
| 12>  C       -1.6306400351    -2.1070221781    -0.3267511008
| 13>  O       -2.9963669270    -1.7126094298    -0.7308567620
| 14>  H        1.8390826202    -0.0323864944     1.3640838070
| 15>  H        0.3028179064    -0.1742167436     2.2302953494
| 16>  H        0.9616645903    -1.5672794802     1.3584534394
| 17>  H        0.0349038638     1.0585775928     0.0364844872
| 18>  H        0.6669398171    -0.3317117412    -0.8225849338
| 19>  H       -2.5532661303     0.0466625772    -1.9866159707
| 20>  H       -1.6614354408    -2.6161906417    -2.4871036134
| 21>  H       -0.1377091388    -1.7449000757    -2.0307584573
| 22>  H       -1.5281079275    -2.9631727328     0.3389107422
| 23> *
| 24>
| 25>                          ****END OF INPUT****

CARTESIAN COORDINATES (ANGSTROEM)
---------------------------------
  C      0.841689   -0.479117    1.328740
  C      0.099261   -0.035190    0.062523
  C     -1.327166   -0.593924   -0.023062
  C     -2.153945   -0.044178    1.052685
  N     -2.730156    0.440119    1.930055
  C     -2.097729   -0.738870   -1.384543
  C     -1.187542   -1.920083   -1.796084
  C     -1.630640   -2.107022   -0.326751
  O     -2.996367   -1.712609   -0.730857
  H      1.839083   -0.032386    1.364084
  H      0.302818   -0.174217    2.230295
  H      0.961665   -1.567279    1.358453
  H      0.034904    1.058578    0.036484
  H      0.666940   -0.331712   -0.822585
  H     -2.553266    0.046663   -1.986616
  H     -1.661435   -2.616191   -2.487104
  H     -0.137709   -1.744900   -2.030758
  H     -1.528108   -2.963173    0.338911

 Total Charge           Charge          ....    0
 Multiplicity           Mult            ....    1
 Number of Electrons    NEL             ....   66
 Basis Dimension        Dim             ....  333

ORBITAL ENERGIES
----------------

  NO   OCC          E(Eh)            E(eV)
   0   2.0000     -20.573082      -559.8220
   1   2.0000     -15.563669      -423.5090
   2   2.0000     -11.331092      -308.3347
   3   2.0000     -11.330864      -308.3285
   4   2.0000     -11.302071      -307.5450
   5   2.0000     -11.266926      -306.5886
   6   2.0000     -11.261870      -306.4511
   7   2.0000     -11.255989      -306.2910
   8   2.0000     -11.233926      -305.6907
   9   2.0000      -1.425696       -38.7952
  10   2.0000      -1.213107       -33.0103
  11   2.0000      -1.127086       -30.6696
  12   2.0000      -1.047829       -28.5129
  13   2.0000      -0.974048       -26.5052
  14   2.0000      -0.913031       -24.8448
  15   2.0000      -0.866732       -23.5850
  16   2.0000      -0.797584       -21.7034
  17   2.0000      -0.731650       -19.9092
  18   2.0000      -0.689026       -18.7494
  19   2.0000      -0.654370       -17.8063
  20   2.0000      -0.618797       -16.8383
  21   2.0000      -0.590641       -16.0722
  22   2.0000      -0.575274       -15.6540
  23   2.0000      -0.563646       -15.3376
  24   2.0000      -0.549464       -14.9517
  25   2.0000      -0.534841       -14.5538
  26   2.0000      -0.520063       -14.1516
  27   2.0000      -0.506207       -13.7746
  28   2.0000      -0.500651       -13.6234
  29   2.0000      -0.484090       -13.1728
  30   2.0000      -0.453311       -12.3352
  31   2.0000      -0.435911       -11.8618
  32   2.0000      -0.433309       -11.7909
  33   0.0000       0.125293         3.4094
  34   0.0000       0.141033         3.8377
  35   0.0000       0.153845         4.1863
  36   0.0000       0.161245         4.3877
  37   0.0000       0.169344         4.6081

MULLIKEN ATOMIC CHARGES
-----------------------
   0 C :   -0.422593
   1 C :   -0.198504
   2 C :    0.227071
   3 C :   -0.259354
   4 N :   -0.034899
   5 C :   -0.036714
   6 C :   -0.165921
   7 C :   -0.057155
   8 O :   -0.300858
   9 H :    0.142412
  10 H :    0.160125
  11 H :    0.126749
  12 H :    0.134219
  13 H :    0.116860
  14 H :    0.154052
  15 H :    0.137250
  16 H :    0.121611
  17 H :    0.155649
Sum of atomic charges:    0.0000000

LOEWDIN ATOMIC CHARGES
----------------------
   0 C :   -0.302943
   1 C :   -0.234158
   2 C :   -0.201004
   3 C :   -0.152367
   4 N :    0.068202
   5 C :   -0.172556
   6 C :   -0.191752
   7 C :   -0.174465
   8 O :    0.157661
   9 H :    0.125608
  10 H :    0.132046
  11 H :    0.122860
  12 H :    0.150779
  13 H :    0.140993
  14 H :    0.131991
  15 H :    0.139860
  16 H :    0.127372
  17 H :    0.131876

  Mayer bond orders larger than 0.1
B(  0-C ,  1-C ) :   0.9200 B(  0-C ,  9-H ) :   0.9365 B(  0-C , 10-H ) :   0.9324
B(  0-C , 11-H ) :   0.9356 B(  1-C ,  2-C ) :   0.9101 B(  1-C , 12-H ) :   0.9214
B(  1-C , 13-H ) :   0.9241 B(  2-C ,  3-C ) :   0.9076 B(  2-C ,  5-C ) :   0.8754
B(  2-C ,  7-C ) :   0.8866 B(  3-C ,  4-N ) :   2.8869 B(  5-C ,  6-C ) :   0.9124
B(  5-C ,  8-O ) :   0.9174 B(  5-C , 14-H ) :   0.8825 B(  6-C ,  7-C ) :   0.9061
B(  6-C , 15-H ) :   0.9196 B(  6-C , 16-H ) :   0.9193 B(  7-C ,  8-O ) :   0.9194
B(  7-C , 17-H ) :   0.8810

MP2 TOTAL ENERGY:     -401.200308514 Eh
FINAL SINGLE POINT ENERGY      -401.200308514182

DIPOLE MOMENT
-------------
                                X             Y             Z
Electronic contribution:     -8.60678       0.46411       0.66375
Nuclear contribution   :     10.21506      -0.91137      -1.89445
                        -----------------------------------------
Total Dipole Moment    :      1.60828      -0.44726      -1.23070
                        -----------------------------------------
Magnitude (a.u.)       :      2.07394
Magnitude (Debye)      :      5.27153

                             ****ORCA TERMINATED NORMALLY****
TOTAL RUN TIME: 0 days 0 hours 19 minutes 57 seconds 750 msec
