                         Program Version 3.0.3 - RELEASE   -
|  1> ! RI-MP2 RIJK def2-TZVP def2-TZVP/C def2-TZVP/JK TIGHTSCF
|  2> % maxcore 2000
|  3> % mp2 density relaxed end
|  4> *xyz 0 1
|  5>  C        0.4488998439     1.3141474982     0.2563170722
|  6>  C       -0.0646803134    -0.1134170657    -0.0046250198
|  7>  C       -1.5937394719    -0.1087676313    -0.0844120877
|  8>  C        0.5872837529    -0.6981554700    -1.2886137577
|  9>  C        1.9906995070    -1.1794890711    -0.8649378653
| 10>  C        1.8648731119    -1.4163669203     0.6254893922
| 11>  C        0.4678170385    -1.0768226765     1.0884937016
| 12>  N        2.7674585678    -1.8009481272     1.4351515450
| 13>  O        3.9792363278    -2.0496234521     0.7565752023
| 14>  H        1.5396946768     1.3463723448     0.3453735406
| 15>  H        0.1590045929     1.9883321874    -0.5569419092
| 16>  H        0.0321408781     1.7138564615     1.1872206819
| 17>  H       -1.9434341380     0.5358273520    -0.8986794377
| 18>  H       -1.9844740121    -1.1163172034    -0.2640616353
| 19>  H       -2.0391258981     0.2633037200     0.8449752469
| 20>  H       -0.0074678927    -1.5507433744    -1.6371038531
| 21>  H        0.6147190396     0.0285382803    -2.1060941785
| 22>  H        2.3203639024    -2.0829731806    -1.3867360061
| 23>  H        2.7686537455    -0.4294527329    -1.0471232019
| 24>  H        0.4488800489    -0.6599099202     2.0984875780
| 25>  H       -0.1441996669    -1.9897006387     1.1010294993
| 26>  H        4.5621217492    -2.3115724500     1.4767223622
| 27> *
| 28>
| 29>                          ****END OF INPUT****

CARTESIAN COORDINATES (ANGSTROEM)
---------------------------------
  C      0.448900    1.314147    0.256317
  C     -0.064680   -0.113417   -0.004625
  C     -1.593739   -0.108768   -0.084412
  C      0.587284   -0.698155   -1.288614
  C      1.990700   -1.179489   -0.864938
  C      1.864873   -1.416367    0.625489
  C      0.467817   -1.076823    1.088494
  N      2.767459   -1.800948    1.435152
  O      3.979236   -2.049623    0.756575
  H      1.539695    1.346372    0.345374
  H      0.159005    1.988332   -0.556942
  H      0.032141    1.713856    1.187221
  H     -1.943434    0.535827   -0.898679
  H     -1.984474   -1.116317   -0.264062
  H     -2.039126    0.263304    0.844975
  H     -0.007468   -1.550743   -1.637104
  H      0.614719    0.028538   -2.106094
  H      2.320364   -2.082973   -1.386736
  H      2.768654   -0.429453   -1.047123
  H      0.448880   -0.659910    2.098488
  H     -0.144200   -1.989701    1.101029
  H      4.562122   -2.311572    1.476722

 Total Charge           Charge          ....    0
 Multiplicity           Mult            ....    1
 Number of Electrons    NEL             ....   70
 Basis Dimension        Dim             ....  357

ORBITAL ENERGIES
----------------

  NO   OCC          E(Eh)            E(eV)
   0   2.0000     -20.581587      -560.0535
   1   2.0000     -15.602612      -424.5687
   2   2.0000     -11.269395      -306.6558
   3   2.0000     -11.241472      -305.8960
   4   2.0000     -11.229437      -305.5685
   5   2.0000     -11.228226      -305.5356
   6   2.0000     -11.225065      -305.4495
   7   2.0000     -11.217265      -305.2373
   8   2.0000     -11.216500      -305.2165
   9   2.0000      -1.406383       -38.2696
  10   2.0000      -1.175779       -31.9946
  11   2.0000      -1.109595       -30.1936
  12   2.0000      -1.011544       -27.5255
  13   2.0000      -0.953414       -25.9437
  14   2.0000      -0.936021       -25.4704
  15   2.0000      -0.872997       -23.7555
  16   2.0000      -0.746771       -20.3207
  17   2.0000      -0.727895       -19.8070
  18   2.0000      -0.676722       -18.4146
  19   2.0000      -0.662605       -18.0304
  20   2.0000      -0.641478       -17.4555
  21   2.0000      -0.608777       -16.5657
  22   2.0000      -0.599781       -16.3209
  23   2.0000      -0.577991       -15.7279
  24   2.0000      -0.566761       -15.4223
  25   2.0000      -0.545117       -14.8334
  26   2.0000      -0.532599       -14.4927
  27   2.0000      -0.523332       -14.2406
  28   2.0000      -0.514217       -13.9926
  29   2.0000      -0.502716       -13.6796
  30   2.0000      -0.467830       -12.7303
  31   2.0000      -0.458645       -12.4804
  32   2.0000      -0.451143       -12.2762
  33   2.0000      -0.417114       -11.3502
  34   2.0000      -0.372554       -10.1377
  35   0.0000       0.124850         3.3973
  36   0.0000       0.149017         4.0549
  37   0.0000       0.155201         4.2232
  38   0.0000       0.172572         4.6959
  39   0.0000       0.179228         4.8771

MULLIKEN ATOMIC CHARGES
-----------------------
   0 C :   -0.450346
   1 C :    0.136401
   2 C :   -0.400217
   3 C :   -0.245415
   4 C :   -0.243221
   5 C :   -0.050503
   6 C :   -0.199926
   7 N :   -0.079514
   8 O :   -0.369594
   9 H :    0.144209
  10 H :    0.130402
  11 H :    0.131732
  12 H :    0.131883
  13 H :    0.126928
  14 H :    0.132717
  15 H :    0.115616
  16 H :    0.121975
  17 H :    0.143415
  18 H :    0.140163
  19 H :    0.130092
  20 H :    0.120794
  21 H :    0.332407
Sum of atomic charges:   -0.0000000

LOEWDIN ATOMIC CHARGES
----------------------
   0 C :   -0.265022
   1 C :   -0.314109
   2 C :   -0.273883
   3 C :   -0.206611
   4 C :   -0.225440
   5 C :   -0.281240
   6 C :   -0.175883
   7 N :    0.019800
   8 O :   -0.079233
   9 H :    0.129996
  10 H :    0.125423
  11 H :    0.126328
  12 H :    0.126528
  13 H :    0.123964
  14 H :    0.126314
  15 H :    0.141034
  16 H :    0.136795
  17 H :    0.147828
  18 H :    0.150669
  19 H :    0.147495
  20 H :    0.152293
  21 H :    0.166952

  Mayer bond orders larger than 0.1
B(  0-C ,  1-C ) :   0.9261 B(  0-C ,  9-H ) :   0.9264 B(  0-C , 10-H ) :   0.9367
B(  0-C , 11-H ) :   0.9370 B(  1-C ,  2-C ) :   0.8997 B(  1-C ,  3-C ) :   0.8836
B(  1-C ,  6-C ) :   0.8981 B(  2-C , 12-H ) :   0.9405 B(  2-C , 13-H ) :   0.9318
B(  2-C , 14-H ) :   0.9384 B(  3-C ,  4-C ) :   0.9399 B(  3-C , 15-H ) :   0.9257
B(  3-C , 16-H ) :   0.9271 B(  4-C ,  5-C ) :   0.9472 B(  4-C , 17-H ) :   0.9193
B(  4-C , 18-H ) :   0.9128 B(  5-C ,  6-C ) :   0.9554 B(  5-C ,  7-N ) :   1.8972
B(  6-C , 19-H ) :   0.9085 B(  6-C , 20-H ) :   0.9082 B(  7-N ,  8-O ) :   0.7986
B(  8-O , 21-H ) :   0.8461

MP2 TOTAL ENERGY:     -403.646937289 Eh
FINAL SINGLE POINT ENERGY      -403.646937289093

DIPOLE MOMENT
-------------
                                X             Y             Z
Electronic contribution:      8.44516      -5.56731       3.26142
Nuclear contribution   :     -8.71111       5.72737      -3.46949
                        -----------------------------------------
Total Dipole Moment    :     -0.26594       0.16006      -0.20807
                        -----------------------------------------
Magnitude (a.u.)       :      0.37368
Magnitude (Debye)      :      0.94982

                             ****ORCA TERMINATED NORMALLY****
TOTAL RUN TIME: 0 days 0 hours 20 minutes 17 seconds 449 msec
