                         Program Version 3.0.3 - RELEASE   -
|  1> ! RI-MP2 RIJK def2-TZVP def2-TZVP/C def2-TZVP/JK TIGHTSCF
|  2> % maxcore 2000
|  3> % mp2 density relaxed end
|  4> *xyz 0 1
|  5>  O       -0.0639584989     0.0062506761     0.0052840048
|  6>  C       -0.0841964570     1.2163791351     0.0120370304
|  7>  C       -1.2666383057     2.1031194012     0.0328077141
|  8>  C       -0.8777626185     3.3836511917     0.0344367480
|  9>  C        0.6220271397     3.5483989709     0.0150251285
| 10>  C        1.1645124784     2.1108970481    -0.0001152651
| 11>  C        2.2692506038     1.7086801684     1.0121987176
| 12>  O        3.2286604479     1.4721088110    -0.0316882904
| 13>  C        2.2412118408     1.7198082610    -1.0464391592
| 14>  H       -2.2802679752     1.7244242460     0.0444946474
| 15>  H       -1.5443266113     4.2396298595     0.0480666084
| 16>  H        0.9416077644     4.1250435092    -0.8623053911
| 17>  H        0.9653087592     4.1155234592     0.8896050810
| 18>  H        2.5894647515     2.5014406754     1.6997938196
| 19>  H        2.0426128048     0.7947719487     1.5742072540
| 20>  H        1.9992215909     0.8119968390    -1.6119176377
| 21>  H        2.5426931051     2.5200059396    -1.7338885202
| 22> *
| 23>
| 24>                          ****END OF INPUT****

CARTESIAN COORDINATES (ANGSTROEM)
---------------------------------
  O     -0.063958    0.006251    0.005284
  C     -0.084196    1.216379    0.012037
  C     -1.266638    2.103119    0.032808
  C     -0.877763    3.383651    0.034437
  C      0.622027    3.548399    0.015025
  C      1.164512    2.110897   -0.000115
  C      2.269251    1.708680    1.012199
  O      3.228660    1.472109   -0.031688
  C      2.241212    1.719808   -1.046439
  H     -2.280268    1.724424    0.044495
  H     -1.544327    4.239630    0.048067
  H      0.941608    4.125044   -0.862305
  H      0.965309    4.115523    0.889605
  H      2.589465    2.501441    1.699794
  H      2.042613    0.794772    1.574207
  H      1.999222    0.811997   -1.611918
  H      2.542693    2.520006   -1.733889

 Total Charge           Charge          ....    0
 Multiplicity           Mult            ....    1
 Number of Electrons    NEL             ....   66
 Basis Dimension        Dim             ....  327

ORBITAL ENERGIES
----------------

  NO   OCC          E(Eh)            E(eV)
   0   2.0000     -20.553392      -559.2862
   1   2.0000     -20.545163      -559.0623
   2   2.0000     -11.332712      -308.3788
   3   2.0000     -11.288851      -307.1853
   4   2.0000     -11.288843      -307.1850
   5   2.0000     -11.278268      -306.8973
   6   2.0000     -11.257861      -306.3420
   7   2.0000     -11.255882      -306.2881
   8   2.0000     -11.247748      -306.0668
   9   2.0000      -1.393284       -37.9132
  10   2.0000      -1.381549       -37.5939
  11   2.0000      -1.160066       -31.5670
  12   2.0000      -1.030722       -28.0474
  13   2.0000      -0.957087       -26.0437
  14   2.0000      -0.942915       -25.6580
  15   2.0000      -0.858392       -23.3580
  16   2.0000      -0.779616       -21.2144
  17   2.0000      -0.726490       -19.7688
  18   2.0000      -0.696381       -18.9495
  19   2.0000      -0.671396       -18.2696
  20   2.0000      -0.645386       -17.5618
  21   2.0000      -0.644392       -17.5348
  22   2.0000      -0.606854       -16.5133
  23   2.0000      -0.593105       -16.1392
  24   2.0000      -0.568415       -15.4674
  25   2.0000      -0.564174       -15.3520
  26   2.0000      -0.547183       -14.8896
  27   2.0000      -0.532003       -14.4765
  28   2.0000      -0.475324       -12.9342
  29   2.0000      -0.459012       -12.4904
  30   2.0000      -0.425372       -11.5750
  31   2.0000      -0.405506       -11.0344
  32   2.0000      -0.390930       -10.6378
  33   0.0000       0.083894         2.2829
  34   0.0000       0.130156         3.5417
  35   0.0000       0.160677         4.3722
  36   0.0000       0.165734         4.5099
  37   0.0000       0.172001         4.6804

MULLIKEN ATOMIC CHARGES
-----------------------
   0 O :   -0.289601
   1 C :    0.148165
   2 C :   -0.196979
   3 C :   -0.133732
   4 C :   -0.200155
   5 C :    0.126867
   6 C :   -0.055819
   7 O :   -0.325373
   8 C :   -0.055821
   9 H :    0.148808
  10 H :    0.146551
  11 H :    0.134810
  12 H :    0.134807
  13 H :    0.095667
  14 H :    0.113069
  15 H :    0.113067
  16 H :    0.095667
Sum of atomic charges:   -0.0000000

LOEWDIN ATOMIC CHARGES
----------------------
   0 O :    0.152107
   1 C :   -0.292482
   2 C :   -0.119308
   3 C :   -0.099572
   4 C :   -0.195025
   5 C :   -0.199374
   6 C :   -0.221997
   7 O :    0.120037
   8 C :   -0.221995
   9 H :    0.147244
  10 H :    0.142062
  11 H :    0.149646
  12 H :    0.149648
  13 H :    0.118174
  14 H :    0.126331
  15 H :    0.126330
  16 H :    0.118174

  Mayer bond orders larger than 0.1
B(  0-O ,  1-C ) :   1.9853 B(  1-C ,  2-C ) :   1.0156 B(  1-C ,  5-C ) :   0.8707
B(  2-C ,  3-C ) :   1.6765 B(  2-C ,  9-H ) :   0.9167 B(  3-C ,  4-C ) :   0.9381
B(  3-C , 10-H ) :   0.9180 B(  4-C ,  5-C ) :   0.8906 B(  4-C , 11-H ) :   0.9088
B(  4-C , 12-H ) :   0.9088 B(  5-C ,  6-C ) :   0.9342 B(  5-C ,  8-C ) :   0.9342
B(  6-C ,  7-O ) :   0.9737 B(  6-C , 13-H ) :   0.9038 B(  6-C , 14-H ) :   0.9021
B(  7-O ,  8-C ) :   0.9737 B(  8-C , 15-H ) :   0.9021 B(  8-C , 16-H ) :   0.9038

MP2 TOTAL ENERGY:     -421.117703624 Eh
FINAL SINGLE POINT ENERGY      -421.117703623930

DIPOLE MOMENT
-------------
                                X             Y             Z
Electronic contribution:     -1.07010      -3.81565      -0.00597
Nuclear contribution   :      0.37123       5.34418       0.02369
                        -----------------------------------------
Total Dipole Moment    :     -0.69887       1.52854       0.01772
                        -----------------------------------------
Magnitude (a.u.)       :      1.68082
Magnitude (Debye)      :      4.27230

                             ****ORCA TERMINATED NORMALLY****
TOTAL RUN TIME: 0 days 0 hours 17 minutes 44 seconds 11 msec
