                         Program Version 3.0.3 - RELEASE   -
|  1> ! RI-MP2 RIJK def2-TZVP def2-TZVP/C def2-TZVP/JK TIGHTSCF
|  2> % maxcore 2000
|  3> % mp2 density relaxed end
|  4> *xyz 0 1
|  5>  C       -0.1956046354     1.5413400775     0.2787803138
|  6>  C       -0.0423767560     0.0677585320     0.0773543644
|  7>  C        0.0521593758    -0.6349874434    -1.1027611053
|  8>  C        0.0624228805    -0.2219216394    -2.5375507854
|  9>  C        1.4675498924    -0.1756154003    -3.1475304834
| 10>  O        1.3291507189     0.1858993400    -4.5112152902
| 11>  N        0.1837475275    -1.9589843198    -0.7139061912
| 12>  C        0.1546986084    -1.9925024929     0.6468698145
| 13>  N        0.0217059888    -0.7924679451     1.1569056252
| 14>  H        0.6829432345     1.9682922151     0.7757473217
| 15>  H       -0.3314395889     2.0658459159    -0.6710472935
| 16>  H       -1.0596418445     1.7581589216     0.9154496038
| 17>  H       -0.5512480073    -0.8991670750    -3.1454900327
| 18>  H       -0.3873000525     0.7703873664    -2.6360396712
| 19>  H        2.0807430211     0.5501180088    -2.5921248072
| 20>  H        1.9528057814    -1.1598737061    -3.0398219858
| 21>  H        2.2075907815     0.2797209673    -4.8907425691
| 22>  H        0.2513948293    -2.7506169754    -1.3315340904
| 23>  H        0.2311499744    -2.9151792572     1.2032230620
| 24> *
| 25>
| 26>                          ****END OF INPUT****

CARTESIAN COORDINATES (ANGSTROEM)
---------------------------------
  C     -0.195605    1.541340    0.278780
  C     -0.042377    0.067759    0.077354
  C      0.052159   -0.634987   -1.102761
  C      0.062423   -0.221922   -2.537551
  C      1.467550   -0.175615   -3.147530
  O      1.329151    0.185899   -4.511215
  N      0.183748   -1.958984   -0.713906
  C      0.154699   -1.992502    0.646870
  N      0.021706   -0.792468    1.156906
  H      0.682943    1.968292    0.775747
  H     -0.331440    2.065846   -0.671047
  H     -1.059642    1.758159    0.915450
  H     -0.551248   -0.899167   -3.145490
  H     -0.387300    0.770387   -2.636040
  H      2.080743    0.550118   -2.592125
  H      1.952806   -1.159874   -3.039822
  H      2.207591    0.279721   -4.890743
  H      0.251395   -2.750617   -1.331534
  H      0.231150   -2.915179    1.203223

 Total Charge           Charge          ....    0
 Multiplicity           Mult            ....    1
 Number of Electrons    NEL             ....   68
 Basis Dimension        Dim             ....  339

ORBITAL ENERGIES
----------------

  NO   OCC          E(Eh)            E(eV)
   0   2.0000     -20.563077      -559.5498
   1   2.0000     -15.610920      -424.7947
   2   2.0000     -15.534812      -422.7237
   3   2.0000     -11.289870      -307.2130
   4   2.0000     -11.284725      -307.0730
   5   2.0000     -11.254272      -306.2443
   6   2.0000     -11.240003      -305.8560
   7   2.0000     -11.237976      -305.8009
   8   2.0000     -11.213709      -305.1405
   9   2.0000      -1.367859       -37.2213
  10   2.0000      -1.333343       -36.2821
  11   2.0000      -1.163051       -31.6482
  12   2.0000      -1.068300       -29.0699
  13   2.0000      -1.000261       -27.2185
  14   2.0000      -0.929359       -25.2891
  15   2.0000      -0.853735       -23.2313
  16   2.0000      -0.820389       -22.3239
  17   2.0000      -0.751086       -20.4381
  18   2.0000      -0.729292       -19.8450
  19   2.0000      -0.690203       -18.7814
  20   2.0000      -0.657941       -17.9035
  21   2.0000      -0.618052       -16.8181
  22   2.0000      -0.612804       -16.6752
  23   2.0000      -0.576209       -15.6794
  24   2.0000      -0.558100       -15.1867
  25   2.0000      -0.546183       -14.8624
  26   2.0000      -0.540238       -14.7006
  27   2.0000      -0.529287       -14.4026
  28   2.0000      -0.522179       -14.2092
  29   2.0000      -0.500236       -13.6121
  30   2.0000      -0.452549       -12.3145
  31   2.0000      -0.426798       -11.6138
  32   2.0000      -0.387756       -10.5514
  33   2.0000      -0.301881        -8.2146
  34   0.0000       0.120110         3.2684
  35   0.0000       0.136994         3.7278
  36   0.0000       0.151603         4.1253
  37   0.0000       0.166547         4.5320
  38   0.0000       0.180817         4.9203

MULLIKEN ATOMIC CHARGES
-----------------------
   0 C :   -0.426438
   1 C :    0.052014
   2 C :    0.048328
   3 C :   -0.194146
   4 C :   -0.057636
   5 O :   -0.462744
   6 N :   -0.286341
   7 C :    0.045800
   8 N :   -0.294327
   9 H :    0.142534
  10 H :    0.123759
  11 H :    0.146362
  12 H :    0.127872
  13 H :    0.131533
  14 H :    0.108127
  15 H :    0.086135
  16 H :    0.318633
  17 H :    0.244977
  18 H :    0.145558
Sum of atomic charges:   -0.0000000

LOEWDIN ATOMIC CHARGES
----------------------
   0 C :   -0.275235
   1 C :   -0.263979
   2 C :   -0.215705
   3 C :   -0.238530
   4 C :   -0.346806
   5 O :   -0.049583
   6 N :    0.191365
   7 C :   -0.322128
   8 N :    0.103858
   9 H :    0.131549
  10 H :    0.126095
  11 H :    0.133472
  12 H :    0.147732
  13 H :    0.152983
  14 H :    0.118407
  15 H :    0.111427
  16 H :    0.173903
  17 H :    0.192616
  18 H :    0.128559

  Mayer bond orders larger than 0.1
B(  0-C ,  1-C ) :   0.8619 B(  0-C ,  9-H ) :   0.9357 B(  0-C , 10-H ) :   0.9561
B(  0-C , 11-H ) :   0.9399 B(  1-C ,  2-C ) :   1.5295 B(  1-C ,  8-N ) :   1.2935
B(  2-C ,  3-C ) :   0.8505 B(  2-C ,  6-N ) :   1.0836 B(  3-C ,  4-C ) :   0.9164
B(  3-C ,  5-O ) :  -0.1022 B(  3-C , 12-H ) :   0.9230 B(  3-C , 13-H ) :   0.9377
B(  4-C ,  5-O ) :   1.0170 B(  4-C , 14-H ) :   0.9294 B(  4-C , 15-H ) :   0.9329
B(  5-O , 16-H ) :   0.8467 B(  6-N ,  7-C ) :   1.1665 B(  6-N , 17-H ) :   0.8666
B(  7-C ,  8-N ) :   1.5601 B(  7-C , 18-H ) :   0.9266

MP2 TOTAL ENERGY:     -418.546054729 Eh
FINAL SINGLE POINT ENERGY      -418.546054729121

DIPOLE MOMENT
-------------
                                X             Y             Z
Electronic contribution:     -0.60689      -4.31377       2.24004
Nuclear contribution   :      1.25954       3.62106      -3.26483
                        -----------------------------------------
Total Dipole Moment    :      0.65265      -0.69271      -1.02478
                        -----------------------------------------
Magnitude (a.u.)       :      1.39856
Magnitude (Debye)      :      3.55486

                             ****ORCA TERMINATED NORMALLY****
TOTAL RUN TIME: 0 days 0 hours 17 minutes 2 seconds 756 msec
