                         Program Version 3.0.3 - RELEASE   -
|  1> ! RI-MP2 RIJK def2-TZVP def2-TZVP/C def2-TZVP/JK TIGHTSCF
|  2> % maxcore 2000
|  3> % mp2 density relaxed end
|  4> *xyz 0 1
|  5>  C        0.0791012348     1.5499372847     0.0167110584
|  6>  C        0.0982332946     0.0224853625     0.0098796340
|  7>  C        0.8688433729    -0.6046378297    -1.1999295768
|  8>  C        1.4805832051    -1.8291762748    -0.5860541608
|  9>  C        1.4041230187    -1.8360713982     0.7413837742
| 10>  C        2.0954462932    -3.0423042797     1.2916247863
| 11>  O        2.5482104487    -3.7534591317     0.1313848005
| 12>  C        2.2312317475    -3.0300584085    -1.0657409168
| 13>  C        0.7252191779    -0.6175877048     1.2936072160
| 14>  H        1.0959025737     1.9552939664     0.0773832786
| 15>  H       -0.3832185929     1.9469383254    -0.8934531004
| 16>  H       -0.4848975007     1.9377689890     0.8718368604
| 17>  H       -0.9360470899    -0.3363434277    -0.0515564383
| 18>  H        0.2024126231    -0.8130976309    -2.0452684835
| 19>  H        1.6427306623     0.0786594655    -1.5807409848
| 20>  H        2.9552315238    -2.7891658826     1.9337638661
| 21>  H        1.4336449875    -3.6941910691     1.8831927108
| 22>  H        1.6421281520    -3.6753922457    -1.7361066796
| 23>  H        3.1589102274    -2.7707883519    -1.6022525464
| 24>  H        1.4498669380     0.0612682535     1.7677956108
| 25>  H       -0.0337317081    -0.8343810818     2.0546438754
| 26> *
| 27>
| 28>                          ****END OF INPUT****

CARTESIAN COORDINATES (ANGSTROEM)
---------------------------------
  C      0.079101    1.549937    0.016711
  C      0.098233    0.022485    0.009880
  C      0.868843   -0.604638   -1.199930
  C      1.480583   -1.829176   -0.586054
  C      1.404123   -1.836071    0.741384
  C      2.095446   -3.042304    1.291625
  O      2.548210   -3.753459    0.131385
  C      2.231232   -3.030058   -1.065741
  C      0.725219   -0.617588    1.293607
  H      1.095903    1.955294    0.077383
  H     -0.383219    1.946938   -0.893453
  H     -0.484898    1.937769    0.871837
  H     -0.936047   -0.336343   -0.051556
  H      0.202413   -0.813098   -2.045268
  H      1.642731    0.078659   -1.580741
  H      2.955232   -2.789166    1.933764
  H      1.433645   -3.694191    1.883193
  H      1.642128   -3.675392   -1.736107
  H      3.158910   -2.770788   -1.602253
  H      1.449867    0.061268    1.767796
  H     -0.033732   -0.834381    2.054644

 Total Charge           Charge          ....    0
 Multiplicity           Mult            ....    1
 Number of Electrons    NEL             ....   68
 Basis Dimension        Dim             ....  351

ORBITAL ENERGIES
----------------

  NO   OCC          E(Eh)            E(eV)
   0   2.0000     -20.544548      -559.0456
   1   2.0000     -11.275098      -306.8110
   2   2.0000     -11.275075      -306.8104
   3   2.0000     -11.235255      -305.7268
   4   2.0000     -11.230576      -305.5995
   5   2.0000     -11.230532      -305.5983
   6   2.0000     -11.218769      -305.2782
   7   2.0000     -11.217298      -305.2382
   8   2.0000     -11.216971      -305.2293
   9   2.0000      -1.364685       -37.1350
  10   2.0000      -1.143912       -31.1274
  11   2.0000      -1.030890       -28.0520
  12   2.0000      -0.999930       -27.2095
  13   2.0000      -0.937105       -25.4999
  14   2.0000      -0.926150       -25.2018
  15   2.0000      -0.816872       -22.2282
  16   2.0000      -0.775805       -21.1107
  17   2.0000      -0.701052       -19.0766
  18   2.0000      -0.670670       -18.2499
  19   2.0000      -0.664373       -18.0785
  20   2.0000      -0.635476       -17.2922
  21   2.0000      -0.579461       -15.7679
  22   2.0000      -0.572110       -15.5679
  23   2.0000      -0.560212       -15.2442
  24   2.0000      -0.558315       -15.1925
  25   2.0000      -0.548027       -14.9126
  26   2.0000      -0.528981       -14.3943
  27   2.0000      -0.502752       -13.6806
  28   2.0000      -0.502333       -13.6692
  29   2.0000      -0.476340       -12.9619
  30   2.0000      -0.459157       -12.4943
  31   2.0000      -0.447159       -12.1678
  32   2.0000      -0.421765       -11.4768
  33   2.0000      -0.326483        -8.8840
  34   0.0000       0.128291         3.4910
  35   0.0000       0.157220         4.2782
  36   0.0000       0.161461         4.3936
  37   0.0000       0.166509         4.5309
  38   0.0000       0.167870         4.5680

MULLIKEN ATOMIC CHARGES
-----------------------
   0 C :   -0.419006
   1 C :   -0.009948
   2 C :   -0.219857
   3 C :   -0.079159
   4 C :   -0.079159
   5 C :   -0.007350
   6 O :   -0.332056
   7 C :   -0.007350
   8 C :   -0.219857
   9 H :    0.124802
  10 H :    0.134023
  11 H :    0.134022
  12 H :    0.092936
  13 H :    0.127052
  14 H :    0.114488
  15 H :    0.099160
  16 H :    0.103280
  17 H :    0.103281
  18 H :    0.099160
  19 H :    0.114487
  20 H :    0.127053
Sum of atomic charges:   -0.0000000

LOEWDIN ATOMIC CHARGES
----------------------
   0 C :   -0.302369
   1 C :   -0.236653
   2 C :   -0.192824
   3 C :   -0.141038
   4 C :   -0.141038
   5 C :   -0.259656
   6 O :    0.137536
   7 C :   -0.259656
   8 C :   -0.192824
   9 H :    0.122395
  10 H :    0.123993
  11 H :    0.123993
  12 H :    0.152060
  13 H :    0.138191
  14 H :    0.142929
  15 H :    0.125538
  16 H :    0.126383
  17 H :    0.126383
  18 H :    0.125538
  19 H :    0.142930
  20 H :    0.138190

  Mayer bond orders larger than 0.1
B(  0-C ,  1-C ) :   0.9110 B(  0-C ,  9-H ) :   0.9329 B(  0-C , 10-H ) :   0.9405
B(  0-C , 11-H ) :   0.9405 B(  1-C ,  2-C ) :   0.9410 B(  1-C ,  8-C ) :   0.9410
B(  1-C , 12-H ) :   0.9281 B(  2-C ,  3-C ) :   0.9136 B(  2-C , 13-H ) :   0.9213
B(  2-C , 14-H ) :   0.9011 B(  3-C ,  4-C ) :   1.6776 B(  3-C ,  7-C ) :   0.9920
B(  4-C ,  5-C ) :   0.9920 B(  4-C ,  8-C ) :   0.9136 B(  5-C ,  6-O ) :   0.9493
B(  5-C , 15-H ) :   0.9062 B(  5-C , 16-H ) :   0.9133 B(  6-O ,  7-C ) :   0.9493
B(  7-C , 17-H ) :   0.9133 B(  7-C , 18-H ) :   0.9061 B(  8-C , 19-H ) :   0.9011
B(  8-C , 20-H ) :   0.9213

MP2 TOTAL ENERGY:     -386.424600800 Eh
FINAL SINGLE POINT ENERGY      -386.424600800440

DIPOLE MOMENT
-------------
                                X             Y             Z
Electronic contribution:      3.10942      -7.33881       0.14099
Nuclear contribution   :     -3.51482       8.06733      -0.16055
                        -----------------------------------------
Total Dipole Moment    :     -0.40540       0.72852      -0.01957
                        -----------------------------------------
Magnitude (a.u.)       :      0.83395
Magnitude (Debye)      :      2.11973

                             ****ORCA TERMINATED NORMALLY****
TOTAL RUN TIME: 0 days 0 hours 18 minutes 10 seconds 84 msec
