                         Program Version 3.0.3 - RELEASE   -
|  1> ! RI-MP2 RIJK def2-TZVP def2-TZVP/C def2-TZVP/JK TIGHTSCF
|  2> % maxcore 2000
|  3> % mp2 density relaxed end
|  4> *xyz 0 1
|  5>  C       -0.1081123396     1.5310276913     0.0537417902
|  6>  C        0.0000884404     0.0227372313     0.0608552453
|  7>  O       -1.1848587474    -0.6261126387    -0.3331222659
|  8>  C        1.3059766794    -0.6529727596    -0.2852689282
|  9>  C        0.7636938296    -0.7106609920     1.1326210485
| 10>  C        1.4782913528     0.0279465143     2.2796519144
| 11>  C        1.4460091482    -0.9720634524     3.4088644135
| 12>  C        0.7724760320    -2.0756503332     3.0927610621
| 13>  C        0.2214272716    -2.0400543196     1.6906421303
| 14>  H        0.8238185640     2.0064791136     0.3703112958
| 15>  H       -0.3356782253     1.8930438507    -0.9567183354
| 16>  H       -0.9122449574     1.8656061059     0.7176817458
| 17>  H       -1.3113627093    -0.4638282300    -1.2744085311
| 18>  H        1.2524272781    -1.5633613664    -0.8746988116
| 19>  H        2.1766218781    -0.0321084334    -0.4789096103
| 20>  H        2.5037183666     0.3163294526     2.0115172378
| 21>  H        0.9659299005     0.9580613611     2.5633324435
| 22>  H        1.9145126813    -0.7749629257     4.3669907742
| 23>  H        0.6089178614    -2.9184742108     3.7557687692
| 24>  H       -0.8749356702    -2.0662780600     1.6796384102
| 25>  H        0.5489148352    -2.9025761188     1.0961622418
| 26> *
| 27>
| 28>                          ****END OF INPUT****

CARTESIAN COORDINATES (ANGSTROEM)
---------------------------------
  C     -0.108112    1.531028    0.053742
  C      0.000088    0.022737    0.060855
  O     -1.184859   -0.626113   -0.333122
  C      1.305977   -0.652973   -0.285269
  C      0.763694   -0.710661    1.132621
  C      1.478291    0.027947    2.279652
  C      1.446009   -0.972063    3.408864
  C      0.772476   -2.075650    3.092761
  C      0.221427   -2.040054    1.690642
  H      0.823819    2.006479    0.370311
  H     -0.335678    1.893044   -0.956718
  H     -0.912245    1.865606    0.717682
  H     -1.311363   -0.463828   -1.274409
  H      1.252427   -1.563361   -0.874699
  H      2.176622   -0.032108   -0.478910
  H      2.503718    0.316329    2.011517
  H      0.965930    0.958061    2.563332
  H      1.914513   -0.774963    4.366991
  H      0.608918   -2.918474    3.755769
  H     -0.874936   -2.066278    1.679638
  H      0.548915   -2.902576    1.096162

 Total Charge           Charge          ....    0
 Multiplicity           Mult            ....    1
 Number of Electrons    NEL             ....   68
 Basis Dimension        Dim             ....  351

ORBITAL ENERGIES
----------------

  NO   OCC          E(Eh)            E(eV)
   0   2.0000     -20.557386      -559.3949
   1   2.0000     -11.282683      -307.0174
   2   2.0000     -11.231540      -305.6257
   3   2.0000     -11.223325      -305.4022
   4   2.0000     -11.219650      -305.3022
   5   2.0000     -11.218272      -305.2647
   6   2.0000     -11.216834      -305.2256
   7   2.0000     -11.216597      -305.2191
   8   2.0000     -11.215911      -305.2005
   9   2.0000      -1.368656       -37.2430
  10   2.0000      -1.156417       -31.4677
  11   2.0000      -1.081811       -29.4376
  12   2.0000      -0.972912       -26.4743
  13   2.0000      -0.953974       -25.9589
  14   2.0000      -0.898918       -24.4608
  15   2.0000      -0.802052       -21.8249
  16   2.0000      -0.734660       -19.9911
  17   2.0000      -0.724312       -19.7095
  18   2.0000      -0.677241       -18.4287
  19   2.0000      -0.660172       -17.9642
  20   2.0000      -0.620794       -16.8927
  21   2.0000      -0.608069       -16.5464
  22   2.0000      -0.587205       -15.9787
  23   2.0000      -0.562934       -15.3182
  24   2.0000      -0.546162       -14.8618
  25   2.0000      -0.534964       -14.5571
  26   2.0000      -0.528455       -14.3800
  27   2.0000      -0.522163       -14.2088
  28   2.0000      -0.494099       -13.4451
  29   2.0000      -0.478464       -13.0197
  30   2.0000      -0.462833       -12.5943
  31   2.0000      -0.394815       -10.7435
  32   2.0000      -0.384539       -10.4638
  33   2.0000      -0.336858        -9.1664
  34   0.0000       0.130286         3.5453
  35   0.0000       0.153682         4.1819
  36   0.0000       0.168401         4.5824
  37   0.0000       0.170480         4.6390
  38   0.0000       0.179847         4.8939

MULLIKEN ATOMIC CHARGES
-----------------------
   0 C :   -0.425781
   1 C :    0.171806
   2 O :   -0.472097
   3 C :   -0.398429
   4 C :    0.151156
   5 C :   -0.186851
   6 C :   -0.177224
   7 C :   -0.180623
   8 C :   -0.192983
   9 H :    0.133771
  10 H :    0.120436
  11 H :    0.143514
  12 H :    0.317855
  13 H :    0.138258
  14 H :    0.120125
  15 H :    0.116351
  16 H :    0.121201
  17 H :    0.122900
  18 H :    0.123273
  19 H :    0.141992
  20 H :    0.111351
Sum of atomic charges:   -0.0000000

LOEWDIN ATOMIC CHARGES
----------------------
   0 C :   -0.276782
   1 C :   -0.356892
   2 O :    0.023074
   3 C :   -0.182620
   4 C :   -0.171274
   5 C :   -0.199090
   6 C :   -0.162542
   7 C :   -0.158734
   8 C :   -0.193849
   9 H :    0.130505
  10 H :    0.124451
  11 H :    0.129922
  12 H :    0.179542
  13 H :    0.136145
  14 H :    0.133281
  15 H :    0.140276
  16 H :    0.143649
  17 H :    0.135142
  18 H :    0.135813
  19 H :    0.148799
  20 H :    0.141185

  Mayer bond orders larger than 0.1
B(  0-C ,  1-C ) :   0.9348 B(  0-C ,  9-H ) :   0.9327 B(  0-C , 10-H ) :   0.9238
B(  0-C , 11-H ) :   0.9426 B(  1-C ,  2-O ) :   1.0172 B(  1-C ,  3-C ) :   0.9123
B(  1-C ,  4-C ) :   0.8176 B(  2-O ,  4-C ) :  -0.1431 B(  2-O , 12-H ) :   0.8402
B(  3-C ,  4-C ) :   0.8558 B(  3-C , 13-H ) :   0.9240 B(  3-C , 14-H ) :   0.9115
B(  4-C ,  5-C ) :   0.9096 B(  4-C ,  8-C ) :   0.9217 B(  5-C ,  6-C ) :   0.9500
B(  5-C , 15-H ) :   0.9092 B(  5-C , 16-H ) :   0.9152 B(  6-C ,  7-C ) :   1.8119
B(  6-C , 17-H ) :   0.9322 B(  7-C ,  8-C ) :   0.9420 B(  7-C , 18-H ) :   0.9304
B(  8-C , 19-H ) :   0.9087 B(  8-C , 20-H ) :   0.9123

MP2 TOTAL ENERGY:     -386.408857149 Eh
FINAL SINGLE POINT ENERGY      -386.408857149340

DIPOLE MOMENT
-------------
                                X             Y             Z
Electronic contribution:     -1.28611      -2.76682       0.59032
Nuclear contribution   :      1.52444       3.09206      -1.00066
                        -----------------------------------------
Total Dipole Moment    :      0.23833       0.32524      -0.41035
                        -----------------------------------------
Magnitude (a.u.)       :      0.57530
Magnitude (Debye)      :      1.46229

                             ****ORCA TERMINATED NORMALLY****
TOTAL RUN TIME: 0 days 0 hours 20 minutes 8 seconds 560 msec
