                         Program Version 3.0.3 - RELEASE   -
|  1> ! RI-MP2 RIJK def2-TZVP def2-TZVP/C def2-TZVP/JK TIGHTSCF
|  2> % maxcore 2000
|  3> % mp2 density relaxed end
|  4> *xyz 0 1
|  5>  C        0.5979037031     1.0187771781    -0.2626590261
|  6>  N       -0.3581322277    -0.0502258103    -0.0369046413
|  7>  C        0.0856990672    -1.0639906073     0.9036954138
|  8>  C       -1.7180152962     0.4351237242     0.1865103167
|  9>  C       -2.3067845133     0.4834523692    -1.2096286986
| 10>  O       -2.3634920543     1.4760616362    -1.9015243078
| 11>  C       -2.7558652326    -0.8908818704    -1.7636700492
| 12>  N       -3.0657786986    -0.8303978776    -3.0768717745
| 13>  O       -2.8318028041    -1.8788081985    -1.0565258118
| 14>  H        1.5510940450     0.5979338067    -0.5973893946
| 15>  H        0.2269401433     1.6886421819    -1.0437603608
| 16>  H        0.7873206314     1.6249480063     0.6433128885
| 17>  H        0.1826564008    -0.6863269919     1.9385347717
| 18>  H       -0.6217862656    -1.8968712738     0.8970978136
| 19>  H        1.0634741365    -1.4448859967     0.5920507152
| 20>  H       -2.2721299459    -0.2851452821     0.7892554430
| 21>  H       -1.7596346795     1.4259710363     0.6601088259
| 22>  H       -3.0117680248     0.0593113942    -3.5458410112
| 23>  H       -3.4141717549    -1.6458336045    -3.5509817825
| 24> *
| 25>
| 26>                          ****END OF INPUT****

CARTESIAN COORDINATES (ANGSTROEM)
---------------------------------
  C      0.597904    1.018777   -0.262659
  N     -0.358132   -0.050226   -0.036905
  C      0.085699   -1.063991    0.903695
  C     -1.718015    0.435124    0.186510
  C     -2.306785    0.483452   -1.209629
  O     -2.363492    1.476062   -1.901524
  C     -2.755865   -0.890882   -1.763670
  N     -3.065779   -0.830398   -3.076872
  O     -2.831803   -1.878808   -1.056526
  H      1.551094    0.597934   -0.597389
  H      0.226940    1.688642   -1.043760
  H      0.787321    1.624948    0.643313
  H      0.182656   -0.686327    1.938535
  H     -0.621786   -1.896871    0.897098
  H      1.063474   -1.444886    0.592051
  H     -2.272130   -0.285145    0.789255
  H     -1.759635    1.425971    0.660109
  H     -3.011768    0.059311   -3.545841
  H     -3.414172   -1.645834   -3.550982

 Total Charge           Charge          ....    0
 Multiplicity           Mult            ....    1
 Number of Electrons    NEL             ....   70
 Basis Dimension        Dim             ....  339

ORBITAL ENERGIES
----------------

  NO   OCC          E(Eh)            E(eV)
   0   2.0000     -20.576346      -559.9108
   1   2.0000     -20.537433      -558.8520
   2   2.0000     -15.591864      -424.2762
   3   2.0000     -15.560263      -423.4163
   4   2.0000     -11.365685      -309.2760
   5   2.0000     -11.350362      -308.8591
   6   2.0000     -11.267613      -306.6073
   7   2.0000     -11.248316      -306.0822
   8   2.0000     -11.246297      -306.0273
   9   2.0000      -1.422358       -38.7043
  10   2.0000      -1.391123       -37.8544
  11   2.0000      -1.238361       -33.6975
  12   2.0000      -1.223534       -33.2941
  13   2.0000      -1.013438       -27.5771
  14   2.0000      -0.958962       -26.0947
  15   2.0000      -0.899427       -24.4746
  16   2.0000      -0.825869       -22.4730
  17   2.0000      -0.770637       -20.9701
  18   2.0000      -0.737989       -20.0817
  19   2.0000      -0.692336       -18.8394
  20   2.0000      -0.663178       -18.0460
  21   2.0000      -0.650853       -17.7106
  22   2.0000      -0.645315       -17.5599
  23   2.0000      -0.615396       -16.7458
  24   2.0000      -0.593897       -16.1608
  25   2.0000      -0.592560       -16.1244
  26   2.0000      -0.555842       -15.1252
  27   2.0000      -0.541593       -14.7375
  28   2.0000      -0.527788       -14.3618
  29   2.0000      -0.522817       -14.2266
  30   2.0000      -0.509480       -13.8636
  31   2.0000      -0.494753       -13.4629
  32   2.0000      -0.425320       -11.5736
  33   2.0000      -0.415870       -11.3164
  34   2.0000      -0.359813        -9.7910
  35   0.0000       0.087795         2.3890
  36   0.0000       0.137427         3.7396
  37   0.0000       0.144588         3.9344
  38   0.0000       0.180850         4.9212
  39   0.0000       0.187354         5.0982

MULLIKEN ATOMIC CHARGES
-----------------------
   0 C :   -0.328390
   1 N :   -0.202383
   2 C :   -0.329789
   3 C :   -0.100291
   4 C :    0.216734
   5 O :   -0.303816
   6 C :    0.225123
   7 N :   -0.449592
   8 O :   -0.352239
   9 H :    0.133989
  10 H :    0.152773
  11 H :    0.110755
  12 H :    0.110653
  13 H :    0.164140
  14 H :    0.129242
  15 H :    0.160387
  16 H :    0.118476
  17 H :    0.282727
  18 H :    0.261501
Sum of atomic charges:   -0.0000000

LOEWDIN ATOMIC CHARGES
----------------------
   0 C :   -0.325081
   1 N :    0.054194
   2 C :   -0.325189
   3 C :   -0.249892
   4 C :   -0.284201
   5 O :    0.152373
   6 C :   -0.461852
   7 N :    0.010984
   8 O :    0.092356
   9 H :    0.118771
  10 H :    0.123541
  11 H :    0.104187
  12 H :    0.103351
  13 H :    0.124715
  14 H :    0.118716
  15 H :    0.152344
  16 H :    0.133084
  17 H :    0.182211
  18 H :    0.175387

  Mayer bond orders larger than 0.1
B(  0-C ,  1-N ) :   0.9180 B(  0-C ,  9-H ) :   0.9377 B(  0-C , 10-H ) :   0.9291
B(  0-C , 11-H ) :   0.9308 B(  1-N ,  2-C ) :   0.9136 B(  1-N ,  3-C ) :   0.8400
B(  2-C , 12-H ) :   0.9284 B(  2-C , 13-H ) :   0.9317 B(  2-C , 14-H ) :   0.9377
B(  3-C ,  4-C ) :   0.9086 B(  3-C , 15-H ) :   0.9127 B(  3-C , 16-H ) :   0.9027
B(  4-C ,  5-O ) :   1.8958 B(  4-C ,  6-C ) :   0.8714 B(  6-C ,  7-N ) :   1.2113
B(  6-C ,  8-O ) :   1.9090 B(  7-N , 17-H ) :   0.8466 B(  7-N , 18-H ) :   0.8579

MP2 TOTAL ENERGY:     -455.635303322 Eh
FINAL SINGLE POINT ENERGY      -455.635303322290

DIPOLE MOMENT
-------------
                                X             Y             Z
Electronic contribution:     -8.22051      -0.70833      -5.87217
Nuclear contribution   :      8.40763       0.87748       5.60500
                        -----------------------------------------
Total Dipole Moment    :      0.18713       0.16915      -0.26717
                        -----------------------------------------
Magnitude (a.u.)       :      0.36743
Magnitude (Debye)      :      0.93394

                             ****ORCA TERMINATED NORMALLY****
TOTAL RUN TIME: 0 days 0 hours 18 minutes 36 seconds 127 msec
