                         Program Version 3.0.3 - RELEASE   -
|  1> ! RI-MP2 RIJK def2-TZVP def2-TZVP/C def2-TZVP/JK TIGHTSCF
|  2> % maxcore 2000
|  3> % mp2 density relaxed end
|  4> *xyz 0 1
|  5>  N        0.5703202441     0.1791976999     0.8619510928
|  6>  C       -0.1202140795     0.4532612118    -0.2761614685
|  7>  O        0.1696133006     1.3475201296    -1.0466488450
|  8>  C       -1.3553806901    -0.4330112466    -0.4908517209
|  9>  C       -1.6970707984    -0.6982354424    -1.9405710981
| 10>  C       -1.9253026751    -1.9969086643    -2.1282240617
| 11>  C       -1.6677648470    -2.7541708559    -0.8682370812
| 12>  C       -0.2603946976    -2.6743284063    -0.3851948057
| 13>  N       -1.2799784061    -1.7624470467     0.1665853880
| 14>  H        1.3542551573     0.7616961479     1.1053671244
| 15>  H        0.2694183097    -0.5523728785     1.4832542042
| 16>  H       -2.1796139144     0.1181130868    -0.0096447255
| 17>  H       -1.7199591249     0.0897402605    -2.6803706685
| 18>  H       -2.2142243395    -2.4738156820    -3.0562693400
| 19>  H       -2.3167495417    -3.5707799744    -0.5642773975
| 20>  H        0.1148153511    -3.3953146153     0.3361634089
| 21>  H        0.4770867715    -2.2831825841    -1.0811494956
| 22> *
| 23>
| 24>                          ****END OF INPUT****

CARTESIAN COORDINATES (ANGSTROEM)
---------------------------------
  N      0.570320    0.179198    0.861951
  C     -0.120214    0.453261   -0.276161
  O      0.169613    1.347520   -1.046649
  C     -1.355381   -0.433011   -0.490852
  C     -1.697071   -0.698235   -1.940571
  C     -1.925303   -1.996909   -2.128224
  C     -1.667765   -2.754171   -0.868237
  C     -0.260395   -2.674328   -0.385195
  N     -1.279978   -1.762447    0.166585
  H      1.354255    0.761696    1.105367
  H      0.269418   -0.552373    1.483254
  H     -2.179614    0.118113   -0.009645
  H     -1.719959    0.089740   -2.680371
  H     -2.214224   -2.473816   -3.056269
  H     -2.316750   -3.570780   -0.564277
  H      0.114815   -3.395315    0.336163
  H      0.477087   -2.283183   -1.081149

 Total Charge           Charge          ....    0
 Multiplicity           Mult            ....    1
 Number of Electrons    NEL             ....   66
 Basis Dimension        Dim             ....  327

ORBITAL ENERGIES
----------------

  NO   OCC          E(Eh)            E(eV)
   0   2.0000     -20.518257      -558.3302
   1   2.0000     -15.581292      -423.9885
   2   2.0000     -15.576043      -423.8457
   3   2.0000     -11.352423      -308.9151
   4   2.0000     -11.279657      -306.9351
   5   2.0000     -11.275159      -306.8127
   6   2.0000     -11.267188      -306.5958
   7   2.0000     -11.240995      -305.8830
   8   2.0000     -11.238060      -305.8031
   9   2.0000      -1.383594       -37.6495
  10   2.0000      -1.299777       -35.3687
  11   2.0000      -1.210897       -32.9502
  12   2.0000      -1.074870       -29.2487
  13   2.0000      -1.018390       -27.7118
  14   2.0000      -0.870950       -23.6998
  15   2.0000      -0.849089       -23.1049
  16   2.0000      -0.786511       -21.4021
  17   2.0000      -0.760355       -20.6903
  18   2.0000      -0.729252       -19.8439
  19   2.0000      -0.701988       -19.1021
  20   2.0000      -0.667736       -18.1700
  21   2.0000      -0.626243       -17.0409
  22   2.0000      -0.622752       -16.9459
  23   2.0000      -0.593172       -16.1410
  24   2.0000      -0.564403       -15.3582
  25   2.0000      -0.535245       -14.5648
  26   2.0000      -0.515936       -14.0393
  27   2.0000      -0.498958       -13.5773
  28   2.0000      -0.486461       -13.2373
  29   2.0000      -0.422962       -11.5094
  30   2.0000      -0.418830       -11.3969
  31   2.0000      -0.411379       -11.1942
  32   2.0000      -0.347079        -9.4445
  33   0.0000       0.136395         3.7115
  34   0.0000       0.137031         3.7288
  35   0.0000       0.163347         4.4449
  36   0.0000       0.169730         4.6186
  37   0.0000       0.178697         4.8626

MULLIKEN ATOMIC CHARGES
-----------------------
   0 N :   -0.464926
   1 C :    0.209340
   2 O :   -0.343966
   3 C :    0.110244
   4 C :   -0.237226
   5 C :   -0.165877
   6 C :   -0.005087
   7 C :   -0.185386
   8 N :   -0.287763
   9 H :    0.256559
  10 H :    0.278003
  11 H :    0.127523
  12 H :    0.150484
  13 H :    0.138302
  14 H :    0.138106
  15 H :    0.134341
  16 H :    0.147329
Sum of atomic charges:    0.0000000

LOEWDIN ATOMIC CHARGES
----------------------
   0 N :   -0.001967
   1 C :   -0.462794
   2 O :    0.086577
   3 C :   -0.226932
   4 C :   -0.122122
   5 C :   -0.143965
   6 C :   -0.222678
   7 C :   -0.238662
   8 N :    0.119715
   9 H :    0.173222
  10 H :    0.177952
  11 H :    0.168530
  12 H :    0.147887
  13 H :    0.143000
  14 H :    0.141621
  15 H :    0.126094
  16 H :    0.134521

  Mayer bond orders larger than 0.1
B(  0-N ,  1-C ) :   1.1843 B(  0-N ,  9-H ) :   0.8587 B(  0-N , 10-H ) :   0.8542
B(  1-C ,  2-O ) :   2.0049 B(  1-C ,  3-C ) :   0.8926 B(  3-C ,  4-C ) :   0.9551
B(  3-C ,  8-N ) :   0.9059 B(  3-C , 11-H ) :   0.8781 B(  4-C ,  5-C ) :   1.7757
B(  4-C , 12-H ) :   0.9156 B(  5-C ,  6-C ) :   0.9624 B(  5-C , 13-H ) :   0.9252
B(  6-C ,  7-C ) :   0.9054 B(  6-C ,  8-N ) :   0.9307 B(  6-C , 14-H ) :   0.9097
B(  7-C ,  8-N ) :   0.8302 B(  7-C , 15-H ) :   0.9280 B(  7-C , 16-H ) :   0.9099

MP2 TOTAL ENERGY:     -417.309451685 Eh
FINAL SINGLE POINT ENERGY      -417.309451684993

DIPOLE MOMENT
-------------
                                X             Y             Z
Electronic contribution:     -0.05509       2.99854      -0.13690
Nuclear contribution   :      0.10594      -3.96232       0.65141
                        -----------------------------------------
Total Dipole Moment    :      0.05085      -0.96378       0.51450
                        -----------------------------------------
Magnitude (a.u.)       :      1.09370
Magnitude (Debye)      :      2.77995

                             ****ORCA TERMINATED NORMALLY****
TOTAL RUN TIME: 0 days 0 hours 17 minutes 42 seconds 682 msec
