                         Program Version 3.0.3 - RELEASE   -
|  1> ! RI-MP2 RIJK def2-TZVP def2-TZVP/C def2-TZVP/JK TIGHTSCF
|  2> % maxcore 2000
|  3> % mp2 density relaxed end
|  4> *xyz 0 1
|  5>  C       -0.0602323078     1.4258555215    -0.1095772676
|  6>  N        0.0383250735    -0.0155844678    -0.0196738537
|  7>  C       -1.0375725394    -0.6658036006     0.0166970456
|  8>  O       -1.0321191930    -2.0073028722     0.1411458565
|  9>  C       -2.2947070685    -2.6844077637    -0.0079325028
| 10>  C       -2.5957550803    -2.9061601608    -1.4882315871
| 11>  C       -2.1887974782    -3.9873466278     0.7793863584
| 12>  C       -1.9920382065    -3.7811056887     2.2838956639
| 13>  O       -1.9572754006    -5.0078603023     2.9965796420
| 14>  H        0.4743592083     1.7767305686    -0.9997819002
| 15>  H       -1.0952826267     1.8036368779    -0.1572362794
| 16>  H        0.4312482800     1.8846690101     0.7562030924
| 17>  H       -2.0433975812    -0.2159018879    -0.0266549562
| 18>  H       -3.0806011441    -2.0547380584     0.4369128759
| 19>  H       -3.5544520905    -3.4189199079    -1.6124983875
| 20>  H       -2.6463197892    -1.9536883214    -2.0244160483
| 21>  H       -1.8113799326    -3.5148398550    -1.9479075034
| 22>  H       -3.0981523483    -4.5765202671     0.6184007653
| 23>  H       -1.3507466572    -4.5696984799     0.3739688720
| 24>  H       -1.0900399572    -3.1811941685     2.4639146307
| 25>  H       -2.8418053836    -3.2244677563     2.6965184982
| 26>  H       -1.1400910569    -5.4594576319     2.7634275354
| 27> *
| 28>
| 29>                          ****END OF INPUT****

CARTESIAN COORDINATES (ANGSTROEM)
---------------------------------
  C     -0.060232    1.425856   -0.109577
  N      0.038325   -0.015584   -0.019674
  C     -1.037573   -0.665804    0.016697
  O     -1.032119   -2.007303    0.141146
  C     -2.294707   -2.684408   -0.007933
  C     -2.595755   -2.906160   -1.488232
  C     -2.188797   -3.987347    0.779386
  C     -1.992038   -3.781106    2.283896
  O     -1.957275   -5.007860    2.996580
  H      0.474359    1.776731   -0.999782
  H     -1.095283    1.803637   -0.157236
  H      0.431248    1.884669    0.756203
  H     -2.043398   -0.215902   -0.026655
  H     -3.080601   -2.054738    0.436913
  H     -3.554452   -3.418920   -1.612498
  H     -2.646320   -1.953688   -2.024416
  H     -1.811380   -3.514840   -1.947908
  H     -3.098152   -4.576520    0.618401
  H     -1.350747   -4.569698    0.373969
  H     -1.090040   -3.181194    2.463915
  H     -2.841805   -3.224468    2.696518
  H     -1.140091   -5.459458    2.763428

 Total Charge           Charge          ....    0
 Multiplicity           Mult            ....    1
 Number of Electrons    NEL             ....   72
 Basis Dimension        Dim             ....  357

ORBITAL ENERGIES
----------------

  NO   OCC          E(Eh)            E(eV)
   0   2.0000     -20.586958      -560.1996
   1   2.0000     -20.555650      -559.3477
   2   2.0000     -15.542111      -422.9223
   3   2.0000     -11.329484      -308.2909
   4   2.0000     -11.304359      -307.6072
   5   2.0000     -11.275493      -306.8218
   6   2.0000     -11.247023      -306.0470
   7   2.0000     -11.231037      -305.6120
   8   2.0000     -11.230752      -305.6043
   9   2.0000      -1.423479       -38.7348
  10   2.0000      -1.359613       -36.9970
  11   2.0000      -1.219409       -33.1818
  12   2.0000      -1.080101       -29.3910
  13   2.0000      -0.989680       -26.9306
  14   2.0000      -0.945469       -25.7275
  15   2.0000      -0.873886       -23.7796
  16   2.0000      -0.818656       -22.2768
  17   2.0000      -0.809067       -22.0158
  18   2.0000      -0.710789       -19.3415
  19   2.0000      -0.692012       -18.8306
  20   2.0000      -0.660009       -17.9598
  21   2.0000      -0.644528       -17.5385
  22   2.0000      -0.620037       -16.8721
  23   2.0000      -0.610169       -16.6035
  24   2.0000      -0.584401       -15.9024
  25   2.0000      -0.575789       -15.6680
  26   2.0000      -0.564527       -15.3616
  27   2.0000      -0.546342       -14.8667
  28   2.0000      -0.538588       -14.6557
  29   2.0000      -0.530522       -14.4362
  30   2.0000      -0.511148       -13.9091
  31   2.0000      -0.487943       -13.2776
  32   2.0000      -0.480507       -13.0753
  33   2.0000      -0.439713       -11.9652
  34   2.0000      -0.411925       -11.2090
  35   2.0000      -0.378963       -10.3121
  36   0.0000       0.133090         3.6216
  37   0.0000       0.138730         3.7750
  38   0.0000       0.145907         3.9703
  39   0.0000       0.157625         4.2892
  40   0.0000       0.173168         4.7121

MULLIKEN ATOMIC CHARGES
-----------------------
   0 C :   -0.248674
   1 N :   -0.195341
   2 C :    0.057919
   3 O :   -0.223433
   4 C :   -0.002210
   5 C :   -0.367476
   6 C :   -0.204845
   7 C :   -0.045340
   8 O :   -0.472721
   9 H :    0.135715
  10 H :    0.089467
  11 H :    0.135814
  12 H :    0.058294
  13 H :    0.092907
  14 H :    0.135389
  15 H :    0.134725
  16 H :    0.139294
  17 H :    0.120961
  18 H :    0.108152
  19 H :    0.132785
  20 H :    0.102783
  21 H :    0.315835
Sum of atomic charges:    0.0000000

LOEWDIN ATOMIC CHARGES
----------------------
   0 C :   -0.340105
   1 N :    0.057776
   2 C :   -0.373749
   3 O :    0.259894
   4 C :   -0.330188
   5 C :   -0.290320
   6 C :   -0.261347
   7 C :   -0.346221
   8 O :   -0.051591
   9 H :    0.116911
  10 H :    0.100114
  11 H :    0.117115
  12 H :    0.106957
  13 H :    0.139057
  14 H :    0.128756
  15 H :    0.125282
  16 H :    0.130667
  17 H :    0.146253
  18 H :    0.141987
  19 H :    0.121649
  20 H :    0.127310
  21 H :    0.173794

  Mayer bond orders larger than 0.1
B(  0-C ,  1-N ) :   0.8846 B(  0-C ,  9-H ) :   0.9324 B(  0-C , 10-H ) :   0.9266
B(  0-C , 11-H ) :   0.9319 B(  1-N ,  2-C ) :   1.8881 B(  2-C ,  3-O ) :   1.0623
B(  2-C , 12-H ) :   0.9203 B(  3-O ,  4-C ) :   0.8517 B(  4-C ,  5-C ) :   0.9273
B(  4-C ,  6-C ) :   0.9188 B(  4-C , 13-H ) :   0.9344 B(  5-C , 14-H ) :   0.9333
B(  5-C , 15-H ) :   0.9302 B(  5-C , 16-H ) :   0.9324 B(  6-C ,  7-C ) :   0.9231
B(  6-C , 17-H ) :   0.9177 B(  6-C , 18-H ) :   0.9183 B(  7-C ,  8-O ) :   0.9281
B(  7-C , 19-H ) :   0.9443 B(  7-C , 20-H ) :   0.9209 B(  8-O , 21-H ) :   0.8481

MP2 TOTAL ENERGY:     -440.755290138 Eh
FINAL SINGLE POINT ENERGY      -440.755290138006

DIPOLE MOMENT
-------------
                                X             Y             Z
Electronic contribution:      2.80939      -1.71610       2.87361
Nuclear contribution   :     -3.53222       1.94881      -3.43973
                        -----------------------------------------
Total Dipole Moment    :     -0.72283       0.23270      -0.56612
                        -----------------------------------------
Magnitude (a.u.)       :      0.94717
Magnitude (Debye)      :      2.40751

                             ****ORCA TERMINATED NORMALLY****
TOTAL RUN TIME: 0 days 0 hours 15 minutes 47 seconds 422 msec
