                         Program Version 3.0.3 - RELEASE   -
|  1> ! RI-MP2 RIJK def2-TZVP def2-TZVP/C def2-TZVP/JK TIGHTSCF
|  2> % maxcore 2000
|  3> % mp2 density relaxed end
|  4> *xyz 0 1
|  5>  O       -0.6556165298     0.9692428785    -0.6156631603
|  6>  C        0.1234607610     1.0813838294     0.2970745140
|  7>  C        1.4037001241     1.8740588350     0.2386146844
|  8>  C        1.6051963156     2.9102815884    -0.8892437838
|  9>  C        1.9435565949     3.9250866839     0.2307446803
| 10>  C        0.8157212815     4.8654897656     0.6944338032
| 11>  C        0.3518811580     3.7101629194     1.6194829229
| 12>  N        1.5958122666     2.9102005905     1.3164247598
| 13>  H       -0.0578588022     0.5842560095     1.2778074025
| 14>  H        2.2240914167     1.1447053433     0.3094705757
| 15>  H        2.4048627433     2.6917798607    -1.5988784472
| 16>  H        0.6897706930     3.1278017717    -1.4455202295
| 17>  H        2.9654611687     4.3132152264     0.2312608279
| 18>  H        1.1752583682     5.7416166365     1.2383486698
| 19>  H        0.1137206648     5.1933936622    -0.0759693012
| 20>  H        0.2759470927     3.9506140927     2.6830354476
| 21>  H       -0.5849396772     3.2322460562     1.3119164839
| 22> *
| 23>
| 24>                          ****END OF INPUT****

CARTESIAN COORDINATES (ANGSTROEM)
---------------------------------
  O     -0.655617    0.969243   -0.615663
  C      0.123461    1.081384    0.297075
  C      1.403700    1.874059    0.238615
  C      1.605196    2.910282   -0.889244
  C      1.943557    3.925087    0.230745
  C      0.815721    4.865490    0.694434
  C      0.351881    3.710163    1.619483
  N      1.595812    2.910201    1.316425
  H     -0.057859    0.584256    1.277807
  H      2.224091    1.144705    0.309471
  H      2.404863    2.691780   -1.598878
  H      0.689771    3.127802   -1.445520
  H      2.965461    4.313215    0.231261
  H      1.175258    5.741617    1.238349
  H      0.113721    5.193394   -0.075969
  H      0.275947    3.950614    2.683035
  H     -0.584940    3.232246    1.311916

 Total Charge           Charge          ....    0
 Multiplicity           Mult            ....    1
 Number of Electrons    NEL             ....   60
 Basis Dimension        Dim             ....  302

ORBITAL ENERGIES
----------------

  NO   OCC          E(Eh)            E(eV)
   0   2.0000     -20.563459      -559.5602
   1   2.0000     -15.555471      -423.2859
   2   2.0000     -11.334920      -308.4388
   3   2.0000     -11.272661      -306.7447
   4   2.0000     -11.266857      -306.5868
   5   2.0000     -11.260550      -306.4152
   6   2.0000     -11.233094      -305.6680
   7   2.0000     -11.232804      -305.6601
   8   2.0000      -1.401543       -38.1379
   9   2.0000      -1.268968       -34.5304
  10   2.0000      -1.051960       -28.6253
  11   2.0000      -0.986993       -26.8575
  12   2.0000      -0.931029       -25.3346
  13   2.0000      -0.862821       -23.4785
  14   2.0000      -0.788478       -21.4556
  15   2.0000      -0.722336       -19.6558
  16   2.0000      -0.695175       -18.9167
  17   2.0000      -0.677891       -18.4464
  18   2.0000      -0.651297       -17.7227
  19   2.0000      -0.635462       -17.2918
  20   2.0000      -0.595607       -16.2073
  21   2.0000      -0.560924       -15.2635
  22   2.0000      -0.539664       -14.6850
  23   2.0000      -0.517252       -14.0752
  24   2.0000      -0.515533       -14.0284
  25   2.0000      -0.496669       -13.5151
  26   2.0000      -0.461705       -12.5636
  27   2.0000      -0.442551       -12.0424
  28   2.0000      -0.413249       -11.2451
  29   2.0000      -0.369527       -10.0553
  30   0.0000       0.126164         3.4331
  31   0.0000       0.141330         3.8458
  32   0.0000       0.152470         4.1489
  33   0.0000       0.163053         4.4369
  34   0.0000       0.173280         4.7152

MULLIKEN ATOMIC CHARGES
-----------------------
   0 O :   -0.261487
   1 C :    0.050139
   2 C :    0.021777
   3 C :   -0.263103
   4 C :   -0.001721
   5 C :   -0.273861
   6 C :   -0.153293
   7 N :   -0.188911
   8 H :    0.095234
   9 H :    0.119743
  10 H :    0.129650
  11 H :    0.131004
  12 H :    0.111391
  13 H :    0.127732
  14 H :    0.118654
  15 H :    0.122830
  16 H :    0.114224
Sum of atomic charges:   -0.0000000

LOEWDIN ATOMIC CHARGES
----------------------
   0 O :    0.139042
   1 C :   -0.285765
   2 C :   -0.262795
   3 C :   -0.199171
   4 C :   -0.209145
   5 C :   -0.231894
   6 C :   -0.244834
   7 N :    0.103645
   8 H :    0.117102
   9 H :    0.157891
  10 H :    0.131824
  11 H :    0.140886
  12 H :    0.130253
  13 H :    0.134038
  14 H :    0.130203
  15 H :    0.123074
  16 H :    0.125647

  Mayer bond orders larger than 0.1
B(  0-O ,  1-C ) :   1.9986 B(  1-C ,  2-C ) :   0.8761 B(  1-C ,  8-H ) :   0.9424
B(  2-C ,  3-C ) :   0.9373 B(  2-C ,  7-N ) :   0.9255 B(  2-C ,  9-H ) :   0.8886
B(  3-C ,  4-C ) :   0.9488 B(  3-C , 10-H ) :   0.9235 B(  3-C , 11-H ) :   0.9100
B(  4-C ,  5-C ) :   0.9497 B(  4-C ,  7-N ) :   0.9237 B(  4-C , 12-H ) :   0.9024
B(  5-C ,  6-C ) :   0.9669 B(  5-C , 13-H ) :   0.9238 B(  5-C , 14-H ) :   0.9163
B(  6-C ,  7-N ) :   0.8942 B(  6-C , 15-H ) :   0.9220 B(  6-C , 16-H ) :   0.9162

MP2 TOTAL ENERGY:     -363.191954735 Eh
FINAL SINGLE POINT ENERGY      -363.191954735245

DIPOLE MOMENT
-------------
                                X             Y             Z
Electronic contribution:     -0.94789      -4.28327      -0.60100
Nuclear contribution   :      1.31539       4.77096       0.72655
                        -----------------------------------------
Total Dipole Moment    :      0.36750       0.48770       0.12556
                        -----------------------------------------
Magnitude (a.u.)       :      0.62343
Magnitude (Debye)      :      1.58464

                             ****ORCA TERMINATED NORMALLY****
TOTAL RUN TIME: 0 days 0 hours 12 minutes 52 seconds 451 msec
