                         Program Version 3.0.3 - RELEASE   -
|  1> ! RI-MP2 RIJK def2-TZVP def2-TZVP/C def2-TZVP/JK TIGHTSCF
|  2> % maxcore 2000
|  3> % mp2 density relaxed end
|  4> *xyz 0 1
|  5>  C       -2.7110248613     1.8434879315    -3.1580115774
|  6>  C       -2.0597167721     1.1836358790    -1.9574150677
|  7>  O       -2.7458010272    -0.0575029413    -1.7178595179
|  8>  C       -2.3168256598    -0.7938225594    -0.6727694744
|  9>  N       -1.3621145718    -0.3903820351     0.0651709375
| 10>  C       -3.0760251489    -2.0707284390    -0.4950759828
| 11>  C       -4.4125474466    -2.2912340352    -1.1335831811
| 12>  N       -3.2694079662    -3.0782329807    -1.5483039107
| 13>  C       -2.7198425788    -2.8778766718    -2.8849298244
| 14>  H       -2.2229194836     2.8007914213    -3.3638214484
| 15>  H       -2.6231638637     1.2156319162    -4.0495458254
| 16>  H       -3.7725220655     2.0318140693    -2.9730683400
| 17>  H       -0.9974619298     0.9777293916    -2.1237066554
| 18>  H       -2.1296272304     1.8038550443    -1.0583280644
| 19>  H       -1.1671473624    -1.0701156182     0.7971821105
| 20>  H       -2.8856218942    -2.5155158204     0.4793054364
| 21>  H       -5.1875549520    -2.8210709901    -0.5849557646
| 22>  H       -4.7641300026    -1.5024583317    -1.7947031075
| 23>  H       -2.8196788874    -1.8552102210    -3.2668851386
| 24>  H       -1.6588170550    -3.1470418494    -2.8760607044
| 25>  H       -3.2354188607    -3.5621255999    -3.5661132891
| 26> *
| 27>
| 28>                          ****END OF INPUT****

CARTESIAN COORDINATES (ANGSTROEM)
---------------------------------
  C     -2.711025    1.843488   -3.158012
  C     -2.059717    1.183636   -1.957415
  O     -2.745801   -0.057503   -1.717860
  C     -2.316826   -0.793823   -0.672769
  N     -1.362115   -0.390382    0.065171
  C     -3.076025   -2.070728   -0.495076
  C     -4.412547   -2.291234   -1.133583
  N     -3.269408   -3.078233   -1.548304
  C     -2.719843   -2.877877   -2.884930
  H     -2.222919    2.800791   -3.363821
  H     -2.623164    1.215632   -4.049546
  H     -3.772522    2.031814   -2.973068
  H     -0.997462    0.977729   -2.123707
  H     -2.129627    1.803855   -1.058328
  H     -1.167147   -1.070116    0.797182
  H     -2.885622   -2.515516    0.479305
  H     -5.187555   -2.821071   -0.584956
  H     -4.764130   -1.502458   -1.794703
  H     -2.819679   -1.855210   -3.266885
  H     -1.658817   -3.147042   -2.876061
  H     -3.235419   -3.562126   -3.566113

 Total Charge           Charge          ....    0
 Multiplicity           Mult            ....    1
 Number of Electrons    NEL             ....   70
 Basis Dimension        Dim             ....  351

ORBITAL ENERGIES
----------------

  NO   OCC          E(Eh)            E(eV)
   0   2.0000     -20.588852      -560.2512
   1   2.0000     -15.569743      -423.6742
   2   2.0000     -15.534350      -422.7112
   3   2.0000     -11.340693      -308.5959
   4   2.0000     -11.281251      -306.9784
   5   2.0000     -11.273167      -306.7585
   6   2.0000     -11.261657      -306.4453
   7   2.0000     -11.245182      -305.9970
   8   2.0000     -11.222498      -305.3797
   9   2.0000      -1.426894       -38.8278
  10   2.0000      -1.279682       -34.8219
  11   2.0000      -1.192859       -32.4593
  12   2.0000      -1.035242       -28.1704
  13   2.0000      -1.001201       -27.2441
  14   2.0000      -0.908894       -24.7323
  15   2.0000      -0.849021       -23.1030
  16   2.0000      -0.823608       -22.4115
  17   2.0000      -0.779910       -21.2224
  18   2.0000      -0.704591       -19.1729
  19   2.0000      -0.675822       -18.3900
  20   2.0000      -0.668912       -18.2020
  21   2.0000      -0.654094       -17.7988
  22   2.0000      -0.598703       -16.2915
  23   2.0000      -0.583740       -15.8844
  24   2.0000      -0.573171       -15.5968
  25   2.0000      -0.561788       -15.2870
  26   2.0000      -0.548217       -14.9177
  27   2.0000      -0.537497       -14.6260
  28   2.0000      -0.504567       -13.7300
  29   2.0000      -0.497636       -13.5414
  30   2.0000      -0.484224       -13.1764
  31   2.0000      -0.459225       -12.4961
  32   2.0000      -0.425542       -11.5796
  33   2.0000      -0.406861       -11.0713
  34   2.0000      -0.370977       -10.0948
  35   0.0000       0.133968         3.6455
  36   0.0000       0.152097         4.1388
  37   0.0000       0.163644         4.4530
  38   0.0000       0.171566         4.6685
  39   0.0000       0.177480         4.8295

MULLIKEN ATOMIC CHARGES
-----------------------
   0 C :   -0.364905
   1 C :   -0.055700
   2 O :   -0.264217
   3 C :    0.185883
   4 N :   -0.398168
   5 C :   -0.087483
   6 C :   -0.157205
   7 N :   -0.208518
   8 C :   -0.305008
   9 H :    0.133510
  10 H :    0.130188
  11 H :    0.130620
  12 H :    0.118416
  13 H :    0.124797
  14 H :    0.217556
  15 H :    0.124668
  16 H :    0.129470
  17 H :    0.137910
  18 H :    0.132157
  19 H :    0.135419
  20 H :    0.140609
Sum of atomic charges:   -0.0000000

LOEWDIN ATOMIC CHARGES
----------------------
   0 C :   -0.318105
   1 C :   -0.309309
   2 O :    0.250451
   3 C :   -0.413490
   4 N :   -0.062891
   5 C :   -0.230729
   6 C :   -0.236829
   7 N :    0.097541
   8 C :   -0.327921
   9 H :    0.128228
  10 H :    0.122795
  11 H :    0.124162
  12 H :    0.128396
  13 H :    0.129646
  14 H :    0.166279
  15 H :    0.148764
  16 H :    0.125006
  17 H :    0.129810
  18 H :    0.109249
  19 H :    0.119644
  20 H :    0.119303

  Mayer bond orders larger than 0.1
B(  0-C ,  1-C ) :   0.9320 B(  0-C ,  9-H ) :   0.9369 B(  0-C , 10-H ) :   0.9344
B(  0-C , 11-H ) :   0.9335 B(  1-C ,  2-O ) :   0.8363 B(  1-C , 12-H ) :   0.9317
B(  1-C , 13-H ) :   0.9327 B(  2-O ,  3-C ) :   1.0900 B(  3-C ,  4-N ) :   1.8970
B(  3-C ,  5-C ) :   0.9680 B(  4-N , 14-H ) :   0.8634 B(  5-C ,  6-C ) :   0.9208
B(  5-C ,  7-N ) :   0.9155 B(  5-C , 15-H ) :   0.9124 B(  6-C ,  7-N ) :   0.8951
B(  6-C , 16-H ) :   0.9186 B(  6-C , 17-H ) :   0.9152 B(  7-N ,  8-C ) :   0.8767
B(  8-C , 18-H ) :   0.9251 B(  8-C , 19-H ) :   0.9382 B(  8-C , 20-H ) :   0.9353

MP2 TOTAL ENERGY:     -419.670603407 Eh
FINAL SINGLE POINT ENERGY      -419.670603406817

DIPOLE MOMENT
-------------
                                X             Y             Z
Electronic contribution:      0.32643      -2.92940       5.29254
Nuclear contribution   :     -0.62453       3.13924      -5.60199
                        -----------------------------------------
Total Dipole Moment    :     -0.29809       0.20984      -0.30945
                        -----------------------------------------
Magnitude (a.u.)       :      0.47817
Magnitude (Debye)      :      1.21542

                             ****ORCA TERMINATED NORMALLY****
TOTAL RUN TIME: 0 days 0 hours 17 minutes 37 seconds 806 msec
