                         Program Version 3.0.3 - RELEASE   -
|  1> ! RI-MP2 RIJK def2-TZVP def2-TZVP/C def2-TZVP/JK TIGHTSCF
|  2> % maxcore 2000
|  3> % mp2 density relaxed end
|  4> *xyz 0 1
|  5>  C       -0.0052337762     1.3926199961     0.3682126246
|  6>  C       -0.0316623291    -0.0649177816    -0.1030260755
|  7>  C       -1.4349395801    -0.6929380674    -0.1655106795
|  8>  C       -2.3468446705    -0.0078257491    -1.1899564818
|  9>  C       -1.3095434845    -2.2013947711    -0.4505347021
| 10>  N       -2.5772205156    -2.9185050111    -0.3786924997
| 11>  C       -3.0158205802    -3.4227501593     0.8230426986
| 12>  N       -4.1454135131    -4.2328943686     0.7216765660
| 13>  O       -2.4543278003    -3.2075819352     1.8819092518
| 14>  H        1.0235517065     1.7549040924     0.4600294249
| 15>  H       -0.5253045182     2.0582717123    -0.3273722210
| 16>  H       -0.4827999004     1.4966541867     1.3488680014
| 17>  H        0.4403911886    -0.1376711413    -1.0935113047
| 18>  H        0.5891140700    -0.6656161582     0.5740857482
| 19>  H       -1.8924031027    -0.6036327852     0.8284565537
| 20>  H       -2.5379140426     1.0371193104    -0.9309997670
| 21>  H       -1.8959675078    -0.0253042252    -2.1908459920
| 22>  H       -3.3140055086    -0.5162098857    -1.2471667917
| 23>  H       -0.8947134176    -2.3571154928    -1.4535299918
| 24>  H       -0.6202132243    -2.6476718393     0.2732402098
| 25>  H       -2.9286724548    -3.3395706007    -1.2220827832
| 26>  H       -4.8118664822    -4.0076352542    -0.0023496702
| 27>  H       -4.5714324263    -4.3977315316     1.6214743412
| 28> *
| 29>
| 30>                          ****END OF INPUT****

CARTESIAN COORDINATES (ANGSTROEM)
---------------------------------
  C     -0.005234    1.392620    0.368213
  C     -0.031662   -0.064918   -0.103026
  C     -1.434940   -0.692938   -0.165511
  C     -2.346845   -0.007826   -1.189956
  C     -1.309543   -2.201395   -0.450535
  N     -2.577221   -2.918505   -0.378692
  C     -3.015821   -3.422750    0.823043
  N     -4.145414   -4.232894    0.721677
  O     -2.454328   -3.207582    1.881909
  H      1.023552    1.754904    0.460029
  H     -0.525305    2.058272   -0.327372
  H     -0.482800    1.496654    1.348868
  H      0.440391   -0.137671   -1.093511
  H      0.589114   -0.665616    0.574086
  H     -1.892403   -0.603633    0.828457
  H     -2.537914    1.037119   -0.931000
  H     -1.895968   -0.025304   -2.190846
  H     -3.314006   -0.516210   -1.247167
  H     -0.894713   -2.357115   -1.453530
  H     -0.620213   -2.647672    0.273240
  H     -2.928672   -3.339571   -1.222083
  H     -4.811866   -4.007635   -0.002350
  H     -4.571432   -4.397732    1.621474

 Total Charge           Charge          ....    0
 Multiplicity           Mult            ....    1
 Number of Electrons    NEL             ....   72
 Basis Dimension        Dim             ....  363

ORBITAL ENERGIES
----------------

  NO   OCC          E(Eh)            E(eV)
   0   2.0000     -20.506603      -558.0130
   1   2.0000     -15.576612      -423.8612
   2   2.0000     -15.576471      -423.8573
   3   2.0000     -11.370635      -309.4107
   4   2.0000     -11.256339      -306.3006
   5   2.0000     -11.220289      -305.3196
   6   2.0000     -11.216132      -305.2065
   7   2.0000     -11.209749      -305.0328
   8   2.0000     -11.209385      -305.0229
   9   2.0000      -1.388045       -37.7706
  10   2.0000      -1.236726       -33.6530
  11   2.0000      -1.188420       -32.3386
  12   2.0000      -1.081456       -29.4279
  13   2.0000      -0.986364       -26.8403
  14   2.0000      -0.930624       -25.3236
  15   2.0000      -0.860600       -23.4181
  16   2.0000      -0.798036       -21.7157
  17   2.0000      -0.760217       -20.6865
  18   2.0000      -0.740013       -20.1368
  19   2.0000      -0.700854       -19.0712
  20   2.0000      -0.638025       -17.3616
  21   2.0000      -0.630788       -17.1646
  22   2.0000      -0.611379       -16.6365
  23   2.0000      -0.602449       -16.3935
  24   2.0000      -0.582736       -15.8571
  25   2.0000      -0.569100       -15.4860
  26   2.0000      -0.547358       -14.8944
  27   2.0000      -0.533258       -14.5107
  28   2.0000      -0.513979       -13.9861
  29   2.0000      -0.493580       -13.4310
  30   2.0000      -0.473173       -12.8757
  31   2.0000      -0.460742       -12.5374
  32   2.0000      -0.455302       -12.3894
  33   2.0000      -0.440199       -11.9784
  34   2.0000      -0.421837       -11.4788
  35   2.0000      -0.389702       -10.6043
  36   0.0000       0.116303         3.1648
  37   0.0000       0.144080         3.9206
  38   0.0000       0.153000         4.1633
  39   0.0000       0.172931         4.7057
  40   0.0000       0.182696         4.9714

MULLIKEN ATOMIC CHARGES
-----------------------
   0 C :   -0.405583
   1 C :   -0.195980
   2 C :   -0.021584
   3 C :   -0.438972
   4 C :   -0.133994
   5 N :   -0.382786
   6 C :    0.396843
   7 N :   -0.529866
   8 O :   -0.403405
   9 H :    0.134253
  10 H :    0.126071
  11 H :    0.128627
  12 H :    0.099438
  13 H :    0.116675
  14 H :    0.109691
  15 H :    0.139151
  16 H :    0.113292
  17 H :    0.129010
  18 H :    0.131060
  19 H :    0.141262
  20 H :    0.236223
  21 H :    0.245756
  22 H :    0.264817
Sum of atomic charges:   -0.0000000

LOEWDIN ATOMIC CHARGES
----------------------
   0 C :   -0.318561
   1 C :   -0.273145
   2 C :   -0.288666
   3 C :   -0.299903
   4 C :   -0.259991
   5 N :    0.082105
   6 C :   -0.574168
   7 N :   -0.077011
   8 O :    0.053278
   9 H :    0.121008
  10 H :    0.118429
  11 H :    0.122754
  12 H :    0.135039
  13 H :    0.139899
  14 H :    0.158263
  15 H :    0.122839
  16 H :    0.121413
  17 H :    0.120433
  18 H :    0.134468
  19 H :    0.142932
  20 H :    0.180213
  21 H :    0.163615
  22 H :    0.174757

  Mayer bond orders larger than 0.1
B(  0-C ,  1-C ) :   0.9168 B(  0-C ,  9-H ) :   0.9421 B(  0-C , 10-H ) :   0.9425
B(  0-C , 11-H ) :   0.9386 B(  1-C ,  2-C ) :   0.9341 B(  1-C , 12-H ) :   0.9239
B(  1-C , 13-H ) :   0.9337 B(  2-C ,  3-C ) :   0.8955 B(  2-C ,  4-C ) :   0.9131
B(  2-C , 14-H ) :   0.9199 B(  3-C , 15-H ) :   0.9431 B(  3-C , 16-H ) :   0.9300
B(  3-C , 17-H ) :   0.9393 B(  4-C ,  5-N ) :   0.9183 B(  4-C , 18-H ) :   0.9337
B(  4-C , 19-H ) :   0.9370 B(  5-N ,  6-C ) :   1.1225 B(  5-N , 20-H ) :   0.8736
B(  6-C ,  7-N ) :   1.0744 B(  6-C ,  8-O ) :   1.9168 B(  7-N , 21-H ) :   0.8732
B(  7-N , 22-H ) :   0.8701

MP2 TOTAL ENERGY:     -420.959011238 Eh
FINAL SINGLE POINT ENERGY      -420.959011237617

DIPOLE MOMENT
-------------
                                X             Y             Z
Electronic contribution:     -5.23015     -10.95557       4.25381
Nuclear contribution   :      4.55098      10.96434      -5.43929
                        -----------------------------------------
Total Dipole Moment    :     -0.67917       0.00877      -1.18548
                        -----------------------------------------
Magnitude (a.u.)       :      1.36628
Magnitude (Debye)      :      3.47281

                             ****ORCA TERMINATED NORMALLY****
TOTAL RUN TIME: 0 days 0 hours 18 minutes 17 seconds 784 msec
