                         Program Version 3.0.3 - RELEASE   -
|  1> ! RI-MP2 RIJK def2-TZVP def2-TZVP/C def2-TZVP/JK TIGHTSCF
|  2> % maxcore 2000
|  3> % mp2 density relaxed end
|  4> *xyz 0 1
|  5>  C       -0.2335528942     1.5207274281    -0.0686856414
|  6>  C        0.1260289323     0.0244580111     0.0140889230
|  7>  C        0.8087282717    -0.4901990938    -1.2143873236
|  8>  C        2.0648886716    -0.9778111936    -1.2797289237
|  9>  C        2.4167085470    -1.4069038037    -2.6381814835
| 10>  O        3.4443281256    -1.8817602328    -3.0577237226
| 11>  C        1.1469515380    -1.1251464459    -3.4966409356
| 12>  O        1.0296830553    -1.3535897538    -4.6679244044
| 13>  C        0.1076217670    -0.5134709182    -2.5571084077
| 14>  H        0.6628241305     2.1317627718    -0.2100309377
| 15>  H       -0.9186038224     1.7266576525    -0.8962174654
| 16>  H       -0.7216571449     1.8418739884     0.8553181491
| 17>  H        0.7631802463    -0.1557147727     0.8858685953
| 18>  H       -0.7974595593    -0.5514162038     0.1678458577
| 19>  H        2.7484137874    -1.0613286170    -0.4433974984
| 20>  H       -0.8097827778    -1.1153406088    -2.5418269759
| 21>  H       -0.1836734741     0.4845681121    -2.9050689050
| 22> *
| 23>
| 24>                          ****END OF INPUT****

CARTESIAN COORDINATES (ANGSTROEM)
---------------------------------
  C     -0.233553    1.520727   -0.068686
  C      0.126029    0.024458    0.014089
  C      0.808728   -0.490199   -1.214387
  C      2.064889   -0.977811   -1.279729
  C      2.416709   -1.406904   -2.638181
  O      3.444328   -1.881760   -3.057724
  C      1.146952   -1.125146   -3.496641
  O      1.029683   -1.353590   -4.667924
  C      0.107622   -0.513471   -2.557108
  H      0.662824    2.131763   -0.210031
  H     -0.918604    1.726658   -0.896217
  H     -0.721657    1.841874    0.855318
  H      0.763180   -0.155715    0.885869
  H     -0.797460   -0.551416    0.167846
  H      2.748414   -1.061329   -0.443397
  H     -0.809783   -1.115341   -2.541827
  H     -0.183673    0.484568   -2.905069

 Total Charge           Charge          ....    0
 Multiplicity           Mult            ....    1
 Number of Electrons    NEL             ....   66
 Basis Dimension        Dim             ....  327

ORBITAL ENERGIES
----------------

  NO   OCC          E(Eh)            E(eV)
   0   2.0000     -20.575330      -559.8832
   1   2.0000     -20.558814      -559.4338
   2   2.0000     -11.348377      -308.8051
   3   2.0000     -11.341071      -308.6062
   4   2.0000     -11.296735      -307.3998
   5   2.0000     -11.269171      -306.6497
   6   2.0000     -11.263976      -306.5084
   7   2.0000     -11.253031      -306.2105
   8   2.0000     -11.247479      -306.0595
   9   2.0000      -1.419606       -38.6294
  10   2.0000      -1.389907       -37.8213
  11   2.0000      -1.175465       -31.9860
  12   2.0000      -1.065829       -29.0027
  13   2.0000      -0.994855       -27.0714
  14   2.0000      -0.935793       -25.4642
  15   2.0000      -0.858570       -23.3629
  16   2.0000      -0.775650       -21.1065
  17   2.0000      -0.738872       -20.1057
  18   2.0000      -0.689076       -18.7507
  19   2.0000      -0.656753       -17.8712
  20   2.0000      -0.651382       -17.7250
  21   2.0000      -0.642155       -17.4739
  22   2.0000      -0.619831       -16.8664
  23   2.0000      -0.612462       -16.6659
  24   2.0000      -0.570966       -15.5368
  25   2.0000      -0.557390       -15.1674
  26   2.0000      -0.553391       -15.0585
  27   2.0000      -0.531205       -14.4548
  28   2.0000      -0.522150       -14.2084
  29   2.0000      -0.510841       -13.9007
  30   2.0000      -0.491488       -13.3741
  31   2.0000      -0.392825       -10.6893
  32   2.0000      -0.388694       -10.5769
  33   0.0000       0.053074         1.4442
  34   0.0000       0.111867         3.0441
  35   0.0000       0.120970         3.2918
  36   0.0000       0.148478         4.0403
  37   0.0000       0.156096         4.2476

MULLIKEN ATOMIC CHARGES
-----------------------
   0 C :   -0.407164
   1 C :   -0.209014
   2 C :    0.021155
   3 C :   -0.219132
   4 C :    0.214334
   5 O :   -0.258638
   6 C :    0.101777
   7 O :   -0.225727
   8 C :   -0.145983
   9 H :    0.139866
  10 H :    0.133914
  11 H :    0.144759
  12 H :    0.131171
  13 H :    0.129191
  14 H :    0.152865
  15 H :    0.146981
  16 H :    0.149645
Sum of atomic charges:    0.0000000

LOEWDIN ATOMIC CHARGES
----------------------
   0 C :   -0.301620
   1 C :   -0.245358
   2 C :   -0.117426
   3 C :   -0.095726
   4 C :   -0.305465
   5 O :    0.174870
   6 C :   -0.265556
   7 O :    0.195382
   8 C :   -0.180227
   9 H :    0.125897
  10 H :    0.122242
  11 H :    0.126241
  12 H :    0.147240
  13 H :    0.151548
  14 H :    0.150055
  15 H :    0.159094
  16 H :    0.158810

  Mayer bond orders larger than 0.1
B(  0-C ,  1-C ) :   0.9052 B(  0-C ,  9-H ) :   0.9348 B(  0-C , 10-H ) :   0.9377
B(  0-C , 11-H ) :   0.9355 B(  1-C ,  2-C ) :   0.8893 B(  1-C , 12-H ) :   0.9430
B(  1-C , 13-H ) :   0.9189 B(  2-C ,  3-C ) :   1.5804 B(  2-C ,  8-C ) :   0.8998
B(  3-C ,  4-C ) :   0.9643 B(  3-C , 14-H ) :   0.9123 B(  4-C ,  5-O ) :   1.9538
B(  4-C ,  6-C ) :   0.8877 B(  4-C ,  8-C ) :  -0.1224 B(  6-C ,  7-O ) :   2.0437
B(  6-C ,  8-C ) :   0.8649 B(  8-C , 15-H ) :   0.8801 B(  8-C , 16-H ) :   0.8856

MP2 TOTAL ENERGY:     -421.154252598 Eh
FINAL SINGLE POINT ENERGY      -421.154252597901

DIPOLE MOMENT
-------------
                                X             Y             Z
Electronic contribution:      7.07904      -7.24971      -9.39687
Nuclear contribution   :     -8.31989       8.15309      11.12139
                        -----------------------------------------
Total Dipole Moment    :     -1.24084       0.90338       1.72452
                        -----------------------------------------
Magnitude (a.u.)       :      2.30863
Magnitude (Debye)      :      5.86807

                             ****ORCA TERMINATED NORMALLY****
TOTAL RUN TIME: 0 days 0 hours 16 minutes 16 seconds 24 msec
