                         Program Version 3.0.3 - RELEASE   -
|  1> ! RI-MP2 RIJK def2-TZVP def2-TZVP/C def2-TZVP/JK TIGHTSCF
|  2> % maxcore 2000
|  3> % mp2 density relaxed end
|  4> *xyz 0 1
|  5>  C       -0.0405429451     1.5741507887     0.0536995860
|  6>  C       -0.0519911559     0.0727242544     0.0602342521
|  7>  C        0.9141411949    -0.7518979541    -0.8897384253
|  8>  C        0.2542717965    -2.1480646172    -0.8810647838
|  9>  C       -0.2951516880    -1.9914883416     0.5594530251
| 10>  C        0.7520425121    -0.8685945524     1.0344730298
| 11>  O        1.8945119422    -0.8957212688     0.1794558787
| 12>  C       -1.2576136756    -0.8170051503     0.3398918137
| 13>  O       -2.4233456950    -0.6142334678     0.5256750233
| 14>  H        0.9840091454     1.9539046067     0.1210824027
| 15>  H       -0.4871804338     1.9647583820    -0.8668106608
| 16>  H       -0.6159709766     1.9728894373     0.8945390117
| 17>  H        1.3218386526    -0.3367711086    -1.8107664519
| 18>  H       -0.5328159305    -2.2894083900    -1.6262372637
| 19>  H        1.0101317984    -2.9287304188    -0.9844904621
| 20>  H       -0.5553966189    -2.8693024101     1.1433649096
| 21>  H        0.9377366472    -0.6971642292     2.0922728948
| 22> *
| 23>
| 24>                          ****END OF INPUT****

CARTESIAN COORDINATES (ANGSTROEM)
---------------------------------
  C     -0.040543    1.574151    0.053700
  C     -0.051991    0.072724    0.060234
  C      0.914141   -0.751898   -0.889738
  C      0.254272   -2.148065   -0.881065
  C     -0.295152   -1.991488    0.559453
  C      0.752043   -0.868595    1.034473
  O      1.894512   -0.895721    0.179456
  C     -1.257614   -0.817005    0.339892
  O     -2.423346   -0.614233    0.525675
  H      0.984009    1.953905    0.121082
  H     -0.487180    1.964758   -0.866811
  H     -0.615971    1.972889    0.894539
  H      1.321839   -0.336771   -1.810766
  H     -0.532816   -2.289408   -1.626237
  H      1.010132   -2.928730   -0.984490
  H     -0.555397   -2.869302    1.143365
  H      0.937737   -0.697164    2.092273

 Total Charge           Charge          ....    0
 Multiplicity           Mult            ....    1
 Number of Electrons    NEL             ....   66
 Basis Dimension        Dim             ....  327

ORBITAL ENERGIES
----------------

  NO   OCC          E(Eh)            E(eV)
   0   2.0000     -20.569473      -559.7238
   1   2.0000     -20.556151      -559.3613
   2   2.0000     -11.336955      -308.4942
   3   2.0000     -11.313822      -307.8647
   4   2.0000     -11.313671      -307.8606
   5   2.0000     -11.261978      -306.4540
   6   2.0000     -11.257940      -306.3441
   7   2.0000     -11.251118      -306.1585
   8   2.0000     -11.233156      -305.6697
   9   2.0000      -1.420153       -38.6443
  10   2.0000      -1.396757       -38.0077
  11   2.0000      -1.166301       -31.7367
  12   2.0000      -1.033406       -28.1204
  13   2.0000      -0.988115       -26.8880
  14   2.0000      -0.909960       -24.7613
  15   2.0000      -0.837181       -22.7809
  16   2.0000      -0.787675       -21.4337
  17   2.0000      -0.729360       -19.8469
  18   2.0000      -0.698237       -19.0000
  19   2.0000      -0.674104       -18.3433
  20   2.0000      -0.658398       -17.9159
  21   2.0000      -0.638536       -17.3754
  22   2.0000      -0.582891       -15.8613
  23   2.0000      -0.570088       -15.5129
  24   2.0000      -0.565935       -15.3999
  25   2.0000      -0.553699       -15.0669
  26   2.0000      -0.536300       -14.5935
  27   2.0000      -0.516070       -14.0430
  28   2.0000      -0.509956       -13.8766
  29   2.0000      -0.485267       -13.2048
  30   2.0000      -0.443127       -12.0581
  31   2.0000      -0.419375       -11.4118
  32   2.0000      -0.388508       -10.5719
  33   0.0000       0.127652         3.4736
  34   0.0000       0.136037         3.7017
  35   0.0000       0.158638         4.3168
  36   0.0000       0.172122         4.6837
  37   0.0000       0.182204         4.9580

MULLIKEN ATOMIC CHARGES
-----------------------
   0 C :   -0.437489
   1 C :    0.059499
   2 C :    0.032400
   3 C :   -0.265039
   4 C :   -0.032188
   5 C :   -0.045064
   6 O :   -0.309237
   7 C :    0.102627
   8 O :   -0.252882
   9 H :    0.153912
  10 H :    0.142776
  11 H :    0.146833
  12 H :    0.140091
  13 H :    0.137838
  14 H :    0.133487
  15 H :    0.151041
  16 H :    0.141393
Sum of atomic charges:    0.0000000

LOEWDIN ATOMIC CHARGES
----------------------
   0 C :   -0.268205
   1 C :   -0.175634
   2 C :   -0.192617
   3 C :   -0.196609
   4 C :   -0.147584
   5 C :   -0.185269
   6 O :    0.169920
   7 C :   -0.272025
   8 O :    0.163100
   9 H :    0.136856
  10 H :    0.134606
  11 H :    0.135558
  12 H :    0.135709
  13 H :    0.143175
  14 H :    0.142921
  15 H :    0.139779
  16 H :    0.136320

  Mayer bond orders larger than 0.1
B(  0-C ,  1-C ) :   0.8588 B(  0-C ,  9-H ) :   0.9453 B(  0-C , 10-H ) :   0.9338
B(  0-C , 11-H ) :   0.9342 B(  1-C ,  2-C ) :   0.8638 B(  1-C ,  4-C ) :  -0.1556
B(  1-C ,  5-C ) :   0.8901 B(  1-C ,  7-C ) :   0.8982 B(  2-C ,  3-C ) :   0.9342
B(  2-C ,  6-O ) :   0.8869 B(  2-C , 12-H ) :   0.9108 B(  3-C ,  4-C ) :   0.8643
B(  3-C , 13-H ) :   0.9279 B(  3-C , 14-H ) :   0.9175 B(  4-C ,  5-C ) :   0.8380
B(  4-C ,  7-C ) :   0.8835 B(  4-C , 15-H ) :   0.9027 B(  5-C ,  6-O ) :   0.9661
B(  5-C , 16-H ) :   0.9017 B(  7-C ,  8-O ) :   2.0529

MP2 TOTAL ENERGY:     -421.094949699 Eh
FINAL SINGLE POINT ENERGY      -421.094949699295

DIPOLE MOMENT
-------------
                                X             Y             Z
Electronic contribution:     -1.62757      -2.23658       1.49316
Nuclear contribution   :      2.11380       2.20578      -1.78572
                        -----------------------------------------
Total Dipole Moment    :      0.48623      -0.03080      -0.29256
                        -----------------------------------------
Magnitude (a.u.)       :      0.56830
Magnitude (Debye)      :      1.44450

                             ****ORCA TERMINATED NORMALLY****
TOTAL RUN TIME: 0 days 0 hours 17 minutes 25 seconds 603 msec
