                         Program Version 3.0.3 - RELEASE   -
|  1> ! RI-MP2 RIJK def2-TZVP def2-TZVP/C def2-TZVP/JK TIGHTSCF
|  2> % maxcore 2000
|  3> % mp2 density relaxed end
|  4> *xyz 0 1
|  5>  C       -0.1661233728     1.5561068293    -0.0232583537
|  6>  C       -0.0409172993     0.0259518294     0.0000388367
|  7>  C        0.8542496041    -0.4621928582    -1.1417043787
|  8>  O        0.2620010576    -0.0717475069    -2.3709059373
|  9>  C        0.4869657503    -0.5155679230     1.3388740276
| 10>  C       -0.4439257488    -0.2477133100     2.5169200079
| 11>  O        0.0291474342    -0.9339599551     3.6854540092
| 12>  C        0.5565936950    -0.2017786948     4.6820387369
| 13>  O        1.0060291912    -0.6866773935     5.6763887831
| 14>  H        0.7896176050     2.0287044507     0.2355771772
| 15>  H       -0.4493880433     1.8924468901    -1.0225458791
| 16>  H       -0.9205549149     1.9180902334     0.6816111268
| 17>  H       -1.0356443616    -0.4057122540    -0.1808910371
| 18>  H        1.8623039089    -0.0286659918    -1.0289552820
| 19>  H        0.9589122150    -1.5573127425    -1.0842290696
| 20>  H        0.8580916334    -0.3136270854    -3.0851654179
| 21>  H        0.6327191398    -1.6001298463     1.2711827787
| 22>  H        1.4711650664    -0.0797457814     1.5576094426
| 23>  H       -0.5316118204     0.8242514329     2.7301133886
| 24>  H       -1.4481734471    -0.6350482803     2.3175352149
| 25>  H        0.5199904572     0.8875969976     4.4789901752
| 26> *
| 27>
| 28>                          ****END OF INPUT****

CARTESIAN COORDINATES (ANGSTROEM)
---------------------------------
  C     -0.166123    1.556107   -0.023258
  C     -0.040917    0.025952    0.000039
  C      0.854250   -0.462193   -1.141704
  O      0.262001   -0.071748   -2.370906
  C      0.486966   -0.515568    1.338874
  C     -0.443926   -0.247713    2.516920
  O      0.029147   -0.933960    3.685454
  C      0.556594   -0.201779    4.682039
  O      1.006029   -0.686677    5.676389
  H      0.789618    2.028704    0.235577
  H     -0.449388    1.892447   -1.022546
  H     -0.920555    1.918090    0.681611
  H     -1.035644   -0.405712   -0.180891
  H      1.862304   -0.028666   -1.028955
  H      0.958912   -1.557313   -1.084229
  H      0.858092   -0.313627   -3.085165
  H      0.632719   -1.600130    1.271183
  H      1.471165   -0.079746    1.557609
  H     -0.531612    0.824251    2.730113
  H     -1.448173   -0.635048    2.317535
  H      0.519990    0.887597    4.478990

 Total Charge           Charge          ....    0
 Multiplicity           Mult            ....    1
 Number of Electrons    NEL             ....   72
 Basis Dimension        Dim             ....  351

ORBITAL ENERGIES
----------------

  NO   OCC          E(Eh)            E(eV)
   0   2.0000     -20.607719      -560.7645
   1   2.0000     -20.565104      -559.6049
   2   2.0000     -20.548573      -559.1551
   3   2.0000     -11.382317      -309.7286
   4   2.0000     -11.306423      -307.6634
   5   2.0000     -11.285466      -307.0931
   6   2.0000     -11.242504      -305.9241
   7   2.0000     -11.240533      -305.8705
   8   2.0000     -11.221304      -305.3472
   9   2.0000      -1.461268       -39.7631
  10   2.0000      -1.371770       -37.3278
  11   2.0000      -1.370225       -37.2857
  12   2.0000      -1.107376       -30.1332
  13   2.0000      -1.012597       -27.5542
  14   2.0000      -0.935339       -25.4519
  15   2.0000      -0.889105       -24.1938
  16   2.0000      -0.843271       -22.9466
  17   2.0000      -0.788187       -21.4477
  18   2.0000      -0.726911       -19.7803
  19   2.0000      -0.708706       -19.2849
  20   2.0000      -0.687665       -18.7123
  21   2.0000      -0.662229       -18.0202
  22   2.0000      -0.650465       -17.7001
  23   2.0000      -0.621798       -16.9200
  24   2.0000      -0.606344       -16.4995
  25   2.0000      -0.586052       -15.9473
  26   2.0000      -0.554813       -15.0972
  27   2.0000      -0.553842       -15.0708
  28   2.0000      -0.539655       -14.6848
  29   2.0000      -0.524420       -14.2702
  30   2.0000      -0.496869       -13.5205
  31   2.0000      -0.485872       -13.2213
  32   2.0000      -0.476407       -12.9637
  33   2.0000      -0.456803       -12.4302
  34   2.0000      -0.452599       -12.3158
  35   2.0000      -0.449927       -12.2431
  36   0.0000       0.123565         3.3624
  37   0.0000       0.136618         3.7176
  38   0.0000       0.141237         3.8433
  39   0.0000       0.152938         4.1617
  40   0.0000       0.167042         4.5454

MULLIKEN ATOMIC CHARGES
-----------------------
   0 C :   -0.433894
   1 C :   -0.019846
   2 C :   -0.067130
   3 O :   -0.468781
   4 C :   -0.233039
   5 C :   -0.103467
   6 O :   -0.202776
   7 C :    0.199074
   8 O :   -0.273281
   9 H :    0.117331
  10 H :    0.165758
  11 H :    0.129787
  12 H :    0.092530
  13 H :    0.096739
  14 H :    0.103236
  15 H :    0.318542
  16 H :    0.133559
  17 H :    0.117899
  18 H :    0.122301
  19 H :    0.135472
  20 H :    0.069987
Sum of atomic charges:    0.0000000

LOEWDIN ATOMIC CHARGES
----------------------
   0 C :   -0.293129
   1 C :   -0.287810
   2 C :   -0.330062
   3 O :   -0.045149
   4 C :   -0.249524
   5 C :   -0.289674
   6 O :    0.246093
   7 C :   -0.457441
   8 O :    0.117353
   9 H :    0.123564
  10 H :    0.132194
  11 H :    0.119813
  12 H :    0.156660
  13 H :    0.118345
  14 H :    0.118563
  15 H :    0.173956
  16 H :    0.147098
  17 H :    0.141814
  18 H :    0.123307
  19 H :    0.133922
  20 H :    0.100108

  Mayer bond orders larger than 0.1
B(  0-C ,  1-C ) :   0.9071 B(  0-C ,  9-H ) :   0.9285 B(  0-C , 10-H ) :   0.9329
B(  0-C , 11-H ) :   0.9400 B(  1-C ,  2-C ) :   0.9294 B(  1-C ,  4-C ) :   0.9043
B(  1-C , 12-H ) :   0.9183 B(  2-C ,  3-O ) :   1.0162 B(  2-C , 13-H ) :   0.9224
B(  2-C , 14-H ) :   0.9330 B(  3-O , 15-H ) :   0.8466 B(  4-C ,  5-C ) :   0.9302
B(  4-C , 16-H ) :   0.9265 B(  4-C , 17-H ) :   0.9176 B(  5-C ,  6-O ) :   0.8591
B(  5-C , 18-H ) :   0.9562 B(  5-C , 19-H ) :   0.9253 B(  6-O ,  7-C ) :   1.0788
B(  7-C ,  8-O ) :   2.0205 B(  7-C , 20-H ) :   0.9136

MP2 TOTAL ENERGY:     -460.649471193 Eh
FINAL SINGLE POINT ENERGY      -460.649471192958

DIPOLE MOMENT
-------------
                                X             Y             Z
Electronic contribution:      0.76066      -4.08735       9.70595
Nuclear contribution   :     -0.72981       4.62858     -11.18179
                        -----------------------------------------
Total Dipole Moment    :      0.03085       0.54123      -1.47584
                        -----------------------------------------
Magnitude (a.u.)       :      1.57226
Magnitude (Debye)      :      3.99636

                             ****ORCA TERMINATED NORMALLY****
TOTAL RUN TIME: 0 days 0 hours 15 minutes 26 seconds 341 msec
