                         Program Version 3.0.3 - RELEASE   -
|  1> ! RI-MP2 RIJK def2-TZVP def2-TZVP/C def2-TZVP/JK TIGHTSCF
|  2> % maxcore 2000
|  3> % mp2 density relaxed end
|  4> *xyz 0 1
|  5>  N       -0.0536294265    -1.1611595910    -0.0675986286
|  6>  C       -0.0250597030    -0.0063876044    -0.0356442169
|  7>  C       -0.0051796060     1.4547810578     0.0345696899
|  8>  C       -0.5569435853     2.0232039368     1.3852587007
|  9>  C        0.6953338714     2.7801107693     1.8004600718
| 10>  C        1.3307366374     3.3963458905     0.5154179912
| 11>  C        2.7420178103     3.1886060452     1.0924228206
| 12>  C        1.9344060305     1.9163055415     1.4058246530
| 13>  N        1.3928869517     1.9663908874    -0.0275627205
| 14>  H       -0.5540774153     1.8458116420    -0.8279631361
| 15>  H       -1.4229403465     2.6731140151     1.2339343558
| 16>  H       -0.8361727931     1.2372906316     2.0909645612
| 17>  H        0.6828311247     3.3387763465     2.7382882465
| 18>  H        0.9504043701     4.2136497424    -0.1010319443
| 19>  H        3.5464469626     3.0786007302     0.3649572642
| 20>  H        3.0220601478     3.8140328844     1.9409054039
| 21>  H        2.2702460995     0.9757182048     1.8446437475
| 22> *
| 23>
| 24>                          ****END OF INPUT****

CARTESIAN COORDINATES (ANGSTROEM)
---------------------------------
  N     -0.053629   -1.161160   -0.067599
  C     -0.025060   -0.006388   -0.035644
  C     -0.005180    1.454781    0.034570
  C     -0.556944    2.023204    1.385259
  C      0.695334    2.780111    1.800460
  C      1.330737    3.396346    0.515418
  C      2.742018    3.188606    1.092423
  C      1.934406    1.916306    1.405825
  N      1.392887    1.966391   -0.027563
  H     -0.554077    1.845812   -0.827963
  H     -1.422940    2.673114    1.233934
  H     -0.836173    1.237291    2.090965
  H      0.682831    3.338776    2.738288
  H      0.950404    4.213650   -0.101032
  H      3.546447    3.078601    0.364957
  H      3.022060    3.814033    1.940905
  H      2.270246    0.975718    1.844644

 Total Charge           Charge          ....    0
 Multiplicity           Mult            ....    1
 Number of Electrons    NEL             ....   64
 Basis Dimension        Dim             ....  327

ORBITAL ENERGIES
----------------

  NO   OCC          E(Eh)            E(eV)
   0   2.0000     -15.582938      -424.0333
   1   2.0000     -15.567059      -423.6012
   2   2.0000     -11.306218      -307.6578
   3   2.0000     -11.290853      -307.2397
   4   2.0000     -11.288569      -307.1776
   5   2.0000     -11.268440      -306.6299
   6   2.0000     -11.260170      -306.4048
   7   2.0000     -11.251802      -306.1771
   8   2.0000     -11.246378      -306.0295
   9   2.0000      -1.326666       -36.1004
  10   2.0000      -1.214902       -33.0592
  11   2.0000      -1.099292       -29.9133
  12   2.0000      -1.034328       -28.1455
  13   2.0000      -0.929486       -25.2926
  14   2.0000      -0.893869       -24.3234
  15   2.0000      -0.844520       -22.9806
  16   2.0000      -0.747529       -20.3413
  17   2.0000      -0.707291       -19.2464
  18   2.0000      -0.704076       -19.1589
  19   2.0000      -0.675110       -18.3707
  20   2.0000      -0.614074       -16.7098
  21   2.0000      -0.591290       -16.0898
  22   2.0000      -0.560355       -15.2480
  23   2.0000      -0.538206       -14.6453
  24   2.0000      -0.516842       -14.0640
  25   2.0000      -0.497470       -13.5369
  26   2.0000      -0.489738       -13.3264
  27   2.0000      -0.472775       -12.8649
  28   2.0000      -0.457594       -12.4518
  29   2.0000      -0.452707       -12.3188
  30   2.0000      -0.448314       -12.1992
  31   2.0000      -0.406025       -11.0485
  32   0.0000       0.126947         3.4544
  33   0.0000       0.144767         3.9393
  34   0.0000       0.156384         4.2554
  35   0.0000       0.161035         4.3820
  36   0.0000       0.175365         4.7719

MULLIKEN ATOMIC CHARGES
-----------------------
   0 N :   -0.047942
   1 C :   -0.201785
   2 C :    0.087795
   3 C :   -0.264929
   4 C :   -0.098726
   5 C :   -0.078256
   6 C :   -0.186006
   7 C :   -0.085610
   8 N :   -0.211470
   9 H :    0.140108
  10 H :    0.130933
  11 H :    0.144286
  12 H :    0.126754
  13 H :    0.137067
  14 H :    0.128933
  15 H :    0.125816
  16 H :    0.153032
Sum of atomic charges:    0.0000000

LOEWDIN ATOMIC CHARGES
----------------------
   0 N :    0.065558
   1 C :   -0.167505
   2 C :   -0.256599
   3 C :   -0.202787
   4 C :   -0.179749
   5 C :   -0.176048
   6 C :   -0.196163
   7 C :   -0.169763
   8 N :    0.158841
   9 H :    0.168116
  10 H :    0.140244
  11 H :    0.146363
  12 H :    0.142836
  13 H :    0.126795
  14 H :    0.135389
  15 H :    0.133155
  16 H :    0.131318

  Mayer bond orders larger than 0.1
B(  0-N ,  1-C ) :   2.8718 B(  1-C ,  2-C ) :   0.9529 B(  2-C ,  3-C ) :   0.9046
B(  2-C ,  8-N ) :   0.9492 B(  2-C ,  9-H ) :   0.9024 B(  3-C ,  4-C ) :   0.9429
B(  3-C , 10-H ) :   0.9241 B(  3-C , 11-H ) :   0.9204 B(  4-C ,  5-C ) :   0.8880
B(  4-C ,  7-C ) :   0.8881 B(  4-C , 12-H ) :   0.9171 B(  5-C ,  6-C ) :   0.9227
B(  5-C ,  8-N ) :   0.8515 B(  5-C , 13-H ) :   0.8894 B(  6-C ,  7-C ) :   0.9175
B(  6-C , 14-H ) :   0.9176 B(  6-C , 15-H ) :   0.9301 B(  7-C ,  8-N ) :   0.8505
B(  7-C , 16-H ) :   0.8866

MP2 TOTAL ENERGY:     -380.154173092 Eh
FINAL SINGLE POINT ENERGY      -380.154173091633

DIPOLE MOMENT
-------------
                                X             Y             Z
Electronic contribution:     -1.07499      -4.96248      -2.79700
Nuclear contribution   :      0.94145       6.74648       3.55091
                        -----------------------------------------
Total Dipole Moment    :     -0.13354       1.78400       0.75392
                        -----------------------------------------
Magnitude (a.u.)       :      1.94136
Magnitude (Debye)      :      4.93454

                             ****ORCA TERMINATED NORMALLY****
TOTAL RUN TIME: 0 days 0 hours 18 minutes 21 seconds 66 msec
