                         Program Version 3.0.3 - RELEASE   -
|  1> ! RI-MP2 RIJK def2-TZVP def2-TZVP/C def2-TZVP/JK TIGHTSCF
|  2> % maxcore 2000
|  3> % mp2 density relaxed end
|  4> *xyz 0 1
|  5>  C       -0.0045830400     1.3782637144    -0.0017100518
|  6>  N       -0.0808720523    -0.0641824768     0.1387759004
|  7>  C       -1.1915498528    -0.6232116091     0.0372098785
|  8>  C       -2.6753590449    -0.2639080283    -0.1430063038
|  9>  C       -2.9050962935    -1.7715565308    -0.0609866112
| 10>  C       -2.0993515277    -2.5186383643    -1.0563362999
| 11>  C       -1.7604214607    -1.9608291671    -2.3425913845
| 12>  N       -1.5025395031    -1.5227176937    -3.3812044757
| 13>  N       -1.4357367929    -2.0576836350     0.2062015905
| 14>  H        0.6723674097     1.6164283010    -0.8285682360
| 15>  H       -0.9699647422     1.8703468510    -0.1864778895
| 16>  H        0.4381103602     1.8014197510     0.9062985761
| 17>  H       -3.0792007237     0.2763207972     0.7166099184
| 18>  H       -2.9765720965     0.2399719420    -1.0642426097
| 19>  H       -3.6797298849    -2.2671654945     0.5117830746
| 20>  H       -2.2135653646    -3.5982862670    -1.0650174165
| 21> *
| 22>
| 23>                          ****END OF INPUT****

CARTESIAN COORDINATES (ANGSTROEM)
---------------------------------
  C     -0.004583    1.378264   -0.001710
  N     -0.080872   -0.064182    0.138776
  C     -1.191550   -0.623212    0.037210
  C     -2.675359   -0.263908   -0.143006
  C     -2.905096   -1.771557   -0.060987
  C     -2.099352   -2.518638   -1.056336
  C     -1.760421   -1.960829   -2.342591
  N     -1.502540   -1.522718   -3.381204
  N     -1.435737   -2.057684    0.206202
  H      0.672367    1.616428   -0.828568
  H     -0.969965    1.870347   -0.186478
  H      0.438110    1.801420    0.906299
  H     -3.079201    0.276321    0.716610
  H     -2.976572    0.239972   -1.064243
  H     -3.679730   -2.267165    0.511783
  H     -2.213565   -3.598286   -1.065017

 Total Charge           Charge          ....    0
 Multiplicity           Mult            ....    1
 Number of Electrons    NEL             ....   64
 Basis Dimension        Dim             ....  321

ORBITAL ENERGIES
----------------

  NO   OCC          E(Eh)            E(eV)
   0   2.0000     -15.608562      -424.7306
   1   2.0000     -15.587475      -424.1568
   2   2.0000     -15.564390      -423.5286
   3   2.0000     -11.333280      -308.3942
   4   2.0000     -11.325281      -308.1766
   5   2.0000     -11.312608      -307.8317
   6   2.0000     -11.288558      -307.1773
   7   2.0000     -11.273802      -306.7757
   8   2.0000     -11.257185      -306.3236
   9   2.0000      -1.352348       -36.7993
  10   2.0000      -1.237354       -33.6701
  11   2.0000      -1.226731       -33.3810
  12   2.0000      -1.040346       -28.3093
  13   2.0000      -0.995208       -27.0810
  14   2.0000      -0.944322       -25.6963
  15   2.0000      -0.875111       -23.8130
  16   2.0000      -0.756606       -20.5883
  17   2.0000      -0.717140       -19.5144
  18   2.0000      -0.694445       -18.8968
  19   2.0000      -0.663628       -18.0582
  20   2.0000      -0.625080       -17.0093
  21   2.0000      -0.602106       -16.3841
  22   2.0000      -0.585883       -15.9427
  23   2.0000      -0.573146       -15.5961
  24   2.0000      -0.553474       -15.0608
  25   2.0000      -0.549185       -14.9441
  26   2.0000      -0.514154       -13.9909
  27   2.0000      -0.486562       -13.2400
  28   2.0000      -0.472254       -12.8507
  29   2.0000      -0.438517       -11.9327
  30   2.0000      -0.410499       -11.1703
  31   2.0000      -0.394043       -10.7225
  32   0.0000       0.120273         3.2728
  33   0.0000       0.129662         3.5283
  34   0.0000       0.143134         3.8949
  35   0.0000       0.155781         4.2390
  36   0.0000       0.157810         4.2942

MULLIKEN ATOMIC CHARGES
-----------------------
   0 C :   -0.252026
   1 N :   -0.155303
   2 C :    0.032866
   3 C :   -0.278930
   4 C :   -0.022111
   5 C :    0.012912
   6 C :   -0.160789
   7 N :   -0.048291
   8 N :   -0.166363
   9 H :    0.152249
  10 H :    0.103971
  11 H :    0.145654
  12 H :    0.154432
  13 H :    0.162654
  14 H :    0.154872
  15 H :    0.164203
Sum of atomic charges:   -0.0000000

LOEWDIN ATOMIC CHARGES
----------------------
   0 C :   -0.317652
   1 N :    0.123536
   2 C :   -0.302151
   3 C :   -0.199322
   4 C :   -0.164221
   5 C :   -0.216594
   6 C :   -0.169428
   7 N :    0.081782
   8 N :    0.192232
   9 H :    0.125651
  10 H :    0.107239
  11 H :    0.122652
  12 H :    0.152831
  13 H :    0.147390
  14 H :    0.141764
  15 H :    0.174290

  Mayer bond orders larger than 0.1
B(  0-C ,  1-N ) :   0.8522 B(  0-C ,  9-H ) :   0.9297 B(  0-C , 10-H ) :   0.9258
B(  0-C , 11-H ) :   0.9302 B(  1-N ,  2-C ) :   1.9668 B(  2-C ,  3-C ) :   0.9447
B(  2-C ,  8-N ) :   0.9582 B(  3-C ,  4-C ) :   0.9567 B(  3-C , 12-H ) :   0.9074
B(  3-C , 13-H ) :   0.8909 B(  4-C ,  5-C ) :   0.9255 B(  4-C ,  8-N ) :   0.8308
B(  4-C , 14-H ) :   0.8998 B(  5-C ,  6-C ) :   0.9589 B(  5-C ,  8-N ) :   0.8983
B(  5-C , 15-H ) :   0.9046 B(  6-C ,  7-N ) :   2.8072

MP2 TOTAL ENERGY:     -396.191801027 Eh
FINAL SINGLE POINT ENERGY      -396.191801027047

DIPOLE MOMENT
-------------
                                X             Y             Z
Electronic contribution:     -0.08668      -6.10422      -2.88864
Nuclear contribution   :     -1.20694       6.46030       3.73136
                        -----------------------------------------
Total Dipole Moment    :     -1.29362       0.35608       0.84272
                        -----------------------------------------
Magnitude (a.u.)       :      1.58443
Magnitude (Debye)      :      4.02731

                             ****ORCA TERMINATED NORMALLY****
TOTAL RUN TIME: 0 days 0 hours 17 minutes 9 seconds 548 msec
