                         Program Version 3.0.3 - RELEASE   -
|  1> ! RI-MP2 RIJK def2-TZVP def2-TZVP/C def2-TZVP/JK TIGHTSCF
|  2> % maxcore 2000
|  3> % mp2 density relaxed end
|  4> *xyz 0 1
|  5>  C        0.0065927124     1.3932789048     0.0855802971
|  6>  N       -0.0234079248    -0.0484373219    -0.0112464588
|  7>  C       -0.0626322862    -0.8038873640    -1.1542706245
|  8>  C        0.0001938703    -2.1130250607    -0.7488710432
|  9>  C        0.0036636171    -3.5537792907    -1.1668204433
| 10>  C        0.0967183480    -4.2579766386     0.1847047120
| 11>  C        0.1368284528    -3.3869231091     1.2117195468
| 12>  C        0.0785228747    -2.0385079467     0.6607358395
| 13>  N        0.0686139514    -0.7929592905     1.1207282372
| 14>  H        1.0146908547     1.7550677723     0.3156068312
| 15>  H       -0.3182185371     1.8218821370    -0.8645407912
| 16>  H       -0.6709087344     1.7180279783     0.8782148110
| 17>  H       -0.1329379848    -0.3304774089    -2.1212081626
| 18>  H       -0.9024024896    -3.8542022269    -1.7095680502
| 19>  H        0.8499358135    -3.8209210060    -1.8135739110
| 20>  H        0.1260892370    -5.3369788696     0.2706648838
| 21>  H        0.2018940549    -3.6352224089     2.2626129561
| 22> *
| 23>
| 24>                          ****END OF INPUT****

CARTESIAN COORDINATES (ANGSTROEM)
---------------------------------
  C      0.006593    1.393279    0.085580
  N     -0.023408   -0.048437   -0.011246
  C     -0.062632   -0.803887   -1.154271
  C      0.000194   -2.113025   -0.748871
  C      0.003664   -3.553779   -1.166820
  C      0.096718   -4.257977    0.184705
  C      0.136828   -3.386923    1.211720
  C      0.078523   -2.038508    0.660736
  N      0.068614   -0.792959    1.120728
  H      1.014691    1.755068    0.315607
  H     -0.318219    1.821882   -0.864541
  H     -0.670909    1.718028    0.878215
  H     -0.132938   -0.330477   -2.121208
  H     -0.902402   -3.854202   -1.709568
  H      0.849936   -3.820921   -1.813574
  H      0.126089   -5.336979    0.270665
  H      0.201894   -3.635222    2.262613

 Total Charge           Charge          ....    0
 Multiplicity           Mult            ....    1
 Number of Electrons    NEL             ....   64
 Basis Dimension        Dim             ....  327

ORBITAL ENERGIES
----------------

  NO   OCC          E(Eh)            E(eV)
   0   2.0000     -15.627614      -425.2490
   1   2.0000     -15.572862      -423.7591
   2   2.0000     -11.270093      -306.6748
   3   2.0000     -11.267128      -306.5941
   4   2.0000     -11.242327      -305.9193
   5   2.0000     -11.240676      -305.8743
   6   2.0000     -11.237194      -305.7796
   7   2.0000     -11.232198      -305.6436
   8   2.0000     -11.211177      -305.0716
   9   2.0000      -1.363609       -37.1057
  10   2.0000      -1.154904       -31.4265
  11   2.0000      -1.091399       -29.6985
  12   2.0000      -1.035034       -28.1647
  13   2.0000      -0.947472       -25.7820
  14   2.0000      -0.921217       -25.0676
  15   2.0000      -0.794987       -21.6327
  16   2.0000      -0.773789       -21.0559
  17   2.0000      -0.737514       -20.0688
  18   2.0000      -0.683571       -18.6009
  19   2.0000      -0.645872       -17.5751
  20   2.0000      -0.629663       -17.1340
  21   2.0000      -0.595405       -16.2018
  22   2.0000      -0.594741       -16.1837
  23   2.0000      -0.554113       -15.0782
  24   2.0000      -0.545139       -14.8340
  25   2.0000      -0.533093       -14.5062
  26   2.0000      -0.525088       -14.2884
  27   2.0000      -0.504115       -13.7177
  28   2.0000      -0.437718       -11.9109
  29   2.0000      -0.410423       -11.1682
  30   2.0000      -0.332731        -9.0541
  31   2.0000      -0.301073        -8.1926
  32   0.0000       0.125034         3.4023
  33   0.0000       0.141310         3.8452
  34   0.0000       0.152944         4.1618
  35   0.0000       0.155401         4.2287
  36   0.0000       0.177193         4.8217

MULLIKEN ATOMIC CHARGES
-----------------------
   0 C :   -0.309376
   1 N :    0.135946
   2 C :   -0.137188
   3 C :   -0.122853
   4 C :   -0.181038
   5 C :   -0.117797
   6 C :   -0.293977
   7 C :    0.158187
   8 N :   -0.252637
   9 H :    0.148634
  10 H :    0.141181
  11 H :    0.160569
  12 H :    0.146976
  13 H :    0.131384
  14 H :    0.131408
  15 H :    0.130353
  16 H :    0.130228
Sum of atomic charges:   -0.0000000

LOEWDIN ATOMIC CHARGES
----------------------
   0 C :   -0.279931
   1 N :    0.177320
   2 C :   -0.205344
   3 C :   -0.150148
   4 C :   -0.199092
   5 C :   -0.140514
   6 C :   -0.114673
   7 C :   -0.249039
   8 N :    0.064481
   9 H :    0.123084
  10 H :    0.125448
  11 H :    0.128345
  12 H :    0.136787
  13 H :    0.153173
  14 H :    0.152986
  15 H :    0.134019
  16 H :    0.143097

  Mayer bond orders larger than 0.1
B(  0-C ,  1-N ) :   0.8680 B(  0-C ,  9-H ) :   0.9265 B(  0-C , 10-H ) :   0.9303
B(  0-C , 11-H ) :   0.9309 B(  1-N ,  2-C ) :   1.2145 B(  1-N ,  8-N ) :   1.0173
B(  2-C ,  3-C ) :   1.4013 B(  2-C ,  8-N ) :   0.1010 B(  2-C , 12-H ) :   0.8882
B(  3-C ,  4-C ) :   1.0159 B(  3-C ,  7-C ) :   1.1859 B(  4-C ,  5-C ) :   0.9724
B(  4-C , 13-H ) :   0.8841 B(  4-C , 14-H ) :   0.8863 B(  5-C ,  6-C ) :   1.7064
B(  5-C , 15-H ) :   0.9306 B(  6-C ,  7-C ) :   1.0467 B(  6-C , 16-H ) :   0.9280
B(  7-C ,  8-N ) :   1.5449

MP2 TOTAL ENERGY:     -380.212187516 Eh
FINAL SINGLE POINT ENERGY      -380.212187515659

DIPOLE MOMENT
-------------
                                X             Y             Z
Electronic contribution:      0.03726      -1.21520       1.84928
Nuclear contribution   :     -0.08749       1.59945      -2.70377
                        -----------------------------------------
Total Dipole Moment    :     -0.05022       0.38425      -0.85448
                        -----------------------------------------
Magnitude (a.u.)       :      0.93825
Magnitude (Debye)      :      2.38484

                             ****ORCA TERMINATED NORMALLY****
TOTAL RUN TIME: 0 days 0 hours 20 minutes 39 seconds 101 msec
