                         Program Version 3.0.3 - RELEASE   -
|  1> ! RI-MP2 RIJK def2-TZVP def2-TZVP/C def2-TZVP/JK TIGHTSCF
|  2> % maxcore 2000
|  3> % mp2 density relaxed end
|  4> *xyz 0 1
|  5>  C       -0.2495003225     1.3176520044    -0.0035060316
|  6>  N        0.0669337175    -0.0999564456     0.1131162366
|  7>  C        1.4449131590    -0.5285759584    -0.1538241447
|  8>  C        0.8992766519    -0.5470320994     1.2223381201
|  9>  C        1.2154907310     0.2498807930     2.4928858381
| 10>  C        0.2253999655    -0.6766528351     3.2532102848
| 11>  O       -1.0583341910    -0.1034689615     3.3160847046
| 12>  C        0.3020598004    -1.6918985967     2.0562545749
| 13>  O       -0.9329996530    -2.1728795231     1.5991110180
| 14>  H        0.6126606477     1.9747210484     0.1856592001
| 15>  H       -0.6191342524     1.5193608285    -1.0132145549
| 16>  H       -1.0349626798     1.5631496155     0.7172061959
| 17>  H        1.5573996314    -1.4479121614    -0.7234608453
| 18>  H        2.1702478012     0.2487305398    -0.3934708115
| 19>  H        2.2524443270     0.1214569329     2.8170344692
| 20>  H        0.9590098093     1.3105259261     2.5084536044
| 21>  H        0.5494707070    -1.0405541260     4.2359171898
| 22>  H       -1.6498245708    -0.7713323832     2.9349681981
| 23>  H        0.9918026366    -2.5224213328     2.2418900123
| 24>  H       -1.1152867461    -1.6358150654     0.8048762913
| 25> *
| 26>
| 27>                          ****END OF INPUT****

CARTESIAN COORDINATES (ANGSTROEM)
---------------------------------
  C     -0.249500    1.317652   -0.003506
  N      0.066934   -0.099956    0.113116
  C      1.444913   -0.528576   -0.153824
  C      0.899277   -0.547032    1.222338
  C      1.215491    0.249881    2.492886
  C      0.225400   -0.676653    3.253210
  O     -1.058334   -0.103469    3.316085
  C      0.302060   -1.691899    2.056255
  O     -0.933000   -2.172880    1.599111
  H      0.612661    1.974721    0.185659
  H     -0.619134    1.519361   -1.013215
  H     -1.034963    1.563150    0.717206
  H      1.557400   -1.447912   -0.723461
  H      2.170248    0.248731   -0.393471
  H      2.252444    0.121457    2.817034
  H      0.959010    1.310526    2.508454
  H      0.549471   -1.040554    4.235917
  H     -1.649825   -0.771332    2.934968
  H      0.991803   -2.522421    2.241890
  H     -1.115287   -1.635815    0.804876

 Total Charge           Charge          ....    0
 Multiplicity           Mult            ....    1
 Number of Electrons    NEL             ....   70
 Basis Dimension        Dim             ....  345

ORBITAL ENERGIES
----------------

  NO   OCC          E(Eh)            E(eV)
   0   2.0000     -20.558513      -559.4256
   1   2.0000     -20.548441      -559.1515
   2   2.0000     -15.573573      -423.7785
   3   2.0000     -11.282507      -307.0126
   4   2.0000     -11.279444      -306.9293
   5   2.0000     -11.272717      -306.7462
   6   2.0000     -11.265131      -306.5398
   7   2.0000     -11.253511      -306.2236
   8   2.0000     -11.232726      -305.6580
   9   2.0000      -1.385198       -37.6931
  10   2.0000      -1.347542       -36.6685
  11   2.0000      -1.285067       -34.9685
  12   2.0000      -1.097442       -29.8629
  13   2.0000      -0.994758       -27.0688
  14   2.0000      -0.901305       -24.5258
  15   2.0000      -0.850456       -23.1421
  16   2.0000      -0.834760       -22.7150
  17   2.0000      -0.750430       -20.4202
  18   2.0000      -0.706858       -19.2346
  19   2.0000      -0.690802       -18.7977
  20   2.0000      -0.675893       -18.3920
  21   2.0000      -0.649684       -17.6788
  22   2.0000      -0.608957       -16.5706
  23   2.0000      -0.604893       -16.4600
  24   2.0000      -0.591807       -16.1039
  25   2.0000      -0.566167       -15.4062
  26   2.0000      -0.551929       -15.0187
  27   2.0000      -0.542970       -14.7750
  28   2.0000      -0.513460       -13.9720
  29   2.0000      -0.487155       -13.2562
  30   2.0000      -0.473524       -12.8852
  31   2.0000      -0.451002       -12.2724
  32   2.0000      -0.423940       -11.5360
  33   2.0000      -0.418110       -11.3774
  34   2.0000      -0.382762       -10.4155
  35   0.0000       0.141343         3.8461
  36   0.0000       0.152632         4.1533
  37   0.0000       0.165276         4.4974
  38   0.0000       0.170009         4.6262
  39   0.0000       0.192221         5.2306

MULLIKEN ATOMIC CHARGES
-----------------------
   0 C :   -0.317525
   1 N :   -0.295747
   2 C :   -0.163584
   3 C :   -0.003413
   4 C :   -0.151412
   5 C :    0.059320
   6 O :   -0.490294
   7 C :    0.067344
   8 O :   -0.510223
   9 H :    0.117735
  10 H :    0.145089
  11 H :    0.153131
  12 H :    0.130946
  13 H :    0.125989
  14 H :    0.127353
  15 H :    0.127893
  16 H :    0.097441
  17 H :    0.332373
  18 H :    0.101538
  19 H :    0.346045
Sum of atomic charges:   -0.0000000

LOEWDIN ATOMIC CHARGES
----------------------
   0 C :   -0.324929
   1 N :    0.099077
   2 C :   -0.221526
   3 C :   -0.265151
   4 C :   -0.184396
   5 C :   -0.302285
   6 O :   -0.015363
   7 C :   -0.283067
   8 O :   -0.016470
   9 H :    0.109679
  10 H :    0.119461
  11 H :    0.123330
  12 H :    0.129541
  13 H :    0.129283
  14 H :    0.141809
  15 H :    0.139103
  16 H :    0.121609
  17 H :    0.179854
  18 H :    0.138623
  19 H :    0.181815

  Mayer bond orders larger than 0.1
B(  0-C ,  1-N ) :   0.8648 B(  0-C ,  9-H ) :   0.9297 B(  0-C , 10-H ) :   0.9331
B(  0-C , 11-H ) :   0.9332 B(  1-N ,  2-C ) :   0.9101 B(  1-N ,  3-C ) :   0.7788
B(  2-C ,  3-C ) :   0.9077 B(  2-C , 12-H ) :   0.9098 B(  2-C , 13-H ) :   0.9287
B(  3-C ,  4-C ) :   0.9051 B(  3-C ,  7-C ) :   0.9144 B(  4-C ,  5-C ) :   0.8956
B(  4-C ,  6-O ) :  -0.1040 B(  4-C , 14-H ) :   0.9098 B(  4-C , 15-H ) :   0.9058
B(  5-C ,  6-O ) :   1.0026 B(  5-C ,  7-C ) :   0.9025 B(  5-C , 16-H ) :   0.9582
B(  6-O , 17-H ) :   0.8098 B(  7-C ,  8-O ) :   0.9895 B(  7-C , 18-H ) :   0.9342
B(  8-O , 19-H ) :   0.7837

MP2 TOTAL ENERGY:     -439.524996760 Eh
FINAL SINGLE POINT ENERGY      -439.524996759712

DIPOLE MOMENT
-------------
                                X             Y             Z
Electronic contribution:     -1.91103      -3.86847       2.07811
Nuclear contribution   :      2.76169       4.22189      -2.62333
                        -----------------------------------------
Total Dipole Moment    :      0.85067       0.35342      -0.54522
                        -----------------------------------------
Magnitude (a.u.)       :      1.07042
Magnitude (Debye)      :      2.72079

                             ****ORCA TERMINATED NORMALLY****
TOTAL RUN TIME: 0 days 0 hours 17 minutes 25 seconds 235 msec
