                         Program Version 3.0.3 - RELEASE   -
|  1> ! RI-MP2 RIJK def2-TZVP def2-TZVP/C def2-TZVP/JK TIGHTSCF
|  2> % maxcore 2000
|  3> % mp2 density relaxed end
|  4> *xyz 0 1
|  5>  C        0.0013643321     1.4949537029     0.0066177969
|  6>  C       -0.0067774749    -0.0044295036    -0.0018002108
|  7>  C        0.5899221136    -0.9813328634    -1.0851835183
|  8>  C        0.0048339984    -1.9643495227    -0.0130168778
|  9>  C        0.6106127220    -0.9934835111     1.0587287473
| 10>  C        0.0312297746    -3.3957586272    -0.0213840972
| 11>  N        0.0361085627    -4.5524659719    -0.0279871381
| 12>  C       -1.2000226106    -0.9699148734     0.0042740345
| 13>  O       -2.3860276715    -0.9766029257     0.0155696198
| 14>  H        1.0234815036     1.8859384868    -0.0005662823
| 15>  H       -0.5202348044     1.8896298646    -0.8707603495
| 16>  H       -0.5039762073     1.8796067601     0.8978538123
| 17>  H        0.1305665664    -0.9909268130    -2.0745159487
| 18>  H        1.6808558712    -0.9827224322    -1.1356637882
| 19>  H        1.7023175807    -0.9953142467     1.0881174016
| 20>  H        0.1704408335    -1.0143455836     2.0565724783
| 21> *
| 22>
| 23>                          ****END OF INPUT****

CARTESIAN COORDINATES (ANGSTROEM)
---------------------------------
  C      0.001364    1.494954    0.006618
  C     -0.006777   -0.004430   -0.001800
  C      0.589922   -0.981333   -1.085184
  C      0.004834   -1.964350   -0.013017
  C      0.610613   -0.993484    1.058729
  C      0.031230   -3.395759   -0.021384
  N      0.036109   -4.552466   -0.027987
  C     -1.200023   -0.969915    0.004274
  O     -2.386028   -0.976603    0.015570
  H      1.023482    1.885938   -0.000566
  H     -0.520235    1.889630   -0.870760
  H     -0.503976    1.879607    0.897854
  H      0.130567   -0.990927   -2.074516
  H      1.680856   -0.982722   -1.135664
  H      1.702318   -0.995314    1.088117
  H      0.170441   -1.014346    2.056572

 Total Charge           Charge          ....    0
 Multiplicity           Mult            ....    1
 Number of Electrons    NEL             ....   64
 Basis Dimension        Dim             ....  321

ORBITAL ENERGIES
----------------

  NO   OCC          E(Eh)            E(eV)
   0   2.0000     -20.577843      -559.9516
   1   2.0000     -15.582960      -424.0339
   2   2.0000     -11.369301      -309.3744
   3   2.0000     -11.315701      -307.9159
   4   2.0000     -11.296316      -307.3884
   5   2.0000     -11.286330      -307.1166
   6   2.0000     -11.286311      -307.1161
   7   2.0000     -11.283750      -307.0465
   8   2.0000     -11.250243      -306.1347
   9   2.0000      -1.427884       -38.8547
  10   2.0000      -1.262940       -34.3663
  11   2.0000      -1.222461       -33.2649
  12   2.0000      -1.033299       -28.1175
  13   2.0000      -0.954596       -25.9759
  14   2.0000      -0.933268       -25.3955
  15   2.0000      -0.894412       -24.3382
  16   2.0000      -0.740550       -20.1514
  17   2.0000      -0.723917       -19.6988
  18   2.0000      -0.680032       -18.5046
  19   2.0000      -0.646669       -17.5968
  20   2.0000      -0.640229       -17.4215
  21   2.0000      -0.604343       -16.4450
  22   2.0000      -0.585524       -15.9329
  23   2.0000      -0.574821       -15.6417
  24   2.0000      -0.548654       -14.9296
  25   2.0000      -0.540917       -14.7191
  26   2.0000      -0.539193       -14.6722
  27   2.0000      -0.509204       -13.8562
  28   2.0000      -0.486341       -13.2340
  29   2.0000      -0.485903       -13.2221
  30   2.0000      -0.451192       -12.2776
  31   2.0000      -0.403861       -10.9896
  32   0.0000       0.114096         3.1047
  33   0.0000       0.135281         3.6812
  34   0.0000       0.138773         3.7762
  35   0.0000       0.150811         4.1038
  36   0.0000       0.156109         4.2480

MULLIKEN ATOMIC CHARGES
-----------------------
   0 C :   -0.410204
   1 C :    0.020351
   2 C :   -0.194425
   3 C :    0.074142
   4 C :   -0.194424
   5 C :   -0.264631
   6 N :   -0.019477
   7 C :    0.177227
   8 O :   -0.219180
   9 H :    0.147304
  10 H :    0.152573
  11 H :    0.152581
  12 H :    0.147690
  13 H :    0.141395
  14 H :    0.141389
  15 H :    0.147690
Sum of atomic charges:   -0.0000000

LOEWDIN ATOMIC CHARGES
----------------------
   0 C :   -0.268983
   1 C :   -0.190855
   2 C :   -0.115463
   3 C :   -0.173611
   4 C :   -0.115470
   5 C :   -0.153594
   6 N :    0.081383
   7 C :   -0.234758
   8 O :    0.191982
   9 H :    0.134264
  10 H :    0.138119
  11 H :    0.138122
  12 H :    0.140519
  13 H :    0.143914
  14 H :    0.143911
  15 H :    0.140519

  Mayer bond orders larger than 0.1
B(  0-C ,  1-C ) :   0.8273 B(  0-C ,  9-H ) :   0.9424 B(  0-C , 10-H ) :   0.9399
B(  0-C , 11-H ) :   0.9399 B(  1-C ,  2-C ) :   0.8618 B(  1-C ,  4-C ) :   0.8618
B(  1-C ,  7-C ) :   0.8397 B(  2-C ,  3-C ) :   0.8535 B(  2-C , 12-H ) :   0.9236
B(  2-C , 13-H ) :   0.9138 B(  3-C ,  4-C ) :   0.8535 B(  3-C ,  5-C ) :   0.8883
B(  3-C ,  7-C ) :   0.7893 B(  4-C , 14-H ) :   0.9138 B(  4-C , 15-H ) :   0.9236
B(  5-C ,  6-N ) :   2.8899 B(  7-C ,  8-O ) :   2.0991

MP2 TOTAL ENERGY:     -400.044060166 Eh
FINAL SINGLE POINT ENERGY      -400.044060165816

DIPOLE MOMENT
-------------
                                X             Y             Z
Electronic contribution:     -4.15643      -8.35485      -0.00723
Nuclear contribution   :      5.24677      10.20545       0.00724
                        -----------------------------------------
Total Dipole Moment    :      1.09035       1.85060       0.00001
                        -----------------------------------------
Magnitude (a.u.)       :      2.14792
Magnitude (Debye)      :      5.45959

                             ****ORCA TERMINATED NORMALLY****
TOTAL RUN TIME: 0 days 0 hours 16 minutes 9 seconds 472 msec
