                         Program Version 3.0.3 - RELEASE   -
|  1> ! RI-MP2 RIJK def2-TZVP def2-TZVP/C def2-TZVP/JK TIGHTSCF
|  2> % maxcore 2000
|  3> % mp2 density relaxed end
|  4> *xyz 0 1
|  5>  C       -0.0139030999     1.4391779331     0.1167416260
|  6>  C        0.0092979402    -0.0454941038    -0.0537037135
|  7>  N       -0.0484294402    -0.6276220374    -1.1781025437
|  8>  C       -0.0252564559    -2.0494403892    -1.2423118625
|  9>  N       -0.0878202564    -2.6732773274    -2.3579827340
| 10>  C        0.0655074169    -2.7430610787     0.0275694874
| 11>  C        0.1366606704    -2.0377251171     1.1710588062
| 12>  N        0.3067580882    -2.5106764187     2.4513864612
| 13>  O        0.1032780414    -0.6705015046     1.1709343249
| 14>  H        0.8953561118     1.7773980516     0.6240870465
| 15>  H       -0.0889536368     1.9128523249    -0.8606591543
| 16>  H       -0.8636655033     1.7377240024     0.7392387066
| 17>  H       -0.1496595631    -1.9852280385    -3.1107735965
| 18>  H        0.0824973975    -3.8244478605     0.0387493826
| 19>  H        0.0818064756    -3.4860754862     2.5759850805
| 20>  H       -0.0736791166    -1.9145943000     3.1725259425
| 21> *
| 22>
| 23>                          ****END OF INPUT****

CARTESIAN COORDINATES (ANGSTROEM)
---------------------------------
  C     -0.013903    1.439178    0.116742
  C      0.009298   -0.045494   -0.053704
  N     -0.048429   -0.627622   -1.178103
  C     -0.025256   -2.049440   -1.242312
  N     -0.087820   -2.673277   -2.357983
  C      0.065507   -2.743061    0.027569
  C      0.136661   -2.037725    1.171059
  N      0.306758   -2.510676    2.451386
  O      0.103278   -0.670502    1.170934
  H      0.895356    1.777398    0.624087
  H     -0.088954    1.912852   -0.860659
  H     -0.863666    1.737724    0.739239
  H     -0.149660   -1.985228   -3.110774
  H      0.082497   -3.824448    0.038749
  H      0.081806   -3.486075    2.575985
  H     -0.073679   -1.914594    3.172526

 Total Charge           Charge          ....    0
 Multiplicity           Mult            ....    1
 Number of Electrons    NEL             ....   66
 Basis Dimension        Dim             ....  321

ORBITAL ENERGIES
----------------

  NO   OCC          E(Eh)            E(eV)
   0   2.0000     -20.644013      -561.7521
   1   2.0000     -15.596751      -424.4092
   2   2.0000     -15.564670      -423.5362
   3   2.0000     -15.512790      -422.1245
   4   2.0000     -11.371649      -309.4383
   5   2.0000     -11.367177      -309.3166
   6   2.0000     -11.304321      -307.6062
   7   2.0000     -11.250599      -306.1444
   8   2.0000     -11.219450      -305.2968
   9   2.0000      -1.488059       -40.4922
  10   2.0000      -1.271059       -34.5873
  11   2.0000      -1.243050       -33.8251
  12   2.0000      -1.163137       -31.6506
  13   2.0000      -1.060050       -28.8454
  14   2.0000      -1.007850       -27.4250
  15   2.0000      -0.892066       -24.2744
  16   2.0000      -0.840207       -22.8632
  17   2.0000      -0.758182       -20.6312
  18   2.0000      -0.729828       -19.8596
  19   2.0000      -0.688023       -18.7221
  20   2.0000      -0.687121       -18.6975
  21   2.0000      -0.675534       -18.3822
  22   2.0000      -0.621438       -16.9102
  23   2.0000      -0.595704       -16.2099
  24   2.0000      -0.589936       -16.0530
  25   2.0000      -0.577869       -15.7246
  26   2.0000      -0.560060       -15.2400
  27   2.0000      -0.514720       -14.0063
  28   2.0000      -0.507811       -13.8183
  29   2.0000      -0.444621       -12.0987
  30   2.0000      -0.416628       -11.3370
  31   2.0000      -0.398148       -10.8342
  32   2.0000      -0.316166        -8.6033
  33   0.0000       0.117887         3.2079
  34   0.0000       0.125597         3.4177
  35   0.0000       0.139488         3.7957
  36   0.0000       0.153584         4.1792
  37   0.0000       0.168872         4.5953

MULLIKEN ATOMIC CHARGES
-----------------------
   0 C :   -0.409644
   1 C :    0.250379
   2 N :   -0.259270
   3 C :    0.116167
   4 N :   -0.354257
   5 C :   -0.291524
   6 C :    0.357600
   7 N :   -0.501797
   8 O :   -0.247873
   9 H :    0.152597
  10 H :    0.162991
  11 H :    0.148935
  12 H :    0.215784
  13 H :    0.132516
  14 H :    0.262679
  15 H :    0.264715
Sum of atomic charges:   -0.0000000

LOEWDIN ATOMIC CHARGES
----------------------
   0 C :   -0.258897
   1 C :   -0.337064
   2 N :    0.152718
   3 C :   -0.370040
   4 N :   -0.061312
   5 C :   -0.158722
   6 C :   -0.340328
   7 N :   -0.043817
   8 O :    0.323148
   9 H :    0.139693
  10 H :    0.141600
  11 H :    0.138621
  12 H :    0.160905
  13 H :    0.157629
  14 H :    0.178931
  15 H :    0.176936

  Mayer bond orders larger than 0.1
B(  0-C ,  1-C ) :   0.8919 B(  0-C ,  9-H ) :   0.9218 B(  0-C , 10-H ) :   0.9475
B(  0-C , 11-H ) :   0.9222 B(  1-C ,  2-N ) :   1.8418 B(  1-C ,  8-O ) :   0.9829
B(  2-N ,  3-C ) :   0.9919 B(  3-C ,  4-N ) :   2.0159 B(  3-C ,  5-C ) :   1.0954
B(  4-N , 12-H ) :   0.8641 B(  5-C ,  6-C ) :   1.5742 B(  5-C , 13-H ) :   0.9063
B(  6-C ,  7-N ) :   1.1036 B(  6-C ,  8-O ) :   1.0011 B(  7-N , 14-H ) :   0.8728
B(  7-N , 15-H ) :   0.8601

MP2 TOTAL ENERGY:     -433.380737893 Eh
FINAL SINGLE POINT ENERGY      -433.380737893079

DIPOLE MOMENT
-------------
                                X             Y             Z
Electronic contribution:      0.14919      -2.45284      -0.78900
Nuclear contribution   :     -0.42267       3.14225       2.62601
                        -----------------------------------------
Total Dipole Moment    :     -0.27349       0.68941       1.83701
                        -----------------------------------------
Magnitude (a.u.)       :      1.98108
Magnitude (Debye)      :      5.03551

                             ****ORCA TERMINATED NORMALLY****
TOTAL RUN TIME: 0 days 0 hours 14 minutes 18 seconds 528 msec
