                         Program Version 3.0.3 - RELEASE   -
|  1> ! RI-MP2 RIJK def2-TZVP def2-TZVP/C def2-TZVP/JK TIGHTSCF
|  2> % maxcore 2000
|  3> % mp2 density relaxed end
|  4> *xyz 0 1
|  5>  C       -0.0113840212     1.5812751526    -0.0002003753
|  6>  C        0.0082097603     0.0549993342    -0.0276061741
|  7>  C        1.1541507886    -0.5977385363    -0.8551638601
|  8>  C        2.0424041438    -0.5047439265     0.4170283952
|  9>  C        0.6958485816    -0.6208034219     1.2024746152
| 10>  C        0.4084043916    -2.1187691755     1.2555532937
| 11>  C       -0.7965751980    -2.7608792716     0.5990443985
| 12>  C        0.5509929271    -2.7771982753    -0.0894296996
| 13>  O        0.8246655393    -1.9455862111    -1.1922848577
| 14>  H        0.9628329284     2.0145568260     0.2451639540
| 15>  H       -0.3155310622     1.9811109770    -0.9737666519
| 16>  H       -0.7281805484     1.9427285855     0.7451825910
| 17>  H       -0.9902186022    -0.3020215981    -0.2898389345
| 18>  H        1.4839919375    -0.1307236628    -1.7855208727
| 19>  H        2.7874773274    -1.2886307152     0.5703265421
| 20>  H        2.5162800325     0.4739993004     0.5031509757
| 21>  H        0.5913221151    -0.1350730047     2.1758637168
| 22>  H        0.8381891572    -2.6280194512     2.1140172890
| 23>  H       -1.1431965611    -3.7009737081     1.0157945837
| 24>  H       -1.5841253567    -2.1409692288     0.1898404494
| 25>  H        1.0611320995    -3.7308881284    -0.1834932788
| 26> *
| 27>
| 28>                          ****END OF INPUT****

CARTESIAN COORDINATES (ANGSTROEM)
---------------------------------
  C     -0.011384    1.581275   -0.000200
  C      0.008210    0.054999   -0.027606
  C      1.154151   -0.597739   -0.855164
  C      2.042404   -0.504744    0.417028
  C      0.695849   -0.620803    1.202475
  C      0.408404   -2.118769    1.255553
  C     -0.796575   -2.760879    0.599044
  C      0.550993   -2.777198   -0.089430
  O      0.824666   -1.945586   -1.192285
  H      0.962833    2.014557    0.245164
  H     -0.315531    1.981111   -0.973767
  H     -0.728181    1.942729    0.745183
  H     -0.990219   -0.302022   -0.289839
  H      1.483992   -0.130724   -1.785521
  H      2.787477   -1.288631    0.570327
  H      2.516280    0.473999    0.503151
  H      0.591322   -0.135073    2.175864
  H      0.838189   -2.628019    2.114017
  H     -1.143197   -3.700974    1.015795
  H     -1.584125   -2.140969    0.189840
  H      1.061132   -3.730888   -0.183493

 Total Charge           Charge          ....    0
 Multiplicity           Mult            ....    1
 Number of Electrons    NEL             ....   68
 Basis Dimension        Dim             ....  351

ORBITAL ENERGIES
----------------

  NO   OCC          E(Eh)            E(eV)
   0   2.0000     -20.551758      -559.2418
   1   2.0000     -11.278115      -306.8931
   2   2.0000     -11.274314      -306.7897
   3   2.0000     -11.235607      -305.7364
   4   2.0000     -11.231174      -305.6158
   5   2.0000     -11.225791      -305.4693
   6   2.0000     -11.221808      -305.3609
   7   2.0000     -11.219956      -305.3105
   8   2.0000     -11.218545      -305.2721
   9   2.0000      -1.375877       -37.4395
  10   2.0000      -1.148116       -31.2418
  11   2.0000      -1.115190       -30.3459
  12   2.0000      -0.982137       -26.7253
  13   2.0000      -0.898118       -24.4390
  14   2.0000      -0.871938       -23.7266
  15   2.0000      -0.825066       -22.4512
  16   2.0000      -0.796511       -21.6742
  17   2.0000      -0.705557       -19.1992
  18   2.0000      -0.692956       -18.8563
  19   2.0000      -0.644475       -17.5371
  20   2.0000      -0.634997       -17.2792
  21   2.0000      -0.624147       -16.9839
  22   2.0000      -0.584843       -15.9144
  23   2.0000      -0.552995       -15.0478
  24   2.0000      -0.550089       -14.9687
  25   2.0000      -0.546499       -14.8710
  26   2.0000      -0.531581       -14.4651
  27   2.0000      -0.515039       -14.0149
  28   2.0000      -0.486693       -13.2436
  29   2.0000      -0.457835       -12.4583
  30   2.0000      -0.438093       -11.9211
  31   2.0000      -0.421988       -11.4829
  32   2.0000      -0.383780       -10.4432
  33   2.0000      -0.371050       -10.0968
  34   0.0000       0.141352         3.8464
  35   0.0000       0.150400         4.0926
  36   0.0000       0.165861         4.5133
  37   0.0000       0.174545         4.7496
  38   0.0000       0.190396         5.1809

MULLIKEN ATOMIC CHARGES
-----------------------
   0 C :   -0.444470
   1 C :   -0.109770
   2 C :    0.120807
   3 C :   -0.326898
   4 C :    0.062927
   5 C :   -0.229802
   6 C :   -0.251672
   7 C :    0.034404
   8 O :   -0.314619
   9 H :    0.126533
  10 H :    0.138131
  11 H :    0.135049
  12 H :    0.091564
  13 H :    0.115031
  14 H :    0.119333
  15 H :    0.125249
  16 H :    0.116830
  17 H :    0.118426
  18 H :    0.127631
  19 H :    0.131243
  20 H :    0.114073
Sum of atomic charges:    0.0000000

LOEWDIN ATOMIC CHARGES
----------------------
   0 C :   -0.290714
   1 C :   -0.212571
   2 C :   -0.252506
   3 C :   -0.197575
   4 C :   -0.181244
   5 C :   -0.191882
   6 C :   -0.209533
   7 C :   -0.272610
   8 O :    0.201141
   9 H :    0.123564
  10 H :    0.126367
  11 H :    0.126247
  12 H :    0.142564
  13 H :    0.132074
  14 H :    0.131655
  15 H :    0.134564
  16 H :    0.139381
  17 H :    0.148621
  18 H :    0.134460
  19 H :    0.132501
  20 H :    0.135496

  Mayer bond orders larger than 0.1
B(  0-C ,  1-C ) :   0.8915 B(  0-C ,  9-H ) :   0.9326 B(  0-C , 10-H ) :   0.9435
B(  0-C , 11-H ) :   0.9377 B(  1-C ,  2-C ) :   0.8872 B(  1-C ,  4-C ) :   0.8930
B(  1-C , 12-H ) :   0.9243 B(  2-C ,  3-C ) :   0.9194 B(  2-C ,  8-O ) :   0.9150
B(  2-C , 13-H ) :   0.9302 B(  3-C ,  4-C ) :   0.8990 B(  3-C , 14-H ) :   0.9147
B(  3-C , 15-H ) :   0.9179 B(  4-C ,  5-C ) :   0.8647 B(  4-C , 16-H ) :   0.9200
B(  5-C ,  6-C ) :   0.9026 B(  5-C ,  7-C ) :   0.9153 B(  5-C , 17-H ) :   0.9292
B(  6-C ,  7-C ) :   0.8490 B(  6-C , 18-H ) :   0.9255 B(  6-C , 19-H ) :   0.9120
B(  7-C ,  8-O ) :   0.9705 B(  7-C , 20-H ) :   0.9566

MP2 TOTAL ENERGY:     -386.381685244 Eh
FINAL SINGLE POINT ENERGY      -386.381685243548

DIPOLE MOMENT
-------------
                                X             Y             Z
Electronic contribution:      0.98961      -4.49213      -2.12343
Nuclear contribution   :     -0.96377       4.76739       2.64964
                        -----------------------------------------
Total Dipole Moment    :      0.02585       0.27526       0.52621
                        -----------------------------------------
Magnitude (a.u.)       :      0.59442
Magnitude (Debye)      :      1.51088

                             ****ORCA TERMINATED NORMALLY****
TOTAL RUN TIME: 0 days 0 hours 20 minutes 4 seconds 236 msec
