                         Program Version 3.0.3 - RELEASE   -
|  1> ! RI-MP2 RIJK def2-TZVP def2-TZVP/C def2-TZVP/JK TIGHTSCF
|  2> % maxcore 2000
|  3> % mp2 density relaxed end
|  4> *xyz 0 1
|  5>  C       -0.0318094300     1.5471003040     0.0269952397
|  6>  C        0.0039088479     0.0514097860    -0.0088934074
|  7>  C       -0.0387362378    -0.7778224477    -1.0948470006
|  8>  N        0.0208113588    -2.0727931752    -0.6264459400
|  9>  C        0.0038358017    -3.2271927189    -1.4198483271
| 10>  O        0.0558168708    -4.3493605519    -1.0093754738
| 11>  N        0.1011404837    -2.1177355395     0.7313002603
| 12>  C        0.0905691926    -0.8523977897     1.0972541318
| 13>  H        0.8618045692     1.9570838797     0.5100669562
| 14>  H       -0.0870813894     1.9657857882    -0.9810981758
| 15>  H       -0.8983766612     1.9134730634     0.5882520795
| 16>  H       -0.1052485997    -0.5694116161    -2.1514077831
| 17>  H       -0.0652815942    -2.9530505965    -2.4893884166
| 18>  H        0.1456675776    -0.6024666457     2.1484637468
| 19> *
| 20>
| 21>                          ****END OF INPUT****

CARTESIAN COORDINATES (ANGSTROEM)
---------------------------------
  C     -0.031809    1.547100    0.026995
  C      0.003909    0.051410   -0.008893
  C     -0.038736   -0.777822   -1.094847
  N      0.020811   -2.072793   -0.626446
  C      0.003836   -3.227193   -1.419848
  O      0.055817   -4.349361   -1.009375
  N      0.101140   -2.117736    0.731300
  C      0.090569   -0.852398    1.097254
  H      0.861805    1.957084    0.510067
  H     -0.087081    1.965786   -0.981098
  H     -0.898377    1.913473    0.588252
  H     -0.105249   -0.569412   -2.151408
  H     -0.065282   -2.953051   -2.489388
  H      0.145668   -0.602467    2.148464

 Total Charge           Charge          ....    0
 Multiplicity           Mult            ....    1
 Number of Electrons    NEL             ....   58
 Basis Dimension        Dim             ....  284

ORBITAL ENERGIES
----------------

  NO   OCC          E(Eh)            E(eV)
   0   2.0000     -20.559573      -559.4544
   1   2.0000     -15.659557      -426.1182
   2   2.0000     -15.605232      -424.6399
   3   2.0000     -11.377284      -309.5916
   4   2.0000     -11.294446      -307.3375
   5   2.0000     -11.275197      -306.8137
   6   2.0000     -11.252341      -306.1918
   7   2.0000     -11.245175      -305.9968
   8   2.0000      -1.430265       -38.9195
   9   2.0000      -1.377123       -37.4734
  10   2.0000      -1.144330       -31.1388
  11   2.0000      -1.097360       -29.8607
  12   2.0000      -0.976210       -26.5640
  13   2.0000      -0.897189       -24.4138
  14   2.0000      -0.812250       -22.1024
  15   2.0000      -0.775921       -21.1139
  16   2.0000      -0.741859       -20.1870
  17   2.0000      -0.656336       -17.8598
  18   2.0000      -0.653371       -17.7791
  19   2.0000      -0.642075       -17.4717
  20   2.0000      -0.601384       -16.3645
  21   2.0000      -0.587402       -15.9840
  22   2.0000      -0.578025       -15.7289
  23   2.0000      -0.549814       -14.9612
  24   2.0000      -0.532328       -14.4854
  25   2.0000      -0.472012       -12.8441
  26   2.0000      -0.458650       -12.4805
  27   2.0000      -0.384356       -10.4588
  28   2.0000      -0.358644        -9.7592
  29   0.0000       0.093075         2.5327
  30   0.0000       0.129740         3.5304
  31   0.0000       0.144832         3.9411
  32   0.0000       0.164093         4.4652
  33   0.0000       0.181516         4.9393

MULLIKEN ATOMIC CHARGES
-----------------------
   0 C :   -0.415560
   1 C :    0.004514
   2 C :   -0.155021
   3 N :    0.121630
   4 C :    0.139055
   5 O :   -0.240590
   6 N :   -0.224431
   7 C :   -0.075308
   8 H :    0.150578
   9 H :    0.140628
  10 H :    0.150649
  11 H :    0.163476
  12 H :    0.096784
  13 H :    0.143597
Sum of atomic charges:   -0.0000000

LOEWDIN ATOMIC CHARGES
----------------------
   0 C :   -0.268358
   1 C :   -0.211782
   2 C :   -0.179202
   3 N :    0.190048
   4 C :   -0.349308
   5 O :    0.151442
   6 N :    0.082374
   7 C :   -0.219755
   8 H :    0.134638
   9 H :    0.132816
  10 H :    0.134625
  11 H :    0.143310
  12 H :    0.119392
  13 H :    0.139759

  Mayer bond orders larger than 0.1
B(  0-C ,  1-C ) :   0.8590 B(  0-C ,  8-H ) :   0.9342 B(  0-C ,  9-H ) :   0.9488
B(  0-C , 10-H ) :   0.9333 B(  1-C ,  2-C ) :   1.5168 B(  1-C ,  7-C ) :   1.2102
B(  2-C ,  3-N ) :   1.1305 B(  2-C ,  6-N ) :   0.1071 B(  2-C , 11-H ) :   0.8864
B(  3-N ,  4-C ) :   0.9354 B(  3-N ,  6-N ) :   0.9604 B(  4-C ,  5-O ) :   2.0263
B(  4-C , 12-H ) :   0.9243 B(  6-N ,  7-C ) :   1.5345 B(  7-C , 13-H ) :   0.9351

MP2 TOTAL ENERGY:     -378.117253096 Eh
FINAL SINGLE POINT ENERGY      -378.117253095794

DIPOLE MOMENT
-------------
                                X             Y             Z
Electronic contribution:      0.19438      -8.31083      -0.23943
Nuclear contribution   :     -0.28086      10.02750      -0.50267
                        -----------------------------------------
Total Dipole Moment    :     -0.08648       1.71667      -0.74210
                        -----------------------------------------
Magnitude (a.u.)       :      1.87221
Magnitude (Debye)      :      4.75877

                             ****ORCA TERMINATED NORMALLY****
TOTAL RUN TIME: 0 days 0 hours 10 minutes 29 seconds 231 msec
