                         Program Version 3.0.3 - RELEASE   -
|  1> ! RI-MP2 RIJK def2-TZVP def2-TZVP/C def2-TZVP/JK TIGHTSCF
|  2> % maxcore 2000
|  3> % mp2 density relaxed end
|  4> *xyz 0 1
|  5>  C        0.0362918410     1.5538464519    -0.0566896955
|  6>  C        0.0363059809     0.0245020098     0.0337672098
|  7>  C        0.7000054201    -0.5094945113     1.2869585138
|  8>  C        0.8509108767    -2.0691380325     1.3937468080
|  9>  C        2.0532941857    -2.1954297604     2.3706354089
| 10>  C        2.3535628936    -0.6850803839     2.6499023309
| 11>  O        2.0817478862    -0.1080410379     1.3699906257
| 12>  C        1.1989131376    -0.1572837277     3.4928562842
| 13>  C        0.1719834025    -0.0545135696     2.6504833727
| 14>  H        1.0582646359     1.9386231193    -0.0157792036
| 15>  H       -0.4234991932     1.8891425147    -0.9911194068
| 16>  H       -0.5205915642     2.0031528143     0.7720189547
| 17>  H       -0.9910460872    -0.3600062957     0.0005962083
| 18>  H        0.5541607642    -0.3998565338    -0.8346368201
| 19>  H       -0.0594955836    -2.5529467910     1.7547947991
| 20>  H        1.0926985049    -2.4832927944     0.4111735460
| 21>  H        1.8250660588    -2.7558289052     3.2800935585
| 22>  H        2.9128597990    -2.6631898992     1.8846210480
| 23>  H        3.3674007103    -0.4522937976     2.9738515673
| 24>  H        1.2118680345    -0.0277271809     4.5668243835
| 25>  H       -0.8615297338     0.1824485413     2.8669058165
| 26> *
| 27>
| 28>                          ****END OF INPUT****

CARTESIAN COORDINATES (ANGSTROEM)
---------------------------------
  C      0.036292    1.553846   -0.056690
  C      0.036306    0.024502    0.033767
  C      0.700005   -0.509495    1.286959
  C      0.850911   -2.069138    1.393747
  C      2.053294   -2.195430    2.370635
  C      2.353563   -0.685080    2.649902
  O      2.081748   -0.108041    1.369991
  C      1.198913   -0.157284    3.492856
  C      0.171983   -0.054514    2.650483
  H      1.058265    1.938623   -0.015779
  H     -0.423499    1.889143   -0.991119
  H     -0.520592    2.003153    0.772019
  H     -0.991046   -0.360006    0.000596
  H      0.554161   -0.399857   -0.834637
  H     -0.059496   -2.552947    1.754795
  H      1.092699   -2.483293    0.411174
  H      1.825066   -2.755829    3.280094
  H      2.912860   -2.663190    1.884621
  H      3.367401   -0.452294    2.973852
  H      1.211868   -0.027727    4.566824
  H     -0.861530    0.182449    2.866906

 Total Charge           Charge          ....    0
 Multiplicity           Mult            ....    1
 Number of Electrons    NEL             ....   68
 Basis Dimension        Dim             ....  351

ORBITAL ENERGIES
----------------

  NO   OCC          E(Eh)            E(eV)
   0   2.0000     -20.544826      -559.0531
   1   2.0000     -11.283779      -307.0472
   2   2.0000     -11.280398      -306.9552
   3   2.0000     -11.226524      -305.4893
   4   2.0000     -11.224680      -305.4391
   5   2.0000     -11.222823      -305.3885
   6   2.0000     -11.221648      -305.3566
   7   2.0000     -11.220981      -305.3384
   8   2.0000     -11.206747      -304.9511
   9   2.0000      -1.387629       -37.7593
  10   2.0000      -1.088340       -29.6152
  11   2.0000      -1.055267       -28.7153
  12   2.0000      -1.015068       -27.6214
  13   2.0000      -0.963410       -26.2157
  14   2.0000      -0.850512       -23.1436
  15   2.0000      -0.807486       -21.9728
  16   2.0000      -0.772113       -21.0103
  17   2.0000      -0.742965       -20.2171
  18   2.0000      -0.684361       -18.6224
  19   2.0000      -0.661784       -18.0081
  20   2.0000      -0.616395       -16.7730
  21   2.0000      -0.604363       -16.4455
  22   2.0000      -0.564756       -15.3678
  23   2.0000      -0.559482       -15.2243
  24   2.0000      -0.551503       -15.0072
  25   2.0000      -0.530967       -14.4483
  26   2.0000      -0.503913       -13.7122
  27   2.0000      -0.491716       -13.3803
  28   2.0000      -0.487080       -13.2541
  29   2.0000      -0.476224       -12.9587
  30   2.0000      -0.464135       -12.6297
  31   2.0000      -0.443242       -12.0612
  32   2.0000      -0.420030       -11.4296
  33   2.0000      -0.351619        -9.5680
  34   0.0000       0.139156         3.7866
  35   0.0000       0.141539         3.8515
  36   0.0000       0.160235         4.3602
  37   0.0000       0.173153         4.7117
  38   0.0000       0.178574         4.8593

MULLIKEN ATOMIC CHARGES
-----------------------
   0 C :   -0.396052
   1 C :   -0.219074
   2 C :    0.282129
   3 C :   -0.234306
   4 C :   -0.211468
   5 C :    0.058629
   6 O :   -0.313059
   7 C :   -0.185707
   8 C :   -0.264686
   9 H :    0.145174
  10 H :    0.130320
  11 H :    0.121278
  12 H :    0.111220
  13 H :    0.116019
  14 H :    0.117105
  15 H :    0.115591
  16 H :    0.106742
  17 H :    0.118705
  18 H :    0.134039
  19 H :    0.132672
  20 H :    0.134728
Sum of atomic charges:    0.0000000

LOEWDIN ATOMIC CHARGES
----------------------
   0 C :   -0.310533
   1 C :   -0.251454
   2 C :   -0.315857
   3 C :   -0.202814
   4 C :   -0.225783
   5 C :   -0.275541
   6 O :    0.219443
   7 C :   -0.133811
   8 C :   -0.113792
   9 H :    0.128001
  10 H :    0.119682
  11 H :    0.121297
  12 H :    0.144491
  13 H :    0.144789
  14 H :    0.134565
  15 H :    0.137143
  16 H :    0.132932
  17 H :    0.135043
  18 H :    0.137187
  19 H :    0.136005
  20 H :    0.139010

  Mayer bond orders larger than 0.1
B(  0-C ,  1-C ) :   0.9412 B(  0-C ,  9-H ) :   0.9362 B(  0-C , 10-H ) :   0.9386
B(  0-C , 11-H ) :   0.9360 B(  1-C ,  2-C ) :   0.8666 B(  1-C , 12-H ) :   0.9320
B(  1-C , 13-H ) :   0.9404 B(  2-C ,  3-C ) :   0.9036 B(  2-C ,  6-O ) :   0.9168
B(  2-C ,  8-C ) :   0.9137 B(  3-C ,  4-C ) :   0.9996 B(  3-C , 14-H ) :   0.9159
B(  3-C , 15-H ) :   0.9215 B(  4-C ,  5-C ) :   0.9210 B(  4-C , 16-H ) :   0.9135
B(  4-C , 17-H ) :   0.9226 B(  5-C ,  6-O ) :   0.9543 B(  5-C ,  7-C ) :   0.9525
B(  5-C , 18-H ) :   0.9064 B(  7-C ,  8-C ) :   1.7889 B(  7-C , 19-H ) :   0.9257
B(  8-C , 20-H ) :   0.9226

MP2 TOTAL ENERGY:     -386.425503791 Eh
FINAL SINGLE POINT ENERGY      -386.425503790540

DIPOLE MOMENT
-------------
                                X             Y             Z
Electronic contribution:      2.96001      -0.20253       3.23902
Nuclear contribution   :     -3.30159      -0.19307      -2.92592
                        -----------------------------------------
Total Dipole Moment    :     -0.34159      -0.39560       0.31309
                        -----------------------------------------
Magnitude (a.u.)       :      0.60927
Magnitude (Debye)      :      1.54864

                             ****ORCA TERMINATED NORMALLY****
TOTAL RUN TIME: 0 days 0 hours 20 minutes 51 seconds 471 msec
