                         Program Version 3.0.3 - RELEASE   -
|  1> ! RI-MP2 RIJK def2-TZVP def2-TZVP/C def2-TZVP/JK TIGHTSCF
|  2> % maxcore 2000
|  3> % mp2 density relaxed end
|  4> *xyz 0 1
|  5>  C       -0.0616476576     1.5363848873     0.0741170433
|  6>  C        0.0765746809     0.0492758066     0.0333079830
|  7>  N       -0.8466518851    -0.8853733716     0.7100077942
|  8>  C        0.6152883923    -0.9384262135     0.9883522928
|  9>  C        1.3016566163    -1.7433830013    -0.1467459310
| 10>  C        0.3450459527    -2.1995530277    -1.1989848367
| 11>  C        0.7359606071    -0.7318393687    -1.1676413325
| 12>  C        1.4241825463    -0.0809018533    -2.2252153319
| 13>  N        1.9811208877     0.4765603128    -3.0753360996
| 14>  H        0.8596800001     2.0233357304    -0.2601316009
| 15>  H       -0.8727959237     1.8747436469    -0.5806326503
| 16>  H       -0.2787192599     1.8764718719     1.0919395678
| 17>  H       -1.2828939157    -0.3744902662     1.4767924815
| 18>  H        1.0066360562    -0.8057422545     1.9881650504
| 19>  H        2.3281765598    -2.0795358367    -0.0968822687
| 20>  H        0.7920849015    -2.7557626329    -2.0158359200
| 21>  H       -0.6698589091    -2.4684240496    -0.9380290615
| 22> *
| 23>
| 24>                          ****END OF INPUT****

CARTESIAN COORDINATES (ANGSTROEM)
---------------------------------
  C     -0.061648    1.536385    0.074117
  C      0.076575    0.049276    0.033308
  N     -0.846652   -0.885373    0.710008
  C      0.615288   -0.938426    0.988352
  C      1.301657   -1.743383   -0.146746
  C      0.345046   -2.199553   -1.198985
  C      0.735961   -0.731839   -1.167641
  C      1.424183   -0.080902   -2.225215
  N      1.981121    0.476560   -3.075336
  H      0.859680    2.023336   -0.260132
  H     -0.872796    1.874744   -0.580633
  H     -0.278719    1.876472    1.091940
  H     -1.282894   -0.374490    1.476792
  H      1.006636   -0.805742    1.988165
  H      2.328177   -2.079536   -0.096882
  H      0.792085   -2.755763   -2.015836
  H     -0.669859   -2.468424   -0.938029

 Total Charge           Charge          ....    0
 Multiplicity           Mult            ....    1
 Number of Electrons    NEL             ....   64
 Basis Dimension        Dim             ....  327

ORBITAL ENERGIES
----------------

  NO   OCC          E(Eh)            E(eV)
   0   2.0000     -15.578785      -423.9203
   1   2.0000     -15.563117      -423.4940
   2   2.0000     -11.296799      -307.4015
   3   2.0000     -11.283109      -307.0290
   4   2.0000     -11.282563      -307.0141
   5   2.0000     -11.270945      -306.6980
   6   2.0000     -11.270737      -306.6923
   7   2.0000     -11.258126      -306.3492
   8   2.0000     -11.243155      -305.9418
   9   2.0000      -1.314440       -35.7677
  10   2.0000      -1.213109       -33.0104
  11   2.0000      -1.158891       -31.5350
  12   2.0000      -1.019073       -27.7304
  13   2.0000      -0.939714       -25.5709
  14   2.0000      -0.915337       -24.9076
  15   2.0000      -0.824131       -22.4258
  16   2.0000      -0.785075       -21.3630
  17   2.0000      -0.709587       -19.3088
  18   2.0000      -0.669169       -18.2090
  19   2.0000      -0.660475       -17.9724
  20   2.0000      -0.605931       -16.4882
  21   2.0000      -0.590750       -16.0751
  22   2.0000      -0.567059       -15.4305
  23   2.0000      -0.557520       -15.1709
  24   2.0000      -0.533883       -14.5277
  25   2.0000      -0.522567       -14.2198
  26   2.0000      -0.503849       -13.7104
  27   2.0000      -0.498886       -13.5754
  28   2.0000      -0.470062       -12.7910
  29   2.0000      -0.430257       -11.7079
  30   2.0000      -0.413151       -11.2424
  31   2.0000      -0.346322        -9.4239
  32   0.0000       0.123869         3.3706
  33   0.0000       0.143964         3.9175
  34   0.0000       0.154197         4.1959
  35   0.0000       0.158727         4.3192
  36   0.0000       0.167263         4.5515

MULLIKEN ATOMIC CHARGES
-----------------------
   0 C :   -0.399377
   1 C :    0.027648
   2 N :   -0.373575
   3 C :   -0.113233
   4 C :   -0.072775
   5 C :   -0.278096
   6 C :    0.217926
   7 C :   -0.260610
   8 N :   -0.054907
   9 H :    0.159146
  10 H :    0.154321
  11 H :    0.130756
  12 H :    0.219731
  13 H :    0.151548
  14 H :    0.158859
  15 H :    0.152666
  16 H :    0.179973
Sum of atomic charges:    0.0000000

LOEWDIN ATOMIC CHARGES
----------------------
   0 C :   -0.266086
   1 C :   -0.233071
   2 N :    0.030555
   3 C :   -0.183957
   4 C :   -0.112198
   5 C :   -0.148310
   6 C :   -0.146588
   7 C :   -0.168949
   8 N :    0.059677
   9 H :    0.141418
  10 H :    0.137342
  11 H :    0.132404
  12 H :    0.175788
  13 H :    0.135750
  14 H :    0.146987
  15 H :    0.151114
  16 H :    0.148127

  Mayer bond orders larger than 0.1
B(  0-C ,  1-C ) :   0.8912 B(  0-C ,  9-H ) :   0.9291 B(  0-C , 10-H ) :   0.9432
B(  0-C , 11-H ) :   0.9317 B(  1-C ,  2-N ) :   0.9503 B(  1-C ,  3-C ) :   0.9775
B(  1-C ,  6-C ) :   0.8602 B(  2-N ,  3-C ) :   0.9637 B(  2-N , 12-H ) :   0.8646
B(  3-C ,  4-C ) :   0.8765 B(  3-C , 13-H ) :   0.9139 B(  4-C ,  5-C ) :   0.9313
B(  4-C ,  6-C ) :   0.8216 B(  4-C , 14-H ) :   0.9112 B(  5-C ,  6-C ) :   0.8357
B(  5-C , 15-H ) :   0.9227 B(  5-C , 16-H ) :   0.8879 B(  6-C ,  7-C ) :   0.9390
B(  7-C ,  8-N ) :   2.8765

MP2 TOTAL ENERGY:     -380.128227751 Eh
FINAL SINGLE POINT ENERGY      -380.128227751286

DIPOLE MOMENT
-------------
                                X             Y             Z
Electronic contribution:      2.26557      -1.29625      -3.75518
Nuclear contribution   :     -2.67439       1.07183       5.37889
                        -----------------------------------------
Total Dipole Moment    :     -0.40882      -0.22442       1.62370
                        -----------------------------------------
Magnitude (a.u.)       :      1.68935
Magnitude (Debye)      :      4.29399

                             ****ORCA TERMINATED NORMALLY****
TOTAL RUN TIME: 0 days 0 hours 17 minutes 52 seconds 898 msec
