                         Program Version 3.0.3 - RELEASE   -
|  1> ! RI-MP2 RIJK def2-TZVP def2-TZVP/C def2-TZVP/JK TIGHTSCF
|  2> % maxcore 2000
|  3> % mp2 density relaxed end
|  4> *xyz 0 1
|  5>  C       -0.7670465420     1.3433585806    -0.0658724568
|  6>  C       -0.0375641649     0.0067559908    -0.0573119789
|  7>  C        1.2527058364    -0.1264049573    -0.9214024543
|  8>  C        2.0149994318    -0.7098163239     0.3040123194
|  9>  O        3.1076264789     0.0462674968     0.7891041753
| 10>  C        2.5800184496     1.1630939190     1.4955983037
| 11>  C        1.2920929978     0.6595132565     2.1731874399
| 12>  C        0.7763645302    -0.4245824249     1.2113628943
| 13>  H       -0.0910621680     2.1778436137     0.1505100302
| 14>  H       -1.2133090473     1.5325245044    -1.0485362077
| 15>  H       -1.5742598155     1.3675911772     0.6749112238
| 16>  H       -0.7497800837    -0.7846445753    -0.3120646001
| 17>  H        1.1822683718    -0.7823022847    -1.7925569003
| 18>  H        1.6686773977     0.8314454959    -1.2478781498
| 19>  H        2.3500739091    -1.7435165015     0.1969065456
| 20>  H        3.3446194242     1.5035073233     2.1991319326
| 21>  H        2.3616308184     1.9944744621     0.8062980715
| 22>  H        1.5339086815     0.2039546871     3.1380422086
| 23>  H        0.5746667803     1.4637001009     2.3560204927
| 24>  H        0.3501218238    -1.2714717806     1.7518771703
| 25> *
| 26>
| 27>                          ****END OF INPUT****

CARTESIAN COORDINATES (ANGSTROEM)
---------------------------------
  C     -0.767047    1.343359   -0.065872
  C     -0.037564    0.006756   -0.057312
  C      1.252706   -0.126405   -0.921402
  C      2.014999   -0.709816    0.304012
  O      3.107626    0.046267    0.789104
  C      2.580018    1.163094    1.495598
  C      1.292093    0.659513    2.173187
  C      0.776365   -0.424582    1.211363
  H     -0.091062    2.177844    0.150510
  H     -1.213309    1.532525   -1.048536
  H     -1.574260    1.367591    0.674911
  H     -0.749780   -0.784645   -0.312065
  H      1.182268   -0.782302   -1.792557
  H      1.668677    0.831445   -1.247878
  H      2.350074   -1.743517    0.196907
  H      3.344619    1.503507    2.199132
  H      2.361631    1.994474    0.806298
  H      1.533909    0.203955    3.138042
  H      0.574667    1.463700    2.356020
  H      0.350122   -1.271472    1.751877

 Total Charge           Charge          ....    0
 Multiplicity           Mult            ....    1
 Number of Electrons    NEL             ....   62
 Basis Dimension        Dim             ....  320

ORBITAL ENERGIES
----------------

  NO   OCC          E(Eh)            E(eV)
   0   2.0000     -20.546344      -559.0944
   1   2.0000     -11.269118      -306.6483
   2   2.0000     -11.268777      -306.6390
   3   2.0000     -11.227527      -305.5165
   4   2.0000     -11.223052      -305.3948
   5   2.0000     -11.221826      -305.3614
   6   2.0000     -11.215567      -305.1911
   7   2.0000     -11.213859      -305.1446
   8   2.0000      -1.373503       -37.3749
   9   2.0000      -1.122815       -30.5533
  10   2.0000      -1.023536       -27.8518
  11   2.0000      -0.979544       -26.6547
  12   2.0000      -0.904731       -24.6190
  13   2.0000      -0.840926       -22.8828
  14   2.0000      -0.788130       -21.4461
  15   2.0000      -0.724839       -19.7239
  16   2.0000      -0.694448       -18.8969
  17   2.0000      -0.657686       -17.8966
  18   2.0000      -0.624676       -16.9983
  19   2.0000      -0.597791       -16.2667
  20   2.0000      -0.578614       -15.7449
  21   2.0000      -0.566198       -15.4070
  22   2.0000      -0.545394       -14.8409
  23   2.0000      -0.530796       -14.4437
  24   2.0000      -0.510052       -13.8792
  25   2.0000      -0.488314       -13.2877
  26   2.0000      -0.477262       -12.9870
  27   2.0000      -0.455209       -12.3869
  28   2.0000      -0.424878       -11.5615
  29   2.0000      -0.417523       -11.3614
  30   2.0000      -0.397081       -10.8051
  31   0.0000       0.133490         3.6324
  32   0.0000       0.153625         4.1803
  33   0.0000       0.165915         4.5148
  34   0.0000       0.170900         4.6504
  35   0.0000       0.193398         5.2626

MULLIKEN ATOMIC CHARGES
-----------------------
   0 C :   -0.434520
   1 C :   -0.053388
   2 C :   -0.272063
   3 C :    0.041925
   4 O :   -0.312638
   5 C :   -0.059289
   6 C :   -0.290533
   7 C :   -0.015579
   8 H :    0.122309
   9 H :    0.136350
  10 H :    0.132589
  11 H :    0.094671
  12 H :    0.120948
  13 H :    0.117973
  14 H :    0.101533
  15 H :    0.120165
  16 H :    0.090090
  17 H :    0.119571
  18 H :    0.126602
  19 H :    0.113285
Sum of atomic charges:    0.0000000

LOEWDIN ATOMIC CHARGES
----------------------
   0 C :   -0.303287
   1 C :   -0.237501
   2 C :   -0.202893
   3 C :   -0.267364
   4 O :    0.170055
   5 C :   -0.305151
   6 C :   -0.243253
   7 C :   -0.185192
   8 H :    0.120768
   9 H :    0.125824
  10 H :    0.124000
  11 H :    0.147366
  12 H :    0.127501
  13 H :    0.137449
  14 H :    0.132821
  15 H :    0.125357
  16 H :    0.114677
  17 H :    0.139848
  18 H :    0.138229
  19 H :    0.140743

  Mayer bond orders larger than 0.1
B(  0-C ,  1-C ) :   0.8851 B(  0-C ,  8-H ) :   0.9378 B(  0-C ,  9-H ) :   0.9390
B(  0-C , 10-H ) :   0.9422 B(  1-C ,  2-C ) :   0.9344 B(  1-C ,  7-C ) :   0.9355
B(  1-C , 11-H ) :   0.9245 B(  2-C ,  3-C ) :   0.8973 B(  2-C , 12-H ) :   0.9191
B(  2-C , 13-H ) :   0.9126 B(  3-C ,  4-O ) :   0.9833 B(  3-C ,  7-C ) :   0.9241
B(  3-C , 14-H ) :   0.9270 B(  4-O ,  5-C ) :   0.9181 B(  5-C ,  6-C ) :   0.9653
B(  5-C , 15-H ) :   0.9303 B(  5-C , 16-H ) :   0.9253 B(  6-C ,  7-C ) :   0.8694
B(  6-C , 17-H ) :   0.9227 B(  6-C , 18-H ) :   0.9335 B(  7-C , 19-H ) :   0.9173

MP2 TOTAL ENERGY:     -348.398732986 Eh
FINAL SINGLE POINT ENERGY      -348.398732985583

DIPOLE MOMENT
-------------
                                X             Y             Z
Electronic contribution:      4.75364      -2.96467       0.62903
Nuclear contribution   :     -5.38562       3.05241      -0.50226
                        -----------------------------------------
Total Dipole Moment    :     -0.63199       0.08774       0.12677
                        -----------------------------------------
Magnitude (a.u.)       :      0.65052
Magnitude (Debye)      :      1.65349

                             ****ORCA TERMINATED NORMALLY****
TOTAL RUN TIME: 0 days 0 hours 14 minutes 48 seconds 454 msec
