                         Program Version 3.0.3 - RELEASE   -
|  1> ! RI-MP2 RIJK def2-TZVP def2-TZVP/C def2-TZVP/JK TIGHTSCF
|  2> % maxcore 2000
|  3> % mp2 density relaxed end
|  4> *xyz 0 1
|  5>  C       -0.0198502125     1.4868855901     0.0529928293
|  6>  C        0.0202366855    -0.0342465453    -0.0069368984
|  7>  O        1.0800500227    -0.6322972891    -0.0526377635
|  8>  C       -1.2610124161    -0.7518976202    -0.0083453989
|  9>  C       -2.5333416186    -0.2161950997     0.0392351053
| 10>  N       -3.4236849333    -1.2590437974     0.0167096967
| 11>  C       -2.7358902223    -2.4462504536    -0.0442901960
| 12>  O       -3.4749786077    -3.5812805294    -0.0735630692
| 13>  C       -1.3950765161    -2.1820428323    -0.0617913501
| 14>  H        1.0007835279     1.8707182211     0.0496680176
| 15>  H       -0.5649057562     1.8946559796    -0.8051831156
| 16>  H       -0.5338515820     1.8265034695     0.9586457505
| 17>  H       -2.8761496376     0.8039520449     0.0864559762
| 18>  H       -4.4271077008    -1.1914083244     0.0401735756
| 19>  H       -2.8761504710    -4.3330966629    -0.1151482378
| 20>  H       -0.5807097520    -2.8864591909    -0.1064348014
| 21> *
| 22>
| 23>                          ****END OF INPUT****

CARTESIAN COORDINATES (ANGSTROEM)
---------------------------------
  C     -0.019850    1.486886    0.052993
  C      0.020237   -0.034247   -0.006937
  O      1.080050   -0.632297   -0.052638
  C     -1.261012   -0.751898   -0.008345
  C     -2.533342   -0.216195    0.039235
  N     -3.423685   -1.259044    0.016710
  C     -2.735890   -2.446250   -0.044290
  O     -3.474979   -3.581281   -0.073563
  C     -1.395077   -2.182043   -0.061791
  H      1.000784    1.870718    0.049668
  H     -0.564906    1.894656   -0.805183
  H     -0.533852    1.826503    0.958646
  H     -2.876150    0.803952    0.086456
  H     -4.427108   -1.191408    0.040174
  H     -2.876150   -4.333097   -0.115148
  H     -0.580710   -2.886459   -0.106435

 Total Charge           Charge          ....    0
 Multiplicity           Mult            ....    1
 Number of Electrons    NEL             ....   66
 Basis Dimension        Dim             ....  321

ORBITAL ENERGIES
----------------

  NO   OCC          E(Eh)            E(eV)
   0   2.0000     -20.609767      -560.8203
   1   2.0000     -20.526663      -558.5589
   2   2.0000     -15.621393      -425.0797
   3   2.0000     -11.333809      -308.4086
   4   2.0000     -11.322355      -308.0970
   5   2.0000     -11.278324      -306.8988
   6   2.0000     -11.228164      -305.5339
   7   2.0000     -11.226527      -305.4893
   8   2.0000     -11.214505      -305.1622
   9   2.0000      -1.433206       -38.9995
  10   2.0000      -1.369274       -37.2599
  11   2.0000      -1.302654       -35.4470
  12   2.0000      -1.075311       -29.2607
  13   2.0000      -1.012707       -27.5571
  14   2.0000      -0.974440       -26.5159
  15   2.0000      -0.859081       -23.3768
  16   2.0000      -0.820505       -22.3271
  17   2.0000      -0.767512       -20.8851
  18   2.0000      -0.720429       -19.6039
  19   2.0000      -0.670501       -18.2453
  20   2.0000      -0.641685       -17.4611
  21   2.0000      -0.636220       -17.3124
  22   2.0000      -0.633607       -17.2413
  23   2.0000      -0.604909       -16.4604
  24   2.0000      -0.593104       -16.1392
  25   2.0000      -0.572534       -15.5794
  26   2.0000      -0.548324       -14.9207
  27   2.0000      -0.542370       -14.7586
  28   2.0000      -0.526815       -14.3354
  29   2.0000      -0.493077       -13.4173
  30   2.0000      -0.409414       -11.1407
  31   2.0000      -0.364540        -9.9196
  32   2.0000      -0.300804        -8.1853
  33   0.0000       0.111672         3.0387
  34   0.0000       0.123897         3.3714
  35   0.0000       0.133673         3.6374
  36   0.0000       0.147808         4.0221
  37   0.0000       0.193324         5.2606

MULLIKEN ATOMIC CHARGES
-----------------------
   0 C :   -0.418410
   1 C :    0.196586
   2 O :   -0.313893
   3 C :    0.031061
   4 C :   -0.122558
   5 N :   -0.256024
   6 C :    0.301339
   7 O :   -0.435891
   8 C :   -0.332382
   9 H :    0.153477
  10 H :    0.140799
  11 H :    0.140618
  12 H :    0.157842
  13 H :    0.254888
  14 H :    0.348702
  15 H :    0.153846
Sum of atomic charges:    0.0000000

LOEWDIN ATOMIC CHARGES
----------------------
   0 C :   -0.276358
   1 C :   -0.327725
   2 O :    0.130539
   3 C :   -0.177327
   4 C :   -0.194067
   5 N :    0.203459
   6 C :   -0.356577
   7 O :    0.064022
   8 C :   -0.153151
   9 H :    0.132678
  10 H :    0.133684
  11 H :    0.133569
  12 H :    0.137905
  13 H :    0.197500
  14 H :    0.203548
  15 H :    0.148302

  Mayer bond orders larger than 0.1
B(  0-C ,  1-C ) :   0.9520 B(  0-C ,  3-C ) :  -0.1094 B(  0-C ,  9-H ) :   0.9396
B(  0-C , 10-H ) :   0.9172 B(  0-C , 11-H ) :   0.9174 B(  1-C ,  2-O ) :   1.9986
B(  1-C ,  3-C ) :   0.9050 B(  2-O ,  3-C ) :  -0.1193 B(  3-C ,  4-C ) :   1.4325
B(  3-C ,  8-C ) :   1.1763 B(  4-C ,  5-N ) :   1.1404 B(  4-C , 12-H ) :   0.8991
B(  5-N ,  6-C ) :   1.1056 B(  5-N , 13-H ) :   0.8684 B(  6-C ,  7-O ) :   1.1185
B(  6-C ,  8-C ) :   1.4860 B(  7-O , 14-H ) :   0.8269 B(  8-C , 15-H ) :   0.9149

MP2 TOTAL ENERGY:     -437.217913727 Eh
FINAL SINGLE POINT ENERGY      -437.217913726994

DIPOLE MOMENT
-------------
                                X             Y             Z
Electronic contribution:     -1.46911      -5.21737      -0.17250
Nuclear contribution   :     -0.08892       5.26110       0.20661
                        -----------------------------------------
Total Dipole Moment    :     -1.55803       0.04373       0.03412
                        -----------------------------------------
Magnitude (a.u.)       :      1.55902
Magnitude (Debye)      :      3.96271

                             ****ORCA TERMINATED NORMALLY****
TOTAL RUN TIME: 0 days 0 hours 14 minutes 31 seconds 995 msec
