                         Program Version 3.0.3 - RELEASE   -
|  1> ! RI-MP2 RIJK def2-TZVP def2-TZVP/C def2-TZVP/JK TIGHTSCF
|  2> % maxcore 2000
|  3> % mp2 density relaxed end
|  4> *xyz 0 1
|  5>  C        0.0868208520     1.5358119872     0.0544222318
|  6>  C        0.0048799568     0.0101922865     0.0329510938
|  7>  O        0.6573423368    -0.5596429649     1.1686494149
|  8>  C       -1.4399280630    -0.4916909596    -0.0872113097
|  9>  C       -1.5218158167    -2.0148954737    -0.1591200390
| 10>  C       -2.9360233438    -2.5544983507    -0.0740442446
| 11>  O       -3.9118757285    -1.8564899497     0.1016064123
| 12>  C       -3.0556567607    -3.9993818106    -0.2118303449
| 13>  C       -3.1344408030    -5.1948202674    -0.3291119627
| 14>  H        1.1256525254     1.8591137736     0.1617809213
| 15>  H       -0.3200102485     1.9678156543    -0.8653918510
| 16>  H       -0.4892250239     1.9433071354     0.8949137244
| 17>  H        0.5840072099    -0.3648182043    -0.8210636768
| 18>  H        0.2466032221    -0.1850501635     1.9564343203
| 19>  H       -2.0211150200    -0.1369316045     0.7733941854
| 20>  H       -1.9129126486    -0.0478358377    -0.9704789909
| 21>  H       -1.0671217340    -2.4019790942    -1.0813409233
| 22>  H       -0.9357957144    -2.4631370141     0.6539859360
| 23>  H       -3.2223021478    -6.2493891519    -0.4302606473
| 24> *
| 25>
| 26>                          ****END OF INPUT****

CARTESIAN COORDINATES (ANGSTROEM)
---------------------------------
  C      0.086821    1.535812    0.054422
  C      0.004880    0.010192    0.032951
  O      0.657342   -0.559643    1.168649
  C     -1.439928   -0.491691   -0.087211
  C     -1.521816   -2.014895   -0.159120
  C     -2.936023   -2.554498   -0.074044
  O     -3.911876   -1.856490    0.101606
  C     -3.055657   -3.999382   -0.211830
  C     -3.134441   -5.194820   -0.329112
  H      1.125653    1.859114    0.161781
  H     -0.320010    1.967816   -0.865392
  H     -0.489225    1.943307    0.894914
  H      0.584007   -0.364818   -0.821064
  H      0.246603   -0.185050    1.956434
  H     -2.021115   -0.136932    0.773394
  H     -1.912913   -0.047836   -0.970479
  H     -1.067122   -2.401979   -1.081341
  H     -0.935796   -2.463137    0.653986
  H     -3.222302   -6.249389   -0.430261

 Total Charge           Charge          ....    0
 Multiplicity           Mult            ....    1
 Number of Electrons    NEL             ....   68
 Basis Dimension        Dim             ....  339

ORBITAL ENERGIES
----------------

  NO   OCC          E(Eh)            E(eV)
   0   2.0000     -20.561790      -559.5147
   1   2.0000     -20.558911      -559.4364
   2   2.0000     -11.360207      -309.1270
   3   2.0000     -11.286842      -307.1306
   4   2.0000     -11.261868      -306.4510
   5   2.0000     -11.252744      -306.2027
   6   2.0000     -11.244961      -305.9909
   7   2.0000     -11.230902      -305.6084
   8   2.0000     -11.223252      -305.4002
   9   2.0000      -1.403663       -38.1956
  10   2.0000      -1.365034       -37.1445
  11   2.0000      -1.089107       -29.6361
  12   2.0000      -1.059522       -28.8311
  13   2.0000      -1.012116       -27.5411
  14   2.0000      -0.928235       -25.2586
  15   2.0000      -0.846445       -23.0329
  16   2.0000      -0.809077       -22.0161
  17   2.0000      -0.734156       -19.9774
  18   2.0000      -0.693647       -18.8751
  19   2.0000      -0.665719       -18.1151
  20   2.0000      -0.657008       -17.8781
  21   2.0000      -0.647763       -17.6265
  22   2.0000      -0.618189       -16.8218
  23   2.0000      -0.595385       -16.2012
  24   2.0000      -0.562970       -15.3192
  25   2.0000      -0.542171       -14.7532
  26   2.0000      -0.527503       -14.3541
  27   2.0000      -0.517692       -14.0871
  28   2.0000      -0.493826       -13.4377
  29   2.0000      -0.474253       -12.9051
  30   2.0000      -0.453598       -12.3430
  31   2.0000      -0.438923       -11.9437
  32   2.0000      -0.419492       -11.4150
  33   2.0000      -0.418419       -11.3858
  34   0.0000       0.085893         2.3373
  35   0.0000       0.125623         3.4184
  36   0.0000       0.148209         4.0330
  37   0.0000       0.154438         4.2025
  38   0.0000       0.162731         4.4281

MULLIKEN ATOMIC CHARGES
-----------------------
   0 C :   -0.389065
   1 C :    0.116041
   2 O :   -0.475827
   3 C :   -0.297041
   4 C :   -0.229808
   5 C :    0.008192
   6 O :   -0.277259
   7 C :    0.066779
   8 C :   -0.070223
   9 H :    0.149764
  10 H :    0.128805
  11 H :    0.117563
  12 H :    0.087765
  13 H :    0.312101
  14 H :    0.127867
  15 H :    0.120702
  16 H :    0.141402
  17 H :    0.160241
  18 H :    0.202002
Sum of atomic charges:   -0.0000000

LOEWDIN ATOMIC CHARGES
----------------------
   0 C :   -0.304042
   1 C :   -0.372683
   2 O :   -0.027018
   3 C :   -0.250989
   4 C :   -0.229880
   5 C :   -0.323933
   6 O :    0.174792
   7 C :   -0.060118
   8 C :   -0.045854
   9 H :    0.126579
  10 H :    0.127250
  11 H :    0.121916
  12 H :    0.143979
  13 H :    0.174586
  14 H :    0.144894
  15 H :    0.146920
  16 H :    0.157849
  17 H :    0.163735
  18 H :    0.132017

  Mayer bond orders larger than 0.1
B(  0-C ,  1-C ) :   0.9418 B(  0-C ,  9-H ) :   0.9440 B(  0-C , 10-H ) :   0.9338
B(  0-C , 11-H ) :   0.9202 B(  1-C ,  2-O ) :   0.8937 B(  1-C ,  3-C ) :   0.9342
B(  1-C , 12-H ) :   0.9223 B(  2-O , 13-H ) :   0.8431 B(  3-C ,  4-C ) :   0.9266
B(  3-C , 14-H ) :   0.9262 B(  3-C , 15-H ) :   0.9220 B(  4-C ,  5-C ) :   0.9815
B(  4-C ,  7-C ) :  -0.1252 B(  4-C , 16-H ) :   0.9034 B(  4-C , 17-H ) :   0.8911
B(  5-C ,  6-O ) :   1.9736 B(  5-C ,  7-C ) :   1.0697 B(  5-C ,  8-C ) :  -0.1380
B(  7-C ,  8-C ) :   2.5921 B(  8-C , 18-H ) :   0.8878

MP2 TOTAL ENERGY:     -422.293523781 Eh
FINAL SINGLE POINT ENERGY      -422.293523780845

DIPOLE MOMENT
-------------
                                X             Y             Z
Electronic contribution:     -7.19675      -9.09607       0.42302
Nuclear contribution   :      7.67095       8.99007      -0.56914
                        -----------------------------------------
Total Dipole Moment    :      0.47421      -0.10600      -0.14612
                        -----------------------------------------
Magnitude (a.u.)       :      0.50740
Magnitude (Debye)      :      1.28972

                             ****ORCA TERMINATED NORMALLY****
TOTAL RUN TIME: 0 days 0 hours 16 minutes 57 seconds 591 msec
