                         Program Version 3.0.3 - RELEASE   -
|  1> ! RI-MP2 RIJK def2-TZVP def2-TZVP/C def2-TZVP/JK TIGHTSCF
|  2> % maxcore 2000
|  3> % mp2 density relaxed end
|  4> *xyz 0 1
|  5>  C       -0.0201771398     1.4653506940     0.0416212494
|  6>  N        0.0221645562     0.0134315893     0.0225722520
|  7>  C        0.0537017953    -0.7715964741    -1.0734282291
|  8>  O        0.0475929683    -0.2263243263    -2.2950303033
|  9>  N        0.0891754150    -2.0646187626    -0.8103347404
| 10>  C        0.0801757941    -2.1289119179     0.5520454314
| 11>  C        0.0390787785    -0.8696852536     1.1175522119
| 12>  C        0.0161554449    -0.4612881062     2.5039949990
| 13>  O        0.0314334744    -1.2300548432     3.4452654139
| 14>  H        0.8543562469     1.8724814240     0.5567844420
| 15>  H       -0.0222659723     1.8221406677    -0.9880514983
| 16>  H       -0.9250349615     1.8207817093     0.5424801979
| 17>  H        0.0739387849    -0.9611785760    -2.9217958027
| 18>  H        0.1032755559    -3.0691302649     1.0807717552
| 19>  H       -0.0167410609     0.6395419707     2.6709371711
| 20> *
| 21>
| 22>                          ****END OF INPUT****

CARTESIAN COORDINATES (ANGSTROEM)
---------------------------------
  C     -0.020177    1.465351    0.041621
  N      0.022165    0.013432    0.022572
  C      0.053702   -0.771596   -1.073428
  O      0.047593   -0.226324   -2.295030
  N      0.089175   -2.064619   -0.810335
  C      0.080176   -2.128912    0.552045
  C      0.039079   -0.869685    1.117552
  C      0.016155   -0.461288    2.503995
  O      0.031433   -1.230055    3.445265
  H      0.854356    1.872481    0.556784
  H     -0.022266    1.822141   -0.988051
  H     -0.925035    1.820782    0.542480
  H      0.073939   -0.961179   -2.921796
  H      0.103276   -3.069130    1.080772
  H     -0.016741    0.639542    2.670937

 Total Charge           Charge          ....    0
 Multiplicity           Mult            ....    1
 Number of Electrons    NEL             ....   66
 Basis Dimension        Dim             ....  315

ORBITAL ENERGIES
----------------

  NO   OCC          E(Eh)            E(eV)
   0   2.0000     -20.632321      -561.4340
   1   2.0000     -20.541793      -558.9706
   2   2.0000     -15.638891      -425.5559
   3   2.0000     -15.560188      -423.4142
   4   2.0000     -11.385931      -309.8269
   5   2.0000     -11.335577      -308.4567
   6   2.0000     -11.295861      -307.3760
   7   2.0000     -11.280189      -306.9495
   8   2.0000     -11.264262      -306.5161
   9   2.0000      -1.470808       -40.0227
  10   2.0000      -1.381172       -37.5836
  11   2.0000      -1.350123       -36.7387
  12   2.0000      -1.214256       -33.0416
  13   2.0000      -1.043015       -28.3819
  14   2.0000      -0.989448       -26.9243
  15   2.0000      -0.896058       -24.3830
  16   2.0000      -0.850594       -23.1458
  17   2.0000      -0.780616       -21.2416
  18   2.0000      -0.736591       -20.0437
  19   2.0000      -0.702947       -19.1282
  20   2.0000      -0.690049       -18.7772
  21   2.0000      -0.680668       -18.5219
  22   2.0000      -0.629203       -17.1215
  23   2.0000      -0.617863       -16.8129
  24   2.0000      -0.610522       -16.6131
  25   2.0000      -0.589966       -16.0538
  26   2.0000      -0.575779       -15.6677
  27   2.0000      -0.559687       -15.2299
  28   2.0000      -0.516695       -14.0600
  29   2.0000      -0.469649       -12.7798
  30   2.0000      -0.425669       -11.5831
  31   2.0000      -0.414662       -11.2835
  32   2.0000      -0.322930        -8.7874
  33   0.0000       0.082007         2.2315
  34   0.0000       0.120907         3.2900
  35   0.0000       0.137365         3.7379
  36   0.0000       0.181654         4.9431
  37   0.0000       0.193786         5.2732

MULLIKEN ATOMIC CHARGES
-----------------------
   0 C :   -0.363719
   1 N :   -0.051336
   2 C :    0.321952
   3 O :   -0.435631
   4 N :   -0.304428
   5 C :   -0.110056
   6 C :    0.058366
   7 C :    0.069406
   8 O :   -0.289340
   9 H :    0.164022
  10 H :    0.183458
  11 H :    0.164021
  12 H :    0.361279
  13 H :    0.157280
  14 H :    0.074727
Sum of atomic charges:   -0.0000000

LOEWDIN ATOMIC CHARGES
----------------------
   0 C :   -0.263302
   1 N :    0.261455
   2 C :   -0.446381
   3 O :    0.090972
   4 N :    0.089431
   5 C :   -0.186217
   6 C :   -0.225314
   7 C :   -0.300587
   8 O :    0.115974
   9 H :    0.127218
  10 H :    0.136936
  11 H :    0.127218
  12 H :    0.213746
  13 H :    0.144123
  14 H :    0.114728

  Mayer bond orders larger than 0.1
B(  0-C ,  1-N ) :   0.8481 B(  0-C ,  9-H ) :   0.9292 B(  0-C , 10-H ) :   0.9224
B(  0-C , 11-H ) :   0.9292 B(  1-N ,  2-C ) :   1.2296 B(  1-N ,  6-C ) :   1.0413
B(  2-C ,  3-O ) :   1.1037 B(  2-C ,  4-N ) :   1.4974 B(  3-O , 12-H ) :   0.8067
B(  4-N ,  5-C ) :   1.3154 B(  5-C ,  6-C ) :   1.4347 B(  5-C , 13-H ) :   0.9292
B(  6-C ,  7-C ) :   0.8715 B(  6-C ,  8-O ) :  -0.1244 B(  6-C , 14-H ) :  -0.1078
B(  7-C ,  8-O ) :   1.9920 B(  7-C , 14-H ) :   0.9828

MP2 TOTAL ENERGY:     -453.258714824 Eh
FINAL SINGLE POINT ENERGY      -453.258714824298

DIPOLE MOMENT
-------------
                                X             Y             Z
Electronic contribution:      0.12472      -4.30812       0.02256
Nuclear contribution   :     -0.15610       5.69694      -1.17475
                        -----------------------------------------
Total Dipole Moment    :     -0.03138       1.38882      -1.15219
                        -----------------------------------------
Magnitude (a.u.)       :      1.80481
Magnitude (Debye)      :      4.58747

                             ****ORCA TERMINATED NORMALLY****
TOTAL RUN TIME: 0 days 0 hours 15 minutes 2 seconds 820 msec
