                         Program Version 3.0.3 - RELEASE   -
|  1> ! RI-MP2 RIJK def2-TZVP def2-TZVP/C def2-TZVP/JK TIGHTSCF
|  2> % maxcore 2000
|  3> % mp2 density relaxed end
|  4> *xyz 0 1
|  5>  N        0.0959879444     1.4100590006     0.1414217260
|  6>  C        0.0033422528     0.0184988846     0.0356750390
|  7>  C       -1.1600381808    -0.6929991101     0.0071624343
|  8>  C       -1.1987919629    -2.1431648820    -0.0005080521
|  9>  O       -2.2262005199    -2.8109687426    -0.0149219325
| 10>  C        0.1465447879    -2.7716096788    -0.0191033897
| 11>  O        0.1427624726    -4.1281420002    -0.0607408193
| 12>  C        1.2688958443    -2.0169246685    -0.0014819285
| 13>  N        1.2042707239    -0.6313121034     0.0128231994
| 14>  H        0.7181335673     1.8287279463    -0.5404409779
| 15>  H       -0.8102402094     1.8556398669     0.0982552335
| 16>  H       -2.1106256644    -0.1738180805    -0.0244511692
| 17>  H        1.0496030439    -4.4533238749    -0.0680183669
| 18>  H        2.2692766821    -2.4345456424    -0.0136007149
| 19>  H        2.0315119881    -0.1100111049     0.2524498789
| 20> *
| 21>
| 22>                          ****END OF INPUT****

CARTESIAN COORDINATES (ANGSTROEM)
---------------------------------
  N      0.095988    1.410059    0.141422
  C      0.003342    0.018499    0.035675
  C     -1.160038   -0.692999    0.007162
  C     -1.198792   -2.143165   -0.000508
  O     -2.226201   -2.810969   -0.014922
  C      0.146545   -2.771610   -0.019103
  O      0.142762   -4.128142   -0.060741
  C      1.268896   -2.016925   -0.001482
  N      1.204271   -0.631312    0.012823
  H      0.718134    1.828728   -0.540441
  H     -0.810240    1.855640    0.098255
  H     -2.110626   -0.173818   -0.024451
  H      1.049603   -4.453324   -0.068018
  H      2.269277   -2.434546   -0.013601
  H      2.031512   -0.110011    0.252450

 Total Charge           Charge          ....    0
 Multiplicity           Mult            ....    1
 Number of Electrons    NEL             ....   66
 Basis Dimension        Dim             ....  315

ORBITAL ENERGIES
----------------

  NO   OCC          E(Eh)            E(eV)
   0   2.0000     -20.584858      -560.1425
   1   2.0000     -20.495028      -557.6981
   2   2.0000     -15.626188      -425.2102
   3   2.0000     -15.597920      -424.4410
   4   2.0000     -11.345713      -308.7326
   5   2.0000     -11.309213      -307.7393
   6   2.0000     -11.298887      -307.4584
   7   2.0000     -11.290802      -307.2384
   8   2.0000     -11.214917      -305.1734
   9   2.0000      -1.406464       -38.2718
  10   2.0000      -1.337795       -36.4033
  11   2.0000      -1.324199       -36.0333
  12   2.0000      -1.220423       -33.2094
  13   2.0000      -1.056446       -28.7474
  14   2.0000      -1.027366       -27.9560
  15   2.0000      -0.880962       -23.9722
  16   2.0000      -0.848088       -23.0776
  17   2.0000      -0.774278       -21.0692
  18   2.0000      -0.754110       -20.5204
  19   2.0000      -0.704238       -19.1633
  20   2.0000      -0.687635       -18.7115
  21   2.0000      -0.646414       -17.5898
  22   2.0000      -0.632363       -17.2075
  23   2.0000      -0.620823       -16.8934
  24   2.0000      -0.592869       -16.1328
  25   2.0000      -0.575099       -15.6492
  26   2.0000      -0.569868       -15.5069
  27   2.0000      -0.540937       -14.7197
  28   2.0000      -0.500576       -13.6214
  29   2.0000      -0.486449       -13.2369
  30   2.0000      -0.396378       -10.7860
  31   2.0000      -0.343874        -9.3573
  32   2.0000      -0.312993        -8.5170
  33   0.0000       0.106410         2.8956
  34   0.0000       0.119129         3.2417
  35   0.0000       0.127168         3.4604
  36   0.0000       0.141003         3.8369
  37   0.0000       0.154913         4.2154

MULLIKEN ATOMIC CHARGES
-----------------------
   0 N :   -0.535739
   1 C :    0.344145
   2 C :   -0.296373
   3 C :    0.155916
   4 O :   -0.350780
   5 C :    0.117189
   6 O :   -0.385564
   7 C :   -0.092076
   8 N :   -0.298561
   9 H :    0.254641
  10 H :    0.260294
  11 H :    0.123991
  12 H :    0.316850
  13 H :    0.134548
  14 H :    0.251519
Sum of atomic charges:    0.0000000

LOEWDIN ATOMIC CHARGES
----------------------
   0 N :   -0.076436
   1 C :   -0.316868
   2 C :   -0.145952
   3 C :   -0.359207
   4 O :    0.088815
   5 C :   -0.269012
   6 O :    0.095053
   7 C :   -0.213524
   8 N :    0.169216
   9 H :    0.169529
  10 H :    0.176513
  11 H :    0.152822
  12 H :    0.189019
  13 H :    0.139960
  14 H :    0.200073

  Mayer bond orders larger than 0.1
B(  0-N ,  1-C ) :   1.0151 B(  0-N ,  9-H ) :   0.8661 B(  0-N , 10-H ) :   0.8810
B(  1-C ,  2-C ) :   1.4334 B(  1-C ,  8-N ) :   1.1211 B(  2-C ,  3-C ) :   1.1762
B(  2-C , 11-H ) :   0.9157 B(  3-C ,  4-O ) :   1.9445 B(  3-C ,  5-C ) :   0.9474
B(  5-C ,  6-O ) :   1.1586 B(  5-C ,  7-C ) :   1.5562 B(  6-O , 12-H ) :   0.8352
B(  7-C ,  8-N ) :   1.0412 B(  7-C , 13-H ) :   0.9053 B(  8-N , 14-H ) :   0.8665

MP2 TOTAL ENERGY:     -453.250966699 Eh
FINAL SINGLE POINT ENERGY      -453.250966698986

DIPOLE MOMENT
-------------
                                X             Y             Z
Electronic contribution:     -1.50688      -3.65035       0.04269
Nuclear contribution   :      3.97411       5.39568      -0.31883
                        -----------------------------------------
Total Dipole Moment    :      2.46723       1.74533      -0.27615
                        -----------------------------------------
Magnitude (a.u.)       :      3.03474
Magnitude (Debye)      :      7.71370

                             ****ORCA TERMINATED NORMALLY****
TOTAL RUN TIME: 0 days 0 hours 14 minutes 7 seconds 233 msec
