                         Program Version 3.0.3 - RELEASE   -
|  1> ! RI-MP2 RIJK def2-TZVP def2-TZVP/C def2-TZVP/JK TIGHTSCF
|  2> % maxcore 2000
|  3> % mp2 density relaxed end
|  4> *xyz 0 1
|  5>  O       -0.0140228448     0.0385482458    -0.3864781972
|  6>  C       -0.0149233486     1.1665634617     0.0219405616
|  7>  O       -1.1823814001     1.7437205575     0.4020275374
|  8>  C       -1.2132607327     3.0380970361     1.0369125170
|  9>  C        0.0657842380     3.8393156078     0.8233920387
| 10>  C        0.3175577310     4.1837437985    -0.6747568282
| 11>  C        1.1883617211     3.0028377795    -1.1810130135
| 12>  C        1.2258813633     2.0540312342     0.0524186013
| 13>  N        1.1531246350     2.9315838379     1.2316796288
| 14>  H       -2.0851356044     3.5553094539     0.6252610340
| 15>  H       -1.3701671872     2.8712606298     2.1074619725
| 16>  H        0.0297441306     4.7224057349     1.4663534990
| 17>  H       -0.6164877681     4.2819948221    -1.2344879111
| 18>  H        0.8481387298     5.1351973220    -0.7629180108
| 19>  H        0.7853845123     2.5182460449    -2.0734674328
| 20>  H        2.2057700310     3.3288572303    -1.4159138142
| 21>  H        2.0962362914     1.3995040120     0.0801009460
| 22>  H        2.0261173024     3.4478448812     1.3101006312
| 23> *
| 24>
| 25>                          ****END OF INPUT****

CARTESIAN COORDINATES (ANGSTROEM)
---------------------------------
  O     -0.014023    0.038548   -0.386478
  C     -0.014923    1.166563    0.021941
  O     -1.182381    1.743721    0.402028
  C     -1.213261    3.038097    1.036913
  C      0.065784    3.839316    0.823392
  C      0.317558    4.183744   -0.674757
  C      1.188362    3.002838   -1.181013
  C      1.225881    2.054031    0.052419
  N      1.153125    2.931584    1.231680
  H     -2.085136    3.555309    0.625261
  H     -1.370167    2.871261    2.107462
  H      0.029744    4.722406    1.466353
  H     -0.616488    4.281995   -1.234488
  H      0.848139    5.135197   -0.762918
  H      0.785385    2.518246   -2.073467
  H      2.205770    3.328857   -1.415914
  H      2.096236    1.399504    0.080101
  H      2.026117    3.447845    1.310101

 Total Charge           Charge          ....    0
 Multiplicity           Mult            ....    1
 Number of Electrons    NEL             ....   68
 Basis Dimension        Dim             ....  333

ORBITAL ENERGIES
----------------

  NO   OCC          E(Eh)            E(eV)
   0   2.0000     -20.594746      -560.4115
   1   2.0000     -20.532411      -558.7153
   2   2.0000     -15.569549      -423.6690
   3   2.0000     -11.372832      -309.4705
   4   2.0000     -11.297929      -307.4323
   5   2.0000     -11.281284      -306.9793
   6   2.0000     -11.279185      -306.9222
   7   2.0000     -11.245223      -305.9981
   8   2.0000     -11.242555      -305.9255
   9   2.0000      -1.449877       -39.4532
  10   2.0000      -1.356270       -36.9060
  11   2.0000      -1.255249       -34.1571
  12   2.0000      -1.050191       -28.5771
  13   2.0000      -1.048285       -28.5253
  14   2.0000      -0.944653       -25.7053
  15   2.0000      -0.886112       -24.1123
  16   2.0000      -0.813551       -22.1378
  17   2.0000      -0.729230       -19.8434
  18   2.0000      -0.728504       -19.8236
  19   2.0000      -0.685335       -18.6489
  20   2.0000      -0.682264       -18.5653
  21   2.0000      -0.652442       -17.7538
  22   2.0000      -0.620176       -16.8759
  23   2.0000      -0.610978       -16.6256
  24   2.0000      -0.596121       -16.2213
  25   2.0000      -0.571746       -15.5580
  26   2.0000      -0.529871       -14.4185
  27   2.0000      -0.516250       -14.0479
  28   2.0000      -0.506583       -13.7848
  29   2.0000      -0.496393       -13.5075
  30   2.0000      -0.477242       -12.9864
  31   2.0000      -0.450553       -12.2602
  32   2.0000      -0.438484       -11.9318
  33   2.0000      -0.401184       -10.9168
  34   0.0000       0.112201         3.0531
  35   0.0000       0.146253         3.9798
  36   0.0000       0.159477         4.3396
  37   0.0000       0.163806         4.4574
  38   0.0000       0.175998         4.7892

MULLIKEN ATOMIC CHARGES
-----------------------
   0 O :   -0.283984
   1 C :    0.190982
   2 O :   -0.225051
   3 C :   -0.069900
   4 C :   -0.022047
   5 C :   -0.255045
   6 C :   -0.298683
   7 C :    0.057771
   8 N :   -0.342871
   9 H :    0.123634
  10 H :    0.123232
  11 H :    0.130690
  12 H :    0.126840
  13 H :    0.126907
  14 H :    0.141443
  15 H :    0.129522
  16 H :    0.140673
  17 H :    0.205888
Sum of atomic charges:    0.0000000

LOEWDIN ATOMIC CHARGES
----------------------
   0 O :    0.140012
   1 C :   -0.455035
   2 O :    0.259815
   3 C :   -0.255441
   4 C :   -0.298821
   5 C :   -0.235719
   6 C :   -0.228764
   7 C :   -0.260397
   8 N :    0.030990
   9 H :    0.132165
  10 H :    0.133998
  11 H :    0.150373
  12 H :    0.140429
  13 H :    0.135411
  14 H :    0.143940
  15 H :    0.136604
  16 H :    0.157110
  17 H :    0.173333

  Mayer bond orders larger than 0.1
B(  0-O ,  1-C ) :   2.0384 B(  1-C ,  2-O ) :   1.1327 B(  1-C ,  7-C ) :   0.8915
B(  2-O ,  3-C ) :   0.8692 B(  3-C ,  4-C ) :   0.9435 B(  3-C ,  9-H ) :   0.9259
B(  3-C , 10-H ) :   0.9344 B(  4-C ,  5-C ) :   0.9240 B(  4-C ,  8-N ) :   0.9493
B(  4-C , 11-H ) :   0.9109 B(  5-C ,  6-C ) :   0.9514 B(  5-C , 12-H ) :   0.9186
B(  5-C , 13-H ) :   0.9279 B(  6-C ,  7-C ) :   0.8949 B(  6-C , 14-H ) :   0.9219
B(  6-C , 15-H ) :   0.9249 B(  7-C ,  8-N ) :   0.9181 B(  7-C , 16-H ) :   0.9150
B(  8-N , 17-H ) :   0.8691

MP2 TOTAL ENERGY:     -438.411544449 Eh
FINAL SINGLE POINT ENERGY      -438.411544449250

DIPOLE MOMENT
-------------
                                X             Y             Z
Electronic contribution:     -1.77964      -6.81806       1.21342
Nuclear contribution   :      2.34478       8.78493      -1.13398
                        -----------------------------------------
Total Dipole Moment    :      0.56513       1.96687       0.07944
                        -----------------------------------------
Magnitude (a.u.)       :      2.04799
Magnitude (Debye)      :      5.20559

                             ****ORCA TERMINATED NORMALLY****
TOTAL RUN TIME: 0 days 0 hours 18 minutes 35 seconds 870 msec
