                         Program Version 3.0.3 - RELEASE   -
|  1> ! RI-MP2 RIJK def2-TZVP def2-TZVP/C def2-TZVP/JK TIGHTSCF
|  2> % maxcore 2000
|  3> % mp2 density relaxed end
|  4> *xyz 0 1
|  5>  C        0.0648879623     1.5311500031    -0.1143043652
|  6>  O        1.4679026891     1.5580022831     0.2222938729
|  7>  C        1.4699787967     0.1459676289     0.4941357314
|  8>  C        0.0189354947    -0.0175615174    -0.0311790340
|  9>  C       -1.0126563089    -0.6770855659     0.8488465625
| 10>  C       -1.6648988438    -1.6633274703     0.2276506025
| 11>  C       -1.2006345559    -1.7850806005    -1.1856360538
| 12>  N       -1.4701941813    -0.5446091801    -1.9769001767
| 13>  C       -0.1451533978    -0.7535679711    -1.3565972379
| 14>  H       -0.5457842879     2.0484526928     0.6370517393
| 15>  H       -0.1431078002     1.9555644252    -1.1022933138
| 16>  H        2.2475044049    -0.3872372894    -0.0684283282
| 17>  H        1.5927190158    -0.0705677206     1.5639864907
| 18>  H       -1.2008001659    -0.3339520330     1.8606826733
| 19>  H       -2.4540851699    -2.2707795163     0.6535681223
| 20>  H       -1.1885008898    -2.7382127498    -1.7027336452
| 21>  H       -1.3962472821    -0.7712495720    -2.9680422927
| 22>  H        0.7186383900    -0.9000669766    -1.9972413173
| 23> *
| 24>
| 25>                          ****END OF INPUT****

CARTESIAN COORDINATES (ANGSTROEM)
---------------------------------
  C      0.064888    1.531150   -0.114304
  O      1.467903    1.558002    0.222294
  C      1.469979    0.145968    0.494136
  C      0.018935   -0.017562   -0.031179
  C     -1.012656   -0.677086    0.848847
  C     -1.664899   -1.663327    0.227651
  C     -1.200635   -1.785081   -1.185636
  N     -1.470194   -0.544609   -1.976900
  C     -0.145153   -0.753568   -1.356597
  H     -0.545784    2.048453    0.637052
  H     -0.143108    1.955564   -1.102293
  H      2.247504   -0.387237   -0.068428
  H      1.592719   -0.070568    1.563986
  H     -1.200800   -0.333952    1.860683
  H     -2.454085   -2.270780    0.653568
  H     -1.188501   -2.738213   -1.702734
  H     -1.396247   -0.771250   -2.968042
  H      0.718638   -0.900067   -1.997241

 Total Charge           Charge          ....    0
 Multiplicity           Mult            ....    1
 Number of Electrons    NEL             ....   66
 Basis Dimension        Dim             ....  333

ORBITAL ENERGIES
----------------

  NO   OCC          E(Eh)            E(eV)
   0   2.0000     -20.546020      -559.0856
   1   2.0000     -15.566407      -423.5835
   2   2.0000     -11.279429      -306.9289
   3   2.0000     -11.275574      -306.8240
   4   2.0000     -11.268428      -306.6295
   5   2.0000     -11.265028      -306.5370
   6   2.0000     -11.246755      -306.0398
   7   2.0000     -11.236048      -305.7484
   8   2.0000     -11.233669      -305.6837
   9   2.0000      -1.377279       -37.4777
  10   2.0000      -1.276355       -34.7314
  11   2.0000      -1.095704       -29.8156
  12   2.0000      -1.003453       -27.3054
  13   2.0000      -0.933450       -25.4005
  14   2.0000      -0.895622       -24.3711
  15   2.0000      -0.850976       -23.1562
  16   2.0000      -0.767580       -20.8869
  17   2.0000      -0.735493       -20.0138
  18   2.0000      -0.719706       -19.5842
  19   2.0000      -0.666715       -18.1422
  20   2.0000      -0.652966       -17.7681
  21   2.0000      -0.618967       -16.8429
  22   2.0000      -0.597813       -16.2673
  23   2.0000      -0.565184       -15.3794
  24   2.0000      -0.546132       -14.8610
  25   2.0000      -0.525801       -14.3078
  26   2.0000      -0.503190       -13.6925
  27   2.0000      -0.500244       -13.6123
  28   2.0000      -0.461101       -12.5472
  29   2.0000      -0.455935       -12.4066
  30   2.0000      -0.416161       -11.3243
  31   2.0000      -0.386988       -10.5305
  32   2.0000      -0.348636        -9.4869
  33   0.0000       0.129558         3.5254
  34   0.0000       0.137784         3.7493
  35   0.0000       0.157096         4.2748
  36   0.0000       0.171675         4.6715
  37   0.0000       0.172996         4.7075

MULLIKEN ATOMIC CHARGES
-----------------------
   0 C :   -0.051937
   1 O :   -0.333008
   2 C :   -0.045477
   3 C :    0.191989
   4 C :   -0.240592
   5 C :   -0.160414
   6 C :   -0.005013
   7 N :   -0.388770
   8 C :   -0.120840
   9 H :    0.093820
  10 H :    0.108134
  11 H :    0.093730
  12 H :    0.093123
  13 H :    0.132693
  14 H :    0.137563
  15 H :    0.135312
  16 H :    0.216646
  17 H :    0.143041
Sum of atomic charges:   -0.0000000

LOEWDIN ATOMIC CHARGES
----------------------
   0 C :   -0.217507
   1 O :    0.110771
   2 C :   -0.227627
   3 C :   -0.221198
   4 C :   -0.105630
   5 C :   -0.129006
   6 C :   -0.226303
   7 N :    0.010103
   8 C :   -0.201501
   9 H :    0.120009
  10 H :    0.122937
  11 H :    0.118226
  12 H :    0.119641
  13 H :    0.142073
  14 H :    0.139918
  15 H :    0.136447
  16 H :    0.168446
  17 H :    0.140203

  Mayer bond orders larger than 0.1
B(  0-C ,  1-O ) :   0.9575 B(  0-C ,  3-C ) :   0.9483 B(  0-C ,  9-H ) :   0.9038
B(  0-C , 10-H ) :   0.9065 B(  1-O ,  2-C ) :   0.9745 B(  2-C ,  3-C ) :   0.9618
B(  2-C , 11-H ) :   0.9050 B(  2-C , 12-H ) :   0.8983 B(  3-C ,  4-C ) :   0.9280
B(  3-C ,  8-C ) :   0.8859 B(  4-C ,  5-C ) :   1.7906 B(  4-C , 13-H ) :   0.9122
B(  5-C ,  6-C ) :   0.9502 B(  5-C , 14-H ) :   0.9206 B(  6-C ,  7-N ) :   0.9181
B(  6-C ,  8-C ) :   0.9172 B(  6-C , 15-H ) :   0.9195 B(  7-N ,  8-C ) :   0.9589
B(  7-N , 16-H ) :   0.8676 B(  8-C , 17-H ) :   0.9220

MP2 TOTAL ENERGY:     -401.204722428 Eh
FINAL SINGLE POINT ENERGY      -401.204722427897

DIPOLE MOMENT
-------------
                                X             Y             Z
Electronic contribution:      0.06631       0.55815      -0.12746
Nuclear contribution   :     -0.20563      -1.52459      -0.14084
                        -----------------------------------------
Total Dipole Moment    :     -0.13932      -0.96644      -0.26830
                        -----------------------------------------
Magnitude (a.u.)       :      1.01263
Magnitude (Debye)      :      2.57389

                             ****ORCA TERMINATED NORMALLY****
TOTAL RUN TIME: 0 days 0 hours 17 minutes 35 seconds 176 msec
