                         Program Version 3.0.3 - RELEASE   -
|  1> ! RI-MP2 RIJK def2-TZVP def2-TZVP/C def2-TZVP/JK TIGHTSCF
|  2> % maxcore 2000
|  3> % mp2 density relaxed end
|  4> *xyz 0 1
|  5>  N       -0.0994831943     1.3273069048    -0.1542951995
|  6>  C       -0.1082021280     0.0931008474     0.4317908117
|  7>  O        0.7178611749    -0.2354577643     1.2622754130
|  8>  C       -1.2331148008    -0.8184085184    -0.0333013028
|  9>  C       -1.6087449080    -0.8974057874    -1.5497765153
| 10>  C       -1.7283120300    -2.4445194631    -1.4196120485
| 11>  C       -1.0158770894    -2.3395161717    -0.0677482162
| 12>  C        0.0882597080    -3.1372331094     0.4677669425
| 13>  O       -1.2413844450    -3.2044233318     1.0189926155
| 14>  H        0.5616697994     2.0077505200     0.1837579258
| 15>  H       -0.8351500009     1.6316478482    -0.7674503530
| 16>  H       -2.1167646183    -0.5950441004     0.5771556898
| 17>  H       -2.5068428682    -0.3618984363    -1.8639913071
| 18>  H       -0.7755093276    -0.5988385791    -2.1904154681
| 19>  H       -2.7636401265    -2.7747069814    -1.2961717512
| 20>  H       -1.2527836543    -3.0501541661    -2.1940996412
| 21>  H        0.4073908377    -4.0288519826    -0.0714767753
| 22>  H        0.8271829111    -2.6570686485     1.1011463498
| 23> *
| 24>
| 25>                          ****END OF INPUT****

CARTESIAN COORDINATES (ANGSTROEM)
---------------------------------
  N     -0.099483    1.327307   -0.154295
  C     -0.108202    0.093101    0.431791
  O      0.717861   -0.235458    1.262275
  C     -1.233115   -0.818409   -0.033301
  C     -1.608745   -0.897406   -1.549777
  C     -1.728312   -2.444519   -1.419612
  C     -1.015877   -2.339516   -0.067748
  C      0.088260   -3.137233    0.467767
  O     -1.241384   -3.204423    1.018993
  H      0.561670    2.007751    0.183758
  H     -0.835150    1.631648   -0.767450
  H     -2.116765   -0.595044    0.577156
  H     -2.506843   -0.361898   -1.863991
  H     -0.775509   -0.598839   -2.190415
  H     -2.763640   -2.774707   -1.296172
  H     -1.252784   -3.050154   -2.194100
  H      0.407391   -4.028852   -0.071477
  H      0.827183   -2.657069    1.101146

 Total Charge           Charge          ....    0
 Multiplicity           Mult            ....    1
 Number of Electrons    NEL             ....   68
 Basis Dimension        Dim             ....  333

ORBITAL ENERGIES
----------------

  NO   OCC          E(Eh)            E(eV)
   0   2.0000     -20.561815      -559.5154
   1   2.0000     -20.520934      -558.4030
   2   2.0000     -15.587412      -424.1551
   3   2.0000     -11.355921      -309.0103
   4   2.0000     -11.293284      -307.3059
   5   2.0000     -11.272371      -306.7368
   6   2.0000     -11.253163      -306.2141
   7   2.0000     -11.247136      -306.0501
   8   2.0000     -11.236740      -305.7672
   9   2.0000      -1.409312       -38.3493
  10   2.0000      -1.385102       -37.6906
  11   2.0000      -1.215950       -33.0877
  12   2.0000      -1.137531       -30.9538
  13   2.0000      -0.957045       -26.0425
  14   2.0000      -0.914684       -24.8898
  15   2.0000      -0.870937       -23.6994
  16   2.0000      -0.819342       -22.2954
  17   2.0000      -0.754967       -20.5437
  18   2.0000      -0.725688       -19.7470
  19   2.0000      -0.680999       -18.5309
  20   2.0000      -0.675237       -18.3741
  21   2.0000      -0.661650       -18.0044
  22   2.0000      -0.626892       -17.0586
  23   2.0000      -0.590316       -16.0633
  24   2.0000      -0.582458       -15.8495
  25   2.0000      -0.557855       -15.1800
  26   2.0000      -0.526721       -14.3328
  27   2.0000      -0.505988       -13.7686
  28   2.0000      -0.490094       -13.3361
  29   2.0000      -0.478160       -13.0114
  30   2.0000      -0.437969       -11.9177
  31   2.0000      -0.425546       -11.5797
  32   2.0000      -0.418724       -11.3941
  33   2.0000      -0.413517       -11.2524
  34   0.0000       0.115588         3.1453
  35   0.0000       0.145478         3.9587
  36   0.0000       0.157279         4.2798
  37   0.0000       0.168513         4.5855
  38   0.0000       0.179600         4.8872

MULLIKEN ATOMIC CHARGES
-----------------------
   0 N :   -0.479840
   1 C :    0.226885
   2 O :   -0.353797
   3 C :    0.042941
   4 C :   -0.321140
   5 C :   -0.169702
   6 C :    0.046442
   7 C :   -0.086314
   8 O :   -0.336895
   9 H :    0.260156
  10 H :    0.262064
  11 H :    0.129067
  12 H :    0.129408
  13 H :    0.134240
  14 H :    0.126104
  15 H :    0.124761
  16 H :    0.110590
  17 H :    0.155031
Sum of atomic charges:    0.0000000

LOEWDIN ATOMIC CHARGES
----------------------
   0 N :   -0.016305
   1 C :   -0.456658
   2 O :    0.089425
   3 C :   -0.158927
   4 C :   -0.213125
   5 C :   -0.193372
   6 C :   -0.302031
   7 C :   -0.224886
   8 O :    0.172451
   9 H :    0.173630
  10 H :    0.171552
  11 H :    0.172630
  12 H :    0.125310
  13 H :    0.137208
  14 H :    0.142957
  15 H :    0.131574
  16 H :    0.118961
  17 H :    0.129606

  Mayer bond orders larger than 0.1
B(  0-N ,  1-C ) :   1.1645 B(  0-N ,  9-H ) :   0.8579 B(  0-N , 10-H ) :   0.8693
B(  1-C ,  2-O ) :   1.9653 B(  1-C ,  3-C ) :   0.8872 B(  3-C ,  4-C ) :   0.9099
B(  3-C ,  6-C ) :   0.8817 B(  3-C , 11-H ) :   0.8750 B(  4-C ,  5-C ) :   0.9446
B(  4-C , 12-H ) :   0.9318 B(  4-C , 13-H ) :   0.9144 B(  5-C ,  6-C ) :   0.8783
B(  5-C , 14-H ) :   0.9128 B(  5-C , 15-H ) :   0.9242 B(  6-C ,  7-C ) :   0.9960
B(  6-C ,  8-O ) :   0.9151 B(  7-C ,  8-O ) :   0.8904 B(  7-C , 16-H ) :   0.9192
B(  7-C , 17-H ) :   0.8988

MP2 TOTAL ENERGY:     -438.362606441 Eh
FINAL SINGLE POINT ENERGY      -438.362606441035

DIPOLE MOMENT
-------------
                                X             Y             Z
Electronic contribution:      1.81016       0.04982       4.80188
Nuclear contribution   :     -2.23006       0.94949      -6.19808
                        -----------------------------------------
Total Dipole Moment    :     -0.41989       0.99931      -1.39620
                        -----------------------------------------
Magnitude (a.u.)       :      1.76757
Magnitude (Debye)      :      4.49280

                             ****ORCA TERMINATED NORMALLY****
TOTAL RUN TIME: 0 days 0 hours 18 minutes 16 seconds 617 msec
