                         Program Version 3.0.3 - RELEASE   -
|  1> ! RI-MP2 RIJK def2-TZVP def2-TZVP/C def2-TZVP/JK TIGHTSCF
|  2> % maxcore 2000
|  3> % mp2 density relaxed end
|  4> *xyz 0 1
|  5>  C       -1.1796952659     0.7417873637     0.2380574795
|  6>  C        0.1942658994     0.2791599720    -0.1802604142
|  7>  O        1.2262185750     0.6568715398     0.3179161563
|  8>  C        0.2243982326    -0.7211986369    -1.2986346937
|  9>  N       -0.7905459014    -1.2287341872    -1.9419877375
| 10>  C       -0.1636927567    -2.0620958312    -2.8295474703
| 11>  O       -0.8204687656    -2.8065886493    -3.7132660045
| 12>  N        1.1475071117    -2.0809630195    -2.7536605217
| 13>  O        1.4032968618    -1.1758933712    -1.7211057513
| 14>  H       -1.7012005975     1.1952337364    -0.6109181246
| 15>  H       -1.7860365451    -0.1122503287     0.5563553254
| 16>  H       -1.0824505801     1.4612380087     1.0509891591
| 17>  H       -1.7631661483    -2.6379583567    -3.5935287023
| 18> *
| 19>
| 20>                          ****END OF INPUT****

CARTESIAN COORDINATES (ANGSTROEM)
---------------------------------
  C     -1.179695    0.741787    0.238057
  C      0.194266    0.279160   -0.180260
  O      1.226219    0.656872    0.317916
  C      0.224398   -0.721199   -1.298635
  N     -0.790546   -1.228734   -1.941988
  C     -0.163693   -2.062096   -2.829547
  O     -0.820469   -2.806589   -3.713266
  N      1.147507   -2.080963   -2.753661
  O      1.403297   -1.175893   -1.721106
  H     -1.701201    1.195234   -0.610918
  H     -1.786037   -0.112250    0.556355
  H     -1.082451    1.461238    1.050989
  H     -1.763166   -2.637958   -3.593529

 Total Charge           Charge          ....    0
 Multiplicity           Mult            ....    1
 Number of Electrons    NEL             ....   66
 Basis Dimension        Dim             ....  303

ORBITAL ENERGIES
----------------

  NO   OCC          E(Eh)            E(eV)
   0   2.0000     -20.678305      -562.6853
   1   2.0000     -20.636091      -561.5366
   2   2.0000     -20.593073      -560.3660
   3   2.0000     -15.634291      -425.4307
   4   2.0000     -15.611585      -424.8128
   5   2.0000     -11.392539      -310.0068
   6   2.0000     -11.390092      -309.9402
   7   2.0000     -11.379250      -309.6451
   8   2.0000     -11.260769      -306.4211
   9   2.0000      -1.547699       -42.1150
  10   2.0000      -1.465699       -39.8837
  11   2.0000      -1.432623       -38.9836
  12   2.0000      -1.278748       -34.7965
  13   2.0000      -1.176748       -32.0209
  14   2.0000      -1.051314       -28.6077
  15   2.0000      -0.934488       -25.4287
  16   2.0000      -0.876278       -23.8447
  17   2.0000      -0.812888       -22.1198
  18   2.0000      -0.778067       -21.1723
  19   2.0000      -0.717715       -19.5300
  20   2.0000      -0.716954       -19.5093
  21   2.0000      -0.658823       -17.9275
  22   2.0000      -0.642009       -17.4700
  23   2.0000      -0.633443       -17.2368
  24   2.0000      -0.621279       -16.9059
  25   2.0000      -0.616079       -16.7644
  26   2.0000      -0.584212       -15.8972
  27   2.0000      -0.550325       -14.9751
  28   2.0000      -0.535678       -14.5765
  29   2.0000      -0.496187       -13.5019
  30   2.0000      -0.478794       -13.0287
  31   2.0000      -0.466797       -12.7022
  32   2.0000      -0.407304       -11.0833
  33   0.0000       0.041912         1.1405
  34   0.0000       0.120853         3.2886
  35   0.0000       0.133137         3.6228
  36   0.0000       0.175612         4.7787
  37   0.0000       0.181605         4.9417

MULLIKEN ATOMIC CHARGES
-----------------------
   0 C :   -0.379966
   1 C :    0.159816
   2 O :   -0.247805
   3 C :    0.236351
   4 N :   -0.321753
   5 C :    0.308781
   6 O :   -0.396450
   7 N :   -0.142501
   8 O :   -0.048537
   9 H :    0.156023
  10 H :    0.156010
  11 H :    0.162933
  12 H :    0.357098
Sum of atomic charges:    0.0000000

LOEWDIN ATOMIC CHARGES
----------------------
   0 C :   -0.263164
   1 C :   -0.325586
   2 O :    0.187559
   3 C :   -0.343101
   4 N :    0.125312
   5 C :   -0.510289
   6 O :    0.113770
   7 N :    0.048826
   8 O :    0.327351
   9 H :    0.144969
  10 H :    0.144968
  11 H :    0.137897
  12 H :    0.211489

  Mayer bond orders larger than 0.1
B(  0-C ,  1-C ) :   0.9686 B(  0-C ,  9-H ) :   0.9053 B(  0-C , 10-H ) :   0.9053
B(  0-C , 11-H ) :   0.9329 B(  1-C ,  2-O ) :   2.0035 B(  1-C ,  3-C ) :   0.8442
B(  3-C ,  4-N ) :   1.5432 B(  3-C ,  7-N ) :   0.1072 B(  3-C ,  8-O ) :   1.1993
B(  4-N ,  5-C ) :   1.2106 B(  5-C ,  6-O ) :   1.1560 B(  5-C ,  7-N ) :   1.5579
B(  6-O , 12-H ) :   0.8100 B(  7-N ,  8-O ) :   0.8658

MP2 TOTAL ENERGY:     -489.127549836 Eh
FINAL SINGLE POINT ENERGY      -489.127549835546

DIPOLE MOMENT
-------------
                                X             Y             Z
Electronic contribution:      4.67153      -3.22979      -3.27693
Nuclear contribution   :     -6.40176       3.43691       3.38238
                        -----------------------------------------
Total Dipole Moment    :     -1.73023       0.20711       0.10545
                        -----------------------------------------
Magnitude (a.u.)       :      1.74577
Magnitude (Debye)      :      4.43739

                             ****ORCA TERMINATED NORMALLY****
TOTAL RUN TIME: 0 days 0 hours 12 minutes 41 seconds 316 msec
