                         Program Version 3.0.3 - RELEASE   -
|  1> ! RI-MP2 RIJK def2-TZVP def2-TZVP/C def2-TZVP/JK TIGHTSCF
|  2> % maxcore 2000
|  3> % mp2 density relaxed end
|  4> *xyz 0 1
|  5>  C        0.0907859592     1.5246212827    -0.2262604513
|  6>  C        0.1012991659     0.0129336873    -0.1366681414
|  7>  C        1.4250419989    -0.7158068089    -0.2037889676
|  8>  C        0.6972350137    -0.6613980248     1.1162907831
|  9>  C        1.1877996307     0.1305129691     2.2036043612
| 10>  C        1.5939727237     0.7899486571     3.1247333988
| 11>  C       -1.0557799048    -0.7725058059    -0.7098437440
| 12>  N       -2.0508400566    -0.0427143216    -1.2875947232
| 13>  O       -1.0969584826    -1.9909193409    -0.6590304188
| 14>  H        0.9653333459     1.9447612912     0.2743700744
| 15>  H        0.1098996413     1.8610216113    -1.2693939191
| 16>  H       -0.7909593774     1.9533013771     0.2640053147
| 17>  H        1.4295012930    -1.6729802541    -0.7105348264
| 18>  H        2.3165939568    -0.1089234055    -0.3108402865
| 19>  H        0.1874091991    -1.5800020562     1.3883122959
| 20>  H        1.9556711827     1.3624252665     3.9423842572
| 21>  H       -2.0366022336     0.9586728426    -1.3448035136
| 22>  H       -2.8314282059    -0.5442906769    -1.6773945833
| 23> *
| 24>
| 25>                          ****END OF INPUT****

CARTESIAN COORDINATES (ANGSTROEM)
---------------------------------
  C      0.090786    1.524621   -0.226260
  C      0.101299    0.012934   -0.136668
  C      1.425042   -0.715807   -0.203789
  C      0.697235   -0.661398    1.116291
  C      1.187800    0.130513    2.203604
  C      1.593973    0.789949    3.124733
  C     -1.055780   -0.772506   -0.709844
  N     -2.050840   -0.042714   -1.287595
  O     -1.096958   -1.990919   -0.659030
  H      0.965333    1.944761    0.274370
  H      0.109900    1.861022   -1.269394
  H     -0.790959    1.953301    0.264005
  H      1.429501   -1.672980   -0.710535
  H      2.316594   -0.108923   -0.310840
  H      0.187409   -1.580002    1.388312
  H      1.955671    1.362425    3.942384
  H     -2.036602    0.958673   -1.344804
  H     -2.831428   -0.544291   -1.677395

 Total Charge           Charge          ....    0
 Multiplicity           Mult            ....    1
 Number of Electrons    NEL             ....   66
 Basis Dimension        Dim             ....  333

ORBITAL ENERGIES
----------------

  NO   OCC          E(Eh)            E(eV)
   0   2.0000     -20.514958      -558.2404
   1   2.0000     -15.587048      -424.1451
   2   2.0000     -11.355642      -309.0027
   3   2.0000     -11.265336      -306.5454
   4   2.0000     -11.263864      -306.5053
   5   2.0000     -11.244690      -305.9836
   6   2.0000     -11.238733      -305.8215
   7   2.0000     -11.238047      -305.8028
   8   2.0000     -11.224603      -305.4370
   9   2.0000      -1.383194       -37.6386
  10   2.0000      -1.215815       -33.0840
  11   2.0000      -1.177771       -32.0488
  12   2.0000      -1.033560       -28.1246
  13   2.0000      -0.987053       -26.8591
  14   2.0000      -0.886872       -24.1330
  15   2.0000      -0.865094       -23.5404
  16   2.0000      -0.776178       -21.1209
  17   2.0000      -0.735457       -20.0128
  18   2.0000      -0.717093       -19.5131
  19   2.0000      -0.689841       -18.7715
  20   2.0000      -0.646897       -17.6030
  21   2.0000      -0.629597       -17.1322
  22   2.0000      -0.604702       -16.4548
  23   2.0000      -0.576721       -15.6934
  24   2.0000      -0.566454       -15.4140
  25   2.0000      -0.552618       -15.0375
  26   2.0000      -0.536983       -14.6121
  27   2.0000      -0.481746       -13.1090
  28   2.0000      -0.447160       -12.1678
  29   2.0000      -0.427918       -11.6443
  30   2.0000      -0.416694       -11.3388
  31   2.0000      -0.384352       -10.4588
  32   2.0000      -0.364281        -9.9126
  33   0.0000       0.122426         3.3314
  34   0.0000       0.151398         4.1198
  35   0.0000       0.159346         4.3360
  36   0.0000       0.166410         4.5282
  37   0.0000       0.172477         4.6933

MULLIKEN ATOMIC CHARGES
-----------------------
   0 C :   -0.472794
   1 C :    0.103169
   2 C :   -0.262738
   3 C :   -0.315420
   4 C :    0.013005
   5 C :   -0.121183
   6 C :    0.256069
   7 N :   -0.468593
   8 O :   -0.372166
   9 H :    0.156877
  10 H :    0.149749
  11 H :    0.144659
  12 H :    0.161096
  13 H :    0.143351
  14 H :    0.169798
  15 H :    0.190662
  16 H :    0.265292
  17 H :    0.259167
Sum of atomic charges:   -0.0000000

LOEWDIN ATOMIC CHARGES
----------------------
   0 C :   -0.267834
   1 C :   -0.203391
   2 C :   -0.146101
   3 C :   -0.162094
   4 C :   -0.092424
   5 C :   -0.099031
   6 C :   -0.439995
   7 N :   -0.003525
   8 O :    0.077370
   9 H :    0.140702
  10 H :    0.127980
  11 H :    0.129187
  12 H :    0.147351
  13 H :    0.142276
  14 H :    0.177187
  15 H :    0.126610
  16 H :    0.170389
  17 H :    0.175342

  Mayer bond orders larger than 0.1
B(  0-C ,  1-C ) :   0.8656 B(  0-C ,  9-H ) :   0.9222 B(  0-C , 10-H ) :   0.9418
B(  0-C , 11-H ) :   0.9388 B(  1-C ,  2-C ) :   0.8688 B(  1-C ,  3-C ) :   0.8016
B(  1-C ,  6-C ) :   0.9168 B(  2-C ,  3-C ) :   0.8813 B(  2-C , 12-H ) :   0.9100
B(  2-C , 13-H ) :   0.9295 B(  3-C ,  4-C ) :   1.1532 B(  3-C ,  5-C ) :  -0.1508
B(  3-C , 14-H ) :   0.9377 B(  4-C ,  5-C ) :   2.5619 B(  5-C , 15-H ) :   0.8934
B(  6-C ,  7-N ) :   1.1710 B(  6-C ,  8-O ) :   1.9391 B(  7-N , 16-H ) :   0.8679
B(  7-N , 17-H ) :   0.8578

MP2 TOTAL ENERGY:     -401.247650749 Eh
FINAL SINGLE POINT ENERGY      -401.247650749254

DIPOLE MOMENT
-------------
                                X             Y             Z
Electronic contribution:     -1.18579      -4.23883       1.41180
Nuclear contribution   :      0.95197       5.57282      -1.83556
                        -----------------------------------------
Total Dipole Moment    :     -0.23382       1.33399      -0.42377
                        -----------------------------------------
Magnitude (a.u.)       :      1.41908
Magnitude (Debye)      :      3.60701

                             ****ORCA TERMINATED NORMALLY****
TOTAL RUN TIME: 0 days 0 hours 18 minutes 36 seconds 455 msec
