                         Program Version 3.0.3 - RELEASE   -
|  1> ! RI-MP2 RIJK def2-TZVP def2-TZVP/C def2-TZVP/JK TIGHTSCF
|  2> % maxcore 2000
|  3> % mp2 density relaxed end
|  4> *xyz 0 1
|  5>  C       -0.7884071643     1.2865610020    -0.0406613112
|  6>  C       -0.1132600035    -0.1009160516     0.0184401881
|  7>  N       -1.0011799053    -1.2609250718     0.1204265836
|  8>  C       -1.7513548093    -1.3682455076     1.3568877397
|  9>  C       -3.1829164406    -0.8225701842     1.2839363361
| 10>  C       -3.9777232597    -0.8308392490     2.5731534074
| 11>  O       -3.6449445432    -0.4392933167     0.2333791298
| 12>  C        0.7499372816    -0.2829020411    -1.1629764213
| 13>  N        1.4187446162    -0.3961623140    -2.0979609297
| 14>  H       -0.0381750571     2.0769677444    -0.1348264132
| 15>  H       -1.4713888320     1.3450150813    -0.8912381528
| 16>  H       -1.3623420344     1.4647383304     0.8723859127
| 17>  H        0.5514809893    -0.1291666331     0.8921312404
| 18>  H       -1.6616100288    -1.2472375885    -0.6529782849
| 19>  H       -1.8392621810    -2.4255289727     1.6552618932
| 20>  H       -1.2165849785    -0.8809865297     2.1817486472
| 21>  H       -3.5638054095    -0.0891869152     3.2667903504
| 22>  H       -5.0215062780    -0.5889946928     2.3704931635
| 23>  H       -3.9077647420    -1.8041291799     3.0702027109
| 24> *
| 25>
| 26>                          ****END OF INPUT****

CARTESIAN COORDINATES (ANGSTROEM)
---------------------------------
  C     -0.788407    1.286561   -0.040661
  C     -0.113260   -0.100916    0.018440
  N     -1.001180   -1.260925    0.120427
  C     -1.751355   -1.368246    1.356888
  C     -3.182916   -0.822570    1.283936
  C     -3.977723   -0.830839    2.573153
  O     -3.644945   -0.439293    0.233379
  C      0.749937   -0.282902   -1.162976
  N      1.418745   -0.396162   -2.097961
  H     -0.038175    2.076968   -0.134826
  H     -1.471389    1.345015   -0.891238
  H     -1.362342    1.464738    0.872386
  H      0.551481   -0.129167    0.892131
  H     -1.661610   -1.247238   -0.652978
  H     -1.839262   -2.425529    1.655262
  H     -1.216585   -0.880987    2.181749
  H     -3.563805   -0.089187    3.266790
  H     -5.021506   -0.588995    2.370493
  H     -3.907765   -1.804129    3.070203

 Total Charge           Charge          ....    0
 Multiplicity           Mult            ....    1
 Number of Electrons    NEL             ....   68
 Basis Dimension        Dim             ....  339

ORBITAL ENERGIES
----------------

  NO   OCC          E(Eh)            E(eV)
   0   2.0000     -20.565939      -559.6277
   1   2.0000     -15.571241      -423.7150
   2   2.0000     -15.566600      -423.5887
   3   2.0000     -11.350436      -308.8611
   4   2.0000     -11.317710      -307.9705
   5   2.0000     -11.288195      -307.1674
   6   2.0000     -11.267376      -306.6009
   7   2.0000     -11.253961      -306.2359
   8   2.0000     -11.242209      -305.9161
   9   2.0000      -1.411316       -38.4039
  10   2.0000      -1.249962       -34.0132
  11   2.0000      -1.207977       -32.8707
  12   2.0000      -1.068226       -29.0679
  13   2.0000      -1.032761       -28.1028
  14   2.0000      -0.954097       -25.9623
  15   2.0000      -0.887111       -24.1395
  16   2.0000      -0.774855       -21.0849
  17   2.0000      -0.733519       -19.9601
  18   2.0000      -0.682650       -18.5758
  19   2.0000      -0.670746       -18.2519
  20   2.0000      -0.643530       -17.5113
  21   2.0000      -0.623123       -16.9560
  22   2.0000      -0.612144       -16.6573
  23   2.0000      -0.586601       -15.9622
  24   2.0000      -0.579519       -15.7695
  25   2.0000      -0.572082       -15.5671
  26   2.0000      -0.565159       -15.3788
  27   2.0000      -0.542352       -14.7581
  28   2.0000      -0.533164       -14.5081
  29   2.0000      -0.510893       -13.9021
  30   2.0000      -0.462058       -12.5732
  31   2.0000      -0.460952       -12.5431
  32   2.0000      -0.443257       -12.0616
  33   2.0000      -0.396187       -10.7808
  34   0.0000       0.106407         2.8955
  35   0.0000       0.123234         3.3534
  36   0.0000       0.138525         3.7694
  37   0.0000       0.156833         4.2676
  38   0.0000       0.166587         4.5331

MULLIKEN ATOMIC CHARGES
-----------------------
   0 C :   -0.356015
   1 C :    0.040246
   2 N :   -0.305800
   3 C :   -0.189622
   4 C :    0.206425
   5 C :   -0.408692
   6 O :   -0.301115
   7 C :   -0.162637
   8 N :   -0.056864
   9 H :    0.147394
  10 H :    0.148126
  11 H :    0.127059
  12 H :    0.128257
  13 H :    0.227794
  14 H :    0.160029
  15 H :    0.138647
  16 H :    0.148615
  17 H :    0.159676
  18 H :    0.148476
Sum of atomic charges:    0.0000000

LOEWDIN ATOMIC CHARGES
----------------------
   0 C :   -0.274777
   1 C :   -0.321564
   2 N :    0.026655
   3 C :   -0.290634
   4 C :   -0.359437
   5 C :   -0.277917
   6 O :    0.145566
   7 C :   -0.165885
   8 N :    0.063663
   9 H :    0.132082
  10 H :    0.133075
  11 H :    0.124374
  12 H :    0.168710
  13 H :    0.183251
  14 H :    0.150984
  15 H :    0.147750
  16 H :    0.139842
  17 H :    0.136469
  18 H :    0.137793

  Mayer bond orders larger than 0.1
B(  0-C ,  1-C ) :   0.9171 B(  0-C ,  9-H ) :   0.9228 B(  0-C , 10-H ) :   0.9188
B(  0-C , 11-H ) :   0.9324 B(  1-C ,  2-N ) :   0.9920 B(  1-C ,  7-C ) :   0.9258
B(  1-C , 12-H ) :   0.9093 B(  2-N ,  3-C ) :   0.9700 B(  2-N , 13-H ) :   0.8635
B(  3-C ,  4-C ) :   0.9037 B(  3-C , 14-H ) :   0.8994 B(  3-C , 15-H ) :   0.9190
B(  4-C ,  5-C ) :   0.9207 B(  4-C ,  6-O ) :   1.9535 B(  5-C , 16-H ) :   0.9132
B(  5-C , 17-H ) :   0.9340 B(  5-C , 18-H ) :   0.9166 B(  7-C ,  8-N ) :   2.8776

MP2 TOTAL ENERGY:     -418.519511235 Eh
FINAL SINGLE POINT ENERGY      -418.519511235348

DIPOLE MOMENT
-------------
                                X             Y             Z
Electronic contribution:      3.94437      -1.96966      -6.91760
Nuclear contribution   :     -4.87672       2.17070       9.07107
                        -----------------------------------------
Total Dipole Moment    :     -0.93235       0.20104       2.15347
                        -----------------------------------------
Magnitude (a.u.)       :      2.35524
Magnitude (Debye)      :      5.98654

                             ****ORCA TERMINATED NORMALLY****
TOTAL RUN TIME: 0 days 0 hours 17 minutes 26 seconds 638 msec
