                         Program Version 3.0.3 - RELEASE   -
|  1> ! RI-MP2 RIJK def2-TZVP def2-TZVP/C def2-TZVP/JK TIGHTSCF
|  2> % maxcore 2000
|  3> % mp2 density relaxed end
|  4> *xyz 0 1
|  5>  C       -0.3915255677     1.0304454713     1.1737222127
|  6>  C        0.1923773404     0.4673842599    -0.1378427136
|  7>  N        1.5689755014    -0.0258741229     0.0446354650
|  8>  C        1.7962597593    -1.0464271719     0.7312657295
|  9>  C        3.0495429680    -1.8054034274     1.1164652145
| 10>  C        2.0607058628    -2.7234885601     1.8636146550
| 11>  O        0.9445090516    -1.8930004004     1.4189709790
| 12>  C       -0.7001856559    -0.5261000634    -0.7440600047
| 13>  C       -1.4413667886    -1.3203325185    -1.2582010242
| 14>  H        0.2929110312     1.7774179448     1.5853538984
| 15>  H       -1.3586672254     1.5036845183     0.9840488165
| 16>  H       -0.5293463069     0.2312661620     1.9046864450
| 17>  H        0.2746861590     1.3001828900    -0.8466098239
| 18>  H        3.5848212852    -2.2557878792     0.2792000196
| 19>  H        3.7504365998    -1.2469036051     1.7388967350
| 20>  H        1.9626462884    -3.7425900100     1.4828305106
| 21>  H        2.1315282407    -2.7306130444     2.9537954592
| 22>  H       -2.0917464935    -2.0292496329    -1.7072831836
| 23> *
| 24>
| 25>                          ****END OF INPUT****

CARTESIAN COORDINATES (ANGSTROEM)
---------------------------------
  C     -0.391526    1.030445    1.173722
  C      0.192377    0.467384   -0.137843
  N      1.568976   -0.025874    0.044635
  C      1.796260   -1.046427    0.731266
  C      3.049543   -1.805403    1.116465
  C      2.060706   -2.723489    1.863615
  O      0.944509   -1.893000    1.418971
  C     -0.700186   -0.526100   -0.744060
  C     -1.441367   -1.320333   -1.258201
  H      0.292911    1.777418    1.585354
  H     -1.358667    1.503685    0.984049
  H     -0.529346    0.231266    1.904686
  H      0.274686    1.300183   -0.846610
  H      3.584821   -2.255788    0.279200
  H      3.750437   -1.246904    1.738897
  H      1.962646   -3.742590    1.482831
  H      2.131528   -2.730613    2.953795
  H     -2.091746   -2.029250   -1.707283

 Total Charge           Charge          ....    0
 Multiplicity           Mult            ....    1
 Number of Electrons    NEL             ....   66
 Basis Dimension        Dim             ....  333

ORBITAL ENERGIES
----------------

  NO   OCC          E(Eh)            E(eV)
   0   2.0000     -20.591118      -560.3128
   1   2.0000     -15.542345      -422.9287
   2   2.0000     -11.339798      -308.5716
   3   2.0000     -11.304281      -307.6051
   4   2.0000     -11.281932      -306.9970
   5   2.0000     -11.254368      -306.2469
   6   2.0000     -11.223111      -305.3964
   7   2.0000     -11.216063      -305.2046
   8   2.0000     -11.212125      -305.0974
   9   2.0000      -1.433219       -38.9999
  10   2.0000      -1.224912       -33.3315
  11   2.0000      -1.061892       -28.8955
  12   2.0000      -1.033773       -28.1304
  13   2.0000      -0.986420       -26.8418
  14   2.0000      -0.908438       -24.7198
  15   2.0000      -0.860486       -23.4150
  16   2.0000      -0.745570       -20.2880
  17   2.0000      -0.725136       -19.7320
  18   2.0000      -0.695803       -18.9338
  19   2.0000      -0.678219       -18.4553
  20   2.0000      -0.670844       -18.2546
  21   2.0000      -0.624301       -16.9881
  22   2.0000      -0.579331       -15.7644
  23   2.0000      -0.562064       -15.2945
  24   2.0000      -0.544776       -14.8241
  25   2.0000      -0.535989       -14.5850
  26   2.0000      -0.521200       -14.1826
  27   2.0000      -0.508499       -13.8370
  28   2.0000      -0.495926       -13.4948
  29   2.0000      -0.426298       -11.6002
  30   2.0000      -0.394062       -10.7230
  31   2.0000      -0.375427       -10.2159
  32   2.0000      -0.372478       -10.1356
  33   0.0000       0.134302         3.6546
  34   0.0000       0.148138         4.0311
  35   0.0000       0.162772         4.4292
  36   0.0000       0.168359         4.5813
  37   0.0000       0.174041         4.7359

MULLIKEN ATOMIC CHARGES
-----------------------
   0 C :   -0.418385
   1 C :    0.070292
   2 N :   -0.270029
   3 C :    0.199068
   4 C :   -0.271951
   5 C :   -0.023421
   6 O :   -0.277475
   7 C :   -0.055395
   8 C :   -0.201264
   9 H :    0.137788
  10 H :    0.135938
  11 H :    0.146962
  12 H :    0.120514
  13 H :    0.145666
  14 H :    0.143319
  15 H :    0.117148
  16 H :    0.115802
  17 H :    0.185421
Sum of atomic charges:   -0.0000000

LOEWDIN ATOMIC CHARGES
----------------------
   0 C :   -0.273176
   1 C :   -0.296019
   2 N :    0.128109
   3 C :   -0.358891
   4 C :   -0.202388
   5 C :   -0.235993
   6 O :    0.220163
   7 C :   -0.086785
   8 C :   -0.100175
   9 H :    0.125821
  10 H :    0.128150
  11 H :    0.128393
  12 H :    0.164828
  13 H :    0.145022
  14 H :    0.144326
  15 H :    0.122119
  16 H :    0.121139
  17 H :    0.125357

  Mayer bond orders larger than 0.1
B(  0-C ,  1-C ) :   0.8950 B(  0-C ,  9-H ) :   0.9368 B(  0-C , 10-H ) :   0.9322
B(  0-C , 11-H ) :   0.9291 B(  1-C ,  2-N ) :   0.8607 B(  1-C ,  7-C ) :   1.0799
B(  1-C , 12-H ) :   0.9261 B(  2-N ,  3-C ) :   1.9443 B(  3-C ,  4-C ) :   0.9154
B(  3-C ,  6-O ) :   1.0291 B(  4-C ,  5-C ) :   0.9839 B(  4-C , 13-H ) :   0.9127
B(  4-C , 14-H ) :   0.9100 B(  5-C ,  6-O ) :   0.9047 B(  5-C , 15-H ) :   0.9183
B(  5-C , 16-H ) :   0.9197 B(  7-C ,  8-C ) :   2.6065 B(  8-C , 17-H ) :   0.9037

MP2 TOTAL ENERGY:     -401.198481334 Eh
FINAL SINGLE POINT ENERGY      -401.198481334323

DIPOLE MOMENT
-------------
                                X             Y             Z
Electronic contribution:     -0.20260      -1.34447      -2.83267
Nuclear contribution   :      0.67105       0.71851       3.42916
                        -----------------------------------------
Total Dipole Moment    :      0.46845      -0.62596       0.59649
                        -----------------------------------------
Magnitude (a.u.)       :      0.98340
Magnitude (Debye)      :      2.49960

                             ****ORCA TERMINATED NORMALLY****
TOTAL RUN TIME: 0 days 0 hours 19 minutes 25 seconds 859 msec
