                         Program Version 3.0.3 - RELEASE   -
|  1> ! RI-MP2 RIJK def2-TZVP def2-TZVP/C def2-TZVP/JK TIGHTSCF
|  2> % maxcore 2000
|  3> % mp2 density relaxed end
|  4> *xyz 0 1
|  5>  C       -0.0849788283     1.4286374241    -0.0879099631
|  6>  N        0.0051910542    -0.0306157415     0.0095479391
|  7>  C        0.0967005320    -0.6286496250     1.2541333290
|  8>  O        0.0578212561    -0.0303464297     2.3014187404
|  9>  C        0.0220951554    -0.7917275953    -1.1435863109
| 10>  C       -0.1145511786    -2.1281990911    -1.4064712688
| 11>  C        0.0257000958    -2.1835142393    -2.8152327763
| 12>  N        0.2155124647    -1.0097509023    -3.3630978674
| 13>  O        0.2174000792    -0.1102544564    -2.2804519141
| 14>  H        0.8005037137     1.8359536694    -0.5814954992
| 15>  H       -0.9706397475     1.7143659799    -0.6598034036
| 16>  H       -0.1541045765     1.8083947688     0.9297523408
| 17>  H        0.2180664530    -1.7219864270     1.1837216784
| 18>  H       -0.3092221801    -2.9371441066    -0.7254163235
| 19>  H       -0.0168233129    -3.0539358879    -3.4553711008
| 20> *
| 21>
| 22>                          ****END OF INPUT****

CARTESIAN COORDINATES (ANGSTROEM)
---------------------------------
  C     -0.084979    1.428637   -0.087910
  N      0.005191   -0.030616    0.009548
  C      0.096701   -0.628650    1.254133
  O      0.057821   -0.030346    2.301419
  C      0.022095   -0.791728   -1.143586
  C     -0.114551   -2.128199   -1.406471
  C      0.025700   -2.183514   -2.815233
  N      0.215512   -1.009751   -3.363098
  O      0.217400   -0.110254   -2.280452
  H      0.800504    1.835954   -0.581495
  H     -0.970640    1.714366   -0.659803
  H     -0.154105    1.808395    0.929752
  H      0.218066   -1.721986    1.183722
  H     -0.309222   -2.937144   -0.725416
  H     -0.016823   -3.053936   -3.455371

 Total Charge           Charge          ....    0
 Multiplicity           Mult            ....    1
 Number of Electrons    NEL             ....   66
 Basis Dimension        Dim             ....  315

ORBITAL ENERGIES
----------------

  NO   OCC          E(Eh)            E(eV)
   0   2.0000     -20.655960      -562.0773
   1   2.0000     -20.558870      -559.4353
   2   2.0000     -15.637393      -425.5151
   3   2.0000     -15.625754      -425.1984
   4   2.0000     -11.380639      -309.6829
   5   2.0000     -11.378675      -309.6295
   6   2.0000     -11.294112      -307.3284
   7   2.0000     -11.278253      -306.8969
   8   2.0000     -11.245260      -305.9991
   9   2.0000      -1.510211       -41.0949
  10   2.0000      -1.419889       -38.6371
  11   2.0000      -1.297578       -35.3089
  12   2.0000      -1.174856       -31.9695
  13   2.0000      -1.078396       -29.3446
  14   2.0000      -0.987792       -26.8792
  15   2.0000      -0.896012       -24.3817
  16   2.0000      -0.832958       -22.6660
  17   2.0000      -0.792737       -21.5715
  18   2.0000      -0.778721       -21.1901
  19   2.0000      -0.696646       -18.9567
  20   2.0000      -0.681802       -18.5528
  21   2.0000      -0.661409       -17.9979
  22   2.0000      -0.640820       -17.4376
  23   2.0000      -0.634420       -17.2634
  24   2.0000      -0.602937       -16.4068
  25   2.0000      -0.583591       -15.8803
  26   2.0000      -0.566354       -15.4113
  27   2.0000      -0.563308       -15.3284
  28   2.0000      -0.492820       -13.4103
  29   2.0000      -0.468560       -12.7502
  30   2.0000      -0.464498       -12.6396
  31   2.0000      -0.444630       -12.0990
  32   2.0000      -0.344565        -9.3761
  33   0.0000       0.110199         2.9987
  34   0.0000       0.138966         3.7815
  35   0.0000       0.141583         3.8527
  36   0.0000       0.151865         4.1325
  37   0.0000       0.168975         4.5980

MULLIKEN ATOMIC CHARGES
-----------------------
   0 C :   -0.328564
   1 N :   -0.092020
   2 C :    0.156496
   3 O :   -0.319756
   4 C :    0.264753
   5 C :   -0.262503
   6 C :   -0.071877
   7 N :   -0.139078
   8 O :   -0.114792
   9 H :    0.155039
  10 H :    0.153198
  11 H :    0.184149
  12 H :    0.102247
  13 H :    0.160483
  14 H :    0.152224
Sum of atomic charges:   -0.0000000

LOEWDIN ATOMIC CHARGES
----------------------
   0 C :   -0.262275
   1 N :    0.188586
   2 C :   -0.366826
   3 O :    0.096985
   4 C :   -0.319891
   5 C :   -0.195114
   6 C :   -0.269863
   7 N :    0.033995
   8 O :    0.290982
   9 H :    0.125622
  10 H :    0.126016
  11 H :    0.136459
  12 H :    0.124265
  13 H :    0.146498
  14 H :    0.144559

  Mayer bond orders larger than 0.1
B(  0-C ,  1-N ) :   0.8474 B(  0-C ,  9-H ) :   0.9296 B(  0-C , 10-H ) :   0.9305
B(  0-C , 11-H ) :   0.9153 B(  1-N ,  2-C ) :   1.0562 B(  1-N ,  4-C ) :   1.0656
B(  2-C ,  3-O ) :   1.9314 B(  2-C , 12-H ) :   0.9309 B(  4-C ,  5-C ) :   1.4655
B(  4-C ,  8-O ) :   1.1241 B(  5-C ,  6-C ) :   1.2369 B(  5-C , 13-H ) :   0.9103
B(  6-C ,  7-N ) :   1.6035 B(  6-C , 14-H ) :   0.9270 B(  7-N ,  8-O ) :   0.8625

MP2 TOTAL ENERGY:     -453.210744851 Eh
FINAL SINGLE POINT ENERGY      -453.210744850760

DIPOLE MOMENT
-------------
                                X             Y             Z
Electronic contribution:      0.51425      -1.52674      -1.45550
Nuclear contribution   :     -0.68784       0.97006       1.39173
                        -----------------------------------------
Total Dipole Moment    :     -0.17359      -0.55668      -0.06377
                        -----------------------------------------
Magnitude (a.u.)       :      0.58659
Magnitude (Debye)      :      1.49100

                             ****ORCA TERMINATED NORMALLY****
TOTAL RUN TIME: 0 days 0 hours 16 minutes 31 seconds 597 msec
