                         Program Version 3.0.3 - RELEASE   -
|  1> ! RI-MP2 RIJK def2-TZVP def2-TZVP/C def2-TZVP/JK TIGHTSCF
|  2> % maxcore 2000
|  3> % mp2 density relaxed end
|  4> *xyz 0 1
|  5>  C        0.1575483817     1.2622515368    -0.2729212825
|  6>  C        0.4266515734    -0.1603239254     0.1321928650
|  7>  O        1.7480303391    -0.5064986763     0.5283662175
|  8>  C        0.7359765695    -0.5618186948     1.5388216884
|  9>  C        0.7998865993     0.4659468171     2.5602268423
| 10>  N        0.8647990241     1.2934115456     3.3634727977
| 11>  C        0.3192823359    -1.9412970447     2.0387737294
| 12>  C        0.8385192457    -3.1266362179     1.2597573568
| 13>  O       -0.3802249896    -2.0288291122     3.0163072993
| 14>  H        0.6414471295     1.9674682092     0.4050305682
| 15>  H        0.5339189259     1.4322508132    -1.2865149869
| 16>  H       -0.9198207694     1.4541774926    -0.2741795891
| 17>  H       -0.0621803022    -0.9239910773    -0.4744900726
| 18>  H        0.6098404505    -3.0473573856     0.1928720327
| 19>  H        1.9300991050    -3.1645132154     1.3397762612
| 20>  H        0.4012132216    -4.0373271049     1.6690503827
| 21> *
| 22>
| 23>                          ****END OF INPUT****

CARTESIAN COORDINATES (ANGSTROEM)
---------------------------------
  C      0.157548    1.262252   -0.272921
  C      0.426652   -0.160324    0.132193
  O      1.748030   -0.506499    0.528366
  C      0.735977   -0.561819    1.538822
  C      0.799887    0.465947    2.560227
  N      0.864799    1.293412    3.363473
  C      0.319282   -1.941297    2.038774
  C      0.838519   -3.126636    1.259757
  O     -0.380225   -2.028829    3.016307
  H      0.641447    1.967468    0.405031
  H      0.533919    1.432251   -1.286515
  H     -0.919821    1.454177   -0.274180
  H     -0.062180   -0.923991   -0.474490
  H      0.609840   -3.047357    0.192872
  H      1.930099   -3.164513    1.339776
  H      0.401213   -4.037327    1.669050

 Total Charge           Charge          ....    0
 Multiplicity           Mult            ....    1
 Number of Electrons    NEL             ....   66
 Basis Dimension        Dim             ....  321

ORBITAL ENERGIES
----------------

  NO   OCC          E(Eh)            E(eV)
   0   2.0000     -20.625145      -561.2387
   1   2.0000     -20.577771      -559.9496
   2   2.0000     -15.588158      -424.1753
   3   2.0000     -11.368330      -309.3480
   4   2.0000     -11.362704      -309.1949
   5   2.0000     -11.346034      -308.7413
   6   2.0000     -11.288002      -307.1622
   7   2.0000     -11.257076      -306.3206
   8   2.0000     -11.254915      -306.2618
   9   2.0000      -1.474791       -40.1311
  10   2.0000      -1.422455       -38.7070
  11   2.0000      -1.231160       -33.5016
  12   2.0000      -1.058752       -28.8101
  13   2.0000      -1.050528       -28.5863
  14   2.0000      -1.001577       -27.2543
  15   2.0000      -0.881720       -23.9928
  16   2.0000      -0.826207       -22.4822
  17   2.0000      -0.733698       -19.9649
  18   2.0000      -0.722078       -19.6487
  19   2.0000      -0.663755       -18.0617
  20   2.0000      -0.637864       -17.3572
  21   2.0000      -0.627219       -17.0675
  22   2.0000      -0.620292       -16.8790
  23   2.0000      -0.599668       -16.3178
  24   2.0000      -0.584309       -15.8999
  25   2.0000      -0.568886       -15.4802
  26   2.0000      -0.563996       -15.3471
  27   2.0000      -0.544541       -14.8177
  28   2.0000      -0.514567       -14.0021
  29   2.0000      -0.504090       -13.7170
  30   2.0000      -0.480211       -13.0672
  31   2.0000      -0.458816       -12.4850
  32   2.0000      -0.435198       -11.8423
  33   0.0000       0.105181         2.8621
  34   0.0000       0.120503         3.2790
  35   0.0000       0.141209         3.8425
  36   0.0000       0.150860         4.1051
  37   0.0000       0.162705         4.4274

MULLIKEN ATOMIC CHARGES
-----------------------
   0 C :   -0.384032
   1 C :    0.043699
   2 O :   -0.303716
   3 C :    0.278107
   4 C :   -0.166804
   5 N :   -0.034934
   6 C :    0.143910
   7 C :   -0.390371
   8 O :   -0.248495
   9 H :    0.165959
  10 H :    0.150788
  11 H :    0.146024
  12 H :    0.127512
  13 H :    0.142361
  14 H :    0.166694
  15 H :    0.163299
Sum of atomic charges:   -0.0000000

LOEWDIN ATOMIC CHARGES
----------------------
   0 C :   -0.276921
   1 C :   -0.243929
   2 O :    0.228053
   3 C :   -0.262690
   4 C :   -0.137775
   5 N :    0.093883
   6 C :   -0.310611
   7 C :   -0.264632
   8 O :    0.188403
   9 H :    0.141725
  10 H :    0.136631
  11 H :    0.139133
  12 H :    0.143427
  13 H :    0.137935
  14 H :    0.148677
  15 H :    0.138693

  Mayer bond orders larger than 0.1
B(  0-C ,  1-C ) :   0.9155 B(  0-C ,  9-H ) :   0.9317 B(  0-C , 10-H ) :   0.9291
B(  0-C , 11-H ) :   0.9210 B(  1-C ,  2-O ) :   0.8798 B(  1-C ,  3-C ) :   0.9083
B(  1-C , 12-H ) :   0.8980 B(  2-O ,  3-C ) :   0.8846 B(  3-C ,  4-C ) :   0.9341
B(  3-C ,  6-C ) :   0.8388 B(  4-C ,  5-N ) :   2.8310 B(  6-C ,  7-C ) :   0.9516
B(  6-C ,  8-O ) :   2.0237 B(  7-C , 13-H ) :   0.9070 B(  7-C , 14-H ) :   0.9049
B(  7-C , 15-H ) :   0.9330

MP2 TOTAL ENERGY:     -437.168205741 Eh
FINAL SINGLE POINT ENERGY      -437.168205740988

DIPOLE MOMENT
-------------
                                X             Y             Z
Electronic contribution:      0.89663       1.16309       6.72609
Nuclear contribution   :     -1.07221      -1.86427      -8.61559
                        -----------------------------------------
Total Dipole Moment    :     -0.17558      -0.70117      -1.88951
                        -----------------------------------------
Magnitude (a.u.)       :      2.02304
Magnitude (Debye)      :      5.14217

                             ****ORCA TERMINATED NORMALLY****
TOTAL RUN TIME: 0 days 0 hours 15 minutes 57 seconds 839 msec
