                         Program Version 3.0.3 - RELEASE   -
|  1> ! RI-MP2 RIJK def2-TZVP def2-TZVP/C def2-TZVP/JK TIGHTSCF
|  2> % maxcore 2000
|  3> % mp2 density relaxed end
|  4> *xyz 0 1
|  5>  N       -0.1079567363     1.4259171147    -0.0209198485
|  6>  C        0.0401144044     0.0297454381    -0.0215679039
|  7>  C        0.1302605813    -1.0701301727    -1.0294096608
|  8>  N        1.3153733109    -1.6469179504    -0.4324133516
|  9>  C        0.9328459189    -0.9746065233     0.8426305278
| 10>  C       -0.3767983146    -1.6609476122     1.3253811919
| 11>  C       -1.0208082331    -1.0655074993     0.0743917407
| 12>  C       -2.3886077435    -0.9459489552    -0.2779733305
| 13>  N       -3.5025887403    -0.8210861805    -0.5747250834
| 14>  H        0.4336639310     1.8807912873    -0.7463233519
| 15>  H       -1.0765147332     1.7120588213    -0.0978299929
| 16>  H       -0.1155904682    -1.1008008869    -2.0834132152
| 17>  H        1.3090502706    -2.6660431509    -0.3705544748
| 18>  H        1.7332298122    -0.7231954482     1.5342490867
| 19>  H       -0.3622455853    -2.7504315917     1.4396804076
| 20>  H       -0.7717003348    -1.1932556502     2.2298080289
| 21> *
| 22>
| 23>                          ****END OF INPUT****

CARTESIAN COORDINATES (ANGSTROEM)
---------------------------------
  N     -0.107957    1.425917   -0.020920
  C      0.040114    0.029745   -0.021568
  C      0.130261   -1.070130   -1.029410
  N      1.315373   -1.646918   -0.432413
  C      0.932846   -0.974607    0.842631
  C     -0.376798   -1.660948    1.325381
  C     -1.020808   -1.065507    0.074392
  C     -2.388608   -0.945949   -0.277973
  N     -3.502589   -0.821086   -0.574725
  H      0.433664    1.880791   -0.746323
  H     -1.076515    1.712059   -0.097830
  H     -0.115590   -1.100801   -2.083413
  H      1.309050   -2.666043   -0.370554
  H      1.733230   -0.723195    1.534249
  H     -0.362246   -2.750432    1.439680
  H     -0.771700   -1.193256    2.229808

 Total Charge           Charge          ....    0
 Multiplicity           Mult            ....    1
 Number of Electrons    NEL             ....   64
 Basis Dimension        Dim             ....  321

ORBITAL ENERGIES
----------------

  NO   OCC          E(Eh)            E(eV)
   0   2.0000     -15.573423      -423.7744
   1   2.0000     -15.572880      -423.7596
   2   2.0000     -15.571118      -423.7116
   3   2.0000     -11.303114      -307.5734
   4   2.0000     -11.294816      -307.3476
   5   2.0000     -11.287269      -307.1422
   6   2.0000     -11.284346      -307.0627
   7   2.0000     -11.277306      -306.8711
   8   2.0000     -11.257186      -306.3236
   9   2.0000      -1.323508       -36.0145
  10   2.0000      -1.217637       -33.1336
  11   2.0000      -1.204336       -32.7717
  12   2.0000      -1.104315       -30.0499
  13   2.0000      -1.001309       -27.2470
  14   2.0000      -0.924639       -25.1607
  15   2.0000      -0.841414       -22.8960
  16   2.0000      -0.765158       -20.8210
  17   2.0000      -0.740060       -20.1381
  18   2.0000      -0.703489       -19.1429
  19   2.0000      -0.672370       -18.2961
  20   2.0000      -0.646827       -17.6011
  21   2.0000      -0.623218       -16.9586
  22   2.0000      -0.572318       -15.5736
  23   2.0000      -0.544752       -14.8235
  24   2.0000      -0.537137       -14.6162
  25   2.0000      -0.514686       -14.0053
  26   2.0000      -0.507725       -13.8159
  27   2.0000      -0.487988       -13.2788
  28   2.0000      -0.471697       -12.8355
  29   2.0000      -0.426891       -11.6163
  30   2.0000      -0.391365       -10.6496
  31   2.0000      -0.360555        -9.8112
  32   0.0000       0.125213         3.4072
  33   0.0000       0.130855         3.5607
  34   0.0000       0.155967         4.2441
  35   0.0000       0.159319         4.3353
  36   0.0000       0.166059         4.5187

MULLIKEN ATOMIC CHARGES
-----------------------
   0 N :   -0.527494
   1 C :    0.069599
   2 C :   -0.096280
   3 N :   -0.290388
   4 C :   -0.058019
   5 C :   -0.180326
   6 C :    0.140111
   7 C :   -0.299763
   8 N :   -0.047869
   9 H :    0.258198
  10 H :    0.260111
  11 H :    0.158795
  12 H :    0.207475
  13 H :    0.147065
  14 H :    0.124373
  15 H :    0.134412
Sum of atomic charges:   -0.0000000

LOEWDIN ATOMIC CHARGES
----------------------
   0 N :   -0.094646
   1 C :   -0.216934
   2 C :   -0.174687
   3 N :    0.046198
   4 C :   -0.166815
   5 C :   -0.168835
   6 C :   -0.175478
   7 C :   -0.173474
   8 N :    0.062430
   9 H :    0.169971
  10 H :    0.173276
  11 H :    0.143112
  12 H :    0.163229
  13 H :    0.132927
  14 H :    0.129069
  15 H :    0.150656

  Mayer bond orders larger than 0.1
B(  0-N ,  1-C ) :   1.0535 B(  0-N ,  9-H ) :   0.8766 B(  0-N , 10-H ) :   0.8766
B(  1-C ,  2-C ) :   0.8886 B(  1-C ,  4-C ) :   0.8717 B(  1-C ,  6-C ) :   0.8056
B(  2-C ,  3-N ) :   1.0098 B(  2-C ,  6-C ) :   0.7419 B(  2-C , 11-H ) :   0.9252
B(  3-N ,  4-C ) :   0.9698 B(  3-N , 12-H ) :   0.8708 B(  4-C ,  5-C ) :   0.9497
B(  4-C , 13-H ) :   0.9095 B(  5-C ,  6-C ) :   0.8893 B(  5-C , 14-H ) :   0.9174
B(  5-C , 15-H ) :   0.9162 B(  6-C ,  7-C ) :   0.9199 B(  7-C ,  8-N ) :   2.8773

MP2 TOTAL ENERGY:     -396.182266755 Eh
FINAL SINGLE POINT ENERGY      -396.182266754747

DIPOLE MOMENT
-------------
                                X             Y             Z
Electronic contribution:     -3.36739      -0.29645      -1.68543
Nuclear contribution   :      4.50170       0.22365       1.86408
                        -----------------------------------------
Total Dipole Moment    :      1.13431      -0.07280       0.17865
                        -----------------------------------------
Magnitude (a.u.)       :      1.15060
Magnitude (Debye)      :      2.92459

                             ****ORCA TERMINATED NORMALLY****
TOTAL RUN TIME: 0 days 0 hours 18 minutes 1 seconds 66 msec
