                         Program Version 3.0.3 - RELEASE   -
|  1> ! RI-MP2 RIJK def2-TZVP def2-TZVP/C def2-TZVP/JK TIGHTSCF
|  2> % maxcore 2000
|  3> % mp2 density relaxed end
|  4> *xyz 0 1
|  5>  C        0.0022582245     1.4624491371    -0.0312721689
|  6>  C        0.0275770667    -0.0389508085    -0.0578392532
|  7>  C        0.5647016794    -0.9675889150    -1.1694926079
|  8>  C        0.0556336894    -1.9363710125    -0.0831111322
|  9>  C        0.0663285179    -3.3739643995    -0.0800710797
| 10>  N        0.0777205950    -4.5311134380    -0.0834644727
| 11>  C        0.5377703625    -0.9985396444     1.0870438605
| 12>  C       -0.8383249002    -1.0337074125     1.7784585954
| 13>  C       -1.1694772851    -1.0129600936     0.2741861937
| 14>  H        1.0151381392     1.8725589465    -0.1072850801
| 15>  H       -0.5821001441     1.8590859631    -0.8685881976
| 16>  H       -0.4429488825     1.8384302289     0.8961243019
| 17>  H        0.0180549188    -0.9742227223    -2.1174634756
| 18>  H        1.6451847370    -0.9604893910    -1.3427584589
| 19>  H        1.5389571844    -1.0131525698     1.5200567719
| 20>  H       -1.0910416179    -1.9460427251     2.3254187624
| 21>  H       -1.1200904276    -0.1480699040     2.3545418662
| 22>  H       -2.1364460174    -1.0442021994    -0.2298809551
| 23> *
| 24>
| 25>                          ****END OF INPUT****

CARTESIAN COORDINATES (ANGSTROEM)
---------------------------------
  C      0.002258    1.462449   -0.031272
  C      0.027577   -0.038951   -0.057839
  C      0.564702   -0.967589   -1.169493
  C      0.055634   -1.936371   -0.083111
  C      0.066329   -3.373964   -0.080071
  N      0.077721   -4.531113   -0.083464
  C      0.537770   -0.998540    1.087044
  C     -0.838325   -1.033707    1.778459
  C     -1.169477   -1.012960    0.274186
  H      1.015138    1.872559   -0.107285
  H     -0.582100    1.859086   -0.868588
  H     -0.442949    1.838430    0.896124
  H      0.018055   -0.974223   -2.117463
  H      1.645185   -0.960489   -1.342758
  H      1.538957   -1.013153    1.520057
  H     -1.091042   -1.946043    2.325419
  H     -1.120090   -0.148070    2.354542
  H     -2.136446   -1.044202   -0.229881

 Total Charge           Charge          ....    0
 Multiplicity           Mult            ....    1
 Number of Electrons    NEL             ....   64
 Basis Dimension        Dim             ....  333

ORBITAL ENERGIES
----------------

  NO   OCC          E(Eh)            E(eV)
   0   2.0000     -15.566335      -423.5815
   1   2.0000     -11.289463      -307.2019
   2   2.0000     -11.270067      -306.6741
   3   2.0000     -11.268281      -306.6255
   4   2.0000     -11.267850      -306.6138
   5   2.0000     -11.267838      -306.6134
   6   2.0000     -11.249199      -306.1063
   7   2.0000     -11.243408      -305.9487
   8   2.0000     -11.234377      -305.7029
   9   2.0000      -1.272067       -34.6147
  10   2.0000      -1.209360       -32.9084
  11   2.0000      -1.031732       -28.0748
  12   2.0000      -1.010138       -27.4872
  13   2.0000      -0.908091       -24.7104
  14   2.0000      -0.887869       -24.1601
  15   2.0000      -0.853654       -23.2291
  16   2.0000      -0.714580       -19.4447
  17   2.0000      -0.704292       -19.1648
  18   2.0000      -0.655580       -17.8392
  19   2.0000      -0.630052       -17.1446
  20   2.0000      -0.621488       -16.9115
  21   2.0000      -0.580719       -15.8022
  22   2.0000      -0.568128       -15.4596
  23   2.0000      -0.558901       -15.2085
  24   2.0000      -0.511772       -13.9260
  25   2.0000      -0.510606       -13.8943
  26   2.0000      -0.475812       -12.9475
  27   2.0000      -0.467682       -12.7263
  28   2.0000      -0.446487       -12.1495
  29   2.0000      -0.443509       -12.0685
  30   2.0000      -0.431310       -11.7365
  31   2.0000      -0.412783       -11.2324
  32   0.0000       0.127179         3.4607
  33   0.0000       0.144749         3.9388
  34   0.0000       0.151860         4.1323
  35   0.0000       0.152601         4.1525
  36   0.0000       0.175955         4.7880

MULLIKEN ATOMIC CHARGES
-----------------------
   0 C :   -0.425489
   1 C :   -0.025586
   2 C :   -0.174294
   3 C :    0.076725
   4 C :   -0.299460
   5 N :   -0.021213
   6 C :   -0.039453
   7 C :   -0.264250
   8 C :   -0.039473
   9 H :    0.142497
  10 H :    0.142499
  11 H :    0.139867
  12 H :    0.123828
  13 H :    0.123829
  14 H :    0.142196
  15 H :    0.133101
  16 H :    0.122481
  17 H :    0.142195
Sum of atomic charges:    0.0000000

LOEWDIN ATOMIC CHARGES
----------------------
   0 C :   -0.273351
   1 C :   -0.184157
   2 C :   -0.134646
   3 C :   -0.166904
   4 C :   -0.154998
   5 N :    0.068303
   6 C :   -0.080478
   7 C :   -0.192772
   8 C :   -0.080478
   9 H :    0.132233
  10 H :    0.132234
  11 H :    0.132529
  12 H :    0.134923
  13 H :    0.134923
  14 H :    0.134131
  15 H :    0.134598
  16 H :    0.129780
  17 H :    0.134131

  Mayer bond orders larger than 0.1
B(  0-C ,  1-C ) :   0.8481 B(  0-C ,  9-H ) :   0.9429 B(  0-C , 10-H ) :   0.9429
B(  0-C , 11-H ) :   0.9434 B(  1-C ,  2-C ) :   0.9095 B(  1-C ,  6-C ) :   0.8435
B(  1-C ,  8-C ) :   0.8435 B(  2-C ,  3-C ) :   0.8643 B(  2-C , 12-H ) :   0.9200
B(  2-C , 13-H ) :   0.9200 B(  3-C ,  4-C ) :   0.8969 B(  3-C ,  6-C ) :   0.8375
B(  3-C ,  8-C ) :   0.8375 B(  4-C ,  5-N ) :   2.9128 B(  6-C ,  7-C ) :   0.9286
B(  6-C , 14-H ) :   0.8838 B(  7-C ,  8-C ) :   0.9286 B(  7-C , 15-H ) :   0.9066
B(  7-C , 16-H ) :   0.9296 B(  8-C , 17-H ) :   0.8838

MP2 TOTAL ENERGY:     -364.099682647 Eh
FINAL SINGLE POINT ENERGY      -364.099682646885

DIPOLE MOMENT
-------------
                                X             Y             Z
Electronic contribution:      0.38619      -8.94259      -0.65251
Nuclear contribution   :     -0.43635      10.75494       0.72572
                        -----------------------------------------
Total Dipole Moment    :     -0.05016       1.81236       0.07321
                        -----------------------------------------
Magnitude (a.u.)       :      1.81453
Magnitude (Debye)      :      4.61216

                             ****ORCA TERMINATED NORMALLY****
TOTAL RUN TIME: 0 days 0 hours 19 minutes 45 seconds 306 msec
