                         Program Version 3.0.3 - RELEASE   -
|  1> ! RI-MP2 RIJK def2-TZVP def2-TZVP/C def2-TZVP/JK TIGHTSCF
|  2> % maxcore 2000
|  3> % mp2 density relaxed end
|  4> *xyz 0 1
|  5>  C       -0.0145225787     1.5141137597     0.0194200364
|  6>  C       -0.0130704033     0.0039954273     0.0568264137
|  7>  C       -1.1993666619    -0.6896172870    -0.5916797678
|  8>  C       -1.0806214996    -2.2259802925    -0.5834130602
|  9>  C       -0.6455339233    -2.7580347972     0.7573444238
| 10>  C        0.1619191518    -2.0594109152     1.5571538004
| 11>  C        0.6628212698    -0.7228708773     1.1515669643
| 12>  O        1.2587427057    -0.6120498408    -0.1671935515
| 13>  H        0.8651742318     1.9138982495     0.5299678232
| 14>  H        0.0004474707     1.8726568437    -1.0160029645
| 15>  H       -0.9124248595     1.9172970144     0.4999487874
| 16>  H       -2.1014405974    -0.3848711105    -0.0447400285
| 17>  H       -1.3213848294    -0.3316496768    -1.6207648411
| 18>  H       -2.0375512539    -2.6689947467    -0.8790223873
| 19>  H       -0.3510621538    -2.5324190657    -1.3431418966
| 20>  H       -0.9910256870    -3.7445100024     1.0536956409
| 21>  H        0.4772474416    -2.4466333841     2.5211436214
| 22>  H        1.1898541564    -0.1442112782     1.9085262563
| 23> *
| 24>
| 25>                          ****END OF INPUT****

CARTESIAN COORDINATES (ANGSTROEM)
---------------------------------
  C     -0.014523    1.514114    0.019420
  C     -0.013070    0.003995    0.056826
  C     -1.199367   -0.689617   -0.591680
  C     -1.080621   -2.225980   -0.583413
  C     -0.645534   -2.758035    0.757344
  C      0.161919   -2.059411    1.557154
  C      0.662821   -0.722871    1.151567
  O      1.258743   -0.612050   -0.167194
  H      0.865174    1.913898    0.529968
  H      0.000447    1.872657   -1.016003
  H     -0.912425    1.917297    0.499949
  H     -2.101441   -0.384871   -0.044740
  H     -1.321385   -0.331650   -1.620765
  H     -2.037551   -2.668995   -0.879022
  H     -0.351062   -2.532419   -1.343142
  H     -0.991026   -3.744510    1.053696
  H      0.477247   -2.446633    2.521144
  H      1.189854   -0.144211    1.908526

 Total Charge           Charge          ....    0
 Multiplicity           Mult            ....    1
 Number of Electrons    NEL             ....   60
 Basis Dimension        Dim             ....  308

ORBITAL ENERGIES
----------------

  NO   OCC          E(Eh)            E(eV)
   0   2.0000     -20.556032      -559.3581
   1   2.0000     -11.286431      -307.1194
   2   2.0000     -11.279482      -306.9303
   3   2.0000     -11.233750      -305.6859
   4   2.0000     -11.229500      -305.5702
   5   2.0000     -11.228496      -305.5429
   6   2.0000     -11.225637      -305.4651
   7   2.0000     -11.222370      -305.3762
   8   2.0000      -1.400306       -38.1043
   9   2.0000      -1.100976       -29.9591
  10   2.0000      -1.035606       -28.1803
  11   2.0000      -0.989595       -26.9283
  12   2.0000      -0.920017       -25.0349
  13   2.0000      -0.850220       -23.1357
  14   2.0000      -0.793562       -21.5939
  15   2.0000      -0.711379       -19.3576
  16   2.0000      -0.684227       -18.6188
  17   2.0000      -0.634141       -17.2558
  18   2.0000      -0.612588       -16.6694
  19   2.0000      -0.607634       -16.5346
  20   2.0000      -0.580691       -15.8014
  21   2.0000      -0.565439       -15.3864
  22   2.0000      -0.542855       -14.7718
  23   2.0000      -0.528414       -14.3789
  24   2.0000      -0.504702       -13.7336
  25   2.0000      -0.494359       -13.4522
  26   2.0000      -0.468046       -12.7362
  27   2.0000      -0.443064       -12.0564
  28   2.0000      -0.422600       -11.4995
  29   2.0000      -0.343806        -9.3554
  30   0.0000       0.126929         3.4539
  31   0.0000       0.144746         3.9387
  32   0.0000       0.158013         4.2998
  33   0.0000       0.170711         4.6453
  34   0.0000       0.188776         5.1368

MULLIKEN ATOMIC CHARGES
-----------------------
   0 C :   -0.418433
   1 C :    0.180400
   2 C :   -0.216922
   3 C :   -0.174431
   4 C :   -0.121818
   5 C :   -0.264629
   6 C :    0.098482
   7 O :   -0.343295
   8 H :    0.140971
   9 H :    0.136174
  10 H :    0.131705
  11 H :    0.112382
  12 H :    0.123380
  13 H :    0.127487
  14 H :    0.123970
  15 H :    0.125027
  16 H :    0.123506
  17 H :    0.116043
Sum of atomic charges:    0.0000000

LOEWDIN ATOMIC CHARGES
----------------------
   0 C :   -0.266613
   1 C :   -0.329383
   2 C :   -0.212010
   3 C :   -0.243735
   4 C :   -0.149703
   5 C :   -0.160823
   6 C :   -0.225315
   7 O :    0.180759
   8 H :    0.131953
   9 H :    0.130187
  10 H :    0.130721
  11 H :    0.148851
  12 H :    0.144791
  13 H :    0.141231
  14 H :    0.153228
  15 H :    0.141748
  16 H :    0.144086
  17 H :    0.140028

  Mayer bond orders larger than 0.1
B(  0-C ,  1-C ) :   0.8799 B(  0-C ,  8-H ) :   0.9407 B(  0-C ,  9-H ) :   0.9395
B(  0-C , 10-H ) :   0.9313 B(  1-C ,  2-C ) :   0.9450 B(  1-C ,  6-C ) :   0.9553
B(  1-C ,  7-O ) :   0.9048 B(  2-C ,  3-C ) :   0.9478 B(  2-C , 11-H ) :   0.9127
B(  2-C , 12-H ) :   0.9262 B(  3-C ,  4-C ) :   0.9520 B(  3-C , 13-H ) :   0.9329
B(  3-C , 14-H ) :   0.8974 B(  4-C ,  5-C ) :   1.7831 B(  4-C , 15-H ) :   0.9281
B(  5-C ,  6-C ) :   0.9338 B(  5-C , 16-H ) :   0.9300 B(  6-C ,  7-O ) :   0.8489
B(  6-C , 17-H ) :   0.9215

MP2 TOTAL ENERGY:     -347.198417479 Eh
FINAL SINGLE POINT ENERGY      -347.198417478895

DIPOLE MOMENT
-------------
                                X             Y             Z
Electronic contribution:      3.27376      -2.20482       1.08474
Nuclear contribution   :     -3.93479       2.35310      -0.82797
                        -----------------------------------------
Total Dipole Moment    :     -0.66104       0.14828       0.25678
                        -----------------------------------------
Magnitude (a.u.)       :      0.72449
Magnitude (Debye)      :      1.84151

                             ****ORCA TERMINATED NORMALLY****
TOTAL RUN TIME: 0 days 0 hours 13 minutes 45 seconds 233 msec
