                         Program Version 3.0.3 - RELEASE   -
|  1> ! RI-MP2 RIJK def2-TZVP def2-TZVP/C def2-TZVP/JK TIGHTSCF
|  2> % maxcore 2000
|  3> % mp2 density relaxed end
|  4> *xyz 0 1
|  5>  C       -0.4147819476    -1.0133701899    -0.7700668900
|  6>  C       -0.2493273445     0.1062358916    -0.3637966300
|  7>  C       -0.0479173641     1.4585575289     0.1252527018
|  8>  C       -0.2599410659     1.6372910734     1.6526785869
|  9>  C        0.6260122445     2.8616339785     1.9851825245
| 10>  O        1.3966844767     3.1538174678     0.8143469035
| 11>  C        1.3639457804     2.0291403471    -0.0238922801
| 12>  C        2.5967377230     1.1744754923    -0.1544072238
| 13>  C        2.1467717467     2.0910013900    -1.2853430831
| 14>  H       -0.5654514961    -2.0009779165    -1.1299697220
| 15>  H       -0.7296578594     2.1353432748    -0.4068944409
| 16>  H       -1.3101585366     1.7884598501     1.9090947119
| 17>  H        0.0900958093     0.7447744570     2.1761445613
| 18>  H        0.0416522363     3.7561217566     2.2227320762
| 19>  H        1.2897913222     2.6519753928     2.8340219842
| 20>  H        3.4642218728     1.4847951143     0.4168752148
| 21>  H        2.4794832257     0.1049214132    -0.2873575713
| 22>  H        1.7219010339     1.6347245660    -2.1730996013
| 23>  H        2.7221057928     2.9927527420    -1.4616371225
| 24> *
| 25>
| 26>                          ****END OF INPUT****

CARTESIAN COORDINATES (ANGSTROEM)
---------------------------------
  C     -0.414782   -1.013370   -0.770067
  C     -0.249327    0.106236   -0.363797
  C     -0.047917    1.458558    0.125253
  C     -0.259941    1.637291    1.652679
  C      0.626012    2.861634    1.985183
  O      1.396684    3.153817    0.814347
  C      1.363946    2.029140   -0.023892
  C      2.596738    1.174475   -0.154407
  C      2.146772    2.091001   -1.285343
  H     -0.565451   -2.000978   -1.129970
  H     -0.729658    2.135343   -0.406894
  H     -1.310159    1.788460    1.909095
  H      0.090096    0.744774    2.176145
  H      0.041652    3.756122    2.222732
  H      1.289791    2.651975    2.834022
  H      3.464222    1.484795    0.416875
  H      2.479483    0.104921   -0.287358
  H      1.721901    1.634725   -2.173100
  H      2.722106    2.992753   -1.461637

 Total Charge           Charge          ....    0
 Multiplicity           Mult            ....    1
 Number of Electrons    NEL             ....   66
 Basis Dimension        Dim             ....  339

ORBITAL ENERGIES
----------------

  NO   OCC          E(Eh)            E(eV)
   0   2.0000     -20.558119      -559.4149
   1   2.0000     -11.289771      -307.2103
   2   2.0000     -11.279188      -306.9223
   3   2.0000     -11.262647      -306.4722
   4   2.0000     -11.238169      -305.8061
   5   2.0000     -11.237343      -305.7836
   6   2.0000     -11.226209      -305.4807
   7   2.0000     -11.222895      -305.3905
   8   2.0000     -11.220232      -305.3180
   9   2.0000      -1.388102       -37.7722
  10   2.0000      -1.138547       -30.9815
  11   2.0000      -1.089153       -29.6374
  12   2.0000      -1.015948       -27.6454
  13   2.0000      -0.951094       -25.8806
  14   2.0000      -0.834095       -22.6969
  15   2.0000      -0.828631       -22.5482
  16   2.0000      -0.777659       -21.1612
  17   2.0000      -0.722485       -19.6598
  18   2.0000      -0.684605       -18.6291
  19   2.0000      -0.675721       -18.3873
  20   2.0000      -0.657175       -17.8826
  21   2.0000      -0.612592       -16.6695
  22   2.0000      -0.600324       -16.3356
  23   2.0000      -0.558328       -15.1929
  24   2.0000      -0.536883       -14.6093
  25   2.0000      -0.528979       -14.3942
  26   2.0000      -0.514088       -13.9891
  27   2.0000      -0.488979       -13.3058
  28   2.0000      -0.466200       -12.6860
  29   2.0000      -0.427226       -11.6254
  30   2.0000      -0.395257       -10.7555
  31   2.0000      -0.383982       -10.4487
  32   2.0000      -0.376824       -10.2539
  33   0.0000       0.137753         3.7485
  34   0.0000       0.157155         4.2764
  35   0.0000       0.160169         4.3584
  36   0.0000       0.170636         4.6433
  37   0.0000       0.172118         4.6836

MULLIKEN ATOMIC CHARGES
-----------------------
   0 C :   -0.158148
   1 C :   -0.047663
   2 C :   -0.126634
   3 C :   -0.275593
   4 C :   -0.011474
   5 O :   -0.303567
   6 C :    0.179544
   7 C :   -0.297619
   8 C :   -0.285411
   9 H :    0.191253
  10 H :    0.119829
  11 H :    0.132751
  12 H :    0.132098
  13 H :    0.111662
  14 H :    0.093018
  15 H :    0.131423
  16 H :    0.140204
  17 H :    0.139198
  18 H :    0.135130
Sum of atomic charges:    0.0000000

LOEWDIN ATOMIC CHARGES
----------------------
   0 C :   -0.096323
   1 C :   -0.083193
   2 C :   -0.197857
   3 C :   -0.211613
   4 C :   -0.280949
   5 O :    0.203794
   6 C :   -0.317915
   7 C :   -0.202355
   8 C :   -0.197261
   9 H :    0.127311
  10 H :    0.177758
  11 H :    0.138055
  12 H :    0.143599
  13 H :    0.123793
  14 H :    0.120686
  15 H :    0.136495
  16 H :    0.136941
  17 H :    0.138746
  18 H :    0.140287

  Mayer bond orders larger than 0.1
B(  0-C ,  1-C ) :   2.6042 B(  0-C ,  9-H ) :   0.8904 B(  1-C ,  2-C ) :   1.1029
B(  2-C ,  3-C ) :   0.9007 B(  2-C ,  6-C ) :   0.8877 B(  2-C , 10-H ) :   0.9167
B(  3-C ,  4-C ) :   0.9494 B(  3-C , 11-H ) :   0.9299 B(  3-C , 12-H ) :   0.9292
B(  4-C ,  5-O ) :   0.9260 B(  4-C , 13-H ) :   0.9258 B(  4-C , 14-H ) :   0.9225
B(  5-O ,  6-C ) :   0.9769 B(  6-C ,  7-C ) :   0.8868 B(  6-C ,  8-C ) :   0.8695
B(  7-C ,  8-C ) :   0.9372 B(  7-C , 15-H ) :   0.9201 B(  7-C , 16-H ) :   0.9123
B(  8-C , 17-H ) :   0.9174 B(  8-C , 18-H ) :   0.9177

MP2 TOTAL ENERGY:     -385.159719352 Eh
FINAL SINGLE POINT ENERGY      -385.159719351614

DIPOLE MOMENT
-------------
                                X             Y             Z
Electronic contribution:     -1.18619      -0.07141      -1.23044
Nuclear contribution   :      0.90063      -0.22963       1.46167
                        -----------------------------------------
Total Dipole Moment    :     -0.28556      -0.30105       0.23123
                        -----------------------------------------
Magnitude (a.u.)       :      0.47501
Magnitude (Debye)      :      1.20739

                             ****ORCA TERMINATED NORMALLY****
TOTAL RUN TIME: 0 days 0 hours 19 minutes 30 seconds 255 msec
