                         Program Version 3.0.3 - RELEASE   -
|  1> ! RI-MP2 RIJK def2-TZVP def2-TZVP/C def2-TZVP/JK TIGHTSCF
|  2> % maxcore 2000
|  3> % mp2 density relaxed end
|  4> *xyz 0 1
|  5>  O        0.0661444406     1.3731496137     0.2181978618
|  6>  C       -0.0144167630    -0.0169166324     0.0531473266
|  7>  C       -0.6946499815    -0.8382822377     1.1253961495
|  8>  C       -1.4007709337    -0.5589029485    -0.1783199960
|  9>  C        1.1273980357    -0.5835131830    -0.6921410509
| 10>  C        2.1489827025     0.0391637314    -1.3368154956
| 11>  O        2.9491146646    -0.8856893823    -1.8716570698
| 12>  N        2.3835387494    -2.1448324509    -1.5395802130
| 13>  N        1.3424599287    -1.9355821077    -0.8622707030
| 14>  H        0.6815471707     1.5501173892     0.9391735040
| 15>  H       -0.3213684101    -1.8397260547     1.3052393959
| 16>  H       -1.0281113336    -0.2942465336     2.0021098009
| 17>  H       -2.1972298421     0.1757808945    -0.1749383952
| 18>  H       -1.5108334675    -1.3706503296    -0.8876662142
| 19>  H        2.4059693194     1.0728289116    -1.4901065810
| 20> *
| 21>
| 22>                          ****END OF INPUT****

CARTESIAN COORDINATES (ANGSTROEM)
---------------------------------
  O      0.066144    1.373150    0.218198
  C     -0.014417   -0.016917    0.053147
  C     -0.694650   -0.838282    1.125396
  C     -1.400771   -0.558903   -0.178320
  C      1.127398   -0.583513   -0.692141
  C      2.148983    0.039164   -1.336815
  O      2.949115   -0.885689   -1.871657
  N      2.383539   -2.144832   -1.539580
  N      1.342460   -1.935582   -0.862271
  H      0.681547    1.550117    0.939174
  H     -0.321368   -1.839726    1.305239
  H     -1.028111   -0.294247    2.002110
  H     -2.197230    0.175781   -0.174938
  H     -1.510833   -1.370650   -0.887666
  H      2.405969    1.072829   -1.490107

 Total Charge           Charge          ....    0
 Multiplicity           Mult            ....    1
 Number of Electrons    NEL             ....   66
 Basis Dimension        Dim             ....  315

ORBITAL ENERGIES
----------------

  NO   OCC          E(Eh)            E(eV)
   0   2.0000     -20.665219      -562.3292
   1   2.0000     -20.585192      -560.1516
   2   2.0000     -15.696280      -427.1175
   3   2.0000     -15.640769      -425.6070
   4   2.0000     -11.323626      -308.1315
   5   2.0000     -11.315576      -307.9125
   6   2.0000     -11.282783      -307.0201
   7   2.0000     -11.242342      -305.9197
   8   2.0000     -11.240326      -305.8648
   9   2.0000      -1.534441       -41.7543
  10   2.0000      -1.396881       -38.0111
  11   2.0000      -1.317125       -35.8408
  12   2.0000      -1.157682       -31.5021
  13   2.0000      -1.098229       -29.8843
  14   2.0000      -0.898005       -24.4360
  15   2.0000      -0.877287       -23.8722
  16   2.0000      -0.846342       -23.0301
  17   2.0000      -0.817737       -22.2517
  18   2.0000      -0.754368       -20.5274
  19   2.0000      -0.698194       -18.9988
  20   2.0000      -0.687718       -18.7138
  21   2.0000      -0.673556       -18.3284
  22   2.0000      -0.644085       -17.5265
  23   2.0000      -0.604221       -16.4417
  24   2.0000      -0.579925       -15.7806
  25   2.0000      -0.561227       -15.2718
  26   2.0000      -0.536449       -14.5975
  27   2.0000      -0.527981       -14.3671
  28   2.0000      -0.500684       -13.6243
  29   2.0000      -0.475786       -12.9468
  30   2.0000      -0.454547       -12.3689
  31   2.0000      -0.436652       -11.8819
  32   2.0000      -0.356040        -9.6883
  33   0.0000       0.097168         2.6441
  34   0.0000       0.131694         3.5836
  35   0.0000       0.167125         4.5477
  36   0.0000       0.173494         4.7210
  37   0.0000       0.178230         4.8499

MULLIKEN ATOMIC CHARGES
-----------------------
   0 O :   -0.464870
   1 C :    0.219917
   2 C :   -0.306881
   3 C :   -0.239975
   4 C :   -0.035717
   5 C :   -0.049974
   6 O :   -0.087103
   7 N :   -0.041765
   8 N :   -0.100112
   9 H :    0.329497
  10 H :    0.154155
  11 H :    0.145243
  12 H :    0.140990
  13 H :    0.156198
  14 H :    0.180397
Sum of atomic charges:    0.0000000

LOEWDIN ATOMIC CHARGES
----------------------
   0 O :    0.035974
   1 C :   -0.342001
   2 C :   -0.199590
   3 C :   -0.185303
   4 C :   -0.247039
   5 C :   -0.250731
   6 O :    0.261052
   7 N :   -0.020027
   8 N :    0.052271
   9 H :    0.185983
  10 H :    0.141555
  11 H :    0.137870
  12 H :    0.142052
  13 H :    0.141651
  14 H :    0.146283

  Mayer bond orders larger than 0.1
B(  0-O ,  1-C ) :   0.9950 B(  0-O ,  9-H ) :   0.8365 B(  1-C ,  2-C ) :   0.8741
B(  1-C ,  3-C ) :   0.8449 B(  1-C ,  4-C ) :   0.9394 B(  2-C ,  3-C ) :   0.9063
B(  2-C , 10-H ) :   0.9108 B(  2-C , 11-H ) :   0.9236 B(  3-C , 12-H ) :   0.9218
B(  3-C , 13-H ) :   0.9272 B(  4-C ,  5-C ) :   1.5009 B(  4-C ,  8-N ) :   1.2296
B(  5-C ,  6-O ) :   1.1460 B(  5-C ,  7-N ) :   0.1049 B(  5-C , 14-H ) :   0.8987
B(  6-O ,  7-N ) :   0.8762 B(  7-N ,  8-N ) :   1.4020

MP2 TOTAL ENERGY:     -453.164318981 Eh
FINAL SINGLE POINT ENERGY      -453.164318980552

DIPOLE MOMENT
-------------
                                X             Y             Z
Electronic contribution:      6.62576      -1.66150      -4.03844
Nuclear contribution   :     -6.83875       2.63081       4.73185
                        -----------------------------------------
Total Dipole Moment    :     -0.21299       0.96931       0.69340
                        -----------------------------------------
Magnitude (a.u.)       :      1.21067
Magnitude (Debye)      :      3.07729

                             ****ORCA TERMINATED NORMALLY****
TOTAL RUN TIME: 0 days 0 hours 17 minutes 7 seconds 452 msec
