                         Program Version 3.0.3 - RELEASE   -
|  1> ! RI-MP2 RIJK def2-TZVP def2-TZVP/C def2-TZVP/JK TIGHTSCF
|  2> % maxcore 2000
|  3> % mp2 density relaxed end
|  4> *xyz 0 1
|  5>  C       -0.0403632861     1.4059063548     0.0554811861
|  6>  O        0.0240295080    -0.0266435419    -0.0392780605
|  7>  C        0.6312756955    -0.5188767834    -1.1021691921
|  8>  N        1.1504636921     0.2028323996    -2.0255065044
|  9>  C        1.7561021270    -0.4759639283    -3.0830446020
| 10>  N        2.3239905357     0.0646235896    -4.0901442579
| 11>  C        1.7177300999    -1.9415780313    -2.9964908325
| 12>  N        1.1873321874    -2.6210315157    -2.0538560799
| 13>  O        0.5917018691    -1.8623860093    -1.0151632792
| 14>  H        0.9649228639     1.8313710420     0.0826039466
| 15>  H       -0.5825454043     1.8200167147    -0.7971014399
| 16>  H       -0.5707575122     1.6041558692     0.9859568054
| 17>  H        2.2672032565     1.0822649479    -4.0034457333
| 18>  H        2.1721530675    -2.5280244180    -3.7888759163
| 19> *
| 20>
| 21>                          ****END OF INPUT****

CARTESIAN COORDINATES (ANGSTROEM)
---------------------------------
  C     -0.040363    1.405906    0.055481
  O      0.024030   -0.026644   -0.039278
  C      0.631276   -0.518877   -1.102169
  N      1.150464    0.202832   -2.025507
  C      1.756102   -0.475964   -3.083045
  N      2.323991    0.064624   -4.090144
  C      1.717730   -1.941578   -2.996491
  N      1.187332   -2.621032   -2.053856
  O      0.591702   -1.862386   -1.015163
  H      0.964923    1.831371    0.082604
  H     -0.582545    1.820017   -0.797101
  H     -0.570758    1.604156    0.985957
  H      2.267203    1.082265   -4.003446
  H      2.172153   -2.528024   -3.788876

 Total Charge           Charge          ....    0
 Multiplicity           Mult            ....    1
 Number of Electrons    NEL             ....   66
 Basis Dimension        Dim             ....  309

ORBITAL ENERGIES
----------------

  NO   OCC          E(Eh)            E(eV)
   0   2.0000     -20.664850      -562.3192
   1   2.0000     -20.633282      -561.4601
   2   2.0000     -15.672989      -426.4837
   3   2.0000     -15.576373      -423.8546
   4   2.0000     -15.558601      -423.3710
   5   2.0000     -11.439616      -311.2878
   6   2.0000     -11.339134      -308.5535
   7   2.0000     -11.313252      -307.8492
   8   2.0000     -11.306360      -307.6617
   9   2.0000      -1.532679       -41.7063
  10   2.0000      -1.448431       -39.4138
  11   2.0000      -1.293421       -35.1958
  12   2.0000      -1.223628       -33.2966
  13   2.0000      -1.184311       -32.2268
  14   2.0000      -1.004981       -27.3469
  15   2.0000      -0.933485       -25.4014
  16   2.0000      -0.880330       -23.9550
  17   2.0000      -0.795110       -21.6360
  18   2.0000      -0.753432       -20.5019
  19   2.0000      -0.728046       -19.8111
  20   2.0000      -0.724249       -19.7078
  21   2.0000      -0.663270       -18.0485
  22   2.0000      -0.650940       -17.7130
  23   2.0000      -0.642703       -17.4888
  24   2.0000      -0.593196       -16.1417
  25   2.0000      -0.557221       -15.1628
  26   2.0000      -0.544216       -14.8089
  27   2.0000      -0.537319       -14.6212
  28   2.0000      -0.535303       -14.5663
  29   2.0000      -0.471747       -12.8369
  30   2.0000      -0.458111       -12.4658
  31   2.0000      -0.446542       -12.1510
  32   2.0000      -0.380176       -10.3451
  33   0.0000       0.079287         2.1575
  34   0.0000       0.136363         3.7106
  35   0.0000       0.141187         3.8419
  36   0.0000       0.164091         4.4651
  37   0.0000       0.176860         4.8126

MULLIKEN ATOMIC CHARGES
-----------------------
   0 C :   -0.208210
   1 O :   -0.225600
   2 C :    0.388479
   3 N :   -0.326133
   4 C :    0.073964
   5 N :   -0.329527
   6 C :   -0.026287
   7 N :   -0.061345
   8 O :   -0.126042
   9 H :    0.146197
  10 H :    0.146212
  11 H :    0.156660
  12 H :    0.222158
  13 H :    0.169473
Sum of atomic charges:   -0.0000000

LOEWDIN ATOMIC CHARGES
----------------------
   0 C :   -0.290595
   1 O :    0.268966
   2 C :   -0.493530
   3 N :    0.114259
   4 C :   -0.390155
   5 N :   -0.029476
   6 C :   -0.193631
   7 N :    0.087308
   8 O :    0.244583
   9 H :    0.116782
  10 H :    0.116784
  11 H :    0.119256
  12 H :    0.166415
  13 H :    0.163033

  Mayer bond orders larger than 0.1
B(  0-C ,  1-O ) :   0.8207 B(  0-C ,  9-H ) :   0.9345 B(  0-C , 10-H ) :   0.9344
B(  0-C , 11-H ) :   0.9306 B(  1-O ,  2-C ) :   1.1953 B(  2-C ,  3-N ) :   1.5969
B(  2-C ,  8-O ) :   1.1371 B(  3-N ,  4-C ) :   1.1044 B(  4-C ,  5-N ) :   1.9862
B(  4-C ,  6-C ) :   0.9981 B(  5-N , 12-H ) :   0.8595 B(  6-C ,  7-N ) :   1.7643
B(  6-C , 13-H ) :   0.8986 B(  7-N ,  8-O ) :   0.7771

MP2 TOTAL ENERGY:     -469.219255560 Eh
FINAL SINGLE POINT ENERGY      -469.219255559807

DIPOLE MOMENT
-------------
                                X             Y             Z
Electronic contribution:      0.42983      -5.49268      -0.68558
Nuclear contribution   :     -0.75699       6.43033       1.24942
                        -----------------------------------------
Total Dipole Moment    :     -0.32716       0.93765       0.56385
                        -----------------------------------------
Magnitude (a.u.)       :      1.14199
Magnitude (Debye)      :      2.90270

                             ****ORCA TERMINATED NORMALLY****
TOTAL RUN TIME: 0 days 0 hours 14 minutes 1 seconds 373 msec
