                         Program Version 3.0.3 - RELEASE   -
|  1> ! RI-MP2 RIJK def2-TZVP def2-TZVP/C def2-TZVP/JK TIGHTSCF
|  2> % maxcore 2000
|  3> % mp2 density relaxed end
|  4> *xyz 0 1
|  5>  C       -0.0354628545     1.5270849977     0.0592465760
|  6>  C       -0.0167710768     0.0286353907    -0.0221482697
|  7>  C       -0.0115854440    -0.6781554774    -1.1571883820
|  8>  C       -0.0027081037    -2.1895579158    -1.0861886301
|  9>  C       -1.0629549347    -2.6295875924    -0.0267680692
| 10>  C        0.0145644089    -2.2621232285     1.0334406625
| 11>  C        1.0750469133    -2.6245329624    -0.0473868900
| 12>  C        0.0055127703    -0.7453704831     1.2905303451
| 13>  O        1.0942294272    -0.3408829083     2.1241924137
| 14>  H        0.7992944198     1.8949222973     0.6653195577
| 15>  H        0.0201454929     1.9845634233    -0.9323126998
| 16>  H       -0.9515719773     1.8838508172     0.5485380508
| 17>  H       -0.0277627211    -0.1891797291    -2.1278719918
| 18>  H       -0.0093118941    -2.6623993589    -2.0693438511
| 19>  H       -2.0113259284    -2.0861779149    -0.0122218745
| 20>  H       -1.2527819562    -3.7066245936    -0.0487955237
| 21>  H        0.0310992098    -2.8030025735     1.9820938089
| 22>  H        1.2633434764    -3.7012177497    -0.0713391046
| 23>  H        2.0294870631    -2.0890066799    -0.0603379245
| 24>  H       -0.8846037351    -0.4887524676     1.8813881722
| 25>  H        1.9072786840    -0.5267172811     1.6407894142
| 26> *
| 27>
| 28>                          ****END OF INPUT****

CARTESIAN COORDINATES (ANGSTROEM)
---------------------------------
  C     -0.035463    1.527085    0.059247
  C     -0.016771    0.028635   -0.022148
  C     -0.011585   -0.678155   -1.157188
  C     -0.002708   -2.189558   -1.086189
  C     -1.062955   -2.629588   -0.026768
  C      0.014564   -2.262123    1.033441
  C      1.075047   -2.624533   -0.047387
  C      0.005513   -0.745370    1.290530
  O      1.094229   -0.340883    2.124192
  H      0.799294    1.894922    0.665320
  H      0.020145    1.984563   -0.932313
  H     -0.951572    1.883851    0.548538
  H     -0.027763   -0.189180   -2.127872
  H     -0.009312   -2.662399   -2.069344
  H     -2.011326   -2.086178   -0.012222
  H     -1.252782   -3.706625   -0.048796
  H      0.031099   -2.803003    1.982094
  H      1.263343   -3.701218   -0.071339
  H      2.029487   -2.089007   -0.060338
  H     -0.884604   -0.488752    1.881388
  H      1.907279   -0.526717    1.640789

 Total Charge           Charge          ....    0
 Multiplicity           Mult            ....    1
 Number of Electrons    NEL             ....   68
 Basis Dimension        Dim             ....  351

ORBITAL ENERGIES
----------------

  NO   OCC          E(Eh)            E(eV)
   0   2.0000     -20.551300      -559.2293
   1   2.0000     -11.279392      -306.9278
   2   2.0000     -11.235035      -305.7209
   3   2.0000     -11.230342      -305.5931
   4   2.0000     -11.227036      -305.5032
   5   2.0000     -11.226362      -305.4848
   6   2.0000     -11.225247      -305.4545
   7   2.0000     -11.222289      -305.3740
   8   2.0000     -11.215916      -305.2006
   9   2.0000      -1.356797       -36.9203
  10   2.0000      -1.168933       -31.8083
  11   2.0000      -1.059532       -28.8313
  12   2.0000      -0.973899       -26.5011
  13   2.0000      -0.931185       -25.3388
  14   2.0000      -0.900041       -24.4914
  15   2.0000      -0.825316       -22.4580
  16   2.0000      -0.778358       -21.1802
  17   2.0000      -0.721222       -19.6255
  18   2.0000      -0.664223       -18.0744
  19   2.0000      -0.655237       -17.8299
  20   2.0000      -0.616648       -16.7798
  21   2.0000      -0.604259       -16.4427
  22   2.0000      -0.587525       -15.9874
  23   2.0000      -0.558543       -15.1987
  24   2.0000      -0.557726       -15.1765
  25   2.0000      -0.545282       -14.8379
  26   2.0000      -0.525549       -14.3009
  27   2.0000      -0.504118       -13.7178
  28   2.0000      -0.488992       -13.3061
  29   2.0000      -0.476680       -12.9711
  30   2.0000      -0.446759       -12.1569
  31   2.0000      -0.424814       -11.5598
  32   2.0000      -0.415502       -11.3064
  33   2.0000      -0.336881        -9.1670
  34   0.0000       0.134382         3.6567
  35   0.0000       0.143899         3.9157
  36   0.0000       0.152841         4.1590
  37   0.0000       0.161800         4.4028
  38   0.0000       0.172054         4.6818

MULLIKEN ATOMIC CHARGES
-----------------------
   0 C :   -0.424473
   1 C :    0.028099
   2 C :   -0.334319
   3 C :    0.141811
   4 C :   -0.319877
   5 C :    0.076798
   6 C :   -0.343409
   7 C :    0.004992
   8 O :   -0.463372
   9 H :    0.144726
  10 H :    0.131442
  11 H :    0.132611
  12 H :    0.114546
  13 H :    0.121823
  14 H :    0.118561
  15 H :    0.119611
  16 H :    0.112503
  17 H :    0.123134
  18 H :    0.101552
  19 H :    0.101568
  20 H :    0.311674
Sum of atomic charges:   -0.0000000

LOEWDIN ATOMIC CHARGES
----------------------
   0 C :   -0.273612
   1 C :   -0.181279
   2 C :   -0.116951
   3 C :   -0.204142
   4 C :   -0.186030
   5 C :   -0.201179
   6 C :   -0.197265
   7 C :   -0.279269
   8 O :   -0.016605
   9 H :    0.131838
  10 H :    0.127558
  11 H :    0.130797
  12 H :    0.141469
  13 H :    0.136763
  14 H :    0.129306
  15 H :    0.135487
  16 H :    0.139279
  17 H :    0.136935
  18 H :    0.121368
  19 H :    0.152512
  20 H :    0.173021

  Mayer bond orders larger than 0.1
B(  0-C ,  1-C ) :   0.9184 B(  0-C ,  9-H ) :   0.9289 B(  0-C , 10-H ) :   0.9457
B(  0-C , 11-H ) :   0.9278 B(  1-C ,  2-C ) :   1.7496 B(  1-C ,  7-C ) :   0.9821
B(  2-C ,  3-C ) :   0.8705 B(  2-C , 12-H ) :   0.9302 B(  3-C ,  4-C ) :   0.8713
B(  3-C ,  6-C ) :   0.8546 B(  3-C , 13-H ) :   0.9262 B(  4-C ,  5-C ) :   0.8693
B(  4-C , 14-H ) :   0.9250 B(  4-C , 15-H ) :   0.9196 B(  5-C ,  6-C ) :   0.8613
B(  5-C ,  7-C ) :   0.9016 B(  5-C , 16-H ) :   0.9347 B(  6-C ,  7-C ) :   0.1167
B(  6-C , 17-H ) :   0.9196 B(  6-C , 18-H ) :   0.9322 B(  7-C ,  8-O ) :   0.8909
B(  7-C , 19-H ) :   0.9010 B(  8-O , 20-H ) :   0.8400

MP2 TOTAL ENERGY:     -386.416907071 Eh
FINAL SINGLE POINT ENERGY      -386.416907071402

DIPOLE MOMENT
-------------
                                X             Y             Z
Electronic contribution:      0.76236      -0.65665       1.36056
Nuclear contribution   :     -0.76228       0.35357      -1.91921
                        -----------------------------------------
Total Dipole Moment    :      0.00008      -0.30308      -0.55866
                        -----------------------------------------
Magnitude (a.u.)       :      0.63558
Magnitude (Debye)      :      1.61550

                             ****ORCA TERMINATED NORMALLY****
TOTAL RUN TIME: 0 days 0 hours 21 minutes 34 seconds 598 msec
