                         Program Version 3.0.3 - RELEASE   -
|  1> ! RI-MP2 RIJK def2-TZVP def2-TZVP/C def2-TZVP/JK TIGHTSCF
|  2> % maxcore 2000
|  3> % mp2 density relaxed end
|  4> *xyz 0 1
|  5>  C        0.2477070396     1.4622449899     0.0397151442
|  6>  C        0.0403649527    -0.0213333637     0.0198506756
|  7>  C       -0.2294323045    -0.8247724640    -1.0696207688
|  8>  N       -0.3721941871    -2.1119951767    -0.6376352995
|  9>  C       -0.1720676044    -2.1832275449     0.7294024723
| 10>  C       -0.2501755714    -3.4703432275     1.4711015288
| 11>  O        0.5680428203    -4.4928422452     0.8910451669
| 12>  C        0.0781497649    -0.8937270117     1.1481740386
| 13>  O        0.3038073256    -0.5479489792     2.4529078803
| 14>  H        1.2350836880     1.7397121339     0.4333311224
| 15>  H        0.1782333537     1.8799687055    -0.9684031072
| 16>  H       -0.5014574027     1.9795264494     0.6541641365
| 17>  H       -0.3252767674    -0.5674702017    -2.1128767465
| 18>  H       -0.4696915699    -2.9239115606    -1.2217034689
| 19>  H        0.0044757258    -3.2849327757     2.5232226367
| 20>  H       -1.2627443688    -3.8927123635     1.4512868035
| 21>  H        1.4672239241    -4.1472830215     0.8664036658
| 22>  H        0.4872835515     0.3951702173     2.4893301793
| 23> *
| 24>
| 25>                          ****END OF INPUT****

CARTESIAN COORDINATES (ANGSTROEM)
---------------------------------
  C      0.247707    1.462245    0.039715
  C      0.040365   -0.021333    0.019851
  C     -0.229432   -0.824772   -1.069621
  N     -0.372194   -2.111995   -0.637635
  C     -0.172068   -2.183228    0.729402
  C     -0.250176   -3.470343    1.471102
  O      0.568043   -4.492842    0.891045
  C      0.078150   -0.893727    1.148174
  O      0.303807   -0.547949    2.452908
  H      1.235084    1.739712    0.433331
  H      0.178233    1.879969   -0.968403
  H     -0.501457    1.979526    0.654164
  H     -0.325277   -0.567470   -2.112877
  H     -0.469692   -2.923912   -1.221703
  H      0.004476   -3.284933    2.523223
  H     -1.262744   -3.892712    1.451287
  H      1.467224   -4.147283    0.866404
  H      0.487284    0.395170    2.489330

 Total Charge           Charge          ....    0
 Multiplicity           Mult            ....    1
 Number of Electrons    NEL             ....   68
 Basis Dimension        Dim             ....  333

ORBITAL ENERGIES
----------------

  NO   OCC          E(Eh)            E(eV)
   0   2.0000     -20.578648      -559.9735
   1   2.0000     -20.554503      -559.3165
   2   2.0000     -15.596595      -424.4049
   3   2.0000     -11.279879      -306.9411
   4   2.0000     -11.272512      -306.7407
   5   2.0000     -11.255745      -306.2844
   6   2.0000     -11.240779      -305.8772
   7   2.0000     -11.230878      -305.6077
   8   2.0000     -11.218678      -305.2757
   9   2.0000      -1.392239       -37.8847
  10   2.0000      -1.356549       -36.9136
  11   2.0000      -1.284955       -34.9654
  12   2.0000      -1.063230       -28.9320
  13   2.0000      -1.016589       -27.6628
  14   2.0000      -0.950238       -25.8573
  15   2.0000      -0.896687       -24.4001
  16   2.0000      -0.786332       -21.3972
  17   2.0000      -0.776717       -21.1355
  18   2.0000      -0.720162       -19.5966
  19   2.0000      -0.683198       -18.5908
  20   2.0000      -0.649223       -17.6662
  21   2.0000      -0.624470       -16.9927
  22   2.0000      -0.620192       -16.8763
  23   2.0000      -0.587639       -15.9905
  24   2.0000      -0.583119       -15.8675
  25   2.0000      -0.568029       -15.4569
  26   2.0000      -0.558458       -15.1964
  27   2.0000      -0.545700       -14.8492
  28   2.0000      -0.532268       -14.4837
  29   2.0000      -0.520110       -14.1529
  30   2.0000      -0.484437       -13.1822
  31   2.0000      -0.454353       -12.3636
  32   2.0000      -0.325205        -8.8493
  33   2.0000      -0.287053        -7.8111
  34   0.0000       0.125080         3.4036
  35   0.0000       0.135233         3.6799
  36   0.0000       0.154893         4.2148
  37   0.0000       0.172363         4.6902
  38   0.0000       0.184874         5.0307

MULLIKEN ATOMIC CHARGES
-----------------------
   0 C :   -0.496177
   1 C :    0.061543
   2 C :   -0.123798
   3 N :   -0.253843
   4 C :   -0.035861
   5 C :   -0.019802
   6 O :   -0.478514
   7 C :    0.060476
   8 O :   -0.446150
   9 H :    0.145135
  10 H :    0.143395
  11 H :    0.149620
  12 H :    0.139527
  13 H :    0.249798
  14 H :    0.138839
  15 H :    0.117358
  16 H :    0.313822
  17 H :    0.334632
Sum of atomic charges:    0.0000000

LOEWDIN ATOMIC CHARGES
----------------------
   0 C :   -0.287203
   1 C :   -0.213008
   2 C :   -0.219124
   3 N :    0.200362
   4 C :   -0.240560
   5 C :   -0.312645
   6 O :   -0.064203
   7 C :   -0.266185
   8 O :    0.052505
   9 H :    0.126789
  10 H :    0.134768
  11 H :    0.127871
  12 H :    0.133550
  13 H :    0.195088
  14 H :    0.134242
  15 H :    0.134185
  16 H :    0.172574
  17 H :    0.190994

  Mayer bond orders larger than 0.1
B(  0-C ,  1-C ) :   0.8239 B(  0-C ,  9-H ) :   0.9425 B(  0-C , 10-H ) :   0.9452
B(  0-C , 11-H ) :   0.9415 B(  1-C ,  2-C ) :   1.4176 B(  1-C ,  7-C ) :   1.2245
B(  2-C ,  3-N ) :   1.1852 B(  2-C , 12-H ) :   0.9136 B(  3-N ,  4-C ) :   1.0784
B(  3-N , 13-H ) :   0.8666 B(  4-C ,  5-C ) :   0.9280 B(  4-C ,  7-C ) :   1.4671
B(  5-C ,  6-O ) :   0.8740 B(  5-C , 14-H ) :   0.9559 B(  5-C , 15-H ) :   0.9156
B(  6-O , 16-H ) :   0.8442 B(  7-C ,  8-O ) :   1.1188 B(  8-O , 17-H ) :   0.8341

MP2 TOTAL ENERGY:     -438.398013203 Eh
FINAL SINGLE POINT ENERGY      -438.398013202537

DIPOLE MOMENT
-------------
                                X             Y             Z
Electronic contribution:     -0.18205      -3.62851       0.70328
Nuclear contribution   :      0.36515       4.33179      -1.21555
                        -----------------------------------------
Total Dipole Moment    :      0.18311       0.70328      -0.51227
                        -----------------------------------------
Magnitude (a.u.)       :      0.88913
Magnitude (Debye)      :      2.26000

                             ****ORCA TERMINATED NORMALLY****
TOTAL RUN TIME: 0 days 0 hours 15 minutes 30 seconds 408 msec
