                         Program Version 3.0.3 - RELEASE   -
|  1> ! RI-MP2 RIJK def2-TZVP def2-TZVP/C def2-TZVP/JK TIGHTSCF
|  2> % maxcore 2000
|  3> % mp2 density relaxed end
|  4> *xyz 0 1
|  5>  C       -0.0485239573     1.5189342327    -0.2934262517
|  6>  C       -0.0720826856     0.0094823973    -0.1327982968
|  7>  C       -0.3096128953    -0.6162336970     1.2172933811
|  8>  C       -1.3669609959    -0.7087022067     0.1429039971
|  9>  C        1.3160568036     2.0923590465    -0.0597026512
| 10>  C        1.9301754266     2.4981766726     1.2447908403
| 11>  C        1.8841479465     3.4888078068     0.0940943855
| 12>  C        2.8922594183     3.0554481678    -0.9604294312
| 13>  O        2.3528888165     1.7065302199    -0.9813314157
| 14>  H       -0.3801324574     1.7883288869    -1.3046585551
| 15>  H       -0.7523552909     1.9799527332     0.4102661499
| 16>  H        0.6336284916    -0.5053453803    -0.7781107605
| 17>  H        0.2424131789    -1.5123193978     1.4781296863
| 18>  H       -0.4996540040     0.0446719457     2.0569857103
| 19>  H       -2.2641345146    -0.1093304542     0.2631316333
| 20>  H       -1.5381093708    -1.6678840023    -0.3332236960
| 21>  H        1.2310781576     2.7110314405     2.0477341166
| 22>  H        2.8740773131     2.0601621454     1.5591513473
| 23>  H        1.3946458873     4.4515255498     0.1566435572
| 24>  H        2.7524583700     3.5403852696    -1.9335486842
| 25>  H        3.9550347818     3.0744512335    -0.6889364226
| 26> *
| 27>
| 28>                          ****END OF INPUT****

CARTESIAN COORDINATES (ANGSTROEM)
---------------------------------
  C     -0.048524    1.518934   -0.293426
  C     -0.072083    0.009482   -0.132798
  C     -0.309613   -0.616234    1.217293
  C     -1.366961   -0.708702    0.142904
  C      1.316057    2.092359   -0.059703
  C      1.930175    2.498177    1.244791
  C      1.884148    3.488808    0.094094
  C      2.892259    3.055448   -0.960429
  O      2.352889    1.706530   -0.981331
  H     -0.380132    1.788329   -1.304659
  H     -0.752355    1.979953    0.410266
  H      0.633628   -0.505345   -0.778111
  H      0.242413   -1.512319    1.478130
  H     -0.499654    0.044672    2.056986
  H     -2.264135   -0.109330    0.263132
  H     -1.538109   -1.667884   -0.333224
  H      1.231078    2.711031    2.047734
  H      2.874077    2.060162    1.559151
  H      1.394646    4.451526    0.156644
  H      2.752458    3.540385   -1.933549
  H      3.955035    3.074451   -0.688936

 Total Charge           Charge          ....    0
 Multiplicity           Mult            ....    1
 Number of Electrons    NEL             ....   68
 Basis Dimension        Dim             ....  351

ORBITAL ENERGIES
----------------

  NO   OCC          E(Eh)            E(eV)
   0   2.0000     -20.547533      -559.1268
   1   2.0000     -11.288074      -307.1641
   2   2.0000     -11.280397      -306.9552
   3   2.0000     -11.234212      -305.6984
   4   2.0000     -11.229702      -305.5757
   5   2.0000     -11.228621      -305.5463
   6   2.0000     -11.226524      -305.4892
   7   2.0000     -11.220371      -305.3218
   8   2.0000     -11.219527      -305.2988
   9   2.0000      -1.386522       -37.7292
  10   2.0000      -1.142453       -31.0877
  11   2.0000      -1.112981       -30.2858
  12   2.0000      -1.002395       -27.2766
  13   2.0000      -0.924761       -25.1640
  14   2.0000      -0.818461       -22.2715
  15   2.0000      -0.817159       -22.2360
  16   2.0000      -0.780952       -21.2508
  17   2.0000      -0.729173       -19.8418
  18   2.0000      -0.687635       -18.7115
  19   2.0000      -0.656023       -17.8513
  20   2.0000      -0.642741       -17.4899
  21   2.0000      -0.636082       -17.3087
  22   2.0000      -0.611531       -16.6406
  23   2.0000      -0.566369       -15.4117
  24   2.0000      -0.551296       -15.0015
  25   2.0000      -0.529479       -14.4079
  26   2.0000      -0.509835       -13.8733
  27   2.0000      -0.498823       -13.5737
  28   2.0000      -0.495004       -13.4698
  29   2.0000      -0.468206       -12.7405
  30   2.0000      -0.424570       -11.5531
  31   2.0000      -0.408657       -11.1201
  32   2.0000      -0.388391       -10.5687
  33   2.0000      -0.369252       -10.0479
  34   0.0000       0.140754         3.8301
  35   0.0000       0.163028         4.4362
  36   0.0000       0.165923         4.5150
  37   0.0000       0.169586         4.6147
  38   0.0000       0.182945         4.9782

MULLIKEN ATOMIC CHARGES
-----------------------
   0 C :   -0.239754
   1 C :   -0.084752
   2 C :   -0.273217
   3 C :   -0.248365
   4 C :    0.205942
   5 C :   -0.269971
   6 C :   -0.206591
   7 C :   -0.015651
   8 O :   -0.340637
   9 H :    0.116968
  10 H :    0.122881
  11 H :    0.132819
  12 H :    0.127943
  13 H :    0.119897
  14 H :    0.123576
  15 H :    0.128177
  16 H :    0.126194
  17 H :    0.128946
  18 H :    0.137915
  19 H :    0.104012
  20 H :    0.103668
Sum of atomic charges:    0.0000000

LOEWDIN ATOMIC CHARGES
----------------------
   0 C :   -0.210976
   1 C :   -0.220977
   2 C :   -0.230178
   3 C :   -0.231804
   4 C :   -0.278948
   5 C :   -0.188108
   6 C :   -0.185967
   7 C :   -0.244401
   8 O :    0.160093
   9 H :    0.150085
  10 H :    0.152618
  11 H :    0.153409
  12 H :    0.130540
  13 H :    0.130338
  14 H :    0.130908
  15 H :    0.130325
  16 H :    0.141314
  17 H :    0.135202
  18 H :    0.135202
  19 H :    0.123368
  20 H :    0.117958

  Mayer bond orders larger than 0.1
B(  0-C ,  1-C ) :   0.9233 B(  0-C ,  4-C ) :   0.9505 B(  0-C ,  9-H ) :   0.9133
B(  0-C , 10-H ) :   0.9236 B(  1-C ,  2-C ) :   0.8899 B(  1-C ,  3-C ) :   0.8749
B(  1-C , 11-H ) :   0.9324 B(  2-C ,  3-C ) :   0.9077 B(  2-C , 12-H ) :   0.9291
B(  2-C , 13-H ) :   0.9285 B(  3-C , 14-H ) :   0.9265 B(  3-C , 15-H ) :   0.9317
B(  4-C ,  5-C ) :   0.8597 B(  4-C ,  6-C ) :   0.8600 B(  4-C ,  8-O ) :   0.9351
B(  5-C ,  6-C ) :   0.9011 B(  5-C , 16-H ) :   0.9295 B(  5-C , 17-H ) :   0.9083
B(  6-C ,  7-C ) :   0.9716 B(  6-C , 18-H ) :   0.9069 B(  7-C ,  8-O ) :   0.9277
B(  7-C , 19-H ) :   0.9220 B(  7-C , 20-H ) :   0.9128

MP2 TOTAL ENERGY:     -386.349254466 Eh
FINAL SINGLE POINT ENERGY      -386.349254466184

DIPOLE MOMENT
-------------
                                X             Y             Z
Electronic contribution:      3.43701       1.91082      -2.27528
Nuclear contribution   :     -3.69394      -1.39099       2.52861
                        -----------------------------------------
Total Dipole Moment    :     -0.25693       0.51983       0.25333
                        -----------------------------------------
Magnitude (a.u.)       :      0.63278
Magnitude (Debye)      :      1.60841

                             ****ORCA TERMINATED NORMALLY****
TOTAL RUN TIME: 0 days 0 hours 16 minutes 45 seconds 998 msec
