                         Program Version 3.0.3 - RELEASE   -
|  1> ! RI-MP2 RIJK def2-TZVP def2-TZVP/C def2-TZVP/JK TIGHTSCF
|  2> % maxcore 2000
|  3> % mp2 density relaxed end
|  4> *xyz 0 1
|  5>  C       -0.0190471830     1.4903980033     0.0323535433
|  6>  C       -0.0012047900     0.0063966805    -0.0332373639
|  7>  N       -0.1080112743    -0.7035655286    -1.1200896688
|  8>  O       -0.0409385259    -1.9895674265    -0.7013422271
|  9>  N        0.1117835100    -2.0034168821     0.6817838612
| 10>  N        0.1345071847    -0.8123984817     1.0789044544
| 11>  H        0.9129149262     1.8631580423     0.4668462881
| 12>  H       -0.1403820323     1.9072708998    -0.9678708623
| 13>  H       -0.8408935753     1.8331176730     0.6674188651
| 14> *
| 15>
| 16>                          ****END OF INPUT****

CARTESIAN COORDINATES (ANGSTROEM)
---------------------------------
  C     -0.019047    1.490398    0.032354
  C     -0.001205    0.006397   -0.033237
  N     -0.108011   -0.703566   -1.120090
  O     -0.040939   -1.989567   -0.701342
  N      0.111784   -2.003417    0.681784
  N      0.134507   -0.812398    1.078904
  H      0.912915    1.863158    0.466846
  H     -0.140382    1.907271   -0.967871
  H     -0.840894    1.833118    0.667419

 Total Charge           Charge          ....    0
 Multiplicity           Mult            ....    1
 Number of Electrons    NEL             ....   44
 Basis Dimension        Dim             ....  204

ORBITAL ENERGIES
----------------

  NO   OCC          E(Eh)            E(eV)
   0   2.0000     -20.700900      -563.3001
   1   2.0000     -15.729345      -428.0172
   2   2.0000     -15.665658      -426.2842
   3   2.0000     -15.653484      -425.9529
   4   2.0000     -11.338159      -308.5270
   5   2.0000     -11.265302      -306.5445
   6   2.0000      -1.587328       -43.1934
   7   2.0000      -1.343991       -36.5718
   8   2.0000      -1.227237       -33.3948
   9   2.0000      -1.026124       -27.9222
  10   2.0000      -0.933560       -25.4035
  11   2.0000      -0.866537       -23.5797
  12   2.0000      -0.731222       -19.8976
  13   2.0000      -0.722654       -19.6644
  14   2.0000      -0.621755       -16.9188
  15   2.0000      -0.610459       -16.6114
  16   2.0000      -0.602965       -16.4075
  17   2.0000      -0.573607       -15.6086
  18   2.0000      -0.522488       -14.2176
  19   2.0000      -0.510304       -13.8861
  20   2.0000      -0.501497       -13.6464
  21   2.0000      -0.436193       -11.8694
  22   0.0000       0.075623         2.0578
  23   0.0000       0.131703         3.5838
  24   0.0000       0.166456         4.5295
  25   0.0000       0.196304         5.3417
  26   0.0000       0.216175         5.8824

MULLIKEN ATOMIC CHARGES
-----------------------
   0 C :   -0.387962
   1 C :    0.134377
   2 N :   -0.102896
   3 O :    0.002587
   4 N :    0.003162
   5 N :   -0.135585
   6 H :    0.160915
   7 H :    0.164392
   8 H :    0.161010
Sum of atomic charges:   -0.0000000

LOEWDIN ATOMIC CHARGES
----------------------
   0 C :   -0.262476
   1 C :   -0.391700
   2 N :    0.038919
   3 O :    0.187107
   4 N :   -0.039082
   5 N :    0.036858
   6 H :    0.143655
   7 H :    0.143053
   8 H :    0.143665

  Mayer bond orders larger than 0.1
B(  0-C ,  1-C ) :   0.9196 B(  0-C ,  6-H ) :   0.9205 B(  0-C ,  7-H ) :   0.9379
B(  0-C ,  8-H ) :   0.9207 B(  1-C ,  2-N ) :   1.5792 B(  1-C ,  5-N ) :   1.1844
B(  2-N ,  3-O ) :   0.9579 B(  2-N ,  4-N ) :   0.1240 B(  3-O ,  4-N ) :   0.9282
B(  4-N ,  5-N ) :   1.4223

MP2 TOTAL ENERGY:     -316.851129501 Eh
FINAL SINGLE POINT ENERGY      -316.851129500563

DIPOLE MOMENT
-------------
                                X             Y             Z
Electronic contribution:      0.07103      -6.02416      -0.27940
Nuclear contribution   :     -0.09642       7.13197       0.21921
                        -----------------------------------------
Total Dipole Moment    :     -0.02539       1.10780      -0.06019
                        -----------------------------------------
Magnitude (a.u.)       :      1.10973
Magnitude (Debye)      :      2.82071

                             ****ORCA TERMINATED NORMALLY****
TOTAL RUN TIME: 0 days 0 hours 3 minutes 55 seconds 494 msec
