                         Program Version 3.0.3 - RELEASE   -
|  1> ! RI-MP2 RIJK def2-TZVP def2-TZVP/C def2-TZVP/JK TIGHTSCF
|  2> % maxcore 2000
|  3> % mp2 density relaxed end
|  4> *xyz 0 1
|  5>  O       -0.0190056448     1.4130671965    -0.0755404410
|  6>  C       -0.0429474881    -0.0015358037    -0.0747505735
|  7>  C       -1.4464270385    -0.4793913694     0.0989749944
|  8>  C       -2.5654366315     0.2608133839     0.1602285788
|  9>  C       -3.7366836729    -0.6756974590     0.0727317914
| 10>  O       -3.7073222854    -1.2268914177    -1.3244661145
| 11>  C       -3.0016139198    -2.3376625375    -0.8356024447
| 12>  C       -3.2299320972    -2.0519096049     0.6013944314
| 13>  C       -1.8065361360    -1.9216028647     0.1092279351
| 14>  H        0.8931825570     1.6970582592    -0.1808308175
| 15>  H        0.3600768034    -0.4146970855    -1.0165860662
| 16>  H        0.5862364699    -0.4134141288     0.7347755271
| 17>  H       -2.6230868595     1.3350519838     0.0633514589
| 18>  H       -4.7349926292    -0.3149417516     0.3126335729
| 19>  H       -2.9786448773    -3.2362353344    -1.4403776231
| 20>  H       -3.5796446035    -2.6381802109     1.4414138722
| 21>  H       -1.0852568265    -2.6993668951     0.3344480483
| 22> *
| 23>
| 24>                          ****END OF INPUT****

CARTESIAN COORDINATES (ANGSTROEM)
---------------------------------
  O     -0.019006    1.413067   -0.075540
  C     -0.042947   -0.001536   -0.074751
  C     -1.446427   -0.479391    0.098975
  C     -2.565437    0.260813    0.160229
  C     -3.736684   -0.675697    0.072732
  O     -3.707322   -1.226891   -1.324466
  C     -3.001614   -2.337663   -0.835602
  C     -3.229932   -2.051910    0.601394
  C     -1.806536   -1.921603    0.109228
  H      0.893183    1.697058   -0.180831
  H      0.360077   -0.414697   -1.016586
  H      0.586236   -0.413414    0.734776
  H     -2.623087    1.335052    0.063351
  H     -4.734993   -0.314942    0.312634
  H     -2.978645   -3.236235   -1.440378
  H     -3.579645   -2.638180    1.441414
  H     -1.085257   -2.699367    0.334448

 Total Charge           Charge          ....    0
 Multiplicity           Mult            ....    1
 Number of Electrons    NEL             ....   66
 Basis Dimension        Dim             ....  327

ORBITAL ENERGIES
----------------

  NO   OCC          E(Eh)            E(eV)
   0   2.0000     -20.561768      -559.5142
   1   2.0000     -20.548627      -559.1566
   2   2.0000     -11.293716      -307.3176
   3   2.0000     -11.292096      -307.2736
   4   2.0000     -11.288736      -307.1821
   5   2.0000     -11.240750      -305.8764
   6   2.0000     -11.238899      -305.8260
   7   2.0000     -11.236732      -305.7670
   8   2.0000     -11.210632      -305.0568
   9   2.0000      -1.390323       -37.8326
  10   2.0000      -1.367774       -37.2190
  11   2.0000      -1.150749       -31.3135
  12   2.0000      -1.047765       -28.5111
  13   2.0000      -0.978993       -26.6398
  14   2.0000      -0.892804       -24.2944
  15   2.0000      -0.822798       -22.3895
  16   2.0000      -0.760315       -20.6892
  17   2.0000      -0.727261       -19.7898
  18   2.0000      -0.703698       -19.1486
  19   2.0000      -0.700512       -19.0619
  20   2.0000      -0.642967       -17.4960
  21   2.0000      -0.637478       -17.3467
  22   2.0000      -0.602361       -16.3911
  23   2.0000      -0.583779       -15.8854
  24   2.0000      -0.557388       -15.1673
  25   2.0000      -0.536676       -14.6037
  26   2.0000      -0.513915       -13.9843
  27   2.0000      -0.498386       -13.5618
  28   2.0000      -0.465517       -12.6674
  29   2.0000      -0.462117       -12.5748
  30   2.0000      -0.423543       -11.5252
  31   2.0000      -0.374457       -10.1895
  32   2.0000      -0.326760        -8.8916
  33   0.0000       0.131861         3.5881
  34   0.0000       0.139403         3.7934
  35   0.0000       0.157193         4.2774
  36   0.0000       0.168140         4.5753
  37   0.0000       0.182990         4.9794

MULLIKEN ATOMIC CHARGES
-----------------------
   0 O :   -0.458069
   1 C :   -0.127625
   2 C :    0.053472
   3 C :   -0.245029
   4 C :    0.155688
   5 O :   -0.312170
   6 C :    0.025940
   7 C :   -0.175010
   8 C :   -0.159403
   9 H :    0.315789
  10 H :    0.115619
  11 H :    0.110117
  12 H :    0.150953
  13 H :    0.131564
  14 H :    0.134721
  15 H :    0.150047
  16 H :    0.133396
Sum of atomic charges:    0.0000000

LOEWDIN ATOMIC CHARGES
----------------------
   0 O :   -0.033645
   1 C :   -0.310848
   2 C :   -0.142472
   3 C :   -0.116269
   4 C :   -0.173637
   5 O :    0.170713
   6 C :   -0.238877
   7 C :   -0.138784
   8 C :   -0.145602
   9 H :    0.174468
  10 H :    0.129100
  11 H :    0.126164
  12 H :    0.144389
  13 H :    0.136900
  14 H :    0.132506
  15 H :    0.136590
  16 H :    0.149305

  Mayer bond orders larger than 0.1
B(  0-O ,  1-C ) :   1.0675 B(  0-O ,  2-C ) :  -0.1216 B(  0-O ,  9-H ) :   0.8472
B(  1-C ,  2-C ) :   0.8967 B(  1-C , 10-H ) :   0.9329 B(  1-C , 11-H ) :   0.9299
B(  2-C ,  3-C ) :   1.7304 B(  2-C ,  8-C ) :   0.9283 B(  3-C ,  4-C ) :   0.9409
B(  3-C , 12-H ) :   0.9144 B(  4-C ,  5-O ) :   0.8447 B(  4-C ,  7-C ) :   0.9249
B(  4-C , 13-H ) :   0.9268 B(  5-O ,  6-C ) :   1.0229 B(  6-C ,  7-C ) :   0.9430
B(  6-C ,  8-C ) :   0.7928 B(  6-C , 14-H ) :   0.9204 B(  7-C ,  8-C ) :   0.8753
B(  7-C , 15-H ) :   0.8931 B(  8-C , 16-H ) :   0.9181

MP2 TOTAL ENERGY:     -421.060911642 Eh
FINAL SINGLE POINT ENERGY      -421.060911642308

DIPOLE MOMENT
-------------
                                X             Y             Z
Electronic contribution:     -2.74019       0.23643      -0.99549
Nuclear contribution   :      3.56092      -0.78629       1.46069
                        -----------------------------------------
Total Dipole Moment    :      0.82073      -0.54986       0.46520
                        -----------------------------------------
Magnitude (a.u.)       :      1.09195
Magnitude (Debye)      :      2.77550

                             ****ORCA TERMINATED NORMALLY****
TOTAL RUN TIME: 0 days 0 hours 16 minutes 8 seconds 668 msec
