                         Program Version 3.0.3 - RELEASE   -
|  1> ! RI-MP2 RIJK def2-TZVP def2-TZVP/C def2-TZVP/JK TIGHTSCF
|  2> % maxcore 2000
|  3> % mp2 density relaxed end
|  4> *xyz 0 1
|  5>  C        0.0153636023     1.5313958883     0.1715168059
|  6>  C       -0.0492050121     0.0175934112    -0.0463102090
|  7>  C        0.6915271022    -0.4727806046    -1.3199324481
|  8>  C        0.1148019471     0.1349465196    -2.6067895917
|  9>  O        2.0651616070    -0.0650786439    -1.2910877101
| 10>  C        0.6094317906    -1.9400396729    -1.3748760302
| 11>  C        0.5592338119    -3.1500858871    -1.3785094431
| 12>  C        0.5015263968    -4.5095609803    -1.3950358796
| 13>  C        0.4512771748    -5.7160264594    -1.4060056779
| 14>  H        1.0494545104     1.8824548158     0.1254066731
| 15>  H       -0.5620098927     2.0786679775    -0.5792743814
| 16>  H       -0.3933481041     1.7903043654     1.1526114958
| 17>  H        0.3990892497    -0.4984882046     0.8118975064
| 18>  H       -1.0893988826    -0.3237843828    -0.0963362898
| 19>  H        0.2577092394     1.2177617187    -2.5972502481
| 20>  H        0.6344786432    -0.2747632147    -3.4750797119
| 21>  H       -0.9514949643    -0.0868305877    -2.6942319784
| 22>  H        2.5007691856    -0.5497243081    -0.5809055365
| 23>  H        0.4055878049    -6.7766444703    -1.4207504554
| 24> *
| 25>
| 26>                          ****END OF INPUT****

CARTESIAN COORDINATES (ANGSTROEM)
---------------------------------
  C      0.015364    1.531396    0.171517
  C     -0.049205    0.017593   -0.046310
  C      0.691527   -0.472781   -1.319932
  C      0.114802    0.134947   -2.606790
  O      2.065162   -0.065079   -1.291088
  C      0.609432   -1.940040   -1.374876
  C      0.559234   -3.150086   -1.378509
  C      0.501526   -4.509561   -1.395036
  C      0.451277   -5.716026   -1.406006
  H      1.049455    1.882455    0.125407
  H     -0.562010    2.078668   -0.579274
  H     -0.393348    1.790304    1.152611
  H      0.399089   -0.498488    0.811898
  H     -1.089399   -0.323784   -0.096336
  H      0.257709    1.217762   -2.597250
  H      0.634479   -0.274763   -3.475080
  H     -0.951495   -0.086831   -2.694232
  H      2.500769   -0.549724   -0.580906
  H      0.405588   -6.776644   -1.420750

 Total Charge           Charge          ....    0
 Multiplicity           Mult            ....    1
 Number of Electrons    NEL             ....   66
 Basis Dimension        Dim             ....  339

ORBITAL ENERGIES
----------------

  NO   OCC          E(Eh)            E(eV)
   0   2.0000     -20.566768      -559.6502
   1   2.0000     -11.322187      -308.0924
   2   2.0000     -11.261066      -306.4292
   3   2.0000     -11.255596      -306.2803
   4   2.0000     -11.251838      -306.1781
   5   2.0000     -11.251003      -306.1554
   6   2.0000     -11.236024      -305.7478
   7   2.0000     -11.224762      -305.4413
   8   2.0000     -11.218689      -305.2761
   9   2.0000      -1.375900       -37.4401
  10   2.0000      -1.104000       -30.0414
  11   2.0000      -1.073279       -29.2054
  12   2.0000      -1.018787       -27.7226
  13   2.0000      -0.988493       -26.8983
  14   2.0000      -0.902485       -24.5579
  15   2.0000      -0.842022       -22.9126
  16   2.0000      -0.797774       -21.7085
  17   2.0000      -0.729325       -19.8459
  18   2.0000      -0.708379       -19.2760
  19   2.0000      -0.656377       -17.8609
  20   2.0000      -0.638087       -17.3632
  21   2.0000      -0.585219       -15.9246
  22   2.0000      -0.554644       -15.0926
  23   2.0000      -0.552569       -15.0362
  24   2.0000      -0.539058       -14.6685
  25   2.0000      -0.529052       -14.3962
  26   2.0000      -0.498664       -13.5693
  27   2.0000      -0.490777       -13.3547
  28   2.0000      -0.484369       -13.1803
  29   2.0000      -0.482656       -13.1337
  30   2.0000      -0.454688       -12.3727
  31   2.0000      -0.360287        -9.8039
  32   2.0000      -0.355478        -9.6730
  33   0.0000       0.106942         2.9100
  34   0.0000       0.114273         3.1095
  35   0.0000       0.124381         3.3846
  36   0.0000       0.154053         4.1920
  37   0.0000       0.160591         4.3699

MULLIKEN ATOMIC CHARGES
-----------------------
   0 C :   -0.435032
   1 C :   -0.158541
   2 C :    0.117903
   3 C :   -0.399732
   4 O :   -0.459138
   5 C :   -0.205704
   6 C :    0.086833
   7 C :    0.002456
   8 C :   -0.136235
   9 H :    0.146515
  10 H :    0.132015
  11 H :    0.139173
  12 H :    0.110357
  13 H :    0.119598
  14 H :    0.147513
  15 H :    0.146987
  16 H :    0.130757
  17 H :    0.319365
  18 H :    0.194911
Sum of atomic charges:   -0.0000000

LOEWDIN ATOMIC CHARGES
----------------------
   0 C :   -0.315968
   1 C :   -0.246660
   2 C :   -0.393650
   3 C :   -0.247118
   4 O :    0.020213
   5 C :    0.014123
   6 C :   -0.052203
   7 C :   -0.098361
   8 C :   -0.045521
   9 H :    0.126357
  10 H :    0.120910
  11 H :    0.123534
  12 H :    0.141846
  13 H :    0.145253
  14 H :    0.131227
  15 H :    0.133974
  16 H :    0.131934
  17 H :    0.179601
  18 H :    0.130510

  Mayer bond orders larger than 0.1
B(  0-C ,  1-C ) :   0.9067 B(  0-C ,  9-H ) :   0.9365 B(  0-C , 10-H ) :   0.9397
B(  0-C , 11-H ) :   0.9388 B(  1-C ,  2-C ) :   0.9876 B(  1-C , 12-H ) :   0.9179
B(  1-C , 13-H ) :   0.9203 B(  2-C ,  3-C ) :   0.8647 B(  2-C ,  4-O ) :   0.9005
B(  2-C ,  5-C ) :   1.0690 B(  2-C ,  6-C ) :  -0.1361 B(  3-C , 14-H ) :   0.9405
B(  3-C , 15-H ) :   0.9366 B(  3-C , 16-H ) :   0.9259 B(  4-O ,  5-C ) :   0.1125
B(  4-O , 17-H ) :   0.8384 B(  5-C ,  6-C ) :   2.5560 B(  5-C ,  7-C ) :   0.1138
B(  5-C ,  8-C ) :   0.1194 B(  6-C ,  7-C ) :   1.2551 B(  7-C ,  8-C ) :   2.5347
B(  8-C , 18-H ) :   0.8877

MP2 TOTAL ENERGY:     -385.149236159 Eh
FINAL SINGLE POINT ENERGY      -385.149236158547

DIPOLE MOMENT
-------------
                                X             Y             Z
Electronic contribution:      2.97289     -11.88146      -1.76389
Nuclear contribution   :     -3.24715      11.78309       2.16262
                        -----------------------------------------
Total Dipole Moment    :     -0.27426      -0.09836       0.39873
                        -----------------------------------------
Magnitude (a.u.)       :      0.49384
Magnitude (Debye)      :      1.25525

                             ****ORCA TERMINATED NORMALLY****
TOTAL RUN TIME: 0 days 0 hours 16 minutes 58 seconds 760 msec
