                         Program Version 3.0.3 - RELEASE   -
|  1> ! RI-MP2 RIJK def2-TZVP def2-TZVP/C def2-TZVP/JK TIGHTSCF
|  2> % maxcore 2000
|  3> % mp2 density relaxed end
|  4> *xyz 0 1
|  5>  C        0.0304904571     1.4449325295    -0.0267396039
|  6>  N        0.0041576987    -0.0039236660     0.0589143907
|  7>  N       -0.0609603609    -0.6429530739    -1.1522813950
|  8>  N       -0.0454808063    -1.8934541918    -1.2201336181
|  9>  C        0.0360135472    -2.7325902786    -0.0550741090
| 10>  N        0.0479130919    -4.0068850370    -0.1826644227
| 11>  C        0.0875823859    -2.0539859795     1.2136135506
| 12>  C        0.0808804167    -0.7001925820     1.2505643816
| 13>  N        0.2229232060     0.0669383729     2.3984774170
| 14>  H        0.9081341661     1.8489483989     0.4860041391
| 15>  H        0.0745408401     1.6947932236    -1.0862097275
| 16>  H       -0.8746953699     1.8941509296     0.4006691050
| 17>  H       -0.0060029442    -4.2345610140    -1.1774907504
| 18>  H        0.1337171574    -2.6374381137     2.1241712882
| 19>  H        0.1588465090    -0.4826572857     3.2445143326
| 20>  H       -0.3629591048     0.8890764676     2.4513544717
| 21> *
| 22>
| 23>                          ****END OF INPUT****

CARTESIAN COORDINATES (ANGSTROEM)
---------------------------------
  C      0.030490    1.444933   -0.026740
  N      0.004158   -0.003924    0.058914
  N     -0.060960   -0.642953   -1.152281
  N     -0.045481   -1.893454   -1.220134
  C      0.036014   -2.732590   -0.055074
  N      0.047913   -4.006885   -0.182664
  C      0.087582   -2.053986    1.213614
  C      0.080880   -0.700193    1.250564
  N      0.222923    0.066938    2.398477
  H      0.908134    1.848948    0.486004
  H      0.074541    1.694793   -1.086210
  H     -0.874695    1.894151    0.400669
  H     -0.006003   -4.234561   -1.177491
  H      0.133717   -2.637438    2.124171
  H      0.158847   -0.482657    3.244514
  H     -0.362959    0.889076    2.451354

 Total Charge           Charge          ....    0
 Multiplicity           Mult            ....    1
 Number of Electrons    NEL             ....   66
 Basis Dimension        Dim             ....  321

ORBITAL ENERGIES
----------------

  NO   OCC          E(Eh)            E(eV)
   0   2.0000     -15.691570      -426.9893
   1   2.0000     -15.654155      -425.9712
   2   2.0000     -15.617165      -424.9647
   3   2.0000     -15.606408      -424.6720
   4   2.0000     -15.514855      -422.1807
   5   2.0000     -11.353039      -308.9319
   6   2.0000     -11.306386      -307.6624
   7   2.0000     -11.293013      -307.2985
   8   2.0000     -11.225040      -305.4489
   9   2.0000      -1.434729       -39.0410
  10   2.0000      -1.295171       -35.2434
  11   2.0000      -1.232012       -33.5247
  12   2.0000      -1.182630       -32.1810
  13   2.0000      -1.064914       -28.9778
  14   2.0000      -0.990952       -26.9652
  15   2.0000      -0.928767       -25.2730
  16   2.0000      -0.865096       -23.5405
  17   2.0000      -0.771932       -21.0053
  18   2.0000      -0.729133       -19.8407
  19   2.0000      -0.702789       -19.1239
  20   2.0000      -0.691036       -18.8041
  21   2.0000      -0.674825       -18.3629
  22   2.0000      -0.615933       -16.7604
  23   2.0000      -0.604085       -16.4380
  24   2.0000      -0.588405       -16.0113
  25   2.0000      -0.585091       -15.9211
  26   2.0000      -0.555263       -15.1095
  27   2.0000      -0.531028       -14.4500
  28   2.0000      -0.472191       -12.8490
  29   2.0000      -0.444844       -12.1048
  30   2.0000      -0.412964       -11.2373
  31   2.0000      -0.400823       -10.9069
  32   2.0000      -0.302785        -8.2392
  33   0.0000       0.096450         2.6245
  34   0.0000       0.105979         2.8838
  35   0.0000       0.138288         3.7630
  36   0.0000       0.142712         3.8834
  37   0.0000       0.180808         4.9200

MULLIKEN ATOMIC CHARGES
-----------------------
   0 C :   -0.360444
   1 N :    0.077837
   2 N :   -0.121326
   3 N :   -0.124846
   4 C :    0.047666
   5 N :   -0.384745
   6 C :   -0.237269
   7 C :    0.251444
   8 N :   -0.521143
   9 H :    0.170031
  10 H :    0.182666
  11 H :    0.144772
  12 H :    0.217163
  13 H :    0.139770
  14 H :    0.256969
  15 H :    0.261456
Sum of atomic charges:    0.0000000

LOEWDIN ATOMIC CHARGES
----------------------
   0 C :   -0.288416
   1 N :    0.145709
   2 N :    0.012850
   3 N :    0.047965
   4 C :   -0.398094
   5 N :   -0.076221
   6 C :   -0.140111
   7 C :   -0.304896
   8 N :   -0.050673
   9 H :    0.126701
  10 H :    0.137495
  11 H :    0.117847
  12 H :    0.161116
  13 H :    0.157122
  14 H :    0.179223
  15 H :    0.172381

  Mayer bond orders larger than 0.1
B(  0-C ,  1-N ) :   0.8675 B(  0-C ,  9-H ) :   0.9228 B(  0-C , 10-H ) :   0.9210
B(  0-C , 11-H ) :   0.9258 B(  1-N ,  2-N ) :   0.9253 B(  1-N ,  7-C ) :   1.0941
B(  2-N ,  3-N ) :   1.4669 B(  3-N ,  4-C ) :   1.0825 B(  4-C ,  5-N ) :   1.9628
B(  4-C ,  6-C ) :   1.1092 B(  5-N , 12-H ) :   0.8589 B(  6-C ,  7-C ) :   1.4700
B(  6-C , 13-H ) :   0.9135 B(  7-C ,  8-N ) :   1.0473 B(  8-N , 14-H ) :   0.8770
B(  8-N , 15-H ) :   0.8586

MP2 TOTAL ENERGY:     -429.489728003 Eh
FINAL SINGLE POINT ENERGY      -429.489728003305

DIPOLE MOMENT
-------------
                                X             Y             Z
Electronic contribution:     -0.04947      -4.16622      -2.88393
Nuclear contribution   :     -0.24428       6.39687       4.26596
                        -----------------------------------------
Total Dipole Moment    :     -0.29375       2.23065       1.38204
                        -----------------------------------------
Magnitude (a.u.)       :      2.64047
Magnitude (Debye)      :      6.71155

                             ****ORCA TERMINATED NORMALLY****
TOTAL RUN TIME: 0 days 0 hours 17 minutes 44 seconds 385 msec
