                         Program Version 3.0.3 - RELEASE   -
|  1> ! RI-MP2 RIJK def2-TZVP def2-TZVP/C def2-TZVP/JK TIGHTSCF
|  2> % maxcore 2000
|  3> % mp2 density relaxed end
|  4> *xyz 0 1
|  5>  O       -0.0210691052     0.0700907561     0.2301057111
|  6>  C       -0.0422020815     1.2652520751     0.1007307042
|  7>  C       -1.2890993806     2.1577942652     0.0585035518
|  8>  C       -0.7127436225     3.5420519451    -0.0571404684
|  9>  C        0.6200197823     3.5480818492    -0.0994160326
| 10>  C        1.2115540679     2.1635924343    -0.0338520264
| 11>  C        2.1934024185     1.8823762894     1.0921519377
| 12>  C        3.1790837006     2.8580871329     1.5684178654
| 13>  O        1.9971869669     2.5776946164     2.3226093446
| 14>  H       -1.9259640835     1.8716593580    -0.7888512335
| 15>  H       -1.8939445946     2.0022646599     0.9608333154
| 16>  H       -1.3348526925     4.4283389231    -0.1018923752
| 17>  H        1.2284472873     4.4402856024    -0.1863564659
| 18>  H        1.7162799577     1.8847827636    -0.9720915780
| 19>  H        2.4172430524     0.8212201703     1.2060856555
| 20>  H        4.1115215744     2.5094585167     2.0101490728
| 21>  H        3.2224122522     3.8507875422     1.1230425015
| 22> *
| 23>
| 24>                          ****END OF INPUT****

CARTESIAN COORDINATES (ANGSTROEM)
---------------------------------
  O     -0.021069    0.070091    0.230106
  C     -0.042202    1.265252    0.100731
  C     -1.289099    2.157794    0.058504
  C     -0.712744    3.542052   -0.057140
  C      0.620020    3.548082   -0.099416
  C      1.211554    2.163592   -0.033852
  C      2.193402    1.882376    1.092152
  C      3.179084    2.858087    1.568418
  O      1.997187    2.577695    2.322609
  H     -1.925964    1.871659   -0.788851
  H     -1.893945    2.002265    0.960833
  H     -1.334853    4.428339   -0.101892
  H      1.228447    4.440286   -0.186356
  H      1.716280    1.884783   -0.972092
  H      2.417243    0.821220    1.206086
  H      4.111522    2.509459    2.010149
  H      3.222412    3.850788    1.123043

 Total Charge           Charge          ....    0
 Multiplicity           Mult            ....    1
 Number of Electrons    NEL             ....   66
 Basis Dimension        Dim             ....  327

ORBITAL ENERGIES
----------------

  NO   OCC          E(Eh)            E(eV)
   0   2.0000     -20.573329      -559.8287
   1   2.0000     -20.553428      -559.2872
   2   2.0000     -11.337718      -308.5150
   3   2.0000     -11.297721      -307.4266
   4   2.0000     -11.289649      -307.2070
   5   2.0000     -11.257851      -306.3417
   6   2.0000     -11.247361      -306.0563
   7   2.0000     -11.246686      -306.0379
   8   2.0000     -11.244575      -305.9804
   9   2.0000      -1.418492       -38.5991
  10   2.0000      -1.398135       -38.0452
  11   2.0000      -1.150689       -31.3118
  12   2.0000      -1.022597       -27.8263
  13   2.0000      -0.957572       -26.0569
  14   2.0000      -0.922127       -25.0924
  15   2.0000      -0.847524       -23.0623
  16   2.0000      -0.767052       -20.8725
  17   2.0000      -0.745808       -20.2945
  18   2.0000      -0.698478       -19.0065
  19   2.0000      -0.689612       -18.7653
  20   2.0000      -0.661214       -17.9926
  21   2.0000      -0.617010       -16.7897
  22   2.0000      -0.607392       -16.5280
  23   2.0000      -0.588424       -16.0118
  24   2.0000      -0.578947       -15.7539
  25   2.0000      -0.550460       -14.9788
  26   2.0000      -0.543093       -14.7783
  27   2.0000      -0.513761       -13.9802
  28   2.0000      -0.504198       -13.7199
  29   2.0000      -0.461023       -12.5451
  30   2.0000      -0.452006       -12.2997
  31   2.0000      -0.399018       -10.8578
  32   2.0000      -0.369777       -10.0622
  33   0.0000       0.126212         3.4344
  34   0.0000       0.139832         3.8050
  35   0.0000       0.145047         3.9469
  36   0.0000       0.155462         4.2303
  37   0.0000       0.167694         4.5632

MULLIKEN ATOMIC CHARGES
-----------------------
   0 O :   -0.261583
   1 C :    0.088384
   2 C :   -0.141501
   3 C :   -0.199881
   4 C :   -0.184031
   5 C :    0.059883
   6 C :   -0.023780
   7 C :   -0.066329
   8 O :   -0.329403
   9 H :    0.140715
  10 H :    0.145370
  11 H :    0.136455
  12 H :    0.131545
  13 H :    0.123655
  14 H :    0.144295
  15 H :    0.123154
  16 H :    0.113051
Sum of atomic charges:   -0.0000000

LOEWDIN ATOMIC CHARGES
----------------------
   0 O :    0.163446
   1 C :   -0.261981
   2 C :   -0.210276
   3 C :   -0.146611
   4 C :   -0.129542
   5 C :   -0.196264
   6 C :   -0.266085
   7 C :   -0.262433
   8 O :    0.153415
   9 H :    0.155741
  10 H :    0.157087
  11 H :    0.139589
  12 H :    0.140343
  13 H :    0.176781
  14 H :    0.146896
  15 H :    0.120737
  16 H :    0.119157

  Mayer bond orders larger than 0.1
B(  0-O ,  1-C ) :   2.0639 B(  1-C ,  2-C ) :   0.9415 B(  1-C ,  5-C ) :   0.8564
B(  2-C ,  3-C ) :   0.9258 B(  2-C ,  5-C ) :  -0.1205 B(  2-C ,  9-H ) :   0.8952
B(  2-C , 10-H ) :   0.8933 B(  3-C ,  4-C ) :   1.7649 B(  3-C , 11-H ) :   0.9192
B(  4-C ,  5-C ) :   0.8846 B(  4-C , 12-H ) :   0.9110 B(  5-C ,  6-C ) :   0.8967
B(  5-C , 13-H ) :   0.8820 B(  6-C ,  7-C ) :   0.9743 B(  6-C ,  8-O ) :   0.9038
B(  6-C , 14-H ) :   0.9226 B(  7-C ,  8-O ) :   0.9066 B(  7-C , 15-H ) :   0.9233
B(  7-C , 16-H ) :   0.9078

MP2 TOTAL ENERGY:     -421.109776170 Eh
FINAL SINGLE POINT ENERGY      -421.109776170410

DIPOLE MOMENT
-------------
                                X             Y             Z
Electronic contribution:     -0.68024      -3.01242       0.82517
Nuclear contribution   :      0.96185       3.89611      -1.50712
                        -----------------------------------------
Total Dipole Moment    :      0.28161       0.88368      -0.68195
                        -----------------------------------------
Magnitude (a.u.)       :      1.15120
Magnitude (Debye)      :      2.92611

                             ****ORCA TERMINATED NORMALLY****
TOTAL RUN TIME: 0 days 0 hours 17 minutes 5 seconds 791 msec
