                         Program Version 3.0.3 - RELEASE   -
|  1> ! RI-MP2 RIJK def2-TZVP def2-TZVP/C def2-TZVP/JK TIGHTSCF
|  2> % maxcore 2000
|  3> % mp2 density relaxed end
|  4> *xyz 0 1
|  5>  C       -0.2420900504     1.3519094812     0.1493901052
|  6>  C       -0.1486123403    -0.1191940649    -0.1275204888
|  7>  N        0.6855795877    -0.6102629337    -0.9417084388
|  8>  O       -1.0793075216    -0.7883655788     0.6339328449
|  9>  C       -1.0996599617    -2.1792261657     0.5570069830
| 10>  C       -2.3774380385    -2.8301189671     0.9515623033
| 11>  C       -1.9498398689    -2.8596128290    -0.5153396513
| 12>  C       -2.6566081546    -2.0764915458    -1.4829918664
| 13>  C       -3.2457794750    -1.4286648981    -2.3071157009
| 14>  H        0.5023696349     1.8820490988    -0.4425164649
| 15>  H       -1.2430747623     1.7156487828    -0.1026669904
| 16>  H       -0.0824815385     1.5505056206     1.2136339322
| 17>  H        0.5931504935    -1.6208881713    -1.0348995840
| 18>  H       -0.1587155103    -2.6569099610     0.8211149947
| 19>  H       -2.3406451811    -3.7567074495     1.5120579180
| 20>  H       -3.1977625477    -2.1666731973     1.1968241360
| 21>  H       -1.5640155589    -3.8074545293    -0.8806174910
| 22>  H       -3.7613822064    -0.8536445820    -3.0355715208
| 23> *
| 24>
| 25>                          ****END OF INPUT****

CARTESIAN COORDINATES (ANGSTROEM)
---------------------------------
  C     -0.242090    1.351909    0.149390
  C     -0.148612   -0.119194   -0.127520
  N      0.685580   -0.610263   -0.941708
  O     -1.079308   -0.788366    0.633933
  C     -1.099660   -2.179226    0.557007
  C     -2.377438   -2.830119    0.951562
  C     -1.949840   -2.859613   -0.515340
  C     -2.656608   -2.076492   -1.482992
  C     -3.245779   -1.428665   -2.307116
  H      0.502370    1.882049   -0.442516
  H     -1.243075    1.715649   -0.102667
  H     -0.082482    1.550506    1.213634
  H      0.593150   -1.620888   -1.034900
  H     -0.158716   -2.656910    0.821115
  H     -2.340645   -3.756707    1.512058
  H     -3.197763   -2.166673    1.196824
  H     -1.564016   -3.807455   -0.880617
  H     -3.761382   -0.853645   -3.035572

 Total Charge           Charge          ....    0
 Multiplicity           Mult            ....    1
 Number of Electrons    NEL             ....   66
 Basis Dimension        Dim             ....  333

ORBITAL ENERGIES
----------------

  NO   OCC          E(Eh)            E(eV)
   0   2.0000     -20.602989      -560.6358
   1   2.0000     -15.533578      -422.6901
   2   2.0000     -11.339058      -308.5514
   3   2.0000     -11.314750      -307.8900
   4   2.0000     -11.272672      -306.7450
   5   2.0000     -11.252954      -306.2084
   6   2.0000     -11.239392      -305.8394
   7   2.0000     -11.226652      -305.4927
   8   2.0000     -11.225627      -305.4648
   9   2.0000      -1.437530       -39.1172
  10   2.0000      -1.202121       -32.7114
  11   2.0000      -1.163348       -31.6563
  12   2.0000      -1.031053       -28.0564
  13   2.0000      -0.999522       -27.1984
  14   2.0000      -0.889312       -24.1994
  15   2.0000      -0.857354       -23.3298
  16   2.0000      -0.785037       -21.3619
  17   2.0000      -0.728750       -19.8303
  18   2.0000      -0.717727       -19.5303
  19   2.0000      -0.695447       -18.9241
  20   2.0000      -0.663837       -18.0639
  21   2.0000      -0.635097       -17.2819
  22   2.0000      -0.605321       -16.4716
  23   2.0000      -0.563567       -15.3354
  24   2.0000      -0.557677       -15.1752
  25   2.0000      -0.552825       -15.0431
  26   2.0000      -0.530619       -14.4389
  27   2.0000      -0.484630       -13.1874
  28   2.0000      -0.465400       -12.6642
  29   2.0000      -0.433803       -11.8044
  30   2.0000      -0.411294       -11.1919
  31   2.0000      -0.387972       -10.5572
  32   2.0000      -0.364506        -9.9187
  33   0.0000       0.130707         3.5567
  34   0.0000       0.149448         4.0667
  35   0.0000       0.159197         4.3320
  36   0.0000       0.167342         4.5536
  37   0.0000       0.172893         4.7047

MULLIKEN ATOMIC CHARGES
-----------------------
   0 C :   -0.393111
   1 C :    0.241336
   2 N :   -0.385096
   3 O :   -0.242868
   4 C :   -0.024890
   5 C :   -0.242009
   6 C :   -0.287955
   7 C :    0.016968
   8 C :   -0.123354
   9 H :    0.154206
  10 H :    0.145103
  11 H :    0.140552
  12 H :    0.219370
  13 H :    0.143457
  14 H :    0.144914
  15 H :    0.155825
  16 H :    0.146264
  17 H :    0.191286
Sum of atomic charges:   -0.0000000

LOEWDIN ATOMIC CHARGES
----------------------
   0 C :   -0.265636
   1 C :   -0.416490
   2 N :   -0.051503
   3 O :    0.277388
   4 C :   -0.276390
   5 C :   -0.174077
   6 C :   -0.198653
   7 C :   -0.097503
   8 C :   -0.087826
   9 H :    0.137164
  10 H :    0.136844
  11 H :    0.134754
  12 H :    0.160784
  13 H :    0.140252
  14 H :    0.138016
  15 H :    0.150100
  16 H :    0.165116
  17 H :    0.127660

  Mayer bond orders larger than 0.1
B(  0-C ,  1-C ) :   0.9140 B(  0-C ,  9-H ) :   0.9438 B(  0-C , 10-H ) :   0.9238
B(  0-C , 11-H ) :   0.9242 B(  1-C ,  2-N ) :   1.9481 B(  1-C ,  3-O ) :   1.0147
B(  2-N , 12-H ) :   0.8713 B(  3-O ,  4-C ) :   0.9605 B(  4-C ,  5-C ) :   0.8994
B(  4-C ,  6-C ) :   0.8635 B(  4-C , 13-H ) :   0.9378 B(  5-C ,  6-C ) :   0.8395
B(  5-C , 14-H ) :   0.9230 B(  5-C , 15-H ) :   0.9236 B(  6-C ,  7-C ) :   1.1625
B(  6-C ,  8-C ) :  -0.1307 B(  6-C , 16-H ) :   0.9344 B(  7-C ,  8-C ) :   2.5600
B(  8-C , 17-H ) :   0.9004

MP2 TOTAL ENERGY:     -401.199664684 Eh
FINAL SINGLE POINT ENERGY      -401.199664684270

DIPOLE MOMENT
-------------
                                X             Y             Z
Electronic contribution:     -0.85183      -1.90010      -1.31168
Nuclear contribution   :      0.41166       1.37004       1.85037
                        -----------------------------------------
Total Dipole Moment    :     -0.44017      -0.53005       0.53869
                        -----------------------------------------
Magnitude (a.u.)       :      0.87458
Magnitude (Debye)      :      2.22301

                             ****ORCA TERMINATED NORMALLY****
TOTAL RUN TIME: 0 days 0 hours 17 minutes 53 seconds 511 msec
