                         Program Version 3.0.3 - RELEASE   -
|  1> ! RI-MP2 RIJK def2-TZVP def2-TZVP/C def2-TZVP/JK TIGHTSCF
|  2> % maxcore 2000
|  3> % mp2 density relaxed end
|  4> *xyz 0 1
|  5>  C       -0.1547489338     1.5332184229     0.1068723630
|  6>  C       -0.0096138531     0.0126105312     0.0037543456
|  7>  C        0.7061174638    -0.5938043082     1.2144568436
|  8>  C        0.8667241604    -2.1304169504     1.1530061517
|  9>  C        1.6711391989    -2.5265835148    -0.0121911584
| 10>  N        2.3166901814    -2.8277257616    -0.9227449341
| 11>  C        1.4746407194    -2.6997344019     2.4291095541
| 12>  C        0.5838770074    -3.0048284422     3.6059838077
| 13>  C        1.2213122239    -4.1289568432     2.8262911026
| 14>  H        0.8243767259     2.0204491747     0.1701190929
| 15>  H       -0.6726475629     1.9409295316    -0.7663044718
| 16>  H       -0.7254151622     1.8198597280     0.9972846549
| 17>  H       -1.0026795902    -0.4456106712    -0.0962336161
| 18>  H        0.5396212287    -0.2444055564    -0.9096645990
| 19>  H        1.6988117740    -0.1402425764     1.3262524448
| 20>  H        0.1519170153    -0.3640400458     2.1321213592
| 21>  H       -0.1281562089    -2.5768077283     1.0168302633
| 22>  H        2.4601268510    -2.3024871159     2.6547643714
| 23>  H        0.9561012246    -2.7860695933     4.6003211842
| 24>  H       -0.4843312677    -2.8504808537     3.4899946085
| 25>  H        0.5822239223    -4.7271814456     2.1852466914
| 26>  H        2.0318921922    -4.6837632995     3.2842479405
| 27> *
| 28>
| 29>                          ****END OF INPUT****

CARTESIAN COORDINATES (ANGSTROEM)
---------------------------------
  C     -0.154749    1.533218    0.106872
  C     -0.009614    0.012611    0.003754
  C      0.706117   -0.593804    1.214457
  C      0.866724   -2.130417    1.153006
  C      1.671139   -2.526584   -0.012191
  N      2.316690   -2.827726   -0.922745
  C      1.474641   -2.699734    2.429110
  C      0.583877   -3.004828    3.605984
  C      1.221312   -4.128957    2.826291
  H      0.824377    2.020449    0.170119
  H     -0.672648    1.940930   -0.766304
  H     -0.725415    1.819860    0.997285
  H     -1.002680   -0.445611   -0.096234
  H      0.539621   -0.244406   -0.909665
  H      1.698812   -0.140243    1.326252
  H      0.151917   -0.364040    2.132121
  H     -0.128156   -2.576808    1.016830
  H      2.460127   -2.302487    2.654764
  H      0.956101   -2.786070    4.600321
  H     -0.484331   -2.850481    3.489995
  H      0.582224   -4.727181    2.185247
  H      2.031892   -4.683763    3.284248

 Total Charge           Charge          ....    0
 Multiplicity           Mult            ....    1
 Number of Electrons    NEL             ....   68
 Basis Dimension        Dim             ....  357

ORBITAL ENERGIES
----------------

  NO   OCC          E(Eh)            E(eV)
   0   2.0000     -15.561900      -423.4608
   1   2.0000     -11.284234      -307.0596
   2   2.0000     -11.265066      -306.5380
   3   2.0000     -11.253816      -306.2319
   4   2.0000     -11.243241      -305.9441
   5   2.0000     -11.241712      -305.9025
   6   2.0000     -11.239280      -305.8364
   7   2.0000     -11.230693      -305.6027
   8   2.0000     -11.221113      -305.3420
   9   2.0000      -1.214671       -33.0529
  10   2.0000      -1.167742       -31.7759
  11   2.0000      -1.094293       -29.7772
  12   2.0000      -1.022559       -27.8252
  13   2.0000      -0.911501       -24.8032
  14   2.0000      -0.840382       -22.8679
  15   2.0000      -0.818998       -22.2861
  16   2.0000      -0.808472       -21.9996
  17   2.0000      -0.721209       -19.6251
  18   2.0000      -0.660367       -17.9695
  19   2.0000      -0.653499       -17.7826
  20   2.0000      -0.628651       -17.1065
  21   2.0000      -0.601940       -16.3796
  22   2.0000      -0.568332       -15.4651
  23   2.0000      -0.557474       -15.1696
  24   2.0000      -0.537141       -14.6164
  25   2.0000      -0.531140       -14.4531
  26   2.0000      -0.528640       -14.3850
  27   2.0000      -0.504817       -13.7368
  28   2.0000      -0.490585       -13.3495
  29   2.0000      -0.483169       -13.1477
  30   2.0000      -0.455520       -12.3953
  31   2.0000      -0.451652       -12.2901
  32   2.0000      -0.430762       -11.7216
  33   2.0000      -0.424644       -11.5552
  34   0.0000       0.123104         3.3498
  35   0.0000       0.139266         3.7896
  36   0.0000       0.146773         3.9939
  37   0.0000       0.155955         4.2438
  38   0.0000       0.169322         4.6075

MULLIKEN ATOMIC CHARGES
-----------------------
   0 C :   -0.389313
   1 C :   -0.203911
   2 C :   -0.249533
   3 C :    0.017141
   4 C :   -0.209810
   5 N :   -0.053586
   6 C :   -0.082521
   7 C :   -0.255368
   8 C :   -0.257696
   9 H :    0.127628
  10 H :    0.139132
  11 H :    0.122378
  12 H :    0.105614
  13 H :    0.137788
  14 H :    0.123911
  15 H :    0.128702
  16 H :    0.125666
  17 H :    0.132684
  18 H :    0.137305
  19 H :    0.129194
  20 H :    0.136249
  21 H :    0.138350
Sum of atomic charges:   -0.0000000

LOEWDIN ATOMIC CHARGES
----------------------
   0 C :   -0.317836
   1 C :   -0.290246
   2 C :   -0.225388
   3 C :   -0.229712
   4 C :   -0.165890
   5 N :    0.057217
   6 C :   -0.198001
   7 C :   -0.223439
   8 C :   -0.217416
   9 H :    0.122213
  10 H :    0.122873
  11 H :    0.120328
  12 H :    0.135919
  13 H :    0.143679
  14 H :    0.146102
  15 H :    0.145658
  16 H :    0.179997
  17 H :    0.155144
  18 H :    0.133494
  19 H :    0.133907
  20 H :    0.136647
  21 H :    0.134750

  Mayer bond orders larger than 0.1
B(  0-C ,  1-C ) :   0.9199 B(  0-C ,  9-H ) :   0.9390 B(  0-C , 10-H ) :   0.9425
B(  0-C , 11-H ) :   0.9386 B(  1-C ,  2-C ) :   0.9348 B(  1-C , 12-H ) :   0.9298
B(  1-C , 13-H ) :   0.9310 B(  2-C ,  3-C ) :   0.9013 B(  2-C , 14-H ) :   0.9160
B(  2-C , 15-H ) :   0.9325 B(  3-C ,  4-C ) :   0.9277 B(  3-C ,  6-C ) :   0.8928
B(  3-C , 16-H ) :   0.9105 B(  4-C ,  5-N ) :   2.8859 B(  6-C ,  7-C ) :   0.8890
B(  6-C ,  8-C ) :   0.8953 B(  6-C , 17-H ) :   0.9167 B(  7-C ,  8-C ) :   0.9054
B(  7-C , 18-H ) :   0.9304 B(  7-C , 19-H ) :   0.9245 B(  8-C , 20-H ) :   0.9238
B(  8-C , 21-H ) :   0.9315

MP2 TOTAL ENERGY:     -366.559665597 Eh
FINAL SINGLE POINT ENERGY      -366.559665596689

DIPOLE MOMENT
-------------
                                X             Y             Z
Electronic contribution:      4.71790      -6.68994      -3.39574
Nuclear contribution   :     -5.54182       7.15241       4.63834
                        -----------------------------------------
Total Dipole Moment    :     -0.82392       0.46247       1.24260
                        -----------------------------------------
Magnitude (a.u.)       :      1.56101
Magnitude (Debye)      :      3.96778

                             ****ORCA TERMINATED NORMALLY****
TOTAL RUN TIME: 0 days 0 hours 17 minutes 53 seconds 522 msec
