                         Program Version 3.0.3 - RELEASE   -
|  1> ! RI-MP2 RIJK def2-TZVP def2-TZVP/C def2-TZVP/JK TIGHTSCF
|  2> % maxcore 2000
|  3> % mp2 density relaxed end
|  4> *xyz 0 1
|  5>  C       -0.0903582678     0.8642368206    -0.8761180201
|  6>  O       -0.5792324706     0.1268304433     0.2395688277
|  7>  C       -1.2373102632    -1.0068330063    -0.0608856497
|  8>  N       -1.7045740743    -1.7215350556     0.8655523723
|  9>  C       -2.4168858481    -2.9491719107     0.5381714942
| 10>  C       -2.5630644243    -3.3072824584    -0.8741351328
| 11>  C       -2.6747018931    -3.5879507927    -2.0471381578
| 12>  C       -2.8055187302    -3.9113270455    -3.3626572442
| 13>  C       -2.9203975013    -4.1964975126    -4.5304157762
| 14>  H        0.4111972902     1.7415697426    -0.4664954525
| 15>  H        0.6295850779     0.2783677597    -1.4598373251
| 16>  H       -0.9074320724     1.1901322404    -1.5306921785
| 17>  H       -1.3168012247    -1.2258896375    -1.1332754434
| 18>  H       -1.9161451754    -3.7753535364     1.0617025756
| 19>  H       -3.4158380533    -2.8864733688     0.9915614366
| 20>  H       -3.0233335194    -4.4508752722    -5.5560517460
| 21> *
| 22>
| 23>                          ****END OF INPUT****

CARTESIAN COORDINATES (ANGSTROEM)
---------------------------------
  C     -0.090358    0.864237   -0.876118
  O     -0.579232    0.126830    0.239569
  C     -1.237310   -1.006833   -0.060886
  N     -1.704574   -1.721535    0.865552
  C     -2.416886   -2.949172    0.538171
  C     -2.563064   -3.307282   -0.874135
  C     -2.674702   -3.587951   -2.047138
  C     -2.805519   -3.911327   -3.362657
  C     -2.920398   -4.196498   -4.530416
  H      0.411197    1.741570   -0.466495
  H      0.629585    0.278368   -1.459837
  H     -0.907432    1.190132   -1.530692
  H     -1.316801   -1.225890   -1.133275
  H     -1.916145   -3.775354    1.061703
  H     -3.415838   -2.886473    0.991561
  H     -3.023334   -4.450875   -5.556052

 Total Charge           Charge          ....    0
 Multiplicity           Mult            ....    1
 Number of Electrons    NEL             ....   64
 Basis Dimension        Dim             ....  321

ORBITAL ENERGIES
----------------

  NO   OCC          E(Eh)            E(eV)
   0   2.0000     -20.595334      -560.4275
   1   2.0000     -15.554217      -423.2518
   2   2.0000     -11.336982      -308.4950
   3   2.0000     -11.295480      -307.3656
   4   2.0000     -11.291301      -307.2519
   5   2.0000     -11.264417      -306.5204
   6   2.0000     -11.261104      -306.4302
   7   2.0000     -11.255919      -306.2891
   8   2.0000     -11.254220      -306.2429
   9   2.0000      -1.430492       -38.9257
  10   2.0000      -1.233046       -33.5529
  11   2.0000      -1.095292       -29.8044
  12   2.0000      -1.039926       -28.2978
  13   2.0000      -0.988876       -26.9087
  14   2.0000      -0.941529       -25.6203
  15   2.0000      -0.845315       -23.0022
  16   2.0000      -0.810438       -22.0532
  17   2.0000      -0.720547       -19.6071
  18   2.0000      -0.713010       -19.4020
  19   2.0000      -0.697972       -18.9928
  20   2.0000      -0.667713       -18.1694
  21   2.0000      -0.624462       -16.9925
  22   2.0000      -0.612342       -16.6627
  23   2.0000      -0.593116       -16.1395
  24   2.0000      -0.526985       -14.3400
  25   2.0000      -0.525599       -14.3023
  26   2.0000      -0.487665       -13.2700
  27   2.0000      -0.486396       -13.2355
  28   2.0000      -0.432474       -11.7682
  29   2.0000      -0.394395       -10.7320
  30   2.0000      -0.363301        -9.8859
  31   2.0000      -0.357059        -9.7161
  32   0.0000       0.105386         2.8677
  33   0.0000       0.110638         3.0106
  34   0.0000       0.138077         3.7573
  35   0.0000       0.146594         3.9890
  36   0.0000       0.151647         4.1265

MULLIKEN ATOMIC CHARGES
-----------------------
   0 C :   -0.242693
   1 O :   -0.227035
   2 C :    0.082029
   3 N :   -0.194789
   4 C :   -0.127767
   5 C :   -0.109858
   6 C :   -0.039465
   7 C :   -0.012085
   8 C :   -0.148657
   9 H :    0.151300
  10 H :    0.135815
  11 H :    0.135828
  12 H :    0.087705
  13 H :    0.156986
  14 H :    0.156992
  15 H :    0.195694
Sum of atomic charges:    0.0000000

LOEWDIN ATOMIC CHARGES
----------------------
   0 C :   -0.330858
   1 O :    0.219944
   2 C :   -0.357426
   3 N :    0.090509
   4 C :   -0.283406
   5 C :   -0.030556
   6 C :   -0.068515
   7 C :   -0.100096
   8 C :   -0.045242
   9 H :    0.119211
  10 H :    0.108843
  11 H :    0.108844
  12 H :    0.122095
  13 H :    0.157958
  14 H :    0.157959
  15 H :    0.130734

  Mayer bond orders larger than 0.1
B(  0-C ,  1-O ) :   0.8672 B(  0-C ,  9-H ) :   0.9382 B(  0-C , 10-H ) :   0.9358
B(  0-C , 11-H ) :   0.9358 B(  1-O ,  2-C ) :   1.0814 B(  2-C ,  3-N ) :   1.8517
B(  2-C , 12-H ) :   0.9225 B(  3-N ,  4-C ) :   0.9519 B(  4-C ,  5-C ) :   0.8769
B(  4-C , 13-H ) :   0.9307 B(  4-C , 14-H ) :   0.9307 B(  5-C ,  6-C ) :   2.5969
B(  5-C ,  8-C ) :   0.1213 B(  6-C ,  7-C ) :   1.3211 B(  7-C ,  8-C ) :   2.5576
B(  8-C , 15-H ) :   0.8849

MP2 TOTAL ENERGY:     -399.959220282 Eh
FINAL SINGLE POINT ENERGY      -399.959220281945

DIPOLE MOMENT
-------------
                                X             Y             Z
Electronic contribution:     -2.77982      -4.71767      -0.35171
Nuclear contribution   :      2.96498       4.94833      -0.68456
                        -----------------------------------------
Total Dipole Moment    :      0.18517       0.23066      -1.03628
                        -----------------------------------------
Magnitude (a.u.)       :      1.07766
Magnitude (Debye)      :      2.73921

                             ****ORCA TERMINATED NORMALLY****
TOTAL RUN TIME: 0 days 0 hours 12 minutes 21 seconds 74 msec
