                         Program Version 3.0.3 - RELEASE   -
|  1> ! RI-MP2 RIJK def2-TZVP def2-TZVP/C def2-TZVP/JK TIGHTSCF
|  2> % maxcore 2000
|  3> % mp2 density relaxed end
|  4> *xyz 0 1
|  5>  C        0.0438304265     1.5237579815    -0.3607417101
|  6>  C        0.0200266292     0.0660384117     0.1181575179
|  7>  C       -1.3754657685    -0.4779798346     0.2308710269
|  8>  C       -2.4115400292    -0.1084858691     1.3081512588
|  9>  C       -2.9507857522    -1.5869037046     1.2386422456
| 10>  C       -2.7648139400    -2.3840674602     2.5224537845
| 11>  O       -4.2638451913    -1.7408199643     0.7178946082
| 12>  C       -1.9036203266    -1.8847990694     0.1567352678
| 13>  N       -2.0470015842    -0.9700859238    -0.9693845946
| 14>  H        1.0696247065     1.8961870619    -0.4396227014
| 15>  H       -0.4270708187     1.6123731849    -1.3445991238
| 16>  H       -0.4961922560     2.1795428949     0.3310772819
| 17>  H        0.5802261130    -0.5624110747    -0.5825531344
| 18>  H        0.5193200163    -0.0134343294     1.0926383497
| 19>  H       -1.9717412409     0.1318309154     2.2806224794
| 20>  H       -3.1278812543     0.6730144398     1.0336027166
| 21>  H       -3.4190328580    -2.0046794762     3.3168802577
| 22>  H       -3.0102112435    -3.4366495474     2.3497947825
| 23>  H       -1.7331627586    -2.3223628100     2.8824044548
| 24>  H       -4.8881857104    -1.4291777295     1.3821340171
| 25>  H       -1.3970400384    -2.8323565588     0.0031686103
| 26>  H       -3.0094741906    -0.6484607485    -1.0584024053
| 27> *
| 28>
| 29>                          ****END OF INPUT****

CARTESIAN COORDINATES (ANGSTROEM)
---------------------------------
  C      0.043830    1.523758   -0.360742
  C      0.020027    0.066038    0.118158
  C     -1.375466   -0.477980    0.230871
  C     -2.411540   -0.108486    1.308151
  C     -2.950786   -1.586904    1.238642
  C     -2.764814   -2.384067    2.522454
  O     -4.263845   -1.740820    0.717895
  C     -1.903620   -1.884799    0.156735
  N     -2.047002   -0.970086   -0.969385
  H      1.069625    1.896187   -0.439623
  H     -0.427071    1.612373   -1.344599
  H     -0.496192    2.179543    0.331077
  H      0.580226   -0.562411   -0.582553
  H      0.519320   -0.013434    1.092638
  H     -1.971741    0.131831    2.280622
  H     -3.127881    0.673014    1.033603
  H     -3.419033   -2.004679    3.316880
  H     -3.010211   -3.436650    2.349795
  H     -1.733163   -2.322363    2.882404
  H     -4.888186   -1.429178    1.382134
  H     -1.397040   -2.832357    0.003169
  H     -3.009474   -0.648461   -1.058402

 Total Charge           Charge          ....    0
 Multiplicity           Mult            ....    1
 Number of Electrons    NEL             ....   70
 Basis Dimension        Dim             ....  357

ORBITAL ENERGIES
----------------

  NO   OCC          E(Eh)            E(eV)
   0   2.0000     -20.559177      -559.4437
   1   2.0000     -15.548242      -423.0892
   2   2.0000     -11.294077      -307.3275
   3   2.0000     -11.260883      -306.4242
   4   2.0000     -11.248293      -306.0816
   5   2.0000     -11.228525      -305.5437
   6   2.0000     -11.225111      -305.4508
   7   2.0000     -11.222074      -305.3682
   8   2.0000     -11.211823      -305.0892
   9   2.0000      -1.370578       -37.2953
  10   2.0000      -1.275614       -34.7112
  11   2.0000      -1.055851       -28.7312
  12   2.0000      -1.037810       -28.2402
  13   2.0000      -0.960283       -26.1306
  14   2.0000      -0.880849       -23.9691
  15   2.0000      -0.877505       -23.8781
  16   2.0000      -0.793282       -21.5863
  17   2.0000      -0.729022       -19.8377
  18   2.0000      -0.675381       -18.3780
  19   2.0000      -0.673579       -18.3290
  20   2.0000      -0.645564       -17.5667
  21   2.0000      -0.608231       -16.5508
  22   2.0000      -0.598437       -16.2843
  23   2.0000      -0.590013       -16.0551
  24   2.0000      -0.561374       -15.2758
  25   2.0000      -0.542842       -14.7715
  26   2.0000      -0.533856       -14.5270
  27   2.0000      -0.517513       -14.0823
  28   2.0000      -0.506817       -13.7912
  29   2.0000      -0.485472       -13.2104
  30   2.0000      -0.463734       -12.6188
  31   2.0000      -0.449450       -12.2302
  32   2.0000      -0.434555       -11.8248
  33   2.0000      -0.408614       -11.1190
  34   2.0000      -0.377987       -10.2855
  35   0.0000       0.123664         3.3651
  36   0.0000       0.143810         3.9133
  37   0.0000       0.156406         4.2560
  38   0.0000       0.183806         5.0016
  39   0.0000       0.185159         5.0384

MULLIKEN ATOMIC CHARGES
-----------------------
   0 C :   -0.416449
   1 C :   -0.193514
   2 C :    0.116024
   3 C :   -0.267992
   4 C :    0.268881
   5 C :   -0.471368
   6 O :   -0.461015
   7 C :   -0.141297
   8 N :   -0.363226
   9 H :    0.133678
  10 H :    0.140391
  11 H :    0.122852
  12 H :    0.122178
  13 H :    0.102195
  14 H :    0.115808
  15 H :    0.116034
  16 H :    0.125899
  17 H :    0.145520
  18 H :    0.135529
  19 H :    0.313159
  20 H :    0.128310
  21 H :    0.228403
Sum of atomic charges:   -0.0000000

LOEWDIN ATOMIC CHARGES
----------------------
   0 C :   -0.310994
   1 C :   -0.257909
   2 C :   -0.265865
   3 C :   -0.172605
   4 C :   -0.370921
   5 C :   -0.278391
   6 O :    0.001254
   7 C :   -0.187840
   8 N :    0.057208
   9 H :    0.120580
  10 H :    0.125641
  11 H :    0.119841
  12 H :    0.147457
  13 H :    0.139456
  14 H :    0.138041
  15 H :    0.129558
  16 H :    0.123695
  17 H :    0.130428
  18 H :    0.131803
  19 H :    0.175776
  20 H :    0.134643
  21 H :    0.169143

  Mayer bond orders larger than 0.1
B(  0-C ,  1-C ) :   0.9186 B(  0-C ,  9-H ) :   0.9395 B(  0-C , 10-H ) :   0.9392
B(  0-C , 11-H ) :   0.9373 B(  1-C ,  2-C ) :   0.9020 B(  1-C , 12-H ) :   0.9330
B(  1-C , 13-H ) :   0.9376 B(  2-C ,  3-C ) :   0.9693 B(  2-C ,  7-C ) :   0.8491
B(  2-C ,  8-N ) :   0.9007 B(  3-C ,  4-C ) :   0.9036 B(  3-C , 14-H ) :   0.9089
B(  3-C , 15-H ) :   0.8986 B(  4-C ,  5-C ) :   0.8967 B(  4-C ,  6-O ) :   1.0043
B(  4-C ,  7-C ) :   0.8488 B(  5-C , 16-H ) :   0.9279 B(  5-C , 17-H ) :   0.9419
B(  5-C , 18-H ) :   0.9327 B(  6-O , 19-H ) :   0.8410 B(  7-C ,  8-N ) :   0.9846
B(  7-C , 20-H ) :   0.9234 B(  8-N , 21-H ) :   0.8592

MP2 TOTAL ENERGY:     -403.633738421 Eh
FINAL SINGLE POINT ENERGY      -403.633738421360

DIPOLE MOMENT
-------------
                                X             Y             Z
Electronic contribution:     -4.48598      -3.56560      -2.55165
Nuclear contribution   :      4.38764       3.86274       3.65351
                        -----------------------------------------
Total Dipole Moment    :     -0.09834       0.29713       1.10187
                        -----------------------------------------
Magnitude (a.u.)       :      1.14545
Magnitude (Debye)      :      2.91151

                             ****ORCA TERMINATED NORMALLY****
TOTAL RUN TIME: 0 days 0 hours 18 minutes 43 seconds 293 msec
