                         Program Version 3.0.3 - RELEASE   -
|  1> ! RI-MP2 RIJK def2-TZVP def2-TZVP/C def2-TZVP/JK TIGHTSCF
|  2> % maxcore 2000
|  3> % mp2 density relaxed end
|  4> *xyz 0 1
|  5>  C        0.0135691683     1.5784344308     0.0370080724
|  6>  C       -0.0046037192     0.0466696822     0.0604166816
|  7>  C       -1.4042620470    -0.5638773059    -0.0484362383
|  8>  C       -2.1410732167    -0.3063654614    -1.3817600579
|  9>  C       -3.2825010356    -1.3363338632    -1.3683860720
| 10>  C       -2.6619291505    -2.5637934685    -0.7019003084
| 11>  C       -3.4231618467    -3.7783404895    -0.3943199385
| 12>  O       -2.5180636412    -3.7472354850    -1.5010554721
| 13>  C       -1.4216243271    -2.1051492045     0.0713516511
| 14>  H        1.0318919628     1.9626284862     0.1515564436
| 15>  H       -0.3838629691     1.9723699781    -0.9038973102
| 16>  H       -0.5912088321     1.9933832816     0.8514344876
| 17>  H        0.6156566185    -0.3426251556    -0.7587287703
| 18>  H        0.4650099017    -0.3046800164     0.9885351762
| 19>  H       -2.0249323471    -0.1486037016     0.7597291320
| 20>  H       -2.4952863753     0.7221622865    -1.4885098320
| 21>  H       -1.4608781754    -0.5095993514    -2.2196994188
| 22>  H       -4.1138149987    -0.9629103440    -0.7572162580
| 23>  H       -3.6788651224    -1.5838893612    -2.3560439945
| 24>  H       -3.1215144074    -4.4112502343     0.4404773438
| 25>  H       -4.4803856603    -3.8378231780    -0.6555436116
| 26>  H       -0.5396051771    -2.5353242079    -0.4181080465
| 27>  H       -1.4150269125    -2.4484512068     1.1099938108
| 28> *
| 29>
| 30>                          ****END OF INPUT****

CARTESIAN COORDINATES (ANGSTROEM)
---------------------------------
  C      0.013569    1.578434    0.037008
  C     -0.004604    0.046670    0.060417
  C     -1.404262   -0.563877   -0.048436
  C     -2.141073   -0.306365   -1.381760
  C     -3.282501   -1.336334   -1.368386
  C     -2.661929   -2.563793   -0.701900
  C     -3.423162   -3.778340   -0.394320
  O     -2.518064   -3.747235   -1.501055
  C     -1.421624   -2.105149    0.071352
  H      1.031892    1.962628    0.151556
  H     -0.383863    1.972370   -0.903897
  H     -0.591209    1.993383    0.851434
  H      0.615657   -0.342625   -0.758729
  H      0.465010   -0.304680    0.988535
  H     -2.024932   -0.148604    0.759729
  H     -2.495286    0.722162   -1.488510
  H     -1.460878   -0.509599   -2.219699
  H     -4.113815   -0.962910   -0.757216
  H     -3.678865   -1.583889   -2.356044
  H     -3.121514   -4.411250    0.440477
  H     -4.480386   -3.837823   -0.655544
  H     -0.539605   -2.535324   -0.418108
  H     -1.415027   -2.448451    1.109994

 Total Charge           Charge          ....    0
 Multiplicity           Mult            ....    1
 Number of Electrons    NEL             ....   70
 Basis Dimension        Dim             ....  363

ORBITAL ENERGIES
----------------

  NO   OCC          E(Eh)            E(eV)
   0   2.0000     -20.555903      -559.3546
   1   2.0000     -11.283268      -307.0333
   2   2.0000     -11.273782      -306.7752
   3   2.0000     -11.226995      -305.5021
   4   2.0000     -11.222399      -305.3770
   5   2.0000     -11.220614      -305.3284
   6   2.0000     -11.220424      -305.3233
   7   2.0000     -11.219759      -305.3052
   8   2.0000     -11.213942      -305.1469
   9   2.0000      -1.400558       -38.1111
  10   2.0000      -1.125416       -30.6241
  11   2.0000      -1.034684       -28.1552
  12   2.0000      -0.968998       -26.3678
  13   2.0000      -0.937682       -25.5156
  14   2.0000      -0.890390       -24.2287
  15   2.0000      -0.842367       -22.9220
  16   2.0000      -0.768635       -20.9156
  17   2.0000      -0.754354       -20.5270
  18   2.0000      -0.672934       -18.3115
  19   2.0000      -0.660755       -17.9800
  20   2.0000      -0.623040       -16.9538
  21   2.0000      -0.610108       -16.6019
  22   2.0000      -0.597402       -16.2561
  23   2.0000      -0.572734       -15.5849
  24   2.0000      -0.557473       -15.1696
  25   2.0000      -0.533600       -14.5200
  26   2.0000      -0.520331       -14.1589
  27   2.0000      -0.498426       -13.5629
  28   2.0000      -0.490295       -13.3416
  29   2.0000      -0.489883       -13.3304
  30   2.0000      -0.462696       -12.5906
  31   2.0000      -0.455112       -12.3842
  32   2.0000      -0.448033       -12.1916
  33   2.0000      -0.423328       -11.5193
  34   2.0000      -0.415573       -11.3083
  35   0.0000       0.132532         3.6064
  36   0.0000       0.150972         4.1082
  37   0.0000       0.159667         4.3447
  38   0.0000       0.164227         4.4688
  39   0.0000       0.180320         4.9068

MULLIKEN ATOMIC CHARGES
-----------------------
   0 C :   -0.401207
   1 C :   -0.204513
   2 C :   -0.056091
   3 C :   -0.276179
   4 C :   -0.203306
   5 C :    0.170088
   6 C :   -0.090224
   7 O :   -0.342605
   8 C :   -0.247439
   9 H :    0.135767
  10 H :    0.130171
  11 H :    0.121851
  12 H :    0.108355
  13 H :    0.112768
  14 H :    0.082395
  15 H :    0.129222
  16 H :    0.112922
  17 H :    0.112293
  18 H :    0.133893
  19 H :    0.110754
  20 H :    0.111664
  21 H :    0.123709
  22 H :    0.125710
Sum of atomic charges:   -0.0000000

LOEWDIN ATOMIC CHARGES
----------------------
   0 C :   -0.318070
   1 C :   -0.276946
   2 C :   -0.248145
   3 C :   -0.230462
   4 C :   -0.214996
   5 C :   -0.305263
   6 C :   -0.251447
   7 O :    0.152738
   8 C :   -0.189057
   9 H :    0.121130
  10 H :    0.120318
  11 H :    0.120681
  12 H :    0.137610
  13 H :    0.138266
  14 H :    0.152240
  15 H :    0.133228
  16 H :    0.142119
  17 H :    0.143581
  18 H :    0.143164
  19 H :    0.119406
  20 H :    0.119595
  21 H :    0.151377
  22 H :    0.138933

  Mayer bond orders larger than 0.1
B(  0-C ,  1-C ) :   0.9172 B(  0-C ,  9-H ) :   0.9422 B(  0-C , 10-H ) :   0.9407
B(  0-C , 11-H ) :   0.9379 B(  1-C ,  2-C ) :   0.9108 B(  1-C , 12-H ) :   0.9274
B(  1-C , 13-H ) :   0.9381 B(  2-C ,  3-C ) :   0.9187 B(  2-C ,  8-C ) :   0.9319
B(  2-C , 14-H ) :   0.9204 B(  3-C ,  4-C ) :   0.9589 B(  3-C , 15-H ) :   0.9327
B(  3-C , 16-H ) :   0.9185 B(  4-C ,  5-C ) :   0.9132 B(  4-C , 17-H ) :   0.9274
B(  4-C , 18-H ) :   0.9229 B(  5-C ,  6-C ) :   0.9746 B(  5-C ,  7-O ) :   0.8834
B(  5-C ,  8-C ) :   0.9060 B(  6-C ,  7-O ) :   0.9016 B(  6-C , 19-H ) :   0.9143
B(  6-C , 20-H ) :   0.9084 B(  8-C , 21-H ) :   0.9177 B(  8-C , 22-H ) :   0.9245

MP2 TOTAL ENERGY:     -387.616803702 Eh
FINAL SINGLE POINT ENERGY      -387.616803701611

DIPOLE MOMENT
-------------
                                X             Y             Z
Electronic contribution:     -3.81100      -8.29578      -2.20086
Nuclear contribution   :      3.59870       8.79700       2.76408
                        -----------------------------------------
Total Dipole Moment    :     -0.21230       0.50122       0.56322
                        -----------------------------------------
Magnitude (a.u.)       :      0.78327
Magnitude (Debye)      :      1.99092

                             ****ORCA TERMINATED NORMALLY****
TOTAL RUN TIME: 0 days 0 hours 19 minutes 40 seconds 944 msec
