                         Program Version 3.0.3 - RELEASE   -
|  1> ! RI-MP2 RIJK def2-TZVP def2-TZVP/C def2-TZVP/JK TIGHTSCF
|  2> % maxcore 2000
|  3> % mp2 density relaxed end
|  4> *xyz 0 1
|  5>  N       -0.0785332861    -1.1707114807    -0.1924953230
|  6>  C       -0.0455737839    -0.0199552447    -0.0831655759
|  7>  C       -0.0014429916     1.4312737501     0.0435991027
|  8>  C       -0.5948438242     1.9818221506     1.3900858927
|  9>  C        0.5866777120     2.8403374327     1.9545179639
| 10>  C        1.1736804573     3.4161376775     0.6449951572
| 11>  C        1.4654284940     2.0225595536     0.0459150324
| 12>  C        2.2012442870     1.3684774909     1.2048324662
| 13>  C        1.6824942440     1.8573790258     2.3355536640
| 14>  H       -0.5506698468     1.8509961862    -0.8052160609
| 15>  H       -1.4747271614     2.5992246726     1.1909534632
| 16>  H       -0.8892445303     1.1817860039     2.0703826690
| 17>  H        0.2835516529     3.5513453722     2.7230028457
| 18>  H        0.4563631751     4.0047368433     0.0626999426
| 19>  H        2.0839065061     3.9973281578     0.8059988566
| 20>  H        1.9470949276     1.9767978139    -0.9300682860
| 21>  H        2.9272411930     0.5735544279     1.0981543612
| 22>  H        1.9005621555     1.5432117765     3.3484228884
| 23> *
| 24>
| 25>                          ****END OF INPUT****

CARTESIAN COORDINATES (ANGSTROEM)
---------------------------------
  N     -0.078533   -1.170711   -0.192495
  C     -0.045574   -0.019955   -0.083166
  C     -0.001443    1.431274    0.043599
  C     -0.594844    1.981822    1.390086
  C      0.586678    2.840337    1.954518
  C      1.173680    3.416138    0.644995
  C      1.465428    2.022560    0.045915
  C      2.201244    1.368477    1.204832
  C      1.682494    1.857379    2.335554
  H     -0.550670    1.850996   -0.805216
  H     -1.474727    2.599225    1.190953
  H     -0.889245    1.181786    2.070383
  H      0.283552    3.551345    2.723003
  H      0.456363    4.004737    0.062700
  H      2.083907    3.997328    0.805999
  H      1.947095    1.976798   -0.930068
  H      2.927241    0.573554    1.098154
  H      1.900562    1.543212    3.348423

 Total Charge           Charge          ....    0
 Multiplicity           Mult            ....    1
 Number of Electrons    NEL             ....   64
 Basis Dimension        Dim             ....  333

ORBITAL ENERGIES
----------------

  NO   OCC          E(Eh)            E(eV)
   0   2.0000     -15.560266      -423.4164
   1   2.0000     -11.282136      -307.0025
   2   2.0000     -11.264643      -306.5265
   3   2.0000     -11.258988      -306.3726
   4   2.0000     -11.250475      -306.1410
   5   2.0000     -11.249434      -306.1127
   6   2.0000     -11.239787      -305.8502
   7   2.0000     -11.237266      -305.7816
   8   2.0000     -11.235100      -305.7226
   9   2.0000      -1.217515       -33.1303
  10   2.0000      -1.193228       -32.4694
  11   2.0000      -1.046666       -28.4812
  12   2.0000      -1.000875       -27.2352
  13   2.0000      -0.973373       -26.4868
  14   2.0000      -0.852244       -23.1907
  15   2.0000      -0.791312       -21.5327
  16   2.0000      -0.738642       -20.0995
  17   2.0000      -0.717203       -19.5161
  18   2.0000      -0.698136       -18.9973
  19   2.0000      -0.643538       -17.5116
  20   2.0000      -0.588617       -16.0171
  21   2.0000      -0.571209       -15.5434
  22   2.0000      -0.557211       -15.1625
  23   2.0000      -0.530817       -14.4443
  24   2.0000      -0.525880       -14.3099
  25   2.0000      -0.517011       -14.0686
  26   2.0000      -0.510785       -13.8992
  27   2.0000      -0.490878       -13.3575
  28   2.0000      -0.468128       -12.7384
  29   2.0000      -0.442710       -12.0468
  30   2.0000      -0.438253       -11.9255
  31   2.0000      -0.357927        -9.7397
  32   0.0000       0.121752         3.3130
  33   0.0000       0.130159         3.5418
  34   0.0000       0.157698         4.2912
  35   0.0000       0.159685         4.3453
  36   0.0000       0.169691         4.6175

MULLIKEN ATOMIC CHARGES
-----------------------
   0 N :   -0.051882
   1 C :   -0.227181
   2 C :   -0.003111
   3 C :   -0.256549
   4 C :   -0.014169
   5 C :   -0.248205
   6 C :    0.013406
   7 C :   -0.239582
   8 C :   -0.203355
   9 H :    0.139323
  10 H :    0.134455
  11 H :    0.142959
  12 H :    0.134185
  13 H :    0.121611
  14 H :    0.129687
  15 H :    0.144328
  16 H :    0.146076
  17 H :    0.138004
Sum of atomic charges:   -0.0000000

LOEWDIN ATOMIC CHARGES
----------------------
   0 N :    0.055833
   1 C :   -0.175405
   2 C :   -0.196120
   3 C :   -0.173484
   4 C :   -0.209080
   5 C :   -0.190213
   6 C :   -0.175830
   7 C :   -0.122247
   8 C :   -0.123065
   9 H :    0.173793
  10 H :    0.138971
  11 H :    0.144482
  12 H :    0.144637
  13 H :    0.137256
  14 H :    0.143114
  15 H :    0.148225
  16 H :    0.140949
  17 H :    0.138185

  Mayer bond orders larger than 0.1
B(  0-N ,  1-C ) :   2.8925 B(  1-C ,  2-C ) :   0.9469 B(  2-C ,  3-C ) :   0.9150
B(  2-C ,  6-C ) :   0.8596 B(  2-C ,  9-H ) :   0.9008 B(  3-C ,  4-C ) :   0.8866
B(  3-C , 10-H ) :   0.9222 B(  3-C , 11-H ) :   0.9287 B(  4-C ,  5-C ) :   0.9424
B(  4-C ,  8-C ) :   0.9277 B(  4-C , 12-H ) :   0.9220 B(  5-C ,  6-C ) :   0.9237
B(  5-C , 13-H ) :   0.9272 B(  5-C , 14-H ) :   0.9146 B(  6-C ,  7-C ) :   0.9419
B(  6-C , 15-H ) :   0.9136 B(  7-C ,  8-C ) :   1.7718 B(  7-C , 16-H ) :   0.9171
B(  8-C , 17-H ) :   0.9250

MP2 TOTAL ENERGY:     -364.181915112 Eh
FINAL SINGLE POINT ENERGY      -364.181915111854

DIPOLE MOMENT
-------------
                                X             Y             Z
Electronic contribution:     -0.28219      -5.28962      -1.76922
Nuclear contribution   :      0.36287       6.91177       2.06168
                        -----------------------------------------
Total Dipole Moment    :      0.08068       1.62215       0.29246
                        -----------------------------------------
Magnitude (a.u.)       :      1.65028
Magnitude (Debye)      :      4.19467

                             ****ORCA TERMINATED NORMALLY****
TOTAL RUN TIME: 0 days 0 hours 19 minutes 56 seconds 546 msec
