                         Program Version 3.0.3 - RELEASE   -
|  1> ! RI-MP2 RIJK def2-TZVP def2-TZVP/C def2-TZVP/JK TIGHTSCF
|  2> % maxcore 2000
|  3> % mp2 density relaxed end
|  4> *xyz 0 1
|  5>  O        0.0138535870    -0.0215534083    -0.2561648830
|  6>  C        0.0026228214     1.1758530842    -0.0952062312
|  7>  C       -1.2765759455     1.9893122355     0.0960456416
|  8>  O       -1.2599975276     3.1135574589    -0.7723842381
|  9>  C       -0.2796701255     4.0783596522    -0.4335456132
| 10>  C        1.1137798471     3.4884907936    -0.2399589617
| 11>  N        1.3716030192     2.9032607208     1.0745559379
| 12>  C        1.2495539419     2.0049027602    -0.1072059859
| 13>  H       -2.1334903008     1.3734798356    -0.1820429752
| 14>  H       -1.3718965299     2.2947106679     1.1500605174
| 15>  H       -0.2728478631     4.7909511597    -1.2631412984
| 16>  H       -0.5663765708     4.6134348108     0.4853215087
| 17>  H        1.9290907886     4.0127933520    -0.7328650274
| 18>  H        2.3533490307     2.9887980271     1.3250852080
| 19>  H        2.1375450872     1.5035371698    -0.4797623794
| 20> *
| 21>
| 22>                          ****END OF INPUT****

CARTESIAN COORDINATES (ANGSTROEM)
---------------------------------
  O      0.013854   -0.021553   -0.256165
  C      0.002623    1.175853   -0.095206
  C     -1.276576    1.989312    0.096046
  O     -1.259998    3.113557   -0.772384
  C     -0.279670    4.078360   -0.433546
  C      1.113780    3.488491   -0.239959
  N      1.371603    2.903261    1.074556
  C      1.249554    2.004903   -0.107206
  H     -2.133490    1.373480   -0.182043
  H     -1.371897    2.294711    1.150061
  H     -0.272848    4.790951   -1.263141
  H     -0.566377    4.613435    0.485322
  H      1.929091    4.012793   -0.732865
  H      2.353349    2.988798    1.325085
  H      2.137545    1.503537   -0.479762

 Total Charge           Charge          ....    0
 Multiplicity           Mult            ....    1
 Number of Electrons    NEL             ....   60
 Basis Dimension        Dim             ....  290

ORBITAL ENERGIES
----------------

  NO   OCC          E(Eh)            E(eV)
   0   2.0000     -20.574047      -559.8483
   1   2.0000     -20.554301      -559.3110
   2   2.0000     -15.588804      -424.1929
   3   2.0000     -11.335272      -308.4484
   4   2.0000     -11.294678      -307.3438
   5   2.0000     -11.290318      -307.2252
   6   2.0000     -11.289353      -307.1989
   7   2.0000     -11.284243      -307.0599
   8   2.0000      -1.405022       -38.2326
   9   2.0000      -1.386536       -37.7296
  10   2.0000      -1.289375       -35.0857
  11   2.0000      -1.026883       -27.9429
  12   2.0000      -0.978138       -26.6165
  13   2.0000      -0.912612       -24.8334
  14   2.0000      -0.841408       -22.8959
  15   2.0000      -0.747241       -20.3335
  16   2.0000      -0.735524       -20.0146
  17   2.0000      -0.688991       -18.7484
  18   2.0000      -0.661873       -18.0105
  19   2.0000      -0.655651       -17.8412
  20   2.0000      -0.625497       -17.0206
  21   2.0000      -0.594186       -16.1686
  22   2.0000      -0.562882       -15.3168
  23   2.0000      -0.545401       -14.8411
  24   2.0000      -0.515292       -14.0218
  25   2.0000      -0.505540       -13.7564
  26   2.0000      -0.487116       -13.2551
  27   2.0000      -0.460653       -12.5350
  28   2.0000      -0.418415       -11.3857
  29   2.0000      -0.399274       -10.8648
  30   0.0000       0.118910         3.2357
  31   0.0000       0.135267         3.6808
  32   0.0000       0.164031         4.4635
  33   0.0000       0.170737         4.6460
  34   0.0000       0.179510         4.8847

MULLIKEN ATOMIC CHARGES
-----------------------
   0 O :   -0.268281
   1 C :    0.110259
   2 C :   -0.024802
   3 O :   -0.311127
   4 C :   -0.038089
   5 C :   -0.061019
   6 N :   -0.391942
   7 C :   -0.027757
   8 H :    0.145119
   9 H :    0.119319
  10 H :    0.124792
  11 H :    0.106060
  12 H :    0.140000
  13 H :    0.227225
  14 H :    0.150242
Sum of atomic charges:    0.0000000

LOEWDIN ATOMIC CHARGES
----------------------
   0 O :    0.161446
   1 C :   -0.316102
   2 C :   -0.270919
   3 O :    0.160527
   4 C :   -0.296841
   5 C :   -0.253113
   6 N :    0.018113
   7 C :   -0.206256
   8 H :    0.140893
   9 H :    0.136543
  10 H :    0.135367
  11 H :    0.129191
  12 H :    0.141690
  13 H :    0.172788
  14 H :    0.146674

  Mayer bond orders larger than 0.1
B(  0-O ,  1-C ) :   2.0161 B(  1-C ,  2-C ) :   0.9200 B(  1-C ,  7-C ) :   0.9392
B(  2-C ,  3-O ) :   0.8850 B(  2-C ,  7-C ) :  -0.1082 B(  2-C ,  8-H ) :   0.9174
B(  2-C ,  9-H ) :   0.9046 B(  3-O ,  4-C ) :   0.9516 B(  4-C ,  5-C ) :   0.9130
B(  4-C , 10-H ) :   0.9322 B(  4-C , 11-H ) :   0.9303 B(  5-C ,  6-N ) :   0.9481
B(  5-C ,  7-C ) :   0.8369 B(  5-C , 12-H ) :   0.9133 B(  6-N ,  7-C ) :   0.8278
B(  6-N , 13-H ) :   0.8666 B(  7-C , 14-H ) :   0.9178

MP2 TOTAL ENERGY:     -399.132344446 Eh
FINAL SINGLE POINT ENERGY      -399.132344446433

DIPOLE MOMENT
-------------
                                X             Y             Z
Electronic contribution:     -0.42491      -3.72155      -0.78074
Nuclear contribution   :      1.28875       4.84565       0.88555
                        -----------------------------------------
Total Dipole Moment    :      0.86385       1.12411       0.10481
                        -----------------------------------------
Magnitude (a.u.)       :      1.42156
Magnitude (Debye)      :      3.61331

                             ****ORCA TERMINATED NORMALLY****
TOTAL RUN TIME: 0 days 0 hours 12 minutes 34 seconds 65 msec
