                         Program Version 3.0.3 - RELEASE   -
|  1> ! RI-MP2 RIJK def2-TZVP def2-TZVP/C def2-TZVP/JK TIGHTSCF
|  2> % maxcore 2000
|  3> % mp2 density relaxed end
|  4> *xyz 0 1
|  5>  C        0.0004955341     1.4628744249     0.0320752713
|  6>  N       -0.0997686043     0.0152076951     0.0935969299
|  7>  C        0.5934983974    -0.6751195558     1.0712013249
|  8>  N        1.1538346540    -0.0014981450     2.0391054037
|  9>  N        1.7512032559    -0.7340736552     3.0112652457
| 10>  C        1.8894044125    -2.1099132647     3.1121099268
| 11>  O        2.4756665257    -2.6307715637     4.0489080462
| 12>  C        1.2599656738    -2.8057987551     1.9913038366
| 13>  C        0.6331634207    -2.1154668874     1.0165186045
| 14>  H        1.0341948553     1.8158858778    -0.0897809317
| 15>  H       -0.6044980545     1.8197242354    -0.8040339640
| 16>  H       -0.3865030138     1.8964909286     0.9574841388
| 17>  H       -0.1267674722    -0.4509355211    -0.7998545516
| 18>  H        2.1653266401    -0.1868980221     3.7529281272
| 19>  H        1.3204236843    -3.8874526863     1.9963286419
| 20>  H        0.1483525008    -2.6247744755     0.1880918197
| 21> *
| 22>
| 23>                          ****END OF INPUT****

CARTESIAN COORDINATES (ANGSTROEM)
---------------------------------
  C      0.000496    1.462874    0.032075
  N     -0.099769    0.015208    0.093597
  C      0.593498   -0.675120    1.071201
  N      1.153835   -0.001498    2.039105
  N      1.751203   -0.734074    3.011265
  C      1.889404   -2.109913    3.112110
  O      2.475667   -2.630772    4.048908
  C      1.259966   -2.805799    1.991304
  C      0.633163   -2.115467    1.016519
  H      1.034195    1.815886   -0.089781
  H     -0.604498    1.819724   -0.804034
  H     -0.386503    1.896491    0.957484
  H     -0.126767   -0.450936   -0.799855
  H      2.165327   -0.186898    3.752928
  H      1.320424   -3.887453    1.996329
  H      0.148353   -2.624774    0.188092

 Total Charge           Charge          ....    0
 Multiplicity           Mult            ....    1
 Number of Electrons    NEL             ....   66
 Basis Dimension        Dim             ....  321

ORBITAL ENERGIES
----------------

  NO   OCC          E(Eh)            E(eV)
   0   2.0000     -20.510629      -558.1226
   1   2.0000     -15.627511      -425.2462
   2   2.0000     -15.605046      -424.6349
   3   2.0000     -15.586000      -424.1166
   4   2.0000     -11.354415      -308.9693
   5   2.0000     -11.327503      -308.2370
   6   2.0000     -11.281989      -306.9985
   7   2.0000     -11.271179      -306.7044
   8   2.0000     -11.262825      -306.4771
   9   2.0000      -1.390579       -37.8396
  10   2.0000      -1.338097       -36.4115
  11   2.0000      -1.253964       -34.1221
  12   2.0000      -1.114336       -30.3226
  13   2.0000      -1.097466       -29.8636
  14   2.0000      -0.960059       -26.1245
  15   2.0000      -0.897197       -24.4140
  16   2.0000      -0.859083       -23.3768
  17   2.0000      -0.773725       -21.0541
  18   2.0000      -0.722016       -19.6471
  19   2.0000      -0.674461       -18.3530
  20   2.0000      -0.670658       -18.2495
  21   2.0000      -0.641064       -17.4443
  22   2.0000      -0.629903       -17.1405
  23   2.0000      -0.607641       -16.5348
  24   2.0000      -0.592353       -16.1187
  25   2.0000      -0.582797       -15.8587
  26   2.0000      -0.550556       -14.9814
  27   2.0000      -0.517872       -14.0920
  28   2.0000      -0.486591       -13.2408
  29   2.0000      -0.460876       -12.5411
  30   2.0000      -0.416560       -11.3352
  31   2.0000      -0.405049       -11.0219
  32   2.0000      -0.317809        -8.6480
  33   0.0000       0.067889         1.8474
  34   0.0000       0.123053         3.3484
  35   0.0000       0.152412         4.1474
  36   0.0000       0.158119         4.3026
  37   0.0000       0.167462         4.5569

MULLIKEN ATOMIC CHARGES
-----------------------
   0 C :   -0.269541
   1 N :   -0.345295
   2 C :    0.257573
   3 N :   -0.193311
   4 N :   -0.145592
   5 C :    0.218447
   6 O :   -0.374880
   7 C :   -0.143301
   8 C :   -0.199015
   9 H :    0.131780
  10 H :    0.137607
  11 H :    0.148045
  12 H :    0.233718
  13 H :    0.256929
  14 H :    0.150662
  15 H :    0.136174
Sum of atomic charges:   -0.0000000

LOEWDIN ATOMIC CHARGES
----------------------
   0 C :   -0.324877
   1 N :    0.048950
   2 C :   -0.342574
   3 N :    0.064218
   4 N :    0.125821
   5 C :   -0.466196
   6 O :    0.056942
   7 C :   -0.092058
   8 C :   -0.111703
   9 H :    0.111110
  10 H :    0.117809
  11 H :    0.123544
  12 H :    0.183414
  13 H :    0.195345
  14 H :    0.157690
  15 H :    0.152565

  Mayer bond orders larger than 0.1
B(  0-C ,  1-N ) :   0.9008 B(  0-C ,  9-H ) :   0.9353 B(  0-C , 10-H ) :   0.9297
B(  0-C , 11-H ) :   0.9337 B(  1-N ,  2-C ) :   1.0741 B(  1-N , 12-H ) :   0.8752
B(  2-C ,  3-N ) :   1.6017 B(  2-C ,  8-C ) :   1.0648 B(  3-N ,  4-N ) :   0.9493
B(  4-N ,  5-C ) :   1.1199 B(  4-N , 13-H ) :   0.8643 B(  5-C ,  6-O ) :   1.9293
B(  5-C ,  7-C ) :   1.0275 B(  7-C ,  8-C ) :   1.5617 B(  7-C , 14-H ) :   0.9338
B(  8-C , 15-H ) :   0.9090

MP2 TOTAL ENERGY:     -433.372786991 Eh
FINAL SINGLE POINT ENERGY      -433.372786990904

DIPOLE MOMENT
-------------
                                X             Y             Z
Electronic contribution:      2.98735      -4.64986       5.38033
Nuclear contribution   :     -3.73836       5.23124      -7.09914
                        -----------------------------------------
Total Dipole Moment    :     -0.75101       0.58139      -1.71880
                        -----------------------------------------
Magnitude (a.u.)       :      1.96375
Magnitude (Debye)      :      4.99146

                             ****ORCA TERMINATED NORMALLY****
TOTAL RUN TIME: 0 days 0 hours 17 minutes 1 seconds 161 msec
