                         Program Version 3.0.3 - RELEASE   -
|  1> ! RI-MP2 RIJK def2-TZVP def2-TZVP/C def2-TZVP/JK TIGHTSCF
|  2> % maxcore 2000
|  3> % mp2 density relaxed end
|  4> *xyz 0 1
|  5>  C        0.0588965736     1.3713996653    -0.5092786937
|  6>  C        1.3624910765     1.6693002334     0.2811576481
|  7>  C        1.3648896985     0.2007914397     0.7736371083
|  8>  C       -0.1214279730     0.0912318897     0.3518501571
|  9>  C        2.4001660550    -0.7979623420     0.2094661067
| 10>  O        2.8456242832    -1.1573609644     1.5322530633
| 11>  C        1.9065052187    -0.2472420458     2.1405800396
| 12>  H       -0.7353268541     2.1199075802    -0.4720787198
| 13>  H        0.2608566831     1.1345302704    -1.5575059794
| 14>  H        2.2376549528     2.0076734411    -0.2806952305
| 15>  H        1.1908141458     2.3675393433     1.1069972964
| 16>  H       -0.7914407922     0.2595153420     1.2014303067
| 17>  H       -0.4292548581    -0.8284443819    -0.1536453369
| 18>  H        1.9842494025    -1.6588986355    -0.3317585304
| 19>  H        3.2082933390    -0.3570839479    -0.3902634368
| 20>  H        2.4098690792     0.5331380229     2.7279998671
| 21>  H        1.1861567097    -0.7684777107     2.7862155041
| 22> *
| 23>
| 24>                          ****END OF INPUT****

CARTESIAN COORDINATES (ANGSTROEM)
---------------------------------
  C      0.058897    1.371400   -0.509279
  C      1.362491    1.669300    0.281158
  C      1.364890    0.200791    0.773637
  C     -0.121428    0.091232    0.351850
  C      2.400166   -0.797962    0.209466
  O      2.845624   -1.157361    1.532253
  C      1.906505   -0.247242    2.140580
  H     -0.735327    2.119908   -0.472079
  H      0.260857    1.134530   -1.557506
  H      2.237655    2.007673   -0.280695
  H      1.190814    2.367539    1.106997
  H     -0.791441    0.259515    1.201430
  H     -0.429255   -0.828444   -0.153645
  H      1.984249   -1.658899   -0.331759
  H      3.208293   -0.357084   -0.390263
  H      2.409869    0.533138    2.728000
  H      1.186157   -0.768478    2.786216

 Total Charge           Charge          ....    0
 Multiplicity           Mult            ....    1
 Number of Electrons    NEL             ....   54
 Basis Dimension        Dim             ....  277

ORBITAL ENERGIES
----------------

  NO   OCC          E(Eh)            E(eV)
   0   2.0000     -20.542685      -558.9949
   1   2.0000     -11.273475      -306.7669
   2   2.0000     -11.272114      -306.7298
   3   2.0000     -11.237483      -305.7875
   4   2.0000     -11.226867      -305.4986
   5   2.0000     -11.226448      -305.4872
   6   2.0000     -11.226091      -305.4775
   7   2.0000      -1.372561       -37.3493
   8   2.0000      -1.133830       -30.8531
   9   2.0000      -0.961074       -26.1522
  10   2.0000      -0.930618       -25.3234
  11   2.0000      -0.906428       -24.6651
  12   2.0000      -0.815058       -22.1789
  13   2.0000      -0.723091       -19.6763
  14   2.0000      -0.670225       -18.2377
  15   2.0000      -0.664262       -18.0755
  16   2.0000      -0.651010       -17.7149
  17   2.0000      -0.582836       -15.8598
  18   2.0000      -0.570434       -15.5223
  19   2.0000      -0.552450       -15.0329
  20   2.0000      -0.533516       -14.5177
  21   2.0000      -0.502368       -13.6701
  22   2.0000      -0.493459       -13.4277
  23   2.0000      -0.447593       -12.1796
  24   2.0000      -0.435447       -11.8491
  25   2.0000      -0.418463       -11.3870
  26   2.0000      -0.404869       -11.0171
  27   0.0000       0.133595         3.6353
  28   0.0000       0.151982         4.1356
  29   0.0000       0.164142         4.4665
  30   0.0000       0.172672         4.6986
  31   0.0000       0.192425         5.2361

MULLIKEN ATOMIC CHARGES
-----------------------
   0 C :   -0.226013
   1 C :   -0.240330
   2 C :    0.031307
   3 C :   -0.240323
   4 C :   -0.040542
   5 O :   -0.330981
   6 C :   -0.012401
   7 H :    0.117720
   8 H :    0.116939
   9 H :    0.120042
  10 H :    0.111603
  11 H :    0.111606
  12 H :    0.120039
  13 H :    0.089525
  14 H :    0.089529
  15 H :    0.091142
  16 H :    0.091138
Sum of atomic charges:    0.0000000

LOEWDIN ATOMIC CHARGES
----------------------
   0 C :   -0.239472
   1 C :   -0.204824
   2 C :   -0.241212
   3 C :   -0.204827
   4 C :   -0.232183
   5 O :    0.109077
   6 C :   -0.239211
   7 H :    0.122658
   8 H :    0.133160
   9 H :    0.126695
  10 H :    0.136500
  11 H :    0.136500
  12 H :    0.126695
  13 H :    0.117096
  14 H :    0.117096
  15 H :    0.118126
  16 H :    0.118126

  Mayer bond orders larger than 0.1
B(  0-C ,  1-C ) :   0.9425 B(  0-C ,  3-C ) :   0.9425 B(  0-C ,  7-H ) :   0.9291
B(  0-C ,  8-H ) :   0.9268 B(  1-C ,  2-C ) :   0.8983 B(  1-C ,  9-H ) :   0.9263
B(  1-C , 10-H ) :   0.9205 B(  2-C ,  3-C ) :   0.8983 B(  2-C ,  4-C ) :   0.9683
B(  2-C ,  6-C ) :   0.9652 B(  3-C , 11-H ) :   0.9205 B(  3-C , 12-H ) :   0.9263
B(  4-C ,  5-O ) :   0.9706 B(  4-C , 13-H ) :   0.9044 B(  4-C , 14-H ) :   0.9044
B(  5-O ,  6-C ) :   0.9674 B(  6-C , 15-H ) :   0.9057 B(  6-C , 16-H ) :   0.9057

MP2 TOTAL ENERGY:     -309.142627753 Eh
FINAL SINGLE POINT ENERGY      -309.142627753412

DIPOLE MOMENT
-------------
                                X             Y             Z
Electronic contribution:      2.91148      -2.65368       1.86760
Nuclear contribution   :     -3.47773       3.17308      -2.15620
                        -----------------------------------------
Total Dipole Moment    :     -0.56625       0.51940      -0.28860
                        -----------------------------------------
Magnitude (a.u.)       :      0.82080
Magnitude (Debye)      :      2.08630

                             ****ORCA TERMINATED NORMALLY****
TOTAL RUN TIME: 0 days 0 hours 8 minutes 55 seconds 656 msec
