                         Program Version 3.0.3 - RELEASE   -
|  1> ! RI-MP2 RIJK def2-TZVP def2-TZVP/C def2-TZVP/JK TIGHTSCF
|  2> % maxcore 2000
|  3> % mp2 density relaxed end
|  4> *xyz 0 1
|  5>  C       -0.0506839113     1.5188848861    -0.0647995519
|  6>  C        0.0659646122     0.0164568186     0.0457368161
|  7>  C        1.3455757551    -0.7483904873    -0.1656414881
|  8>  O        2.5601156258    -0.0176649744    -0.0186527970
|  9>  C        2.5825644380     0.3761127160     1.2769192050
| 10>  N        1.6247755490     0.0327613409     2.0418082685
| 11>  C        0.7004907140    -0.7229182044     1.2158114782
| 12>  C        0.0139495230    -1.8584977761     1.9304528279
| 13>  O        0.9366829034    -2.7182936763     2.5704972144
| 14>  H        0.7957135452     2.0336003409     0.3942023149
| 15>  H       -0.0991428139     1.8246447246    -1.1149137715
| 16>  H       -0.9596832564     1.8703372055     0.4331830740
| 17>  H       -0.7881201174    -0.5254693021    -0.3565773548
| 18>  H        1.4441282476    -1.5893258332    -0.8401926973
| 19>  H        3.4451475524     0.9681426489     1.5585137220
| 20>  H       -0.7099709520    -1.4412555535     2.6489098656
| 21>  H       -0.5460661346    -2.4683703673     1.2141476370
| 22>  H        1.4988597701    -2.1516027166     3.1125973770
| 23> *
| 24>
| 25>                          ****END OF INPUT****

CARTESIAN COORDINATES (ANGSTROEM)
---------------------------------
  C     -0.050684    1.518885   -0.064800
  C      0.065965    0.016457    0.045737
  C      1.345576   -0.748390   -0.165641
  O      2.560116   -0.017665   -0.018653
  C      2.582564    0.376113    1.276919
  N      1.624776    0.032761    2.041808
  C      0.700491   -0.722918    1.215811
  C      0.013950   -1.858498    1.930453
  O      0.936683   -2.718294    2.570497
  H      0.795714    2.033600    0.394202
  H     -0.099143    1.824645   -1.114914
  H     -0.959683    1.870337    0.433183
  H     -0.788120   -0.525469   -0.356577
  H      1.444128   -1.589326   -0.840193
  H      3.445148    0.968143    1.558514
  H     -0.709971   -1.441256    2.648910
  H     -0.546066   -2.468370    1.214148
  H      1.498860   -2.151603    3.112597

 Total Charge           Charge          ....    0
 Multiplicity           Mult            ....    1
 Number of Electrons    NEL             ....   68
 Basis Dimension        Dim             ....  333

ORBITAL ENERGIES
----------------

  NO   OCC          E(Eh)            E(eV)
   0   2.0000     -20.612064      -560.8828
   1   2.0000     -20.551265      -559.2284
   2   2.0000     -15.561110      -423.4393
   3   2.0000     -11.344165      -308.6904
   4   2.0000     -11.298527      -307.4486
   5   2.0000     -11.280731      -306.9643
   6   2.0000     -11.274908      -306.8059
   7   2.0000     -11.251011      -306.1556
   8   2.0000     -11.227856      -305.5255
   9   2.0000      -1.459349       -39.7109
  10   2.0000      -1.359187       -36.9854
  11   2.0000      -1.234675       -33.5972
  12   2.0000      -1.138569       -30.9820
  13   2.0000      -0.991554       -26.9815
  14   2.0000      -0.943368       -25.6703
  15   2.0000      -0.874396       -23.7935
  16   2.0000      -0.819521       -22.3003
  17   2.0000      -0.749989       -20.4082
  18   2.0000      -0.736616       -20.0443
  19   2.0000      -0.682177       -18.5630
  20   2.0000      -0.666157       -18.1271
  21   2.0000      -0.632657       -17.2155
  22   2.0000      -0.612428       -16.6650
  23   2.0000      -0.609659       -16.5897
  24   2.0000      -0.579976       -15.7819
  25   2.0000      -0.573162       -15.5965
  26   2.0000      -0.563560       -15.3353
  27   2.0000      -0.525294       -14.2940
  28   2.0000      -0.511963       -13.9312
  29   2.0000      -0.482765       -13.1367
  30   2.0000      -0.468989       -12.7618
  31   2.0000      -0.454983       -12.3807
  32   2.0000      -0.396274       -10.7832
  33   2.0000      -0.371596       -10.1117
  34   0.0000       0.136700         3.7198
  35   0.0000       0.145984         3.9724
  36   0.0000       0.162394         4.4190
  37   0.0000       0.169503         4.6124
  38   0.0000       0.176283         4.7969

MULLIKEN ATOMIC CHARGES
-----------------------
   0 C :   -0.388204
   1 C :   -0.157871
   2 C :    0.039376
   3 O :   -0.257674
   4 C :    0.077550
   5 N :   -0.333563
   6 C :    0.107174
   7 C :    0.008100
   8 O :   -0.474453
   9 H :    0.140277
  10 H :    0.139898
  11 H :    0.140109
  12 H :    0.127443
  13 H :    0.150717
  14 H :    0.149512
  15 H :    0.108861
  16 H :    0.099041
  17 H :    0.323704
Sum of atomic charges:    0.0000000

LOEWDIN ATOMIC CHARGES
----------------------
   0 C :   -0.282977
   1 C :   -0.198562
   2 C :   -0.202954
   3 O :    0.264726
   4 C :   -0.335956
   5 N :    0.105933
   6 C :   -0.268581
   7 C :   -0.310342
   8 O :   -0.041142
   9 H :    0.131284
  10 H :    0.129890
  11 H :    0.130423
  12 H :    0.162856
  13 H :    0.141169
  14 H :    0.135077
  15 H :    0.126892
  16 H :    0.134064
  17 H :    0.178199

  Mayer bond orders larger than 0.1
B(  0-C ,  1-C ) :   0.8877 B(  0-C ,  9-H ) :   0.9293 B(  0-C , 10-H ) :   0.9370
B(  0-C , 11-H ) :   0.9374 B(  1-C ,  2-C ) :   0.8763 B(  1-C ,  6-C ) :   0.8301
B(  1-C , 12-H ) :   0.9244 B(  2-C ,  3-O ) :   0.8942 B(  2-C ,  6-C ) :   0.8512
B(  2-C , 13-H ) :   0.9200 B(  3-O ,  4-C ) :   1.0831 B(  4-C ,  5-N ) :   1.7690
B(  4-C , 14-H ) :   0.9269 B(  5-N ,  6-C ) :   0.9157 B(  6-C ,  7-C ) :   0.9286
B(  7-C ,  8-O ) :   0.9439 B(  7-C , 15-H ) :   0.9326 B(  7-C , 16-H ) :   0.9137
B(  8-O , 17-H ) :   0.8329

MP2 TOTAL ENERGY:     -438.360287759 Eh
FINAL SINGLE POINT ENERGY      -438.360287758673

DIPOLE MOMENT
-------------
                                X             Y             Z
Electronic contribution:      5.12592      -2.15867       1.29329
Nuclear contribution   :     -5.36430       2.69579      -1.83555
                        -----------------------------------------
Total Dipole Moment    :     -0.23839       0.53712      -0.54226
                        -----------------------------------------
Magnitude (a.u.)       :      0.79961
Magnitude (Debye)      :      2.03244

                             ****ORCA TERMINATED NORMALLY****
TOTAL RUN TIME: 0 days 0 hours 17 minutes 13 seconds 92 msec
