                         Program Version 3.0.3 - RELEASE   -
|  1> ! RI-MP2 RIJK def2-TZVP def2-TZVP/C def2-TZVP/JK TIGHTSCF
|  2> % maxcore 2000
|  3> % mp2 density relaxed end
|  4> *xyz 0 1
|  5>  C        0.0953164085     1.4942649792    -0.1321082373
|  6>  C        0.0508078000    -0.0162452154     0.1030756200
|  7>  O        0.6446563896    -0.3636973827     1.3564220344
|  8>  C       -1.3683465571    -0.5611450918     0.0330629360
|  9>  C       -2.0787615499    -0.7801646905    -1.3355674059
| 10>  N       -1.1196226468    -1.9279846192    -1.5777257633
| 11>  C       -1.5932282842    -2.0916090127    -0.1421986391
| 12>  C       -3.0354014004    -1.7906473417    -0.6148647554
| 13>  O       -3.9551948514    -1.3765349005     0.3596217051
| 14>  H        1.1199636155     1.8616863819    -0.0290611647
| 15>  H       -0.2667475410     1.7511624144    -1.1331068583
| 16>  H       -0.5327863585     2.0238364691     0.5962168709
| 17>  H        0.6638417029    -0.5230267847    -0.6452032047
| 18>  H        0.1383468473     0.0743402808     2.0500432964
| 19>  H       -2.0098459569    -0.1051974494     0.7923392191
| 20>  H       -2.3076870340    -0.0488222229    -2.1137731933
| 21>  H       -1.5711862799    -2.6355466778    -2.1685340235
| 22>  H       -1.2389699696    -2.9031956589     0.4933707750
| 23>  H       -3.4588608963    -2.5532582904    -1.2853684709
| 24>  H       -4.7563770680    -1.0808082966    -0.0841081004
| 25> *
| 26>
| 27>                          ****END OF INPUT****

CARTESIAN COORDINATES (ANGSTROEM)
---------------------------------
  C      0.095316    1.494265   -0.132108
  C      0.050808   -0.016245    0.103076
  O      0.644656   -0.363697    1.356422
  C     -1.368347   -0.561145    0.033063
  C     -2.078762   -0.780165   -1.335567
  N     -1.119623   -1.927985   -1.577726
  C     -1.593228   -2.091609   -0.142199
  C     -3.035401   -1.790647   -0.614865
  O     -3.955195   -1.376535    0.359622
  H      1.119964    1.861686   -0.029061
  H     -0.266748    1.751162   -1.133107
  H     -0.532786    2.023836    0.596217
  H      0.663842   -0.523027   -0.645203
  H      0.138347    0.074340    2.050043
  H     -2.009846   -0.105197    0.792339
  H     -2.307687   -0.048822   -2.113773
  H     -1.571186   -2.635547   -2.168534
  H     -1.238970   -2.903196    0.493371
  H     -3.458861   -2.553258   -1.285368
  H     -4.756377   -1.080808   -0.084108

 Total Charge           Charge          ....    0
 Multiplicity           Mult            ....    1
 Number of Electrons    NEL             ....   70
 Basis Dimension        Dim             ....  345

ORBITAL ENERGIES
----------------

  NO   OCC          E(Eh)            E(eV)
   0   2.0000     -20.571255      -559.7723
   1   2.0000     -20.544640      -559.0481
   2   2.0000     -15.556236      -423.3067
   3   2.0000     -11.297377      -307.4173
   4   2.0000     -11.276505      -306.8493
   5   2.0000     -11.272318      -306.7354
   6   2.0000     -11.267981      -306.6173
   7   2.0000     -11.233545      -305.6803
   8   2.0000     -11.213047      -305.1225
   9   2.0000      -1.383547       -37.6482
  10   2.0000      -1.349661       -36.7261
  11   2.0000      -1.280750       -34.8510
  12   2.0000      -1.035028       -28.1646
  13   2.0000      -0.988739       -26.9050
  14   2.0000      -0.915002       -24.8985
  15   2.0000      -0.876947       -23.8629
  16   2.0000      -0.823486       -22.4082
  17   2.0000      -0.754341       -20.5267
  18   2.0000      -0.708374       -19.2758
  19   2.0000      -0.693793       -18.8791
  20   2.0000      -0.668255       -18.1842
  21   2.0000      -0.631773       -17.1914
  22   2.0000      -0.608634       -16.5618
  23   2.0000      -0.598828       -16.2949
  24   2.0000      -0.576289       -15.6816
  25   2.0000      -0.548877       -14.9357
  26   2.0000      -0.520544       -14.1647
  27   2.0000      -0.512801       -13.9540
  28   2.0000      -0.495361       -13.4795
  29   2.0000      -0.479771       -13.0552
  30   2.0000      -0.465388       -12.6639
  31   2.0000      -0.445452       -12.1214
  32   2.0000      -0.437457       -11.9038
  33   2.0000      -0.430356       -11.7106
  34   2.0000      -0.387958       -10.5569
  35   0.0000       0.129339         3.5195
  36   0.0000       0.140881         3.8336
  37   0.0000       0.149331         4.0635
  38   0.0000       0.163410         4.4466
  39   0.0000       0.190546         5.1850

MULLIKEN ATOMIC CHARGES
-----------------------
   0 C :   -0.398340
   1 C :    0.084302
   2 O :   -0.470697
   3 C :   -0.104281
   4 C :   -0.102428
   5 N :   -0.341161
   6 C :   -0.049285
   7 C :    0.000237
   8 O :   -0.458918
   9 H :    0.146737
  10 H :    0.125924
  11 H :    0.110047
  12 H :    0.128459
  13 H :    0.306805
  14 H :    0.123748
  15 H :    0.143149
  16 H :    0.190523
  17 H :    0.141516
  18 H :    0.099081
  19 H :    0.324583
Sum of atomic charges:    0.0000000

LOEWDIN ATOMIC CHARGES
----------------------
   0 C :   -0.301987
   1 C :   -0.353357
   2 O :   -0.025144
   3 C :   -0.184240
   4 C :   -0.200247
   5 N :    0.013079
   6 C :   -0.179821
   7 C :   -0.314261
   8 O :   -0.009466
   9 H :    0.126509
  10 H :    0.125828
  11 H :    0.119599
  12 H :    0.153043
  13 H :    0.171219
  14 H :    0.151377
  15 H :    0.120745
  16 H :    0.154969
  17 H :    0.127930
  18 H :    0.125160
  19 H :    0.179065

  Mayer bond orders larger than 0.1
B(  0-C ,  1-C ) :   0.9301 B(  0-C ,  9-H ) :   0.9426 B(  0-C , 10-H ) :   0.9365
B(  0-C , 11-H ) :   0.9208 B(  1-C ,  2-O ) :   0.8913 B(  1-C ,  3-C ) :   0.9222
B(  1-C , 12-H ) :   0.9179 B(  2-O , 13-H ) :   0.8456 B(  3-C ,  4-C ) :   0.9046
B(  3-C ,  6-C ) :   0.9063 B(  3-C , 14-H ) :   0.8641 B(  4-C ,  5-N ) :   0.9608
B(  4-C ,  7-C ) :   0.8782 B(  4-C ,  8-O ) :  -0.1313 B(  4-C , 15-H ) :   0.8783
B(  5-N ,  6-C ) :   0.9520 B(  5-N , 16-H ) :   0.8814 B(  6-C ,  7-C ) :   0.9247
B(  6-C ,  8-O ) :  -0.1320 B(  6-C , 17-H ) :   0.8888 B(  7-C ,  8-O ) :   1.1691
B(  7-C , 18-H ) :   0.9906 B(  8-O , 19-H ) :   0.8390

MP2 TOTAL ENERGY:     -439.498383146 Eh
FINAL SINGLE POINT ENERGY      -439.498383146119

DIPOLE MOMENT
-------------
                                X             Y             Z
Electronic contribution:     -2.16179      -4.09752       0.92509
Nuclear contribution   :      0.89246       4.41921      -1.42554
                        -----------------------------------------
Total Dipole Moment    :     -1.26934       0.32169      -0.50046
                        -----------------------------------------
Magnitude (a.u.)       :      1.40184
Magnitude (Debye)      :      3.56319

                             ****ORCA TERMINATED NORMALLY****
TOTAL RUN TIME: 0 days 0 hours 18 minutes 15 seconds 490 msec
