                         Program Version 3.0.3 - RELEASE   -
|  1> ! RI-MP2 RIJK def2-TZVP def2-TZVP/C def2-TZVP/JK TIGHTSCF
|  2> % maxcore 2000
|  3> % mp2 density relaxed end
|  4> *xyz 0 1
|  5>  O        0.0372622680     0.0187658152    -0.1780209576
|  6>  C        0.0047148670     1.2120154058    -0.0848824268
|  7>  C       -1.2578802462     2.0739969865     0.0932857716
|  8>  C       -0.7879679172     3.5341226003    -0.0074112288
|  9>  C        0.7364075666     3.4412635135     0.0430718351
| 10>  C        1.3815855113     2.7435779551     1.1732050685
| 11>  N        1.1804865952     2.0418152890    -0.1273959745
| 12>  H       -1.9985093666     1.7974989476    -0.6600056990
| 13>  H       -1.6969089978     1.8248339375     1.0645904485
| 14>  H       -1.0877075554     3.9742985091    -0.9624982008
| 15>  H       -1.1900207113     4.1734144344     0.7835859848
| 16>  H        1.3116232555     4.1728609475    -0.5158061953
| 17>  H        2.4220617634     2.9291111958     1.4189688410
| 18>  H        0.7661102674     2.4323606026     2.0144575732
| 19> *
| 20>
| 21>                          ****END OF INPUT****

CARTESIAN COORDINATES (ANGSTROEM)
---------------------------------
  O      0.037262    0.018766   -0.178021
  C      0.004715    1.212015   -0.084882
  C     -1.257880    2.073997    0.093286
  C     -0.787968    3.534123   -0.007411
  C      0.736408    3.441264    0.043072
  C      1.381586    2.743578    1.173205
  N      1.180487    2.041815   -0.127396
  H     -1.998509    1.797499   -0.660006
  H     -1.696909    1.824834    1.064590
  H     -1.087708    3.974299   -0.962498
  H     -1.190021    4.173414    0.783586
  H      1.311623    4.172861   -0.515806
  H      2.422062    2.929111    1.418969
  H      0.766110    2.432361    2.014458

 Total Charge           Charge          ....    0
 Multiplicity           Mult            ....    1
 Number of Electrons    NEL             ....   52
 Basis Dimension        Dim             ....  259

ORBITAL ENERGIES
----------------

  NO   OCC          E(Eh)            E(eV)
   0   2.0000     -20.542151      -558.9804
   1   2.0000     -15.579945      -423.9519
   2   2.0000     -11.353822      -308.9532
   3   2.0000     -11.282845      -307.0218
   4   2.0000     -11.281076      -306.9737
   5   2.0000     -11.251621      -306.1722
   6   2.0000     -11.249919      -306.1259
   7   2.0000      -1.401710       -38.1425
   8   2.0000      -1.297512       -35.3071
   9   2.0000      -1.068819       -29.0841
  10   2.0000      -0.981964       -26.7206
  11   2.0000      -0.899709       -24.4823
  12   2.0000      -0.814667       -22.1682
  13   2.0000      -0.750294       -20.4165
  14   2.0000      -0.701315       -19.0837
  15   2.0000      -0.656270       -17.8580
  16   2.0000      -0.644978       -17.5507
  17   2.0000      -0.604880       -16.4596
  18   2.0000      -0.585392       -15.9293
  19   2.0000      -0.565559       -15.3896
  20   2.0000      -0.537398       -14.6233
  21   2.0000      -0.511488       -13.9183
  22   2.0000      -0.497986       -13.5509
  23   2.0000      -0.465180       -12.6582
  24   2.0000      -0.419525       -11.4159
  25   2.0000      -0.401051       -10.9132
  26   0.0000       0.127775         3.4769
  27   0.0000       0.140726         3.8294
  28   0.0000       0.153112         4.1664
  29   0.0000       0.166373         4.5272
  30   0.0000       0.177890         4.8406

MULLIKEN ATOMIC CHARGES
-----------------------
   0 O :   -0.252337
   1 C :    0.182013
   2 C :   -0.266509
   3 C :   -0.226338
   4 C :   -0.044006
   5 C :   -0.178623
   6 N :   -0.186533
   7 H :    0.149240
   8 H :    0.147616
   9 H :    0.132125
  10 H :    0.129942
  11 H :    0.136818
  12 H :    0.143834
  13 H :    0.132759
Sum of atomic charges:   -0.0000000

LOEWDIN ATOMIC CHARGES
----------------------
   0 O :    0.160340
   1 C :   -0.388466
   2 C :   -0.227696
   3 C :   -0.239294
   4 C :   -0.239067
   5 C :   -0.211557
   6 N :    0.147575
   7 H :    0.152427
   8 H :    0.153100
   9 H :    0.143886
  10 H :    0.140580
  11 H :    0.143120
  12 H :    0.132243
  13 H :    0.132810

  Mayer bond orders larger than 0.1
B(  0-O ,  1-C ) :   2.0745 B(  1-C ,  2-C ) :   0.9046 B(  1-C ,  6-N ) :   0.9934
B(  2-C ,  3-C ) :   0.9342 B(  2-C ,  7-H ) :   0.9115 B(  2-C ,  8-H ) :   0.9129
B(  3-C ,  4-C ) :   0.9223 B(  3-C ,  9-H ) :   0.9253 B(  3-C , 10-H ) :   0.9246
B(  4-C ,  5-C ) :   0.9516 B(  4-C ,  6-N ) :   0.8591 B(  4-C , 11-H ) :   0.9140
B(  5-C ,  6-N ) :   0.8502 B(  5-C , 12-H ) :   0.9243 B(  5-C , 13-H ) :   0.9101

MP2 TOTAL ENERGY:     -324.032926093 Eh
FINAL SINGLE POINT ENERGY      -324.032926092776

DIPOLE MOMENT
-------------
                                X             Y             Z
Electronic contribution:      1.98415      -4.50256      -1.54403
Nuclear contribution   :     -2.49912       5.98645       2.05321
                        -----------------------------------------
Total Dipole Moment    :     -0.51497       1.48389       0.50919
                        -----------------------------------------
Magnitude (a.u.)       :      1.65118
Magnitude (Debye)      :      4.19697

                             ****ORCA TERMINATED NORMALLY****
TOTAL RUN TIME: 0 days 0 hours 8 minutes 27 seconds 837 msec
