                         Program Version 3.0.3 - RELEASE   -
|  1> ! RI-MP2 RIJK def2-TZVP def2-TZVP/C def2-TZVP/JK TIGHTSCF
|  2> % maxcore 2000
|  3> % mp2 density relaxed end
|  4> *xyz 0 1
|  5>  C        0.0756529300     1.4445344415     0.0453636197
|  6>  C        0.0656379406    -0.0671317498     0.1033440045
|  7>  C       -1.1146856022    -0.7308084853    -0.5711229176
|  8>  O        1.3144198476    -0.7011727680    -0.0708159531
|  9>  C        0.7924305165    -0.7890259378     1.2478866236
| 10>  C        1.4783349803     0.0124332367     2.3158225828
| 11>  O        2.2947262864     0.8752692972     2.1204243872
| 12>  C        0.3049249659    -2.1319470065     1.7084818417
| 13>  O        0.1263104741    -3.0872620443     0.9981001010
| 14>  H        0.9688846840     1.8599689606     0.5087096677
| 15>  H        0.0558225237     1.7507795241    -1.0061545163
| 16>  H       -0.8173279050     1.8551402334     0.5268583123
| 17>  H       -1.1309224040    -0.4226345836    -1.6221461042
| 18>  H       -1.0441006069    -1.8164286378    -0.5313033930
| 19>  H       -2.0541240071    -0.4030074993    -0.1152286018
| 20>  H        1.1627324027    -0.2580011803     3.3480986596
| 21>  H        0.1089676334    -2.1838501408     2.8026650159
| 22> *
| 23>
| 24>                          ****END OF INPUT****

CARTESIAN COORDINATES (ANGSTROEM)
---------------------------------
  C      0.075653    1.444534    0.045364
  C      0.065638   -0.067132    0.103344
  C     -1.114686   -0.730808   -0.571123
  O      1.314420   -0.701173   -0.070816
  C      0.792431   -0.789026    1.247887
  C      1.478335    0.012433    2.315823
  O      2.294726    0.875269    2.120424
  C      0.304925   -2.131947    1.708482
  O      0.126310   -3.087262    0.998100
  H      0.968885    1.859969    0.508710
  H      0.055823    1.750780   -1.006155
  H     -0.817328    1.855140    0.526858
  H     -1.130922   -0.422635   -1.622146
  H     -1.044101   -1.816429   -0.531303
  H     -2.054124   -0.403007   -0.115229
  H      1.162732   -0.258001    3.348099
  H      0.108968   -2.183850    2.802665

 Total Charge           Charge          ....    0
 Multiplicity           Mult            ....    1
 Number of Electrons    NEL             ....   68
 Basis Dimension        Dim             ....  327

ORBITAL ENERGIES
----------------

  NO   OCC          E(Eh)            E(eV)
   0   2.0000     -20.602476      -560.6219
   1   2.0000     -20.579816      -560.0053
   2   2.0000     -20.579814      -560.0052
   3   2.0000     -11.358404      -309.0779
   4   2.0000     -11.358398      -309.0777
   5   2.0000     -11.340764      -308.5979
   6   2.0000     -11.324005      -308.1419
   7   2.0000     -11.236757      -305.7677
   8   2.0000     -11.236739      -305.7672
   9   2.0000      -1.461144       -39.7597
  10   2.0000      -1.417503       -38.5722
  11   2.0000      -1.411762       -38.4160
  12   2.0000      -1.064653       -28.9707
  13   2.0000      -1.040485       -28.3130
  14   2.0000      -0.969103       -26.3706
  15   2.0000      -0.861080       -23.4312
  16   2.0000      -0.831900       -22.6371
  17   2.0000      -0.781967       -21.2784
  18   2.0000      -0.736602       -20.0440
  19   2.0000      -0.683835       -18.6081
  20   2.0000      -0.669849       -18.2275
  21   2.0000      -0.652306       -17.7501
  22   2.0000      -0.639854       -17.4113
  23   2.0000      -0.613265       -16.6878
  24   2.0000      -0.604522       -16.4499
  25   2.0000      -0.569603       -15.4997
  26   2.0000      -0.555008       -15.1025
  27   2.0000      -0.553694       -15.0668
  28   2.0000      -0.544329       -14.8119
  29   2.0000      -0.527373       -14.3505
  30   2.0000      -0.479604       -13.0507
  31   2.0000      -0.476123       -12.9560
  32   2.0000      -0.429793       -11.6953
  33   2.0000      -0.428636       -11.6638
  34   0.0000       0.066848         1.8190
  35   0.0000       0.130141         3.5413
  36   0.0000       0.130541         3.5522
  37   0.0000       0.143537         3.9058
  38   0.0000       0.180061         4.8997

MULLIKEN ATOMIC CHARGES
-----------------------
   0 C :   -0.402146
   1 C :    0.184196
   2 C :   -0.402111
   3 O :   -0.297519
   4 C :    0.200126
   5 C :    0.061446
   6 O :   -0.253208
   7 C :    0.061452
   8 O :   -0.253231
   9 H :    0.181510
  10 H :    0.144166
  11 H :    0.134634
  12 H :    0.144197
  13 H :    0.181481
  14 H :    0.134593
  15 H :    0.090200
  16 H :    0.090214
Sum of atomic charges:    0.0000000

LOEWDIN ATOMIC CHARGES
----------------------
   0 C :   -0.259802
   1 C :   -0.298600
   2 C :   -0.259793
   3 O :    0.266374
   4 C :   -0.289678
   5 C :   -0.266031
   6 O :    0.155398
   7 C :   -0.266042
   8 O :    0.155385
   9 H :    0.139766
  10 H :    0.138079
  11 H :    0.133807
  12 H :    0.138100
  13 H :    0.139748
  14 H :    0.133801
  15 H :    0.119745
  16 H :    0.119744

  Mayer bond orders larger than 0.1
B(  0-C ,  1-C ) :   0.9060 B(  0-C ,  9-H ) :   0.9254 B(  0-C , 10-H ) :   0.9249
B(  0-C , 11-H ) :   0.9261 B(  1-C ,  2-C ) :   0.9061 B(  1-C ,  3-O ) :   0.8799
B(  1-C ,  4-C ) :   0.8558 B(  2-C , 12-H ) :   0.9249 B(  2-C , 13-H ) :   0.9254
B(  2-C , 14-H ) :   0.9261 B(  3-O ,  4-C ) :   0.8923 B(  4-C ,  5-C ) :   0.8291
B(  4-C ,  7-C ) :   0.8291 B(  5-C ,  6-O ) :   1.9826 B(  5-C , 15-H ) :   0.9535
B(  7-C ,  8-O ) :   1.9825 B(  7-C , 16-H ) :   0.9535

MP2 TOTAL ENERGY:     -458.216249054 Eh
FINAL SINGLE POINT ENERGY      -458.216249054285

DIPOLE MOMENT
-------------
                                X             Y             Z
Electronic contribution:      5.87372      -4.14288       3.27789
Nuclear contribution   :     -7.01699       4.63977      -2.82311
                        -----------------------------------------
Total Dipole Moment    :     -1.14327       0.49689       0.45478
                        -----------------------------------------
Magnitude (a.u.)       :      1.32695
Magnitude (Debye)      :      3.37284

                             ****ORCA TERMINATED NORMALLY****
TOTAL RUN TIME: 0 days 0 hours 18 minutes 33 seconds 949 msec
