                         Program Version 3.0.3 - RELEASE   -
|  1> ! RI-MP2 RIJK def2-TZVP def2-TZVP/C def2-TZVP/JK TIGHTSCF
|  2> % maxcore 2000
|  3> % mp2 density relaxed end
|  4> *xyz 0 1
|  5>  C       -0.0774984652     1.5689002499     0.0504158099
|  6>  C        0.0263089991     0.0543417063    -0.0046442282
|  7>  O       -1.2719050255    -0.4617128865    -0.2159288708
|  8>  C        1.0649070194    -0.5644246660    -0.9714425299
|  9>  C        2.3873212961    -0.0939049555    -0.3694124910
| 10>  O        2.1137016252    -0.0813573707     1.0518586273
| 11>  C        0.7855491525    -0.5973083572     1.1903072929
| 12>  C        0.8029770772    -2.0658543145     0.7538893900
| 13>  O        0.9131031165    -1.9701428895    -0.6950834046
| 14>  H        0.8429332467     2.0237077880     0.4194561232
| 15>  H       -0.3115631982     1.9761377896    -0.9379561933
| 16>  H       -0.8942387321     1.8446289153     0.7236571236
| 17>  H       -1.1640051253    -1.3254179797    -0.6340264050
| 18>  H        0.9278454266    -0.3996163014    -2.0399723570
| 19>  H        3.1995067611    -0.7944110054    -0.5931221848
| 20>  H        2.6786367284     0.9102107195    -0.6995248799
| 21>  H        0.4217070716    -0.3956036113     2.1968530586
| 22>  H        1.6694551994    -2.5946653850     1.1621005368
| 23>  H       -0.1125582533    -2.6081264260     1.0127898922
| 24> *
| 25>
| 26>                          ****END OF INPUT****

CARTESIAN COORDINATES (ANGSTROEM)
---------------------------------
  C     -0.077498    1.568900    0.050416
  C      0.026309    0.054342   -0.004644
  O     -1.271905   -0.461713   -0.215929
  C      1.064907   -0.564425   -0.971443
  C      2.387321   -0.093905   -0.369412
  O      2.113702   -0.081357    1.051859
  C      0.785549   -0.597308    1.190307
  C      0.802977   -2.065854    0.753889
  O      0.913103   -1.970143   -0.695083
  H      0.842933    2.023708    0.419456
  H     -0.311563    1.976138   -0.937956
  H     -0.894239    1.844629    0.723657
  H     -1.164005   -1.325418   -0.634026
  H      0.927845   -0.399616   -2.039972
  H      3.199507   -0.794411   -0.593122
  H      2.678637    0.910211   -0.699525
  H      0.421707   -0.395604    2.196853
  H      1.669455   -2.594665    1.162101
  H     -0.112558   -2.608126    1.012790

 Total Charge           Charge          ....    0
 Multiplicity           Mult            ....    1
 Number of Electrons    NEL             ....   70
 Basis Dimension        Dim             ....  339

ORBITAL ENERGIES
----------------

  NO   OCC          E(Eh)            E(eV)
   0   2.0000     -20.568737      -559.7038
   1   2.0000     -20.562808      -559.5425
   2   2.0000     -20.561074      -559.4953
   3   2.0000     -11.294496      -307.3389
   4   2.0000     -11.292144      -307.2749
   5   2.0000     -11.287751      -307.1553
   6   2.0000     -11.284047      -307.0545
   7   2.0000     -11.282855      -307.0221
   8   2.0000     -11.220238      -305.3182
   9   2.0000      -1.422094       -38.6971
  10   2.0000      -1.369245       -37.2591
  11   2.0000      -1.351782       -36.7839
  12   2.0000      -1.058309       -28.7980
  13   2.0000      -1.036026       -28.1917
  14   2.0000      -0.957546       -26.0561
  15   2.0000      -0.908374       -24.7181
  16   2.0000      -0.791544       -21.5390
  17   2.0000      -0.780675       -21.2433
  18   2.0000      -0.737618       -20.0716
  19   2.0000      -0.713433       -19.4135
  20   2.0000      -0.681474       -18.5439
  21   2.0000      -0.626877       -17.0582
  22   2.0000      -0.603888       -16.4326
  23   2.0000      -0.590574       -16.0703
  24   2.0000      -0.578690       -15.7470
  25   2.0000      -0.563055       -15.3215
  26   2.0000      -0.556468       -15.1423
  27   2.0000      -0.551642       -15.0109
  28   2.0000      -0.545988       -14.8571
  29   2.0000      -0.524962       -14.2849
  30   2.0000      -0.498353       -13.5609
  31   2.0000      -0.489495       -13.3198
  32   2.0000      -0.471703       -12.8357
  33   2.0000      -0.420873       -11.4525
  34   2.0000      -0.394045       -10.7225
  35   0.0000       0.136316         3.7093
  36   0.0000       0.163809         4.4575
  37   0.0000       0.173248         4.7143
  38   0.0000       0.177782         4.8377
  39   0.0000       0.184247         5.0136

MULLIKEN ATOMIC CHARGES
-----------------------
   0 C :   -0.444024
   1 C :    0.127928
   2 O :   -0.461279
   3 C :    0.066308
   4 C :   -0.094601
   5 O :   -0.334451
   6 C :    0.098516
   7 C :   -0.131255
   8 O :   -0.350162
   9 H :    0.159132
  10 H :    0.134583
  11 H :    0.144701
  12 H :    0.332792
  13 H :    0.138126
  14 H :    0.116684
  15 H :    0.117832
  16 H :    0.132950
  17 H :    0.120996
  18 H :    0.125224
Sum of atomic charges:   -0.0000000

LOEWDIN ATOMIC CHARGES
----------------------
   0 C :   -0.261551
   1 C :   -0.366763
   2 O :    0.024834
   3 C :   -0.280795
   4 C :   -0.260342
   5 O :    0.156794
   6 C :   -0.273705
   7 C :   -0.262318
   8 O :    0.138756
   9 H :    0.134469
  10 H :    0.129975
  11 H :    0.135090
  12 H :    0.182400
  13 H :    0.146186
  14 H :    0.129302
  15 H :    0.126339
  16 H :    0.146100
  17 H :    0.129967
  18 H :    0.125261

  Mayer bond orders larger than 0.1
B(  0-C ,  1-C ) :   0.8817 B(  0-C ,  9-H ) :   0.9388 B(  0-C , 10-H ) :   0.9351
B(  0-C , 11-H ) :   0.9349 B(  1-C ,  2-O ) :   0.9862 B(  1-C ,  3-C ) :   0.9292
B(  1-C ,  6-C ) :   0.8770 B(  2-O , 12-H ) :   0.8178 B(  3-C ,  4-C ) :   0.9592
B(  3-C ,  8-O ) :   0.8920 B(  3-C , 13-H ) :   0.9107 B(  4-C ,  5-O ) :   0.9155
B(  4-C , 14-H ) :   0.9105 B(  4-C , 15-H ) :   0.9292 B(  5-O ,  6-C ) :   0.9185
B(  6-C ,  7-C ) :   0.9265 B(  6-C , 16-H ) :   0.9042 B(  7-C ,  8-O ) :   0.8968
B(  7-C , 17-H ) :   0.9158 B(  7-C , 18-H ) :   0.9333

MP2 TOTAL ENERGY:     -459.437909352 Eh
FINAL SINGLE POINT ENERGY      -459.437909352336

DIPOLE MOMENT
-------------
                                X             Y             Z
Electronic contribution:      0.23572      -3.12141       0.03311
Nuclear contribution   :     -0.06911       3.17315      -0.19785
                        -----------------------------------------
Total Dipole Moment    :      0.16661       0.05174      -0.16473
                        -----------------------------------------
Magnitude (a.u.)       :      0.23994
Magnitude (Debye)      :      0.60988

                             ****ORCA TERMINATED NORMALLY****
TOTAL RUN TIME: 0 days 0 hours 19 minutes 55 seconds 784 msec
