                         Program Version 3.0.3 - RELEASE   -
|  1> ! RI-MP2 RIJK def2-TZVP def2-TZVP/C def2-TZVP/JK TIGHTSCF
|  2> % maxcore 2000
|  3> % mp2 density relaxed end
|  4> *xyz 0 1
|  5>  O        0.0099696055    -0.0387136651    -0.2105103737
|  6>  C        0.0627412352     1.1362153456     0.0559558340
|  7>  C        1.2990585281     1.9453910866     0.0767650620
|  8>  C        1.1892427898     3.4386374473    -0.2216339370
|  9>  C        1.4903547794     3.0046375850     1.1674702794
| 10>  C        0.5499231271     3.1990530415     2.3687290124
| 11>  O        1.4655684637     3.4732822015     3.4568222902
| 12>  C        2.7024355231     3.4246466992     2.9102406518
| 13>  N        2.8359538558     3.1752288044     1.6729074980
| 14>  H       -0.8647491557     1.7079117026     0.3047905673
| 15>  H        2.1996173146     1.4295702280    -0.2344279546
| 16>  H        1.9917535848     3.8849043135    -0.7960357575
| 17>  H        0.1955133738     3.8262080335    -0.4291280662
| 18>  H       -0.1214851324     4.0560718625     2.2593878014
| 19>  H       -0.0340529421     2.3146424589     2.6355226111
| 20>  H        3.5112068592     3.6143645249     3.6057331412
| 21> *
| 22>
| 23>                          ****END OF INPUT****

CARTESIAN COORDINATES (ANGSTROEM)
---------------------------------
  O      0.009970   -0.038714   -0.210510
  C      0.062741    1.136215    0.055956
  C      1.299059    1.945391    0.076765
  C      1.189243    3.438637   -0.221634
  C      1.490355    3.004638    1.167470
  C      0.549923    3.199053    2.368729
  O      1.465568    3.473282    3.456822
  C      2.702436    3.424647    2.910241
  N      2.835954    3.175229    1.672907
  H     -0.864749    1.707912    0.304791
  H      2.199617    1.429570   -0.234428
  H      1.991754    3.884904   -0.796036
  H      0.195513    3.826208   -0.429128
  H     -0.121485    4.056072    2.259388
  H     -0.034053    2.314642    2.635523
  H      3.511207    3.614365    3.605733

 Total Charge           Charge          ....    0
 Multiplicity           Mult            ....    1
 Number of Electrons    NEL             ....   66
 Basis Dimension        Dim             ....  321

ORBITAL ENERGIES
----------------

  NO   OCC          E(Eh)            E(eV)
   0   2.0000     -20.613914      -560.9331
   1   2.0000     -20.557304      -559.3927
   2   2.0000     -15.568261      -423.6339
   3   2.0000     -11.349203      -308.8275
   4   2.0000     -11.338728      -308.5425
   5   2.0000     -11.315348      -307.9063
   6   2.0000     -11.302088      -307.5455
   7   2.0000     -11.257422      -306.3300
   8   2.0000     -11.255047      -306.2654
   9   2.0000      -1.457311       -39.6554
  10   2.0000      -1.396619       -38.0039
  11   2.0000      -1.249583       -34.0029
  12   2.0000      -1.157961       -31.5097
  13   2.0000      -1.006199       -27.3801
  14   2.0000      -0.921012       -25.0620
  15   2.0000      -0.847226       -23.0542
  16   2.0000      -0.808721       -22.0064
  17   2.0000      -0.787939       -21.4409
  18   2.0000      -0.728440       -19.8218
  19   2.0000      -0.694788       -18.9062
  20   2.0000      -0.681412       -18.5422
  21   2.0000      -0.651091       -17.7171
  22   2.0000      -0.640205       -17.4209
  23   2.0000      -0.603547       -16.4233
  24   2.0000      -0.577054       -15.7024
  25   2.0000      -0.558346       -15.1934
  26   2.0000      -0.543232       -14.7821
  27   2.0000      -0.541203       -14.7269
  28   2.0000      -0.504714       -13.7340
  29   2.0000      -0.463992       -12.6259
  30   2.0000      -0.449397       -12.2287
  31   2.0000      -0.427480       -11.6323
  32   2.0000      -0.369910       -10.0658
  33   0.0000       0.114710         3.1214
  34   0.0000       0.131708         3.5840
  35   0.0000       0.150217         4.0876
  36   0.0000       0.166488         4.5304
  37   0.0000       0.168398         4.5823

MULLIKEN ATOMIC CHARGES
-----------------------
   0 O :   -0.261331
   1 C :    0.035381
   2 C :   -0.042591
   3 C :   -0.309942
   4 C :    0.128031
   5 C :   -0.059455
   6 O :   -0.265164
   7 C :    0.108514
   8 N :   -0.280153
   9 H :    0.075674
  10 H :    0.149579
  11 H :    0.153430
  12 H :    0.146507
  13 H :    0.126945
  14 H :    0.136055
  15 H :    0.158520
Sum of atomic charges:   -0.0000000

LOEWDIN ATOMIC CHARGES
----------------------
   0 O :    0.133465
   1 C :   -0.297055
   2 C :   -0.169956
   3 C :   -0.165843
   4 C :   -0.265159
   5 C :   -0.211092
   6 O :    0.218930
   7 C :   -0.330340
   8 N :    0.117677
   9 H :    0.113703
  10 H :    0.163385
  11 H :    0.147338
  12 H :    0.141550
  13 H :    0.132730
  14 H :    0.133058
  15 H :    0.137611

  Mayer bond orders larger than 0.1
B(  0-O ,  1-C ) :   1.9908 B(  1-C ,  2-C ) :   0.8838 B(  1-C ,  9-H ) :   0.9496
B(  2-C ,  3-C ) :   0.8688 B(  2-C ,  4-C ) :   0.7447 B(  2-C , 10-H ) :   0.9085
B(  3-C ,  4-C ) :   0.8459 B(  3-C , 11-H ) :   0.9161 B(  3-C , 12-H ) :   0.9172
B(  4-C ,  5-C ) :   0.9337 B(  4-C ,  8-N ) :   0.9785 B(  5-C ,  6-O ) :   0.8819
B(  5-C , 13-H ) :   0.9181 B(  5-C , 14-H ) :   0.9214 B(  6-O ,  7-C ) :   1.0741
B(  7-C ,  8-N ) :   1.7799 B(  7-C , 15-H ) :   0.9202

MP2 TOTAL ENERGY:     -437.161758107 Eh
FINAL SINGLE POINT ENERGY      -437.161758107469

DIPOLE MOMENT
-------------
                                X             Y             Z
Electronic contribution:      1.57853      -1.88118       1.76345
Nuclear contribution   :     -1.83989       3.02538      -1.44783
                        -----------------------------------------
Total Dipole Moment    :     -0.26136       1.14420       0.31562
                        -----------------------------------------
Magnitude (a.u.)       :      1.21537
Magnitude (Debye)      :      3.08922

                             ****ORCA TERMINATED NORMALLY****
TOTAL RUN TIME: 0 days 0 hours 15 minutes 17 seconds 502 msec
