                         Program Version 3.0.3 - RELEASE   -
|  1> ! RI-MP2 RIJK def2-TZVP def2-TZVP/C def2-TZVP/JK TIGHTSCF
|  2> % maxcore 2000
|  3> % mp2 density relaxed end
|  4> *xyz 0 1
|  5>  C       -0.1035500208     1.5551568385     0.0469075501
|  6>  C        0.0501949396     0.0549558685    -0.0527237602
|  7>  C        0.7154981277    -0.6610731603    -1.1969994567
|  8>  C        1.6634550720     0.1131596261    -2.1136984887
|  9>  C        2.7935577758     0.5355461564    -1.1828000770
| 10>  C        2.6205520681     0.0556881233     0.0618486397
| 11>  C        1.3572765507    -0.7032258780     0.1925107831
| 12>  C        3.8720916142     1.3519314825    -1.6133942386
| 13>  N        4.7420070218     2.0137450371    -1.9993821536
| 14>  H        0.7919239951     2.0917500540    -0.2742163688
| 15>  H       -0.9384512344     1.8952452254    -0.5757490318
| 16>  H       -0.3162860320     1.8542430390     1.0785913956
| 17>  H       -0.8073743909    -0.4880430961     0.3384344508
| 18>  H        0.2272530834    -1.5393979163    -1.6021999634
| 19>  H        2.0428218595    -0.5148388452    -2.9278640855
| 20>  H        1.1863521841     0.9809755768    -2.5846447134
| 21>  H        3.3113147766     0.2158802669     0.8810630194
| 22>  H        1.3285419294    -1.5788514686     0.8312138690
| 23> *
| 24>
| 25>                          ****END OF INPUT****

CARTESIAN COORDINATES (ANGSTROEM)
---------------------------------
  C     -0.103550    1.555157    0.046908
  C      0.050195    0.054956   -0.052724
  C      0.715498   -0.661073   -1.196999
  C      1.663455    0.113160   -2.113698
  C      2.793558    0.535546   -1.182800
  C      2.620552    0.055688    0.061849
  C      1.357277   -0.703226    0.192511
  C      3.872092    1.351931   -1.613394
  N      4.742007    2.013745   -1.999382
  H      0.791924    2.091750   -0.274216
  H     -0.938451    1.895245   -0.575749
  H     -0.316286    1.854243    1.078591
  H     -0.807374   -0.488043    0.338434
  H      0.227253   -1.539398   -1.602200
  H      2.042822   -0.514839   -2.927864
  H      1.186352    0.980976   -2.584645
  H      3.311315    0.215880    0.881063
  H      1.328542   -1.578851    0.831214

 Total Charge           Charge          ....    0
 Multiplicity           Mult            ....    1
 Number of Electrons    NEL             ....   64
 Basis Dimension        Dim             ....  333

ORBITAL ENERGIES
----------------

  NO   OCC          E(Eh)            E(eV)
   0   2.0000     -15.567708      -423.6189
   1   2.0000     -11.273432      -306.7657
   2   2.0000     -11.271753      -306.7200
   3   2.0000     -11.270571      -306.6878
   4   2.0000     -11.254828      -306.2594
   5   2.0000     -11.254153      -306.2411
   6   2.0000     -11.252834      -306.2052
   7   2.0000     -11.250607      -306.1446
   8   2.0000     -11.228211      -305.5352
   9   2.0000      -1.221152       -33.2292
  10   2.0000      -1.201771       -32.7019
  11   2.0000      -1.084250       -29.5039
  12   2.0000      -0.988935       -26.9103
  13   2.0000      -0.980667       -26.6853
  14   2.0000      -0.873508       -23.7693
  15   2.0000      -0.791472       -21.5370
  16   2.0000      -0.756861       -20.5952
  17   2.0000      -0.734157       -19.9774
  18   2.0000      -0.672990       -18.3130
  19   2.0000      -0.607722       -16.5370
  20   2.0000      -0.596611       -16.2346
  21   2.0000      -0.578329       -15.7371
  22   2.0000      -0.566516       -15.4157
  23   2.0000      -0.561383       -15.2760
  24   2.0000      -0.549588       -14.9551
  25   2.0000      -0.539988       -14.6938
  26   2.0000      -0.502165       -13.6646
  27   2.0000      -0.496546       -13.5117
  28   2.0000      -0.454919       -12.3790
  29   2.0000      -0.445426       -12.1207
  30   2.0000      -0.418974       -11.4009
  31   2.0000      -0.348529        -9.4840
  32   0.0000       0.091066         2.4780
  33   0.0000       0.124869         3.3979
  34   0.0000       0.147828         4.0226
  35   0.0000       0.161767         4.4019
  36   0.0000       0.163549         4.4504

MULLIKEN ATOMIC CHARGES
-----------------------
   0 C :   -0.393422
   1 C :   -0.124959
   2 C :   -0.089733
   3 C :   -0.219044
   4 C :    0.107771
   5 C :   -0.214332
   6 C :   -0.039481
   7 C :   -0.246951
   8 N :   -0.046948
   9 H :    0.147594
  10 H :    0.136228
  11 H :    0.137463
  12 H :    0.122033
  13 H :    0.141433
  14 H :    0.141469
  15 H :    0.148491
  16 H :    0.149763
  17 H :    0.142624
Sum of atomic charges:    0.0000000

LOEWDIN ATOMIC CHARGES
----------------------
   0 C :   -0.287735
   1 C :   -0.201392
   2 C :   -0.158483
   3 C :   -0.171496
   4 C :   -0.159359
   5 C :   -0.065747
   6 C :   -0.160819
   7 C :   -0.160065
   8 N :    0.070782
   9 H :    0.131652
  10 H :    0.129266
  11 H :    0.129111
  12 H :    0.155295
  13 H :    0.146629
  14 H :    0.150966
  15 H :    0.152704
  16 H :    0.150824
  17 H :    0.147867

  Mayer bond orders larger than 0.1
B(  0-C ,  1-C ) :   0.9260 B(  0-C ,  9-H ) :   0.9309 B(  0-C , 10-H ) :   0.9356
B(  0-C , 11-H ) :   0.9375 B(  1-C ,  2-C ) :   0.8821 B(  1-C ,  6-C ) :   0.8311
B(  1-C , 12-H ) :   0.9317 B(  2-C ,  3-C ) :   0.9410 B(  2-C ,  6-C ) :   0.8452
B(  2-C , 13-H ) :   0.9265 B(  3-C ,  4-C ) :   0.9607 B(  3-C , 14-H ) :   0.9083
B(  3-C , 15-H ) :   0.9064 B(  4-C ,  5-C ) :   1.6693 B(  4-C ,  7-C ) :   0.9093
B(  5-C ,  6-C ) :   0.9656 B(  5-C , 16-H ) :   0.9277 B(  6-C , 17-H ) :   0.9219
B(  7-C ,  8-N ) :   2.8639

MP2 TOTAL ENERGY:     -364.164544690 Eh
FINAL SINGLE POINT ENERGY      -364.164544690186

DIPOLE MOMENT
-------------
                                X             Y             Z
Electronic contribution:      8.34970       0.46957      -2.20192
Nuclear contribution   :     -9.81142      -1.42113       2.77269
                        -----------------------------------------
Total Dipole Moment    :     -1.46172      -0.95156       0.57077
                        -----------------------------------------
Magnitude (a.u.)       :      1.83517
Magnitude (Debye)      :      4.66464

                             ****ORCA TERMINATED NORMALLY****
TOTAL RUN TIME: 0 days 0 hours 20 minutes 7 seconds 810 msec
