                         Program Version 3.0.3 - RELEASE   -
|  1> ! RI-MP2 RIJK def2-TZVP def2-TZVP/C def2-TZVP/JK TIGHTSCF
|  2> % maxcore 2000
|  3> % mp2 density relaxed end
|  4> *xyz 0 1
|  5>  C       -0.1497273688     1.5864174873    -0.3306431511
|  6>  C       -0.0048562809     0.1722225566     0.2267630079
|  7>  N       -1.2824838969    -0.5285619129     0.1664341422
|  8>  C       -1.5617546881    -1.3095213102    -1.0375362188
|  9>  C       -1.3273927522    -1.9845540785     0.2677493140
| 10>  C       -0.1169414291    -2.8899601616     0.5347193889
| 11>  C       -0.5900499774    -3.7068804346     1.7476981438
| 12>  O       -1.9959563338    -3.8283152505     1.5878673405
| 13>  C       -2.4582007015    -2.5678939561     1.1282378437
| 14>  H        0.7971034925     2.1302209215    -0.2569930188
| 15>  H       -0.4448329007     1.5609524003    -1.3847006736
| 16>  H       -0.9153364063     2.1392911287     0.2204354922
| 17>  H        0.7927257642    -0.3595804042    -0.3207080083
| 18>  H        0.3048431171     0.2163408286     1.2783688514
| 19>  H       -2.5660274898    -1.2225885863    -1.4470990536
| 20>  H       -0.7721268796    -1.3866565451    -1.7865909688
| 21>  H        0.0663590687    -3.5496495236    -0.3185330564
| 22>  H        0.8026566245    -2.3350391406     0.7346587490
| 23>  H       -0.1675533577    -4.7132790876     1.7976223701
| 24>  H       -0.3488661761    -3.1812399161     2.6869896084
| 25>  H       -2.6607113139    -1.8838628594     1.9674827299
| 26>  H       -3.3893837242    -2.7290476859     0.5779524377
| 27> *
| 28>
| 29>                          ****END OF INPUT****

CARTESIAN COORDINATES (ANGSTROEM)
---------------------------------
  C     -0.149727    1.586417   -0.330643
  C     -0.004856    0.172223    0.226763
  N     -1.282484   -0.528562    0.166434
  C     -1.561755   -1.309521   -1.037536
  C     -1.327393   -1.984554    0.267749
  C     -0.116941   -2.889960    0.534719
  C     -0.590050   -3.706880    1.747698
  O     -1.995956   -3.828315    1.587867
  C     -2.458201   -2.567894    1.128238
  H      0.797103    2.130221   -0.256993
  H     -0.444833    1.560952   -1.384701
  H     -0.915336    2.139291    0.220435
  H      0.792726   -0.359580   -0.320708
  H      0.304843    0.216341    1.278369
  H     -2.566027   -1.222589   -1.447099
  H     -0.772127   -1.386657   -1.786591
  H      0.066359   -3.549650   -0.318533
  H      0.802657   -2.335039    0.734659
  H     -0.167553   -4.713279    1.797622
  H     -0.348866   -3.181240    2.686990
  H     -2.660711   -1.883863    1.967483
  H     -3.389384   -2.729048    0.577952

 Total Charge           Charge          ....    0
 Multiplicity           Mult            ....    1
 Number of Electrons    NEL             ....   70
 Basis Dimension        Dim             ....  357

ORBITAL ENERGIES
----------------

  NO   OCC          E(Eh)            E(eV)
   0   2.0000     -20.550805      -559.2158
   1   2.0000     -15.556861      -423.3237
   2   2.0000     -11.274440      -306.7931
   3   2.0000     -11.268382      -306.6283
   4   2.0000     -11.265429      -306.5479
   5   2.0000     -11.253924      -306.2349
   6   2.0000     -11.252305      -306.1908
   7   2.0000     -11.230341      -305.5931
   8   2.0000     -11.213769      -305.1422
   9   2.0000      -1.378473       -37.5102
  10   2.0000      -1.274895       -34.6917
  11   2.0000      -1.052139       -28.6302
  12   2.0000      -1.020705       -27.7748
  13   2.0000      -0.964148       -26.2358
  14   2.0000      -0.896948       -24.4072
  15   2.0000      -0.833760       -22.6878
  16   2.0000      -0.801339       -21.8055
  17   2.0000      -0.751782       -20.4570
  18   2.0000      -0.686693       -18.6859
  19   2.0000      -0.677527       -18.4364
  20   2.0000      -0.643942       -17.5226
  21   2.0000      -0.622012       -16.9258
  22   2.0000      -0.612677       -16.6718
  23   2.0000      -0.582965       -15.8633
  24   2.0000      -0.570856       -15.5338
  25   2.0000      -0.544791       -14.8245
  26   2.0000      -0.531989       -14.4762
  27   2.0000      -0.523488       -14.2448
  28   2.0000      -0.501929       -13.6582
  29   2.0000      -0.500145       -13.6096
  30   2.0000      -0.475518       -12.9395
  31   2.0000      -0.444953       -12.1078
  32   2.0000      -0.430039       -11.7019
  33   2.0000      -0.418093       -11.3769
  34   2.0000      -0.368114       -10.0169
  35   0.0000       0.132993         3.6189
  36   0.0000       0.150523         4.0960
  37   0.0000       0.162109         4.4112
  38   0.0000       0.174704         4.7539
  39   0.0000       0.186135         5.0650

MULLIKEN ATOMIC CHARGES
-----------------------
   0 C :   -0.375958
   1 C :   -0.137173
   2 N :   -0.254559
   3 C :   -0.215809
   4 C :    0.116867
   5 C :   -0.230919
   6 C :   -0.030766
   7 O :   -0.315901
   8 C :   -0.059296
   9 H :    0.126091
  10 H :    0.124337
  11 H :    0.132292
  12 H :    0.093917
  13 H :    0.119295
  14 H :    0.126081
  15 H :    0.117596
  16 H :    0.122206
  17 H :    0.127149
  18 H :    0.118959
  19 H :    0.085257
  20 H :    0.096186
  21 H :    0.114149
Sum of atomic charges:   -0.0000000

LOEWDIN ATOMIC CHARGES
----------------------
   0 C :   -0.315196
   1 C :   -0.322537
   2 N :    0.129458
   3 C :   -0.225602
   4 C :   -0.273747
   5 C :   -0.225532
   6 C :   -0.304558
   7 O :    0.148948
   8 C :   -0.262916
   9 H :    0.121583
  10 H :    0.121382
  11 H :    0.124273
  12 H :    0.119301
  13 H :    0.131320
  14 H :    0.125520
  15 H :    0.125789
  16 H :    0.142607
  17 H :    0.140039
  18 H :    0.125909
  19 H :    0.119006
  20 H :    0.125660
  21 H :    0.129291

  Mayer bond orders larger than 0.1
B(  0-C ,  1-C ) :   0.9356 B(  0-C ,  9-H ) :   0.9379 B(  0-C , 10-H ) :   0.9358
B(  0-C , 11-H ) :   0.9373 B(  1-C ,  2-N ) :   0.8807 B(  1-C , 12-H ) :   0.9225
B(  1-C , 13-H ) :   0.9267 B(  2-N ,  3-C ) :   0.9390 B(  2-N ,  4-C ) :   0.7861
B(  3-C ,  4-C ) :   0.9085 B(  3-C , 14-H ) :   0.9055 B(  3-C , 15-H ) :   0.9239
B(  4-C ,  5-C ) :   0.9102 B(  4-C ,  8-C ) :   0.9188 B(  5-C ,  6-C ) :   0.9659
B(  5-C , 16-H ) :   0.9215 B(  5-C , 17-H ) :   0.9169 B(  6-C ,  7-O ) :   0.9341
B(  6-C , 18-H ) :   0.9270 B(  6-C , 19-H ) :   0.9278 B(  7-O ,  8-C ) :   0.9518
B(  8-C , 20-H ) :   0.9429 B(  8-C , 21-H ) :   0.9155

MP2 TOTAL ENERGY:     -403.629901743 Eh
FINAL SINGLE POINT ENERGY      -403.629901742643

DIPOLE MOMENT
-------------
                                X             Y             Z
Electronic contribution:     -4.02217      -5.75426       2.05342
Nuclear contribution   :      4.76678       5.99468      -2.41239
                        -----------------------------------------
Total Dipole Moment    :      0.74460       0.24043      -0.35897
                        -----------------------------------------
Magnitude (a.u.)       :      0.86087
Magnitude (Debye)      :      2.18816

                             ****ORCA TERMINATED NORMALLY****
TOTAL RUN TIME: 0 days 0 hours 29 minutes 36 seconds 718 msec
