                         Program Version 3.0.3 - RELEASE   -
|  1> ! RI-MP2 RIJK def2-TZVP def2-TZVP/C def2-TZVP/JK TIGHTSCF
|  2> % maxcore 2000
|  3> % mp2 density relaxed end
|  4> *xyz 0 1
|  5>  C       -0.0287531037     1.5728062391    -0.0067582560
|  6>  C        1.4871205724     1.9384962486    -0.0199018043
|  7>  C        2.1282997899     0.5324377246     0.0162336260
|  8>  C        1.9856204542    -0.0758040984     1.4301317413
|  9>  C        0.4697497432    -0.4415065980     1.4432662504
| 10>  C        0.0423101523     0.0292131858     0.0343209082
| 11>  O        1.2069923798    -0.2516917343    -0.7563041869
| 12>  H       -0.5673248261     1.9911032162     0.8476043592
| 13>  H       -0.5271567477     1.9113213114    -0.9179602552
| 14>  H        1.7613707140     2.4634174716    -0.9377973802
| 15>  H        1.7896730430     2.5596987571     0.8271735441
| 16>  H        3.1239407636     0.4629921127    -0.4225223410
| 17>  H        2.6101744528    -0.9663146495     1.5311762850
| 18>  H        2.2682736881     0.6257581743     2.2193626967
| 19>  H        0.3216520812    -1.5184259305     1.5509711436
| 20>  H       -0.0887085420     0.0571095829     2.2398044234
| 21>  H       -0.8192151550    -0.4882487934    -0.3883353942
| 22> *
| 23>
| 24>                          ****END OF INPUT****

CARTESIAN COORDINATES (ANGSTROEM)
---------------------------------
  C     -0.028753    1.572806   -0.006758
  C      1.487121    1.938496   -0.019902
  C      2.128300    0.532438    0.016234
  C      1.985620   -0.075804    1.430132
  C      0.469750   -0.441507    1.443266
  C      0.042310    0.029213    0.034321
  O      1.206992   -0.251692   -0.756304
  H     -0.567325    1.991103    0.847604
  H     -0.527157    1.911321   -0.917960
  H      1.761371    2.463417   -0.937797
  H      1.789673    2.559699    0.827174
  H      3.123941    0.462992   -0.422522
  H      2.610174   -0.966315    1.531176
  H      2.268274    0.625758    2.219363
  H      0.321652   -1.518426    1.550971
  H     -0.088709    0.057110    2.239804
  H     -0.819215   -0.488249   -0.388335

 Total Charge           Charge          ....    0
 Multiplicity           Mult            ....    1
 Number of Electrons    NEL             ....   54
 Basis Dimension        Dim             ....  277

ORBITAL ENERGIES
----------------

  NO   OCC          E(Eh)            E(eV)
   0   2.0000     -20.543897      -559.0279
   1   2.0000     -11.272181      -306.7317
   2   2.0000     -11.272159      -306.7310
   3   2.0000     -11.220456      -305.3241
   4   2.0000     -11.220438      -305.3236
   5   2.0000     -11.219912      -305.3093
   6   2.0000     -11.219898      -305.3090
   7   2.0000      -1.380728       -37.5715
   8   2.0000      -1.071802       -29.1652
   9   2.0000      -1.009005       -27.4564
  10   2.0000      -0.998346       -27.1664
  11   2.0000      -0.830886       -22.6095
  12   2.0000      -0.778813       -21.1926
  13   2.0000      -0.770291       -20.9607
  14   2.0000      -0.702389       -19.1130
  15   2.0000      -0.653309       -17.7774
  16   2.0000      -0.633197       -17.2302
  17   2.0000      -0.566780       -15.4229
  18   2.0000      -0.560911       -15.2632
  19   2.0000      -0.530654       -14.4398
  20   2.0000      -0.505728       -13.7615
  21   2.0000      -0.498010       -13.5515
  22   2.0000      -0.496179       -13.5017
  23   2.0000      -0.477740       -13.0000
  24   2.0000      -0.453522       -12.3410
  25   2.0000      -0.431612       -11.7448
  26   2.0000      -0.418836       -11.3971
  27   0.0000       0.136198         3.7061
  28   0.0000       0.163440         4.4474
  29   0.0000       0.170022         4.6265
  30   0.0000       0.178748         4.8640
  31   0.0000       0.196674         5.3518

MULLIKEN ATOMIC CHARGES
-----------------------
   0 C :   -0.246865
   1 C :   -0.246867
   2 C :    0.079547
   3 C :   -0.246864
   4 C :   -0.246869
   5 C :    0.079554
   6 O :   -0.320995
   7 H :    0.108023
   8 H :    0.118775
   9 H :    0.118776
  10 H :    0.108023
  11 H :    0.121082
  12 H :    0.118776
  13 H :    0.108022
  14 H :    0.118775
  15 H :    0.108024
  16 H :    0.121082
Sum of atomic charges:   -0.0000000

LOEWDIN ATOMIC CHARGES
----------------------
   0 C :   -0.233616
   1 C :   -0.233617
   2 C :   -0.298764
   3 C :   -0.233616
   4 C :   -0.233617
   5 C :   -0.298766
   6 O :    0.186483
   7 H :    0.133086
   8 H :    0.134714
   9 H :    0.134713
  10 H :    0.133086
  11 H :    0.137157
  12 H :    0.134713
  13 H :    0.133086
  14 H :    0.134714
  15 H :    0.133086
  16 H :    0.137158

  Mayer bond orders larger than 0.1
B(  0-C ,  1-C ) :   0.9686 B(  0-C ,  5-C ) :   0.9396 B(  0-C ,  7-H ) :   0.9225
B(  0-C ,  8-H ) :   0.9236 B(  1-C ,  2-C ) :   0.9396 B(  1-C ,  9-H ) :   0.9236
B(  1-C , 10-H ) :   0.9225 B(  2-C ,  3-C ) :   0.9396 B(  2-C ,  6-O ) :   0.9355
B(  2-C , 11-H ) :   0.9149 B(  3-C ,  4-C ) :   0.9686 B(  3-C , 12-H ) :   0.9236
B(  3-C , 13-H ) :   0.9225 B(  4-C ,  5-C ) :   0.9396 B(  4-C , 14-H ) :   0.9236
B(  4-C , 15-H ) :   0.9225 B(  5-C ,  6-O ) :   0.9355 B(  5-C , 16-H ) :   0.9149

MP2 TOTAL ENERGY:     -309.209580593 Eh
FINAL SINGLE POINT ENERGY      -309.209580593404

DIPOLE MOMENT
-------------
                                X             Y             Z
Electronic contribution:      0.43852      -1.91901      -2.81655
Nuclear contribution   :     -0.51816       2.26751       3.32804
                        -----------------------------------------
Total Dipole Moment    :     -0.07964       0.34849       0.51149
                        -----------------------------------------
Magnitude (a.u.)       :      0.62403
Magnitude (Debye)      :      1.58616

                             ****ORCA TERMINATED NORMALLY****
TOTAL RUN TIME: 0 days 0 hours 9 minutes 27 seconds 540 msec
