                         Program Version 3.0.3 - RELEASE   -
|  1> ! RI-MP2 RIJK def2-TZVP def2-TZVP/C def2-TZVP/JK TIGHTSCF
|  2> % maxcore 2000
|  3> % mp2 density relaxed end
|  4> *xyz 0 1
|  5>  C       -0.0343299727     1.5369555197     0.0145997320
|  6>  C        0.0194724799     0.0231529938     0.0564135324
|  7>  C       -1.2112539638    -0.6605490559    -0.5141606777
|  8>  C        1.3455383992    -0.6938713474    -0.1869178240
|  9>  O        2.5135336687     0.0833047645    -0.1640453595
| 10>  C        2.9610613911     0.1794588999     1.1956124658
| 11>  C        1.7015584443     0.0730421700     2.0798587988
| 12>  C        0.7249578800    -0.7075226561     1.1882270236
| 13>  O        0.0716232445    -1.8138428435     1.7370064174
| 14>  H        0.9392646924     1.9899914827     0.2096996558
| 15>  H       -0.3519225919     1.8710945819    -0.9792210457
| 16>  H       -0.7555442048     1.9287694543     0.7409478598
| 17>  H       -1.3643563569    -0.3545671737    -1.5550262934
| 18>  H       -1.1268227120    -1.7480394034    -0.4777750495
| 19>  H       -2.1073942429    -0.3849648120     0.0528115072
| 20>  H        1.3797202908    -1.5670307168    -0.8341628480
| 21>  H        3.6589732795    -0.6429148446     1.4167638861
| 22>  H        3.5015690747     1.1241724377     1.2995015629
| 23>  H        1.8881225421    -0.4888419297     2.9990463143
| 24>  H        1.3169840148     1.0557733253     2.3667796010
| 25>  H        0.7268898830    -2.5025538666     1.8960401607
| 26> *
| 27>
| 28>                          ****END OF INPUT****

CARTESIAN COORDINATES (ANGSTROEM)
---------------------------------
  C     -0.034330    1.536956    0.014600
  C      0.019472    0.023153    0.056414
  C     -1.211254   -0.660549   -0.514161
  C      1.345538   -0.693871   -0.186918
  O      2.513534    0.083305   -0.164045
  C      2.961061    0.179459    1.195612
  C      1.701558    0.073042    2.079859
  C      0.724958   -0.707523    1.188227
  O      0.071623   -1.813843    1.737006
  H      0.939265    1.989991    0.209700
  H     -0.351923    1.871095   -0.979221
  H     -0.755544    1.928769    0.740948
  H     -1.364356   -0.354567   -1.555026
  H     -1.126823   -1.748039   -0.477775
  H     -2.107394   -0.384965    0.052812
  H      1.379720   -1.567031   -0.834163
  H      3.658973   -0.642915    1.416764
  H      3.501569    1.124172    1.299502
  H      1.888123   -0.488842    2.999046
  H      1.316984    1.055773    2.366780
  H      0.726890   -2.502554    1.896040

 Total Charge           Charge          ....    0
 Multiplicity           Mult            ....    1
 Number of Electrons    NEL             ....   70
 Basis Dimension        Dim             ....  351

ORBITAL ENERGIES
----------------

  NO   OCC          E(Eh)            E(eV)
   0   2.0000     -20.567310      -559.6650
   1   2.0000     -20.556129      -559.3607
   2   2.0000     -11.285367      -307.0904
   3   2.0000     -11.279630      -306.9343
   4   2.0000     -11.270991      -306.6993
   5   2.0000     -11.237644      -305.7918
   6   2.0000     -11.231174      -305.6158
   7   2.0000     -11.212464      -305.1067
   8   2.0000     -11.211682      -305.0854
   9   2.0000      -1.391224       -37.8571
  10   2.0000      -1.369275       -37.2599
  11   2.0000      -1.135312       -30.8934
  12   2.0000      -1.032234       -28.0885
  13   2.0000      -0.974693       -26.5227
  14   2.0000      -0.933240       -25.3948
  15   2.0000      -0.847531       -23.0625
  16   2.0000      -0.798837       -21.7375
  17   2.0000      -0.739140       -20.1130
  18   2.0000      -0.708501       -19.2793
  19   2.0000      -0.662851       -18.0371
  20   2.0000      -0.640044       -17.4165
  21   2.0000      -0.615395       -16.7457
  22   2.0000      -0.598384       -16.2828
  23   2.0000      -0.593919       -16.1613
  24   2.0000      -0.577385       -15.7114
  25   2.0000      -0.544593       -14.8191
  26   2.0000      -0.542101       -14.7513
  27   2.0000      -0.533134       -14.5073
  28   2.0000      -0.525979       -14.3126
  29   2.0000      -0.506062       -13.7706
  30   2.0000      -0.492105       -13.3909
  31   2.0000      -0.468951       -12.7608
  32   2.0000      -0.445498       -12.1226
  33   2.0000      -0.387378       -10.5411
  34   2.0000      -0.366302        -9.9676
  35   0.0000       0.125638         3.4188
  36   0.0000       0.151989         4.1358
  37   0.0000       0.162345         4.4176
  38   0.0000       0.177160         4.8208
  39   0.0000       0.193389         5.2624

MULLIKEN ATOMIC CHARGES
-----------------------
   0 C :   -0.413473
   1 C :    0.099711
   2 C :   -0.423944
   3 C :   -0.006738
   4 O :   -0.325303
   5 C :   -0.036845
   6 C :   -0.265037
   7 C :    0.099149
   8 O :   -0.457783
   9 H :    0.144842
  10 H :    0.132854
  11 H :    0.134960
  12 H :    0.132256
  13 H :    0.141436
  14 H :    0.133645
  15 H :    0.129633
  16 H :    0.090677
  17 H :    0.113915
  18 H :    0.126478
  19 H :    0.129805
  20 H :    0.319764
Sum of atomic charges:   -0.0000000

LOEWDIN ATOMIC CHARGES
----------------------
   0 C :   -0.263111
   1 C :   -0.238719
   2 C :   -0.260683
   3 C :   -0.240877
   4 O :    0.174608
   5 C :   -0.287697
   6 C :   -0.220658
   7 C :   -0.310224
   8 O :    0.028339
   9 H :    0.130811
  10 H :    0.130549
  11 H :    0.127971
  12 H :    0.126920
  13 H :    0.130399
  14 H :    0.130034
  15 H :    0.138424
  16 H :    0.118354
  17 H :    0.124089
  18 H :    0.140606
  19 H :    0.140393
  20 H :    0.180472

  Mayer bond orders larger than 0.1
B(  0-C ,  1-C ) :   0.8828 B(  0-C ,  9-H ) :   0.9331 B(  0-C , 10-H ) :   0.9361
B(  0-C , 11-H ) :   0.9388 B(  1-C ,  2-C ) :   0.8983 B(  1-C ,  3-C ) :   0.8360
B(  1-C ,  7-C ) :   0.8581 B(  2-C , 12-H ) :   0.9419 B(  2-C , 13-H ) :   0.9263
B(  2-C , 14-H ) :   0.9381 B(  3-C ,  4-O ) :   0.9723 B(  3-C ,  7-C ) :   0.8489
B(  3-C , 15-H ) :   0.9447 B(  4-O ,  5-C ) :   0.9242 B(  5-C ,  6-C ) :   0.9649
B(  5-C , 16-H ) :   0.9199 B(  5-C , 17-H ) :   0.9293 B(  6-C ,  7-C ) :   0.9005
B(  6-C , 18-H ) :   0.9256 B(  6-C , 19-H ) :   0.9209 B(  7-C ,  8-O ) :   1.0707
B(  8-O , 20-H ) :   0.8362

MP2 TOTAL ENERGY:     -423.509774132 Eh
FINAL SINGLE POINT ENERGY      -423.509774131537

DIPOLE MOMENT
-------------
                                X             Y             Z
Electronic contribution:      3.15813      -3.13489       0.60862
Nuclear contribution   :     -2.88435       2.91505      -0.18732
                        -----------------------------------------
Total Dipole Moment    :      0.27378      -0.21984       0.42130
                        -----------------------------------------
Magnitude (a.u.)       :      0.54843
Magnitude (Debye)      :      1.39401

                             ****ORCA TERMINATED NORMALLY****
TOTAL RUN TIME: 0 days 0 hours 21 minutes 14 seconds 739 msec
