                         Program Version 3.0.3 - RELEASE   -
|  1> ! RI-MP2 RIJK def2-TZVP def2-TZVP/C def2-TZVP/JK TIGHTSCF
|  2> % maxcore 2000
|  3> % mp2 density relaxed end
|  4> *xyz 0 1
|  5>  C        0.9050386180     1.5936347182     1.1558911013
|  6>  O        0.8834552487     0.4798296252     0.2947589591
|  7>  C        0.2087885723    -0.6578080829     0.8106652241
|  8>  C       -1.3123315414    -0.5080492618     0.7930872832
|  9>  C        0.6810930459    -1.8196199829    -0.0616328161
| 10>  O        0.1345450782    -3.0157092340     0.4549772188
| 11>  C        0.5013185498    -4.1498203780    -0.3045800048
| 12>  C       -0.0890872341    -5.3502854432     0.2728250283
| 13>  C       -0.5627961363    -6.3555978645     0.7273893233
| 14>  H        1.3371353385     1.3403262957     2.1369265701
| 15>  H        1.5319715513     2.3532952579     0.6820230749
| 16>  H       -0.0940249168     2.0221254490     1.3206828408
| 17>  H        0.5446093812    -0.8520346028     1.8429276492
| 18>  H       -1.6507976937     0.2725189406     1.4798709029
| 19>  H       -1.6522664381    -0.2523472943    -0.2160768716
| 20>  H       -1.7767461483    -1.4510892580     1.0911884413
| 21>  H        0.3576459251    -1.6550274564    -1.1030898966
| 22>  H        1.7815212000    -1.8520204771    -0.0562231113
| 23>  H        0.1676296668    -4.0379007848    -1.3505831601
| 24>  H        1.5995075183    -4.2545241383    -0.3352815319
| 25>  H       -0.9844707256    -7.2411854876     1.1343817751
| 26> *
| 27>
| 28>                          ****END OF INPUT****

CARTESIAN COORDINATES (ANGSTROEM)
---------------------------------
  C      0.905039    1.593635    1.155891
  O      0.883455    0.479830    0.294759
  C      0.208789   -0.657808    0.810665
  C     -1.312332   -0.508049    0.793087
  C      0.681093   -1.819620   -0.061633
  O      0.134545   -3.015709    0.454977
  C      0.501319   -4.149820   -0.304580
  C     -0.089087   -5.350285    0.272825
  C     -0.562796   -6.355598    0.727389
  H      1.337135    1.340326    2.136927
  H      1.531972    2.353295    0.682023
  H     -0.094025    2.022125    1.320683
  H      0.544609   -0.852035    1.842928
  H     -1.650798    0.272519    1.479871
  H     -1.652266   -0.252347   -0.216077
  H     -1.776746   -1.451089    1.091188
  H      0.357646   -1.655027   -1.103090
  H      1.781521   -1.852020   -0.056223
  H      0.167630   -4.037901   -1.350583
  H      1.599508   -4.254524   -0.335282
  H     -0.984471   -7.241185    1.134382

 Total Charge           Charge          ....    0
 Multiplicity           Mult            ....    1
 Number of Electrons    NEL             ....   70
 Basis Dimension        Dim             ....  351

ORBITAL ENERGIES
----------------

  NO   OCC          E(Eh)            E(eV)
   0   2.0000     -20.567617      -559.6733
   1   2.0000     -20.554987      -559.3296
   2   2.0000     -11.309882      -307.7575
   3   2.0000     -11.280666      -306.9625
   4   2.0000     -11.276760      -306.8562
   5   2.0000     -11.271158      -306.7038
   6   2.0000     -11.236061      -305.7488
   7   2.0000     -11.227755      -305.5228
   8   2.0000     -11.210780      -305.0608
   9   2.0000      -1.392613       -37.8949
  10   2.0000      -1.374335       -37.3976
  11   2.0000      -1.070111       -29.1192
  12   2.0000      -1.034455       -28.1489
  13   2.0000      -0.957962       -26.0675
  14   2.0000      -0.934813       -25.4375
  15   2.0000      -0.890246       -24.2248
  16   2.0000      -0.798848       -21.7378
  17   2.0000      -0.731411       -19.9027
  18   2.0000      -0.692531       -18.8447
  19   2.0000      -0.682019       -18.5587
  20   2.0000      -0.674861       -18.3639
  21   2.0000      -0.651445       -17.7267
  22   2.0000      -0.624893       -17.0042
  23   2.0000      -0.618618       -16.8334
  24   2.0000      -0.591013       -16.0823
  25   2.0000      -0.551805       -15.0154
  26   2.0000      -0.549226       -14.9452
  27   2.0000      -0.519832       -14.1454
  28   2.0000      -0.510039       -13.8789
  29   2.0000      -0.491447       -13.3729
  30   2.0000      -0.462468       -12.5844
  31   2.0000      -0.440380       -11.9834
  32   2.0000      -0.421337       -11.4652
  33   2.0000      -0.399968       -10.8837
  34   2.0000      -0.388771       -10.5790
  35   0.0000       0.136721         3.7204
  36   0.0000       0.150549         4.0966
  37   0.0000       0.169158         4.6030
  38   0.0000       0.173096         4.7102
  39   0.0000       0.174156         4.7390

MULLIKEN ATOMIC CHARGES
-----------------------
   0 C :   -0.223493
   1 O :   -0.313071
   2 C :    0.108694
   3 C :   -0.419218
   4 C :   -0.045741
   5 O :   -0.285124
   6 C :   -0.207418
   7 C :   -0.034815
   8 C :   -0.081043
   9 H :    0.112584
  10 H :    0.139826
  11 H :    0.116190
  12 H :    0.072779
  13 H :    0.129410
  14 H :    0.122891
  15 H :    0.154759
  16 H :    0.099916
  17 H :    0.107768
  18 H :    0.125906
  19 H :    0.125433
  20 H :    0.193765
Sum of atomic charges:    0.0000000

LOEWDIN ATOMIC CHARGES
----------------------
   0 C :   -0.358752
   1 O :    0.153947
   2 C :   -0.354549
   3 C :   -0.298176
   4 C :   -0.302268
   5 O :    0.171902
   6 C :   -0.311294
   7 C :   -0.103649
   8 C :   -0.087200
   9 H :    0.102188
  10 H :    0.113846
  11 H :    0.101326
  12 H :    0.137284
  13 H :    0.120788
  14 H :    0.126257
  15 H :    0.133804
  16 H :    0.124354
  17 H :    0.124674
  18 H :    0.138665
  19 H :    0.139024
  20 H :    0.127828

  Mayer bond orders larger than 0.1
B(  0-C ,  1-O ) :   0.9226 B(  0-C ,  9-H ) :   0.9367 B(  0-C , 10-H ) :   0.9399
B(  0-C , 11-H ) :   0.9360 B(  1-O ,  2-C ) :   0.9357 B(  2-C ,  3-C ) :   0.9124
B(  2-C ,  4-C ) :   0.9535 B(  2-C , 12-H ) :   0.9324 B(  3-C , 13-H ) :   0.9346
B(  3-C , 14-H ) :   0.9304 B(  3-C , 15-H ) :   0.9272 B(  4-C ,  5-O ) :   0.9136
B(  4-C , 16-H ) :   0.9157 B(  4-C , 17-H ) :   0.9207 B(  5-O ,  6-C ) :   0.9922
B(  6-C ,  7-C ) :   1.1208 B(  6-C ,  8-C ) :  -0.1055 B(  6-C , 18-H ) :   0.9260
B(  6-C , 19-H ) :   0.9188 B(  7-C ,  8-C ) :   2.6225 B(  8-C , 20-H ) :   0.8974

MP2 TOTAL ENERGY:     -423.449116651 Eh
FINAL SINGLE POINT ENERGY      -423.449116650649

DIPOLE MOMENT
-------------
                                X             Y             Z
Electronic contribution:      0.87053      -8.37914      -0.95203
Nuclear contribution   :     -0.78374       8.52222       0.99378
                        -----------------------------------------
Total Dipole Moment    :      0.08679       0.14308       0.04175
                        -----------------------------------------
Magnitude (a.u.)       :      0.17248
Magnitude (Debye)      :      0.43841

                             ****ORCA TERMINATED NORMALLY****
TOTAL RUN TIME: 0 days 0 hours 16 minutes 34 seconds 592 msec
