                         Program Version 3.0.3 - RELEASE   -
|  1> ! RI-MP2 RIJK def2-TZVP def2-TZVP/C def2-TZVP/JK TIGHTSCF
|  2> % maxcore 2000
|  3> % mp2 density relaxed end
|  4> *xyz 0 1
|  5>  O        0.4380324999     1.2866774431     0.4934650298
|  6>  C        0.1651178918     0.0342964498    -0.0908675515
|  7>  C        1.0533043427    -0.3900783234    -1.2352303211
|  8>  C        1.2369009032    -0.9952799810     0.1400656671
|  9>  C       -1.2706799361    -0.4239853278    -0.0740505079
| 10>  C       -2.1086314337    -0.4392537190     1.2369499494
| 11>  C       -3.1573775685     0.3501732358     0.4536453071
| 12>  C       -2.5912430208     1.6230895098    -0.0164708490
| 13>  N       -2.3116317794     0.3990993148    -0.8094910978
| 14>  H        0.2641661653     1.9595193862    -0.1732190799
| 15>  H        0.6260285015    -0.9997147156    -2.0235244672
| 16>  H        1.8000912345     0.3236937775    -1.5651012312
| 17>  H        2.0914792780    -0.6653658247     0.7185926170
| 18>  H        0.9438086007    -2.0270923967     0.3001701485
| 19>  H       -1.2989428119    -1.4132399921    -0.5403954033
| 20>  H       -2.4166860706    -1.4420369046     1.5368535534
| 21>  H       -1.6845807655     0.0784137504     2.1011477751
| 22>  H       -4.2173657701     0.1231869074     0.4110031101
| 23>  H       -3.2466134867     2.3037141614    -0.5513318878
| 24>  H       -1.8041776043     2.0952961486     0.5611286092
| 25> *
| 26>
| 27>                          ****END OF INPUT****

CARTESIAN COORDINATES (ANGSTROEM)
---------------------------------
  O      0.438032    1.286677    0.493465
  C      0.165118    0.034296   -0.090868
  C      1.053304   -0.390078   -1.235230
  C      1.236901   -0.995280    0.140066
  C     -1.270680   -0.423985   -0.074051
  C     -2.108631   -0.439254    1.236950
  C     -3.157378    0.350173    0.453645
  C     -2.591243    1.623090   -0.016471
  N     -2.311632    0.399099   -0.809491
  H      0.264166    1.959519   -0.173219
  H      0.626029   -0.999715   -2.023524
  H      1.800091    0.323694   -1.565101
  H      2.091479   -0.665366    0.718593
  H      0.943809   -2.027092    0.300170
  H     -1.298943   -1.413240   -0.540395
  H     -2.416686   -1.442037    1.536854
  H     -1.684581    0.078414    2.101148
  H     -4.217366    0.123187    0.411003
  H     -3.246613    2.303714   -0.551332
  H     -1.804178    2.095296    0.561129

 Total Charge           Charge          ....    0
 Multiplicity           Mult            ....    1
 Number of Electrons    NEL             ....   68
 Basis Dimension        Dim             ....  345

ORBITAL ENERGIES
----------------

  NO   OCC          E(Eh)            E(eV)
   0   2.0000     -20.563727      -559.5675
   1   2.0000     -15.556368      -423.3103
   2   2.0000     -11.287950      -307.1607
   3   2.0000     -11.262694      -306.4735
   4   2.0000     -11.259441      -306.3850
   5   2.0000     -11.250146      -306.1320
   6   2.0000     -11.228714      -305.5488
   7   2.0000     -11.228499      -305.5430
   8   2.0000     -11.227265      -305.5094
   9   2.0000      -1.375410       -37.4268
  10   2.0000      -1.281579       -34.8735
  11   2.0000      -1.133999       -30.8577
  12   2.0000      -1.009053       -27.4577
  13   2.0000      -0.940158       -25.5830
  14   2.0000      -0.851295       -23.1649
  15   2.0000      -0.832015       -22.6403
  16   2.0000      -0.791112       -21.5273
  17   2.0000      -0.751960       -20.4619
  18   2.0000      -0.685371       -18.6499
  19   2.0000      -0.674028       -18.3412
  20   2.0000      -0.659690       -17.9511
  21   2.0000      -0.629542       -17.1307
  22   2.0000      -0.609375       -16.5819
  23   2.0000      -0.578802       -15.7500
  24   2.0000      -0.549044       -14.9403
  25   2.0000      -0.544574       -14.8186
  26   2.0000      -0.520794       -14.1715
  27   2.0000      -0.503867       -13.7109
  28   2.0000      -0.486059       -13.2263
  29   2.0000      -0.462336       -12.5808
  30   2.0000      -0.443226       -12.0608
  31   2.0000      -0.403514       -10.9802
  32   2.0000      -0.393149       -10.6981
  33   2.0000      -0.365319        -9.9408
  34   0.0000       0.142442         3.8760
  35   0.0000       0.151216         4.1148
  36   0.0000       0.164996         4.4898
  37   0.0000       0.176244         4.7959
  38   0.0000       0.182507         4.9663

MULLIKEN ATOMIC CHARGES
-----------------------
   0 O :   -0.479605
   1 C :    0.191851
   2 C :   -0.321997
   3 C :   -0.262123
   4 C :    0.024567
   5 C :   -0.228146
   6 C :   -0.064894
   7 C :   -0.218152
   8 N :   -0.267558
   9 H :    0.330820
  10 H :    0.133043
  11 H :    0.138061
  12 H :    0.133969
  13 H :    0.133073
  14 H :    0.103580
  15 H :    0.126771
  16 H :    0.126500
  17 H :    0.130345
  18 H :    0.127721
  19 H :    0.142175
Sum of atomic charges:    0.0000000

LOEWDIN ATOMIC CHARGES
----------------------
   0 O :    0.022551
   1 C :   -0.353071
   2 C :   -0.210462
   3 C :   -0.201393
   4 C :   -0.221822
   5 C :   -0.205083
   6 C :   -0.220883
   7 C :   -0.261269
   8 N :    0.107067
   9 H :    0.181014
  10 H :    0.136159
  11 H :    0.135578
  12 H :    0.139673
  13 H :    0.134265
  14 H :    0.158651
  15 H :    0.134059
  16 H :    0.137503
  17 H :    0.130523
  18 H :    0.131360
  19 H :    0.125583

  Mayer bond orders larger than 0.1
B(  0-O ,  1-C ) :   0.9692 B(  0-O ,  9-H ) :   0.8397 B(  1-C ,  2-C ) :   0.8810
B(  1-C ,  3-C ) :   0.8628 B(  1-C ,  4-C ) :   0.9224 B(  2-C ,  3-C ) :   0.9253
B(  2-C , 10-H ) :   0.9135 B(  2-C , 11-H ) :   0.9268 B(  3-C , 12-H ) :   0.9205
B(  3-C , 13-H ) :   0.9297 B(  4-C ,  5-C ) :   0.9400 B(  4-C ,  8-N ) :   0.8960
B(  4-C , 14-H ) :   0.8952 B(  5-C ,  6-C ) :   0.9673 B(  5-C , 15-H ) :   0.9336
B(  5-C , 16-H ) :   0.9076 B(  6-C ,  7-C ) :   0.9530 B(  6-C ,  8-N ) :   0.8649
B(  6-C , 17-H ) :   0.9057 B(  7-C ,  8-N ) :   0.8876 B(  7-C , 18-H ) :   0.9340
B(  7-C , 19-H ) :   0.9010

MP2 TOTAL ENERGY:     -402.388297253 Eh
FINAL SINGLE POINT ENERGY      -402.388297252661

DIPOLE MOMENT
-------------
                                X             Y             Z
Electronic contribution:     -1.05464       1.55552      -0.42206
Nuclear contribution   :      1.06503      -1.61439       0.53932
                        -----------------------------------------
Total Dipole Moment    :      0.01039      -0.05887       0.11727
                        -----------------------------------------
Magnitude (a.u.)       :      0.13163
Magnitude (Debye)      :      0.33457

                             ****ORCA TERMINATED NORMALLY****
TOTAL RUN TIME: 0 days 0 hours 18 minutes 46 seconds 785 msec
