                         Program Version 3.0.3 - RELEASE   -
|  1> ! RI-MP2 RIJK def2-TZVP def2-TZVP/C def2-TZVP/JK TIGHTSCF
|  2> % maxcore 2000
|  3> % mp2 density relaxed end
|  4> *xyz 0 1
|  5>  O       -0.0425619800     1.3130259012     0.0080132344
|  6>  C        0.0165858687    -0.0195372329     0.0024166496
|  7>  N        1.1983298509    -0.5460476102    -0.0068622355
|  8>  C        1.5498889937    -1.8559928419    -0.0147983487
|  9>  C        0.7824386337    -2.9842087250    -0.0172925918
| 10>  C       -0.6364546896    -3.0569561325    -0.0108965242
| 11>  C       -1.5536759357    -2.0516345781     0.0003674528
| 12>  C       -1.3774943386    -0.6094592593     0.0093048842
| 13>  O       -2.3318567797     0.1510423793     0.0206256275
| 14>  H        0.8791387629     1.6159473665     0.0033157484
| 15>  H        2.6293145196    -1.9962780111    -0.0204857442
| 16>  H        1.3183486374    -3.9282387724    -0.0250931576
| 17>  H       -1.0445169362    -4.0653663384    -0.0153219004
| 18>  H       -2.6058195869    -2.3220689152     0.0040644654
| 19> *
| 20>
| 21>                          ****END OF INPUT****

CARTESIAN COORDINATES (ANGSTROEM)
---------------------------------
  O     -0.042562    1.313026    0.008013
  C      0.016586   -0.019537    0.002417
  N      1.198330   -0.546048   -0.006862
  C      1.549889   -1.855993   -0.014798
  C      0.782439   -2.984209   -0.017293
  C     -0.636455   -3.056956   -0.010897
  C     -1.553676   -2.051635    0.000367
  C     -1.377494   -0.609459    0.009305
  O     -2.331857    0.151042    0.020626
  H      0.879139    1.615947    0.003316
  H      2.629315   -1.996278   -0.020486
  H      1.318349   -3.928239   -0.025093
  H     -1.044517   -4.065366   -0.015322
  H     -2.605820   -2.322069    0.004064

 Total Charge           Charge          ....    0
 Multiplicity           Mult            ....    1
 Number of Electrons    NEL             ....   64
 Basis Dimension        Dim             ....  309

ORBITAL ENERGIES
----------------

  NO   OCC          E(Eh)            E(eV)
   0   2.0000     -20.615171      -560.9673
   1   2.0000     -20.547464      -559.1249
   2   2.0000     -15.586471      -424.1294
   3   2.0000     -11.384703      -309.7935
   4   2.0000     -11.350037      -308.8502
   5   2.0000     -11.305060      -307.6263
   6   2.0000     -11.284460      -307.0658
   7   2.0000     -11.256706      -306.3106
   8   2.0000     -11.254077      -306.2390
   9   2.0000      -1.458346       -39.6836
  10   2.0000      -1.385705       -37.7069
  11   2.0000      -1.262826       -34.3632
  12   2.0000      -1.118154       -30.4265
  13   2.0000      -1.049819       -28.5670
  14   2.0000      -0.935684       -25.4613
  15   2.0000      -0.922265       -25.0961
  16   2.0000      -0.821627       -22.3576
  17   2.0000      -0.769561       -20.9408
  18   2.0000      -0.716666       -19.5015
  19   2.0000      -0.688529       -18.7358
  20   2.0000      -0.653717       -17.7885
  21   2.0000      -0.639697       -17.4070
  22   2.0000      -0.638872       -17.3846
  23   2.0000      -0.596863       -16.2415
  24   2.0000      -0.584381       -15.9018
  25   2.0000      -0.543418       -14.7871
  26   2.0000      -0.540982       -14.7209
  27   2.0000      -0.511986       -13.9319
  28   2.0000      -0.478096       -13.0097
  29   2.0000      -0.427985       -11.6461
  30   2.0000      -0.423260       -11.5175
  31   2.0000      -0.322507        -8.7759
  32   0.0000       0.049568         1.3488
  33   0.0000       0.058211         1.5840
  34   0.0000       0.139822         3.8047
  35   0.0000       0.150105         4.0846
  36   0.0000       0.172315         4.6889

MULLIKEN ATOMIC CHARGES
-----------------------
   0 O :   -0.342893
   1 C :    0.256099
   2 N :   -0.294789
   3 C :   -0.028458
   4 C :   -0.119625
   5 C :   -0.076457
   6 C :   -0.204091
   7 C :    0.210886
   8 O :   -0.293259
   9 H :    0.335170
  10 H :    0.132163
  11 H :    0.139204
  12 H :    0.141352
  13 H :    0.144697
Sum of atomic charges:    0.0000000

LOEWDIN ATOMIC CHARGES
----------------------
   0 O :    0.139358
   1 C :   -0.320347
   2 N :    0.136054
   3 C :   -0.211458
   4 C :   -0.154782
   5 C :   -0.132462
   6 C :   -0.097200
   7 C :   -0.336607
   8 O :    0.147324
   9 H :    0.201780
  10 H :    0.147404
  11 H :    0.157924
  12 H :    0.159550
  13 H :    0.163462

  Mayer bond orders larger than 0.1
B(  0-O ,  1-C ) :   1.2305 B(  0-O ,  9-H ) :   0.8043 B(  1-C ,  2-N ) :   1.5138
B(  1-C ,  7-C ) :   0.8965 B(  2-N ,  3-C ) :   1.2460 B(  3-C ,  4-C ) :   1.4775
B(  3-C , 10-H ) :   0.9469 B(  4-C ,  5-C ) :   1.1480 B(  4-C , 11-H ) :   0.9137
B(  5-C ,  6-C ) :   1.5045 B(  5-C , 12-H ) :   0.9180 B(  6-C ,  7-C ) :   1.1309
B(  6-C , 13-H ) :   0.9187 B(  7-C ,  8-O ) :   1.8651

MP2 TOTAL ENERGY:     -435.989525543 Eh
FINAL SINGLE POINT ENERGY      -435.989525542553

DIPOLE MOMENT
-------------
                                X             Y             Z
Electronic contribution:     -1.32881       4.13367       0.03269
Nuclear contribution   :      2.40556      -5.33062      -0.04741
                        -----------------------------------------
Total Dipole Moment    :      1.07675      -1.19695      -0.01471
                        -----------------------------------------
Magnitude (a.u.)       :      1.61006
Magnitude (Debye)      :      4.09245

                             ****ORCA TERMINATED NORMALLY****
TOTAL RUN TIME: 0 days 0 hours 14 minutes 55 seconds 721 msec
