                         Program Version 3.0.3 - RELEASE   -
|  1> ! RI-MP2 RIJK def2-TZVP def2-TZVP/C def2-TZVP/JK TIGHTSCF
|  2> % maxcore 2000
|  3> % mp2 density relaxed end
|  4> *xyz 0 1
|  5>  N       -0.1299597673     1.3214037899    -0.2803907109
|  6>  C       -0.0092157892     0.1160257744     0.0790929438
|  7>  C       -1.1760455736    -0.8422290547    -0.0480564516
|  8>  C       -1.1318482164    -1.9654942529     0.9410026553
|  9>  C        0.0467455058    -2.4060732663     1.3926859561
| 10>  C        1.3194235950    -1.7432609654     0.9144091765
| 11>  O        1.1516960627    -0.3589462180     0.6129973037
| 12>  C        0.1715743318    -3.5034852454     2.2921425286
| 13>  N        0.3143386525    -4.3960432012     3.0165711203
| 14>  H        0.7469280726     1.8261654162    -0.1377360155
| 15>  H       -2.0950018644    -0.2592166201     0.0303989824
| 16>  H       -1.1731166280    -1.2609040917    -1.0666263753
| 17>  H       -2.0608815636    -2.4240114020     1.2611942183
| 18>  H        2.0931841166    -1.7859723240     1.6843085608
| 19>  H        1.7062615354    -2.2657884488     0.0274849276
| 20> *
| 21>
| 22>                          ****END OF INPUT****

CARTESIAN COORDINATES (ANGSTROEM)
---------------------------------
  N     -0.129960    1.321404   -0.280391
  C     -0.009216    0.116026    0.079093
  C     -1.176046   -0.842229   -0.048056
  C     -1.131848   -1.965494    0.941003
  C      0.046746   -2.406073    1.392686
  C      1.319424   -1.743261    0.914409
  O      1.151696   -0.358946    0.612997
  C      0.171574   -3.503485    2.292143
  N      0.314339   -4.396043    3.016571
  H      0.746928    1.826165   -0.137736
  H     -2.095002   -0.259217    0.030399
  H     -1.173117   -1.260904   -1.066626
  H     -2.060882   -2.424011    1.261194
  H      2.093184   -1.785972    1.684309
  H      1.706262   -2.265788    0.027485

 Total Charge           Charge          ....    0
 Multiplicity           Mult            ....    1
 Number of Electrons    NEL             ....   64
 Basis Dimension        Dim             ....  315

ORBITAL ENERGIES
----------------

  NO   OCC          E(Eh)            E(eV)
   0   2.0000     -20.616237      -560.9963
   1   2.0000     -15.587857      -424.1672
   2   2.0000     -15.544503      -422.9874
   3   2.0000     -11.359024      -309.0947
   4   2.0000     -11.331861      -308.3556
   5   2.0000     -11.300700      -307.5077
   6   2.0000     -11.297013      -307.4073
   7   2.0000     -11.290402      -307.2275
   8   2.0000     -11.276473      -306.8484
   9   2.0000      -1.448924       -39.4272
  10   2.0000      -1.235974       -33.6326
  11   2.0000      -1.214369       -33.0447
  12   2.0000      -1.152503       -31.3612
  13   2.0000      -1.048180       -28.5224
  14   2.0000      -0.959660       -26.1137
  15   2.0000      -0.874988       -23.8096
  16   2.0000      -0.795424       -21.6446
  17   2.0000      -0.731230       -19.8978
  18   2.0000      -0.724585       -19.7170
  19   2.0000      -0.701291       -19.0831
  20   2.0000      -0.653012       -17.7694
  21   2.0000      -0.617834       -16.8121
  22   2.0000      -0.606923       -16.5152
  23   2.0000      -0.596378       -16.2283
  24   2.0000      -0.570745       -15.5308
  25   2.0000      -0.559101       -15.2139
  26   2.0000      -0.525165       -14.2905
  27   2.0000      -0.509737       -13.8707
  28   2.0000      -0.476407       -12.9637
  29   2.0000      -0.454560       -12.3692
  30   2.0000      -0.411264       -11.1911
  31   2.0000      -0.390847       -10.6355
  32   0.0000       0.073402         1.9974
  33   0.0000       0.114540         3.1168
  34   0.0000       0.146849         3.9960
  35   0.0000       0.148625         4.0443
  36   0.0000       0.156755         4.2655

MULLIKEN ATOMIC CHARGES
-----------------------
   0 N :   -0.366449
   1 C :    0.112046
   2 C :   -0.142553
   3 C :   -0.191592
   4 C :    0.139310
   5 C :   -0.067407
   6 O :   -0.246261
   7 C :   -0.198542
   8 N :   -0.046263
   9 H :    0.224300
  10 H :    0.165391
  11 H :    0.156241
  12 H :    0.164078
  13 H :    0.159194
  14 H :    0.138507
Sum of atomic charges:   -0.0000000

LOEWDIN ATOMIC CHARGES
----------------------
   0 N :   -0.051594
   1 C :   -0.402808
   2 C :   -0.202703
   3 C :   -0.079045
   4 C :   -0.175458
   5 C :   -0.223842
   6 O :    0.250559
   7 C :   -0.154329
   8 N :    0.082837
   9 H :    0.168841
  10 H :    0.166776
  11 H :    0.171133
  12 H :    0.157914
  13 H :    0.148965
  14 H :    0.142754

  Mayer bond orders larger than 0.1
B(  0-N ,  1-C ) :   2.0528 B(  0-N ,  9-H ) :   0.8555 B(  1-C ,  2-C ) :   0.9346
B(  1-C ,  6-O ) :   1.0752 B(  2-C ,  3-C ) :   0.9330 B(  2-C , 10-H ) :   0.9193
B(  2-C , 11-H ) :   0.8886 B(  3-C ,  4-C ) :   1.6848 B(  3-C , 12-H ) :   0.9214
B(  4-C ,  5-C ) :   0.9106 B(  4-C ,  7-C ) :   0.9081 B(  5-C ,  6-O ) :   0.9009
B(  5-C , 13-H ) :   0.9296 B(  5-C , 14-H ) :   0.9167 B(  7-C ,  8-N ) :   2.8301

MP2 TOTAL ENERGY:     -416.120256397 Eh
FINAL SINGLE POINT ENERGY      -416.120256396529

DIPOLE MOMENT
-------------
                                X             Y             Z
Electronic contribution:      1.20446      -2.38630       2.96877
Nuclear contribution   :     -1.21899       2.49052      -3.69919
                        -----------------------------------------
Total Dipole Moment    :     -0.01453       0.10422      -0.73041
                        -----------------------------------------
Magnitude (a.u.)       :      0.73796
Magnitude (Debye)      :      1.87574

                             ****ORCA TERMINATED NORMALLY****
TOTAL RUN TIME: 0 days 0 hours 15 minutes 3 seconds 850 msec
