                         Program Version 3.0.3 - RELEASE   -
|  1> ! RI-MP2 RIJK def2-TZVP def2-TZVP/C def2-TZVP/JK TIGHTSCF
|  2> % maxcore 2000
|  3> % mp2 density relaxed end
|  4> *xyz 0 1
|  5>  C       -0.3129410785     1.2727254597     0.1454998076
|  6>  O        0.0957683047    -0.0878715793     0.0175198364
|  7>  C        0.7328675917    -0.6037398936     1.1433659692
|  8>  C        1.8991267393     0.1057023414     1.6001174233
|  9>  N        2.8238323973     0.6821182625     1.9928903779
| 10>  C       -0.1545571920    -1.3522604673     2.1605640761
| 11>  N       -1.5743506936    -1.4028295278     1.9584720128
| 12>  C        0.7250213008    -2.1416702171     1.2271994599
| 13>  N        0.1402889330    -2.9205534007     0.1788576730
| 14>  H        0.5515657776     1.9352938213     0.2702687072
| 15>  H       -0.8326739441     1.5259144554    -0.7802753667
| 16>  H       -0.9912659684     1.4085669627     0.9973102506
| 17>  H        0.1399007814    -1.3068060083     3.2031967970
| 18>  H       -2.0468229985    -0.7787498454     2.6034601860
| 19>  H       -1.8017214672    -1.0962157590     1.0173495592
| 20>  H        1.6314447397    -2.5548515026     1.6641490608
| 21>  H       -0.8413353990    -3.0930718840     0.3719508495
| 22>  H        0.2076957259    -2.4527834481    -0.7177750597
| 23> *
| 24>
| 25>                          ****END OF INPUT****

CARTESIAN COORDINATES (ANGSTROEM)
---------------------------------
  C     -0.312941    1.272725    0.145500
  O      0.095768   -0.087872    0.017520
  C      0.732868   -0.603740    1.143366
  C      1.899127    0.105702    1.600117
  N      2.823832    0.682118    1.992890
  C     -0.154557   -1.352260    2.160564
  N     -1.574351   -1.402830    1.958472
  C      0.725021   -2.141670    1.227199
  N      0.140289   -2.920553    0.178858
  H      0.551566    1.935294    0.270269
  H     -0.832674    1.525914   -0.780275
  H     -0.991266    1.408567    0.997310
  H      0.139901   -1.306806    3.203197
  H     -2.046823   -0.778750    2.603460
  H     -1.801721   -1.096216    1.017350
  H      1.631445   -2.554852    1.664149
  H     -0.841335   -3.093072    0.371951
  H      0.207696   -2.452783   -0.717775

 Total Charge           Charge          ....    0
 Multiplicity           Mult            ....    1
 Number of Electrons    NEL             ....   68
 Basis Dimension        Dim             ....  333

ORBITAL ENERGIES
----------------

  NO   OCC          E(Eh)            E(eV)
   0   2.0000     -20.599711      -560.5466
   1   2.0000     -15.578024      -423.8996
   2   2.0000     -15.573679      -423.7813
   3   2.0000     -15.553598      -423.2349
   4   2.0000     -11.334180      -308.4187
   5   2.0000     -11.296792      -307.4013
   6   2.0000     -11.295318      -307.3612
   7   2.0000     -11.284524      -307.0675
   8   2.0000     -11.279526      -306.9315
   9   2.0000      -1.423001       -38.7218
  10   2.0000      -1.250214       -34.0201
  11   2.0000      -1.221576       -33.2408
  12   2.0000      -1.183304       -32.1993
  13   2.0000      -1.096690       -29.8425
  14   2.0000      -0.962525       -26.1916
  15   2.0000      -0.892607       -24.2891
  16   2.0000      -0.819765       -22.3069
  17   2.0000      -0.766093       -20.8464
  18   2.0000      -0.709423       -19.3044
  19   2.0000      -0.697447       -18.9785
  20   2.0000      -0.671360       -18.2686
  21   2.0000      -0.646627       -17.5956
  22   2.0000      -0.631547       -17.1853
  23   2.0000      -0.617884       -16.8135
  24   2.0000      -0.582666       -15.8552
  25   2.0000      -0.570678       -15.5289
  26   2.0000      -0.551980       -15.0201
  27   2.0000      -0.528215       -14.3735
  28   2.0000      -0.503175       -13.6921
  29   2.0000      -0.484601       -13.1867
  30   2.0000      -0.478070       -13.0089
  31   2.0000      -0.440150       -11.9771
  32   2.0000      -0.419096       -11.4042
  33   2.0000      -0.364605        -9.9214
  34   0.0000       0.112188         3.0528
  35   0.0000       0.143109         3.8942
  36   0.0000       0.151861         4.1324
  37   0.0000       0.162476         4.4212
  38   0.0000       0.173881         4.7315

MULLIKEN ATOMIC CHARGES
-----------------------
   0 C :   -0.237581
   1 O :   -0.315693
   2 C :    0.308054
   3 C :   -0.254428
   4 N :   -0.055396
   5 C :   -0.076186
   6 N :   -0.542891
   7 C :    0.018651
   8 N :   -0.557919
   9 H :    0.152741
  10 H :    0.149377
  11 H :    0.117626
  12 H :    0.147371
  13 H :    0.244217
  14 H :    0.248303
  15 H :    0.151111
  16 H :    0.249282
  17 H :    0.253362
Sum of atomic charges:    0.0000000

LOEWDIN ATOMIC CHARGES
----------------------
   0 C :   -0.327880
   1 O :    0.194524
   2 C :   -0.326565
   3 C :   -0.163469
   4 N :    0.069536
   5 C :   -0.247806
   6 N :   -0.126534
   7 C :   -0.240344
   8 N :   -0.122768
   9 H :    0.115971
  10 H :    0.117306
  11 H :    0.105191
  12 H :    0.151578
  13 H :    0.163519
  14 H :    0.161871
  15 H :    0.151612
  16 H :    0.161589
  17 H :    0.162669

  Mayer bond orders larger than 0.1
B(  0-C ,  1-O ) :   0.8654 B(  0-C ,  9-H ) :   0.9315 B(  0-C , 10-H ) :   0.9359
B(  0-C , 11-H ) :   0.9328 B(  1-O ,  2-C ) :   0.9832 B(  2-C ,  3-C ) :   0.9040
B(  2-C ,  5-C ) :   0.8374 B(  2-C ,  7-C ) :   0.7989 B(  3-C ,  4-N ) :   2.8473
B(  5-C ,  6-N ) :   0.9909 B(  5-C ,  7-C ) :   0.8740 B(  5-C , 12-H ) :   0.9171
B(  6-N , 13-H ) :   0.8840 B(  6-N , 14-H ) :   0.8716 B(  7-C ,  8-N ) :   0.9476
B(  7-C , 15-H ) :   0.9351 B(  8-N , 16-H ) :   0.8942 B(  8-N , 17-H ) :   0.8901

MP2 TOTAL ENERGY:     -434.513386230 Eh
FINAL SINGLE POINT ENERGY      -434.513386230389

DIPOLE MOMENT
-------------
                                X             Y             Z
Electronic contribution:      5.58954       0.38573       1.18048
Nuclear contribution   :     -7.17322       0.06353      -1.36052
                        -----------------------------------------
Total Dipole Moment    :     -1.58368       0.44927      -0.18004
                        -----------------------------------------
Magnitude (a.u.)       :      1.65599
Magnitude (Debye)      :      4.20919

                             ****ORCA TERMINATED NORMALLY****
TOTAL RUN TIME: 0 days 0 hours 17 minutes 50 seconds 244 msec
