                         Program Version 3.0.3 - RELEASE   -
|  1> ! RI-MP2 RIJK def2-TZVP def2-TZVP/C def2-TZVP/JK TIGHTSCF
|  2> % maxcore 2000
|  3> % mp2 density relaxed end
|  4> *xyz 0 1
|  5>  O        0.0015042184     0.0011553342    -0.0562630597
|  6>  C       -0.0018213349     1.1983175699    -0.0399297207
|  7>  C       -1.2462588720     2.0995916826     0.0874099025
|  8>  O       -1.6538525825     2.2440875150     1.4751510470
|  9>  C       -1.4468815003     3.6782302274     1.4148067143
| 10>  C       -0.7529579169     3.5545233184     0.0445950370
| 11>  C        0.7716949383     3.4251474984     0.0253395747
| 12>  C        1.4820135043     2.7287120856     1.1230982779
| 13>  N        1.1785121220     2.0094856820    -0.1445679955
| 14>  H       -2.0692863102     1.7741881972    -0.5558288148
| 15>  H       -2.4034230904     4.2133913948     1.3857030903
| 16>  H       -0.8456726470     4.0483264614     2.2515179254
| 17>  H       -1.1112914071     4.2047533549    -0.7523445313
| 18>  H        1.3274230075     4.1284494802    -0.5865397824
| 19>  H        2.5390463087     2.9119907564     1.2892731844
| 20>  H        0.9220147722     2.4296202517     2.0039647710
| 21> *
| 22>
| 23>                          ****END OF INPUT****

CARTESIAN COORDINATES (ANGSTROEM)
---------------------------------
  O      0.001504    0.001155   -0.056263
  C     -0.001821    1.198318   -0.039930
  C     -1.246259    2.099592    0.087410
  O     -1.653853    2.244088    1.475151
  C     -1.446882    3.678230    1.414807
  C     -0.752958    3.554523    0.044595
  C      0.771695    3.425147    0.025340
  C      1.482014    2.728712    1.123098
  N      1.178512    2.009486   -0.144568
  H     -2.069286    1.774188   -0.555829
  H     -2.403423    4.213391    1.385703
  H     -0.845673    4.048326    2.251518
  H     -1.111291    4.204753   -0.752345
  H      1.327423    4.128449   -0.586540
  H      2.539046    2.911991    1.289273
  H      0.922015    2.429620    2.003965

 Total Charge           Charge          ....    0
 Multiplicity           Mult            ....    1
 Number of Electrons    NEL             ....   66
 Basis Dimension        Dim             ....  321

ORBITAL ENERGIES
----------------

  NO   OCC          E(Eh)            E(eV)
   0   2.0000     -20.576533      -559.9159
   1   2.0000     -20.552678      -559.2668
   2   2.0000     -15.587132      -424.1474
   3   2.0000     -11.358328      -309.0758
   4   2.0000     -11.311032      -307.7888
   5   2.0000     -11.303603      -307.5867
   6   2.0000     -11.290213      -307.2223
   7   2.0000     -11.288538      -307.1767
   8   2.0000     -11.266561      -306.5787
   9   2.0000      -1.418226       -38.5919
  10   2.0000      -1.395122       -37.9632
  11   2.0000      -1.300782       -35.3961
  12   2.0000      -1.057891       -28.7867
  13   2.0000      -1.006693       -27.3935
  14   2.0000      -0.939680       -25.5700
  15   2.0000      -0.873426       -23.7671
  16   2.0000      -0.788782       -21.4639
  17   2.0000      -0.780050       -21.2262
  18   2.0000      -0.727011       -19.7830
  19   2.0000      -0.675966       -18.3940
  20   2.0000      -0.656122       -17.8540
  21   2.0000      -0.642339       -17.4789
  22   2.0000      -0.634813       -17.2741
  23   2.0000      -0.617311       -16.7979
  24   2.0000      -0.568521       -15.4703
  25   2.0000      -0.550904       -14.9909
  26   2.0000      -0.535273       -14.5655
  27   2.0000      -0.524116       -14.2619
  28   2.0000      -0.486530       -13.2391
  29   2.0000      -0.474230       -12.9045
  30   2.0000      -0.453731       -12.3467
  31   2.0000      -0.415521       -11.3069
  32   2.0000      -0.401976       -10.9383
  33   0.0000       0.118432         3.2227
  34   0.0000       0.133362         3.6290
  35   0.0000       0.149301         4.0627
  36   0.0000       0.162653         4.4260
  37   0.0000       0.176800         4.8110

MULLIKEN ATOMIC CHARGES
-----------------------
   0 O :   -0.241489
   1 C :    0.176024
   2 C :    0.051836
   3 O :   -0.324217
   4 C :   -0.063477
   5 C :   -0.040298
   6 C :   -0.141400
   7 C :   -0.168435
   8 N :   -0.178632
   9 H :    0.118081
  10 H :    0.113652
  11 H :    0.114238
  12 H :    0.141413
  13 H :    0.135846
  14 H :    0.145228
  15 H :    0.161628
Sum of atomic charges:   -0.0000000

LOEWDIN ATOMIC CHARGES
----------------------
   0 O :    0.178246
   1 C :   -0.367666
   2 C :   -0.207587
   3 O :    0.140237
   4 C :   -0.244109
   5 C :   -0.193285
   6 C :   -0.211556
   7 C :   -0.202660
   8 N :    0.155329
   9 H :    0.143226
  10 H :    0.122801
  11 H :    0.120510
  12 H :    0.150420
  13 H :    0.144807
  14 H :    0.131993
  15 H :    0.139295

  Mayer bond orders larger than 0.1
B(  0-O ,  1-C ) :   2.0621 B(  1-C ,  2-C ) :   0.8748 B(  1-C ,  8-N ) :   1.0088
B(  2-C ,  3-O ) :   0.9454 B(  2-C ,  5-C ) :   0.9205 B(  2-C ,  9-H ) :   0.9081
B(  3-O ,  4-C ) :   0.9123 B(  4-C ,  5-C ) :   0.9435 B(  4-C , 10-H ) :   0.9141
B(  4-C , 11-H ) :   0.9154 B(  5-C ,  6-C ) :   0.9342 B(  5-C , 12-H ) :   0.9125
B(  6-C ,  7-C ) :   0.9606 B(  6-C ,  8-N ) :   0.8734 B(  6-C , 13-H ) :   0.9138
B(  7-C ,  8-N ) :   0.8403 B(  7-C , 14-H ) :   0.9221 B(  7-C , 15-H ) :   0.9055

MP2 TOTAL ENERGY:     -437.131938405 Eh
FINAL SINGLE POINT ENERGY      -437.131938404568

DIPOLE MOMENT
-------------
                                X             Y             Z
Electronic contribution:      0.04134      -5.14908      -1.68694
Nuclear contribution   :     -0.18966       7.07345       1.70298
                        -----------------------------------------
Total Dipole Moment    :     -0.14832       1.92438       0.01604
                        -----------------------------------------
Magnitude (a.u.)       :      1.93015
Magnitude (Debye)      :      4.90606

                             ****ORCA TERMINATED NORMALLY****
TOTAL RUN TIME: 0 days 0 hours 17 minutes 55 seconds 256 msec
