                         Program Version 3.0.3 - RELEASE   -
|  1> ! RI-MP2 RIJK def2-TZVP def2-TZVP/C def2-TZVP/JK TIGHTSCF
|  2> % maxcore 2000
|  3> % mp2 density relaxed end
|  4> *xyz 0 1
|  5>  C        0.0139371340     1.4879899315     0.2818942334
|  6>  C        0.0009849567     0.0411433645     0.1216442738
|  7>  C       -0.0009768186    -1.1536977995    -0.0247176701
|  8>  C       -0.0185687324    -2.6089823391    -0.1746518918
|  9>  N       -1.3462583853    -3.1778818084    -0.0719829464
| 10>  C       -2.3933677814    -3.0716234851     0.9479610290
| 11>  C       -3.3182136300    -3.8616009297    -0.0226547578
| 12>  C       -2.1170972022    -3.8424674439    -0.9976934135
| 13>  O       -1.8815336959    -4.2240220935    -2.1138913118
| 14>  H        0.7997283025     1.9449243544    -0.3294306700
| 15>  H       -0.9409167584     1.9286033023    -0.0247614704
| 16>  H        0.1940469490     1.7745131040     1.3237376648
| 17>  H        0.3557647819    -2.9040341069    -1.1620636125
| 18>  H        0.6485230578    -3.0664684484     0.5699494543
| 19>  H       -2.1509442635    -3.5763566494     1.8893340932
| 20>  H       -2.7019226096    -2.0418550843     1.1537469600
| 21>  H       -3.6138885213    -4.8577416388     0.3105678433
| 22>  H       -4.1937637733    -3.3196203697    -0.3839247373
| 23> *
| 24>
| 25>                          ****END OF INPUT****

CARTESIAN COORDINATES (ANGSTROEM)
---------------------------------
  C      0.013937    1.487990    0.281894
  C      0.000985    0.041143    0.121644
  C     -0.000977   -1.153698   -0.024718
  C     -0.018569   -2.608982   -0.174652
  N     -1.346258   -3.177882   -0.071983
  C     -2.393368   -3.071623    0.947961
  C     -3.318214   -3.861601   -0.022655
  C     -2.117097   -3.842467   -0.997693
  O     -1.881534   -4.224022   -2.113891
  H      0.799728    1.944924   -0.329431
  H     -0.940917    1.928603   -0.024761
  H      0.194047    1.774513    1.323738
  H      0.355765   -2.904034   -1.162064
  H      0.648523   -3.066468    0.569949
  H     -2.150944   -3.576357    1.889334
  H     -2.701923   -2.041855    1.153747
  H     -3.613889   -4.857742    0.310568
  H     -4.193764   -3.319620   -0.383925

 Total Charge           Charge          ....    0
 Multiplicity           Mult            ....    1
 Number of Electrons    NEL             ....   66
 Basis Dimension        Dim             ....  333

ORBITAL ENERGIES
----------------

  NO   OCC          E(Eh)            E(eV)
   0   2.0000     -20.522353      -558.4416
   1   2.0000     -15.587042      -424.1450
   2   2.0000     -11.348145      -308.7987
   3   2.0000     -11.295575      -307.3682
   4   2.0000     -11.278949      -306.9158
   5   2.0000     -11.252856      -306.2058
   6   2.0000     -11.248791      -306.0952
   7   2.0000     -11.234159      -305.6970
   8   2.0000     -11.225618      -305.4646
   9   2.0000      -1.386166       -37.7195
  10   2.0000      -1.279372       -34.8135
  11   2.0000      -1.091472       -29.7005
  12   2.0000      -1.047504       -28.5040
  13   2.0000      -0.971724       -26.4420
  14   2.0000      -0.913787       -24.8654
  15   2.0000      -0.898905       -24.4605
  16   2.0000      -0.739543       -20.1240
  17   2.0000      -0.697553       -18.9814
  18   2.0000      -0.685653       -18.6576
  19   2.0000      -0.660855       -17.9828
  20   2.0000      -0.651127       -17.7181
  21   2.0000      -0.619474       -16.8567
  22   2.0000      -0.598108       -16.2753
  23   2.0000      -0.592276       -16.1166
  24   2.0000      -0.585747       -15.9390
  25   2.0000      -0.548407       -14.9229
  26   2.0000      -0.541124       -14.7247
  27   2.0000      -0.524876       -14.2826
  28   2.0000      -0.514662       -14.0047
  29   2.0000      -0.421205       -11.4616
  30   2.0000      -0.390716       -10.6319
  31   2.0000      -0.379655       -10.3310
  32   2.0000      -0.373265       -10.1570
  33   0.0000       0.126973         3.4551
  34   0.0000       0.143492         3.9046
  35   0.0000       0.157023         4.2728
  36   0.0000       0.171664         4.6712
  37   0.0000       0.177839         4.8393

MULLIKEN ATOMIC CHARGES
-----------------------
   0 C :   -0.479072
   1 C :    0.018904
   2 C :   -0.022870
   3 C :   -0.252705
   4 N :   -0.084378
   5 C :   -0.138423
   6 C :   -0.242323
   7 C :    0.189596
   8 O :   -0.332452
   9 H :    0.165725
  10 H :    0.164105
  11 H :    0.162271
  12 H :    0.181923
  13 H :    0.157427
  14 H :    0.117203
  15 H :    0.124995
  16 H :    0.136232
  17 H :    0.133842
Sum of atomic charges:   -0.0000000

LOEWDIN ATOMIC CHARGES
----------------------
   0 C :   -0.292436
   1 C :   -0.099798
   2 C :   -0.086522
   3 C :   -0.250688
   4 N :    0.209416
   5 C :   -0.221617
   6 C :   -0.200053
   7 C :   -0.427385
   8 O :    0.095160
   9 H :    0.143165
  10 H :    0.142293
  11 H :    0.140893
  12 H :    0.167056
  13 H :    0.151799
  14 H :    0.122738
  15 H :    0.126192
  16 H :    0.139595
  17 H :    0.140192

  Mayer bond orders larger than 0.1
B(  0-C ,  1-C ) :   0.8677 B(  0-C ,  9-H ) :   0.9457 B(  0-C , 10-H ) :   0.9440
B(  0-C , 11-H ) :   0.9472 B(  1-C ,  2-C ) :   2.7318 B(  2-C ,  3-C ) :   0.9306
B(  3-C ,  4-N ) :   0.8828 B(  3-C , 12-H ) :   0.9222 B(  3-C , 13-H ) :   0.9565
B(  4-N ,  5-C ) :   0.9079 B(  4-N ,  7-C ) :   1.1108 B(  5-C ,  6-C ) :   0.9363
B(  5-C , 14-H ) :   0.9204 B(  5-C , 15-H ) :   0.9204 B(  6-C ,  7-C ) :   0.9160
B(  6-C , 16-H ) :   0.9115 B(  6-C , 17-H ) :   0.9078 B(  7-C ,  8-O ) :   1.9867

MP2 TOTAL ENERGY:     -401.236339221 Eh
FINAL SINGLE POINT ENERGY      -401.236339221345

DIPOLE MOMENT
-------------
                                X             Y             Z
Electronic contribution:      0.27719      -5.22787      -3.80600
Nuclear contribution   :     -0.28656       6.09510       5.16151
                        -----------------------------------------
Total Dipole Moment    :     -0.00937       0.86723       1.35550
                        -----------------------------------------
Magnitude (a.u.)       :      1.60921
Magnitude (Debye)      :      4.09029

                             ****ORCA TERMINATED NORMALLY****
TOTAL RUN TIME: 0 days 0 hours 16 minutes 23 seconds 908 msec
