                         Program Version 3.0.3 - RELEASE   -
|  1> ! RI-MP2 RIJK def2-TZVP def2-TZVP/C def2-TZVP/JK TIGHTSCF
|  2> % maxcore 2000
|  3> % mp2 density relaxed end
|  4> *xyz 0 1
|  5>  O       -0.0030804363     2.5704560065    -1.8206227146
|  6>  C       -0.0268516421     1.7695810534    -0.9188723995
|  7>  C        1.1540510327     1.7144046411     0.0778281258
|  8>  C        1.5170286270     0.3864012563     0.5483729656
|  9>  C        1.8128143854    -0.7162996422     0.9250142569
| 10>  C       -1.2036903553     0.8370606570    -0.6807427719
| 11>  C       -1.8240729541     1.0111326948     0.6969318154
| 12>  C       -2.7213805186     2.1932027304     0.9748008420
| 13>  C       -3.3051001617     0.8048261448     0.8845555956
| 14>  H        1.9994835532     2.2119969265    -0.4062431188
| 15>  H        0.8660584807     2.3433885704     0.9325485100
| 16>  H        2.0813553596    -1.6881636687     1.2583046845
| 17>  H       -1.9364411119     1.0431259682    -1.4656203213
| 18>  H       -0.8566469947    -0.1971076968    -0.7973692059
| 19>  H       -1.1937621634     0.6807449505     1.5169213130
| 20>  H       -2.6665298179     2.6681190678     1.9480475104
| 21>  H       -2.9192258432     2.8781571221     0.1567539804
| 22>  H       -3.8982316452     0.5600372738     0.0097018490
| 23>  H       -3.6435139342     0.3268229439     1.7971248134
| 24> *
| 25>
| 26>                          ****END OF INPUT****

CARTESIAN COORDINATES (ANGSTROEM)
---------------------------------
  O     -0.003080    2.570456   -1.820623
  C     -0.026852    1.769581   -0.918872
  C      1.154051    1.714405    0.077828
  C      1.517029    0.386401    0.548373
  C      1.812814   -0.716300    0.925014
  C     -1.203690    0.837061   -0.680743
  C     -1.824073    1.011133    0.696932
  C     -2.721381    2.193203    0.974801
  C     -3.305100    0.804826    0.884556
  H      1.999484    2.211997   -0.406243
  H      0.866058    2.343389    0.932549
  H      2.081355   -1.688164    1.258305
  H     -1.936441    1.043126   -1.465620
  H     -0.856647   -0.197108   -0.797369
  H     -1.193762    0.680745    1.516921
  H     -2.666530    2.668119    1.948048
  H     -2.919226    2.878157    0.156754
  H     -3.898232    0.560037    0.009702
  H     -3.643514    0.326823    1.797125

 Total Charge           Charge          ....    0
 Multiplicity           Mult            ....    1
 Number of Electrons    NEL             ....   66
 Basis Dimension        Dim             ....  339

ORBITAL ENERGIES
----------------

  NO   OCC          E(Eh)            E(eV)
   0   2.0000     -20.551904      -559.2457
   1   2.0000     -11.339600      -308.5662
   2   2.0000     -11.269589      -306.6611
   3   2.0000     -11.249208      -306.1065
   4   2.0000     -11.245217      -305.9979
   5   2.0000     -11.240910      -305.8807
   6   2.0000     -11.236058      -305.7487
   7   2.0000     -11.233570      -305.6810
   8   2.0000     -11.232099      -305.6409
   9   2.0000      -1.397456       -38.0267
  10   2.0000      -1.156328       -31.4653
  11   2.0000      -1.089868       -29.6568
  12   2.0000      -1.015833       -27.6422
  13   2.0000      -0.976497       -26.5718
  14   2.0000      -0.831314       -22.6212
  15   2.0000      -0.809804       -22.0359
  16   2.0000      -0.764389       -20.8001
  17   2.0000      -0.726874       -19.7792
  18   2.0000      -0.683021       -18.5859
  19   2.0000      -0.664255       -18.0753
  20   2.0000      -0.648620       -17.6499
  21   2.0000      -0.642840       -17.4926
  22   2.0000      -0.620769       -16.8920
  23   2.0000      -0.586444       -15.9580
  24   2.0000      -0.560835       -15.2611
  25   2.0000      -0.523050       -14.2329
  26   2.0000      -0.518515       -14.1095
  27   2.0000      -0.494856       -13.4657
  28   2.0000      -0.456654       -12.4262
  29   2.0000      -0.426143       -11.5959
  30   2.0000      -0.420120       -11.4320
  31   2.0000      -0.400217       -10.8905
  32   2.0000      -0.381781       -10.3888
  33   0.0000       0.127645         3.4734
  34   0.0000       0.138153         3.7593
  35   0.0000       0.157550         4.2871
  36   0.0000       0.160483         4.3670
  37   0.0000       0.162536         4.4228

MULLIKEN ATOMIC CHARGES
-----------------------
   0 O :   -0.267483
   1 C :    0.170288
   2 C :   -0.262271
   3 C :   -0.075215
   4 C :   -0.175587
   5 C :   -0.177222
   6 C :   -0.155353
   7 C :   -0.266193
   8 C :   -0.262259
   9 H :    0.164886
  10 H :    0.161921
  11 H :    0.192726
  12 H :    0.129391
  13 H :    0.143712
  14 H :    0.141137
  15 H :    0.131486
  16 H :    0.140891
  17 H :    0.132234
  18 H :    0.132909
Sum of atomic charges:    0.0000000

LOEWDIN ATOMIC CHARGES
----------------------
   0 O :    0.160349
   1 C :   -0.302543
   2 C :   -0.216510
   3 C :   -0.116248
   4 C :   -0.099432
   5 C :   -0.213053
   6 C :   -0.228327
   7 C :   -0.227854
   8 C :   -0.225223
   9 H :    0.167348
  10 H :    0.174300
  11 H :    0.127975
  12 H :    0.153513
  13 H :    0.159757
  14 H :    0.152231
  15 H :    0.131181
  16 H :    0.136872
  17 H :    0.133572
  18 H :    0.132091

  Mayer bond orders larger than 0.1
B(  0-O ,  1-C ) :   2.0447 B(  1-C ,  2-C ) :   0.8899 B(  1-C ,  5-C ) :   0.9166
B(  2-C ,  3-C ) :   0.9808 B(  2-C ,  5-C ) :  -0.1138 B(  2-C ,  9-H ) :   0.9088
B(  2-C , 10-H ) :   0.9031 B(  3-C ,  4-C ) :   2.6521 B(  4-C , 11-H ) :   0.9084
B(  5-C ,  6-C ) :   0.8971 B(  5-C , 12-H ) :   0.9164 B(  5-C , 13-H ) :   0.8993
B(  6-C ,  7-C ) :   0.8829 B(  6-C ,  8-C ) :   0.8825 B(  6-C , 14-H ) :   0.9194
B(  7-C ,  8-C ) :   0.9069 B(  7-C , 15-H ) :   0.9300 B(  7-C , 16-H ) :   0.9260
B(  8-C , 17-H ) :   0.9292 B(  8-C , 18-H ) :   0.9296

MP2 TOTAL ENERGY:     -385.167709156 Eh
FINAL SINGLE POINT ENERGY      -385.167709155726

DIPOLE MOMENT
-------------
                                X             Y             Z
Electronic contribution:      6.02497       0.64488      -3.37162
Nuclear contribution   :     -6.22107      -1.19776       4.15695
                        -----------------------------------------
Total Dipole Moment    :     -0.19610      -0.55288       0.78533
                        -----------------------------------------
Magnitude (a.u.)       :      0.98025
Magnitude (Debye)      :      2.49159

                             ****ORCA TERMINATED NORMALLY****
TOTAL RUN TIME: 0 days 0 hours 17 minutes 42 seconds 772 msec
