                         Program Version 3.0.3 - RELEASE   -
|  1> ! RI-MP2 RIJK def2-TZVP def2-TZVP/C def2-TZVP/JK TIGHTSCF
|  2> % maxcore 2000
|  3> % mp2 density relaxed end
|  4> *xyz 0 1
|  5>  C       -0.3753606895     1.4965211246    -0.0832958910
|  6>  C        0.1480926441     0.0757364036    -0.0671333166
|  7>  O        1.4582775160    -0.0471987608    -0.6737833766
|  8>  C        1.9353601843    -0.8717551237     0.4049281592
|  9>  C        0.6651233397    -0.5965152903     1.2377514710
| 10>  C        0.8653315665     0.3178688861     2.4498987817
| 11>  O       -0.3530352491     0.7691540846     3.0112873607
| 12>  C        1.6990978868    -0.3661883078     3.4626781727
| 13>  N        2.3227187236    -0.9335653447     4.2531059889
| 14>  H        0.3229719593     2.1920258146     0.3895150826
| 15>  H       -0.5156941285     1.8172733760    -1.1200683665
| 16>  H       -1.3348912235     1.5606553778     0.4367219699
| 17>  H       -0.5669651679    -0.5842504522    -0.5800538405
| 18>  H        2.0616802740    -1.9194848225     0.1056422851
| 19>  H        2.8826287681    -0.5063128116     0.8193581416
| 20>  H        0.1080429803    -1.4839555462     1.5504873717
| 21>  H        1.3976284338     1.2241446300     2.1422614334
| 22>  H       -0.8277191580     0.0051500825     3.3593578027
| 23> *
| 24>
| 25>                          ****END OF INPUT****

CARTESIAN COORDINATES (ANGSTROEM)
---------------------------------
  C     -0.375361    1.496521   -0.083296
  C      0.148093    0.075736   -0.067133
  O      1.458278   -0.047199   -0.673783
  C      1.935360   -0.871755    0.404928
  C      0.665123   -0.596515    1.237751
  C      0.865332    0.317869    2.449899
  O     -0.353035    0.769154    3.011287
  C      1.699098   -0.366188    3.462678
  N      2.322719   -0.933565    4.253106
  H      0.322972    2.192026    0.389515
  H     -0.515694    1.817273   -1.120068
  H     -1.334891    1.560655    0.436722
  H     -0.566965   -0.584250   -0.580054
  H      2.061680   -1.919485    0.105642
  H      2.882629   -0.506313    0.819358
  H      0.108043   -1.483956    1.550487
  H      1.397628    1.224145    2.142261
  H     -0.827719    0.005150    3.359358

 Total Charge           Charge          ....    0
 Multiplicity           Mult            ....    1
 Number of Electrons    NEL             ....   68
 Basis Dimension        Dim             ....  333

ORBITAL ENERGIES
----------------

  NO   OCC          E(Eh)            E(eV)
   0   2.0000     -20.600205      -560.5601
   1   2.0000     -20.562287      -559.5283
   2   2.0000     -15.587723      -424.1635
   3   2.0000     -11.351857      -308.8997
   4   2.0000     -11.303616      -307.5870
   5   2.0000     -11.298048      -307.4355
   6   2.0000     -11.284317      -307.0619
   7   2.0000     -11.267016      -306.5911
   8   2.0000     -11.228416      -305.5407
   9   2.0000      -1.411200       -38.4007
  10   2.0000      -1.394544       -37.9475
  11   2.0000      -1.232060       -33.5261
  12   2.0000      -1.088703       -29.6251
  13   2.0000      -1.026914       -27.9438
  14   2.0000      -0.961988       -26.1770
  15   2.0000      -0.891168       -24.2499
  16   2.0000      -0.784732       -21.3537
  17   2.0000      -0.777337       -21.1524
  18   2.0000      -0.717504       -19.5243
  19   2.0000      -0.682726       -18.5779
  20   2.0000      -0.649215       -17.6660
  21   2.0000      -0.638017       -17.3613
  22   2.0000      -0.616541       -16.7769
  23   2.0000      -0.592138       -16.1129
  24   2.0000      -0.585538       -15.9333
  25   2.0000      -0.561397       -15.2764
  26   2.0000      -0.543146       -14.7798
  27   2.0000      -0.538777       -14.6609
  28   2.0000      -0.516709       -14.0604
  29   2.0000      -0.483865       -13.1666
  30   2.0000      -0.479450       -13.0465
  31   2.0000      -0.472772       -12.8648
  32   2.0000      -0.464147       -12.6301
  33   2.0000      -0.426441       -11.6040
  34   0.0000       0.108817         2.9611
  35   0.0000       0.139686         3.8011
  36   0.0000       0.141974         3.8633
  37   0.0000       0.152510         4.1500
  38   0.0000       0.175011         4.7623

MULLIKEN ATOMIC CHARGES
-----------------------
   0 C :   -0.351465
   1 C :    0.063753
   2 O :   -0.319126
   3 C :   -0.054814
   4 C :   -0.088072
   5 C :    0.116170
   6 O :   -0.449277
   7 C :   -0.187458
   8 N :   -0.042819
   9 H :    0.114814
  10 H :    0.146890
  11 H :    0.136122
  12 H :    0.084063
  13 H :    0.107050
  14 H :    0.115582
  15 H :    0.129233
  16 H :    0.151152
  17 H :    0.328203
Sum of atomic charges:   -0.0000000

LOEWDIN ATOMIC CHARGES
----------------------
   0 C :   -0.291302
   1 C :   -0.280089
   2 O :    0.137068
   3 C :   -0.245804
   4 C :   -0.199976
   5 C :   -0.325806
   6 O :    0.017749
   7 C :   -0.170183
   8 N :    0.073467
   9 H :    0.125090
  10 H :    0.131941
  11 H :    0.132201
  12 H :    0.138615
  13 H :    0.122762
  14 H :    0.125490
  15 H :    0.150334
  16 H :    0.173643
  17 H :    0.184800

  Mayer bond orders larger than 0.1
B(  0-C ,  1-C ) :   0.9336 B(  0-C ,  9-H ) :   0.9273 B(  0-C , 10-H ) :   0.9278
B(  0-C , 11-H ) :   0.9256 B(  1-C ,  2-O ) :   0.9704 B(  1-C ,  4-C ) :   0.9237
B(  1-C , 12-H ) :   0.9242 B(  2-O ,  3-C ) :   0.9521 B(  3-C ,  4-C ) :   0.9545
B(  3-C , 13-H ) :   0.9110 B(  3-C , 14-H ) :   0.9075 B(  4-C ,  5-C ) :   0.9005
B(  4-C , 15-H ) :   0.8945 B(  5-C ,  6-O ) :   0.8879 B(  5-C ,  7-C ) :   0.9184
B(  5-C , 16-H ) :   0.9159 B(  6-O , 17-H ) :   0.8334 B(  7-C ,  8-N ) :   2.8606

MP2 TOTAL ENERGY:     -438.354201668 Eh
FINAL SINGLE POINT ENERGY      -438.354201668423

DIPOLE MOMENT
-------------
                                X             Y             Z
Electronic contribution:      3.20770      -2.20903       5.62770
Nuclear contribution   :     -4.20208       2.07047      -6.15305
                        -----------------------------------------
Total Dipole Moment    :     -0.99437      -0.13856      -0.52535
                        -----------------------------------------
Magnitude (a.u.)       :      1.13312
Magnitude (Debye)      :      2.88017

                             ****ORCA TERMINATED NORMALLY****
TOTAL RUN TIME: 0 days 0 hours 19 minutes 25 seconds 296 msec
