                         Program Version 3.0.3 - RELEASE   -
|  1> ! RI-MP2 RIJK def2-TZVP def2-TZVP/C def2-TZVP/JK TIGHTSCF
|  2> % maxcore 2000
|  3> % mp2 density relaxed end
|  4> *xyz 0 1
|  5>  C       -0.0215680371     0.6796731077     1.0278399183
|  6>  O       -0.1712149060    -0.4558628122     0.1917903816
|  7>  C       -1.4810585768    -0.8251961888    -0.0142141278
|  8>  C       -2.3021272566    -1.5533591248     1.0256857986
|  9>  C       -1.9968155263    -2.2071092735    -0.3136200288
| 10>  N       -2.8241628699    -1.7086189850    -1.4050623655
| 11>  C       -4.2347086627    -2.0483975846    -1.4153257898
| 12>  C       -2.3668337559    -0.2941192006    -1.1566938796
| 13>  C       -3.4054317194     0.7817576771    -0.8721943614
| 14>  H        1.0510976257     0.8392884347     1.1585230138
| 15>  H       -0.4611304910     1.5806004317     0.5772708607
| 16>  H       -0.4863748264     0.5180706811     2.0102003190
| 17>  H       -1.7087065055    -1.9409515884     1.8484773615
| 18>  H       -3.3090070456    -1.2493765194     1.2968410143
| 19>  H       -1.4672714111    -3.1503204114    -0.3941069045
| 20>  H       -4.7802812661    -1.8159467560    -0.4843471939
| 21>  H       -4.7347681058    -1.5309168608    -2.2400527429
| 22>  H       -4.3332225481    -3.1246056692    -1.5943977209
| 23>  H       -1.7359536311     0.0218151791    -1.9972449045
| 24>  H       -4.0040349611     0.5606983378     0.0155716907
| 25>  H       -2.9067328211     1.7433509369    -0.7113967362
| 26>  H       -4.0885491822     0.9064595684    -1.7191761724
| 27> *
| 28>
| 29>                          ****END OF INPUT****

CARTESIAN COORDINATES (ANGSTROEM)
---------------------------------
  C     -0.021568    0.679673    1.027840
  O     -0.171215   -0.455863    0.191790
  C     -1.481059   -0.825196   -0.014214
  C     -2.302127   -1.553359    1.025686
  C     -1.996816   -2.207109   -0.313620
  N     -2.824163   -1.708619   -1.405062
  C     -4.234709   -2.048398   -1.415326
  C     -2.366834   -0.294119   -1.156694
  C     -3.405432    0.781758   -0.872194
  H      1.051098    0.839288    1.158523
  H     -0.461130    1.580600    0.577271
  H     -0.486375    0.518071    2.010200
  H     -1.708707   -1.940952    1.848477
  H     -3.309007   -1.249377    1.296841
  H     -1.467271   -3.150320   -0.394107
  H     -4.780281   -1.815947   -0.484347
  H     -4.734768   -1.530917   -2.240053
  H     -4.333223   -3.124606   -1.594398
  H     -1.735954    0.021815   -1.997245
  H     -4.004035    0.560698    0.015572
  H     -2.906733    1.743351   -0.711397
  H     -4.088549    0.906460   -1.719176

 Total Charge           Charge          ....    0
 Multiplicity           Mult            ....    1
 Number of Electrons    NEL             ....   70
 Basis Dimension        Dim             ....  357

ORBITAL ENERGIES
----------------

  NO   OCC          E(Eh)            E(eV)
   0   2.0000     -20.564437      -559.5868
   1   2.0000     -15.543692      -422.9654
   2   2.0000     -11.282157      -307.0031
   3   2.0000     -11.274062      -306.7828
   4   2.0000     -11.258810      -306.3678
   5   2.0000     -11.252012      -306.1828
   6   2.0000     -11.238402      -305.8125
   7   2.0000     -11.226520      -305.4891
   8   2.0000     -11.219154      -305.2887
   9   2.0000      -1.389165       -37.8011
  10   2.0000      -1.260669       -34.3046
  11   2.0000      -1.082260       -29.4498
  12   2.0000      -1.013950       -27.5910
  13   2.0000      -0.940032       -25.5796
  14   2.0000      -0.928454       -25.2645
  15   2.0000      -0.841675       -22.9032
  16   2.0000      -0.789251       -21.4766
  17   2.0000      -0.725084       -19.7305
  18   2.0000      -0.702678       -19.1208
  19   2.0000      -0.670541       -18.2464
  20   2.0000      -0.629888       -17.1401
  21   2.0000      -0.614893       -16.7321
  22   2.0000      -0.608827       -16.5670
  23   2.0000      -0.597378       -16.2555
  24   2.0000      -0.579450       -15.7676
  25   2.0000      -0.553182       -15.0528
  26   2.0000      -0.543724       -14.7955
  27   2.0000      -0.528022       -14.3682
  28   2.0000      -0.512636       -13.9495
  29   2.0000      -0.502112       -13.6632
  30   2.0000      -0.470785       -12.8107
  31   2.0000      -0.460186       -12.5223
  32   2.0000      -0.422030       -11.4840
  33   2.0000      -0.380896       -10.3647
  34   2.0000      -0.334635        -9.1059
  35   0.0000       0.133402         3.6301
  36   0.0000       0.157381         4.2825
  37   0.0000       0.170849         4.6490
  38   0.0000       0.172956         4.7064
  39   0.0000       0.193307         5.2601

MULLIKEN ATOMIC CHARGES
-----------------------
   0 C :   -0.206970
   1 O :   -0.296975
   2 C :    0.152901
   3 C :   -0.322363
   4 C :   -0.074376
   5 N :   -0.148281
   6 C :   -0.314717
   7 C :   -0.029144
   8 C :   -0.395231
   9 H :    0.142036
  10 H :    0.111852
  11 H :    0.118558
  12 H :    0.133319
  13 H :    0.131672
  14 H :    0.132160
  15 H :    0.101082
  16 H :    0.132182
  17 H :    0.141363
  18 H :    0.094460
  19 H :    0.123011
  20 H :    0.135464
  21 H :    0.137996
Sum of atomic charges:   -0.0000000

LOEWDIN ATOMIC CHARGES
----------------------
   0 C :   -0.336364
   1 O :    0.197160
   2 C :   -0.308826
   3 C :   -0.204493
   4 C :   -0.196163
   5 N :    0.110718
   6 C :   -0.335800
   7 C :   -0.221885
   8 C :   -0.297172
   9 H :    0.113496
  10 H :    0.102571
  11 H :    0.104740
  12 H :    0.145262
  13 H :    0.125882
  14 H :    0.135375
  15 H :    0.100455
  16 H :    0.117308
  17 H :    0.120710
  18 H :    0.149764
  19 H :    0.122935
  20 H :    0.128078
  21 H :    0.126249

  Mayer bond orders larger than 0.1
B(  0-C ,  1-O ) :   0.8850 B(  0-C ,  9-H ) :   0.9406 B(  0-C , 10-H ) :   0.9338
B(  0-C , 11-H ) :   0.9352 B(  1-O ,  2-C ) :   1.0348 B(  2-C ,  3-C ) :   0.8744
B(  2-C ,  4-C ) :   0.8747 B(  2-C ,  7-C ) :   0.9280 B(  3-C ,  4-C ) :   0.8787
B(  3-C , 12-H ) :   0.9175 B(  3-C , 13-H ) :   0.9001 B(  4-C ,  5-N ) :   0.9991
B(  4-C , 14-H ) :   0.8991 B(  5-N ,  6-C ) :   0.8959 B(  5-N ,  7-C ) :   0.9620
B(  6-C , 15-H ) :   0.9240 B(  6-C , 16-H ) :   0.9388 B(  6-C , 17-H ) :   0.9384
B(  7-C ,  8-C ) :   0.9155 B(  7-C , 18-H ) :   0.9001 B(  8-C , 19-H ) :   0.9304
B(  8-C , 20-H ) :   0.9328 B(  8-C , 21-H ) :   0.9374

MP2 TOTAL ENERGY:     -403.590094377 Eh
FINAL SINGLE POINT ENERGY      -403.590094376860

DIPOLE MOMENT
-------------
                                X             Y             Z
Electronic contribution:      5.07936      -3.23255      -1.20679
Nuclear contribution   :     -5.45253       3.70192       1.69392
                        -----------------------------------------
Total Dipole Moment    :     -0.37317       0.46938       0.48713
                        -----------------------------------------
Magnitude (a.u.)       :      0.77257
Magnitude (Debye)      :      1.96371

                             ****ORCA TERMINATED NORMALLY****
TOTAL RUN TIME: 0 days 0 hours 19 minutes 4 seconds 2 msec
