                         Program Version 3.0.3 - RELEASE   -
|  1> ! RI-MP2 RIJK def2-TZVP def2-TZVP/C def2-TZVP/JK TIGHTSCF
|  2> % maxcore 2000
|  3> % mp2 density relaxed end
|  4> *xyz 0 1
|  5>  C        0.2789824455     1.6428584430     0.4641926746
|  6>  C        1.6450276775     1.5059121671    -0.2747428913
|  7>  C        1.2827385010     0.0590870371    -0.6807994385
|  8>  C        1.6163198202    -0.5240120544    -2.0590271556
|  9>  C        2.5150118012    -1.7434983067    -1.7560001273
| 10>  C        1.9404956402    -2.3077447029    -0.4417356288
| 11>  C        1.5880974200    -1.0520981125     0.3795276588
| 12>  C        0.1423353251    -0.9221846576     0.9509540132
| 13>  C       -0.1486343623     0.2337295316    -0.0369438997
| 14>  H        0.3431245933     1.7330562991     1.5527248186
| 15>  H       -0.3449974474     2.4603854671     0.0953997210
| 16>  H        1.7218230693     2.1765723074    -1.1363471842
| 17>  H        2.5499880123     1.6271650011     0.3301284521
| 18>  H        0.7007002958    -0.8522891261    -2.5670176809
| 19>  H        2.1006711556     0.2035243211    -2.7184217218
| 20>  H        2.5363196184    -2.4779448981    -2.5669822213
| 21>  H        3.5478934038    -1.4099994081    -1.5948280897
| 22>  H        1.0321531053    -2.8842443978    -0.6581687172
| 23>  H        2.6318854020    -2.9808651409     0.0740599636
| 24>  H        2.3855168685    -0.8049625415     1.0880218591
| 25>  H       -0.4634490663    -1.8167581735     0.7763041778
| 26>  H        0.0616169554    -0.6611296778     2.0106056298
| 27>  H       -1.0726044444     0.1858689531    -0.6176153824
| 28> *
| 29>
| 30>                          ****END OF INPUT****

CARTESIAN COORDINATES (ANGSTROEM)
---------------------------------
  C      0.278982    1.642858    0.464193
  C      1.645028    1.505912   -0.274743
  C      1.282739    0.059087   -0.680799
  C      1.616320   -0.524012   -2.059027
  C      2.515012   -1.743498   -1.756000
  C      1.940496   -2.307745   -0.441736
  C      1.588097   -1.052098    0.379528
  C      0.142335   -0.922185    0.950954
  C     -0.148634    0.233730   -0.036944
  H      0.343125    1.733056    1.552725
  H     -0.344997    2.460385    0.095400
  H      1.721823    2.176572   -1.136347
  H      2.549988    1.627165    0.330128
  H      0.700700   -0.852289   -2.567018
  H      2.100671    0.203524   -2.718422
  H      2.536320   -2.477945   -2.566982
  H      3.547893   -1.409999   -1.594828
  H      1.032153   -2.884244   -0.658169
  H      2.631885   -2.980865    0.074060
  H      2.385517   -0.804963    1.088022
  H     -0.463449   -1.816758    0.776304
  H      0.061617   -0.661130    2.010606
  H     -1.072604    0.185869   -0.617615

 Total Charge           Charge          ....    0
 Multiplicity           Mult            ....    1
 Number of Electrons    NEL             ....   68
 Basis Dimension        Dim             ....  363

ORBITAL ENERGIES
----------------

  NO   OCC          E(Eh)            E(eV)
   0   2.0000     -11.217332      -305.2391
   1   2.0000     -11.215666      -305.1938
   2   2.0000     -11.214804      -305.1703
   3   2.0000     -11.213768      -305.1421
   4   2.0000     -11.213618      -305.1381
   5   2.0000     -11.212379      -305.1043
   6   2.0000     -11.212264      -305.1012
   7   2.0000     -11.211808      -305.0888
   8   2.0000     -11.211120      -305.0701
   9   2.0000      -1.166739       -31.7486
  10   2.0000      -1.067642       -29.0520
  11   2.0000      -1.003840       -27.3159
  12   2.0000      -0.933811       -25.4103
  13   2.0000      -0.903604       -24.5883
  14   2.0000      -0.826439       -22.4885
  15   2.0000      -0.798428       -21.7263
  16   2.0000      -0.774524       -21.0759
  17   2.0000      -0.675584       -18.3836
  18   2.0000      -0.651846       -17.7376
  19   2.0000      -0.639759       -17.4087
  20   2.0000      -0.614291       -16.7157
  21   2.0000      -0.583784       -15.8856
  22   2.0000      -0.563172       -15.3247
  23   2.0000      -0.553884       -15.0719
  24   2.0000      -0.545230       -14.8365
  25   2.0000      -0.501488       -13.6462
  26   2.0000      -0.487735       -13.2719
  27   2.0000      -0.468793       -12.7565
  28   2.0000      -0.461750       -12.5648
  29   2.0000      -0.451047       -12.2736
  30   2.0000      -0.430966       -11.7272
  31   2.0000      -0.419069       -11.4034
  32   2.0000      -0.389979       -10.6119
  33   2.0000      -0.380173       -10.3450
  34   0.0000       0.138809         3.7772
  35   0.0000       0.153417         4.1747
  36   0.0000       0.158377         4.3097
  37   0.0000       0.164373         4.4728
  38   0.0000       0.188354         5.1254

MULLIKEN ATOMIC CHARGES
-----------------------
   0 C :   -0.222936
   1 C :   -0.292281
   2 C :    0.172280
   3 C :   -0.262399
   4 C :   -0.199085
   5 C :   -0.265657
   6 C :   -0.057390
   7 C :   -0.282081
   8 C :   -0.110992
   9 H :    0.106675
  10 H :    0.110229
  11 H :    0.109450
  12 H :    0.105977
  13 H :    0.115418
  14 H :    0.117351
  15 H :    0.117932
  16 H :    0.107309
  17 H :    0.102371
  18 H :    0.122054
  19 H :    0.093531
  20 H :    0.109298
  21 H :    0.106073
  22 H :    0.096874
Sum of atomic charges:   -0.0000000

LOEWDIN ATOMIC CHARGES
----------------------
   0 C :   -0.216849
   1 C :   -0.203606
   2 C :   -0.177638
   3 C :   -0.222125
   4 C :   -0.253718
   5 C :   -0.238150
   6 C :   -0.169783
   7 C :   -0.204792
   8 C :   -0.163185
   9 H :    0.127649
  10 H :    0.128024
  11 H :    0.131927
  12 H :    0.125115
  13 H :    0.139920
  14 H :    0.134908
  15 H :    0.129716
  16 H :    0.136017
  17 H :    0.136965
  18 H :    0.132438
  19 H :    0.141109
  20 H :    0.130582
  21 H :    0.126454
  22 H :    0.129022

  Mayer bond orders larger than 0.1
B(  0-C ,  1-C ) :   0.9819 B(  0-C ,  8-C ) :   0.9284 B(  0-C ,  9-H ) :   0.9187
B(  0-C , 10-H ) :   0.9220 B(  1-C ,  2-C ) :   0.9045 B(  1-C , 11-H ) :   0.9152
B(  1-C , 12-H ) :   0.9125 B(  2-C ,  3-C ) :   0.8745 B(  2-C ,  6-C ) :   0.9278
B(  2-C ,  8-C ) :   0.8978 B(  3-C ,  4-C ) :   0.9358 B(  3-C , 13-H ) :   0.9328
B(  3-C , 14-H ) :   0.9290 B(  4-C ,  5-C ) :   0.9328 B(  4-C , 15-H ) :   0.9312
B(  4-C , 16-H ) :   0.9292 B(  5-C ,  6-C ) :   0.9003 B(  5-C , 17-H ) :   0.9218
B(  5-C , 18-H ) :   0.9317 B(  6-C ,  7-C ) :   0.9618 B(  6-C , 19-H ) :   0.9086
B(  7-C ,  8-C ) :   0.9445 B(  7-C , 20-H ) :   0.9085 B(  7-C , 21-H ) :   0.9174
B(  8-C , 22-H ) :   0.9021

MP2 TOTAL ENERGY:     -350.498035012 Eh
FINAL SINGLE POINT ENERGY      -350.498035011744

DIPOLE MOMENT
-------------
                                X             Y             Z
Electronic contribution:     -0.66807       0.53157       0.40526
Nuclear contribution   :      0.69435      -0.55353      -0.46335
                        -----------------------------------------
Total Dipole Moment    :      0.02628      -0.02196      -0.05809
                        -----------------------------------------
Magnitude (a.u.)       :      0.06743
Magnitude (Debye)      :      0.17140

                             ****ORCA TERMINATED NORMALLY****
TOTAL RUN TIME: 0 days 0 hours 23 minutes 6 seconds 114 msec
