                         Program Version 3.0.3 - RELEASE   -
|  1> ! RI-MP2 RIJK def2-TZVP def2-TZVP/C def2-TZVP/JK TIGHTSCF
|  2> % maxcore 2000
|  3> % mp2 density relaxed end
|  4> *xyz 0 1
|  5>  C       -0.1570808770     1.5374212803    -0.0317885163
|  6>  C        0.0575594364     0.0252580905    -0.0437245991
|  7>  C        0.9912742765    -0.5106218375    -1.1529743650
|  8>  C        1.1876133798    -1.9843514030    -0.6939932343
|  9>  C        1.9569068847    -1.3071342310     0.4753897911
| 10>  C        2.4144769569    -0.2537944409    -0.5737756987
| 11>  C        0.8335223001    -0.5580546869     1.2050954107
| 12>  O        1.4087363013     0.4136566411     2.0642674718
| 13>  H        0.7837495016     2.0855493077     0.0587376518
| 14>  H       -0.6522110828     1.8595611958    -0.9539223573
| 15>  H       -0.8003757640     1.8456176935     0.8012858663
| 16>  H       -0.9213775193    -0.4625282954    -0.1258829084
| 17>  H        0.7327763687    -0.2553709257    -2.1821852441
| 18>  H        0.2949995589    -2.5741871922    -0.4592397561
| 19>  H        1.8508967013    -2.5522818929    -1.3502032137
| 20>  H        2.6627643248    -1.8491082243     1.1047886623
| 21>  H        3.2009444553    -0.6367445360    -1.2281756300
| 22>  H        2.6716150421     0.7440334310    -0.2151469792
| 23>  H        0.2008388824    -1.2451037081     1.7850077147
| 24>  H        0.6965011325     0.8920029041     2.4990650338
| 25> *
| 26>
| 27>                          ****END OF INPUT****

CARTESIAN COORDINATES (ANGSTROEM)
---------------------------------
  C     -0.157081    1.537421   -0.031789
  C      0.057559    0.025258   -0.043725
  C      0.991274   -0.510622   -1.152974
  C      1.187613   -1.984351   -0.693993
  C      1.956907   -1.307134    0.475390
  C      2.414477   -0.253794   -0.573776
  C      0.833522   -0.558055    1.205095
  O      1.408736    0.413657    2.064267
  H      0.783750    2.085549    0.058738
  H     -0.652211    1.859561   -0.953922
  H     -0.800376    1.845618    0.801286
  H     -0.921378   -0.462528   -0.125883
  H      0.732776   -0.255371   -2.182185
  H      0.295000   -2.574187   -0.459240
  H      1.850897   -2.552282   -1.350203
  H      2.662764   -1.849108    1.104789
  H      3.200944   -0.636745   -1.228176
  H      2.671615    0.744033   -0.215147
  H      0.200839   -1.245104    1.785008
  H      0.696501    0.892003    2.499065

 Total Charge           Charge          ....    0
 Multiplicity           Mult            ....    1
 Number of Electrons    NEL             ....   62
 Basis Dimension        Dim             ....  320

ORBITAL ENERGIES
----------------

  NO   OCC          E(Eh)            E(eV)
   0   2.0000     -20.550533      -559.2084
   1   2.0000     -11.273855      -306.7772
   2   2.0000     -11.227172      -305.5069
   3   2.0000     -11.224752      -305.4410
   4   2.0000     -11.224458      -305.4330
   5   2.0000     -11.220233      -305.3181
   6   2.0000     -11.214796      -305.1701
   7   2.0000     -11.212863      -305.1175
   8   2.0000      -1.358282       -36.9607
   9   2.0000      -1.176572       -32.0162
  10   2.0000      -1.017838       -27.6968
  11   2.0000      -0.937173       -25.5018
  12   2.0000      -0.897448       -24.4208
  13   2.0000      -0.878135       -23.8953
  14   2.0000      -0.744606       -20.2618
  15   2.0000      -0.737907       -20.0795
  16   2.0000      -0.684167       -18.6171
  17   2.0000      -0.681720       -18.5505
  18   2.0000      -0.632362       -17.2074
  19   2.0000      -0.610274       -16.6064
  20   2.0000      -0.569703       -15.5024
  21   2.0000      -0.541529       -14.7358
  22   2.0000      -0.530970       -14.4484
  23   2.0000      -0.521478       -14.1901
  24   2.0000      -0.507656       -13.8140
  25   2.0000      -0.471678       -12.8350
  26   2.0000      -0.463565       -12.6142
  27   2.0000      -0.444308       -12.0902
  28   2.0000      -0.434162       -11.8142
  29   2.0000      -0.424907       -11.5623
  30   2.0000      -0.409808       -11.1514
  31   0.0000       0.129291         3.5182
  32   0.0000       0.151253         4.1158
  33   0.0000       0.167641         4.5617
  34   0.0000       0.171795         4.6748
  35   0.0000       0.197023         5.3613

MULLIKEN ATOMIC CHARGES
-----------------------
   0 C :   -0.471633
   1 C :   -0.065811
   2 C :   -0.044848
   3 C :   -0.279247
   4 C :   -0.003022
   5 C :   -0.301021
   6 C :   -0.003526
   7 O :   -0.456772
   8 H :    0.150160
   9 H :    0.133086
  10 H :    0.122882
  11 H :    0.094622
  12 H :    0.117306
  13 H :    0.110619
  14 H :    0.120493
  15 H :    0.121354
  16 H :    0.118401
  17 H :    0.127828
  18 H :    0.094658
  19 H :    0.314470
Sum of atomic charges:   -0.0000000

LOEWDIN ATOMIC CHARGES
----------------------
   0 C :   -0.302569
   1 C :   -0.234499
   2 C :   -0.192296
   3 C :   -0.196765
   4 C :   -0.192746
   5 C :   -0.194079
   6 C :   -0.291012
   7 O :   -0.010285
   8 H :    0.126175
   9 H :    0.125647
  10 H :    0.118973
  11 H :    0.147495
  12 H :    0.131472
  13 H :    0.125924
  14 H :    0.136737
  15 H :    0.134084
  16 H :    0.136649
  17 H :    0.129044
  18 H :    0.129300
  19 H :    0.172751

  Mayer bond orders larger than 0.1
B(  0-C ,  1-C ) :   0.8795 B(  0-C ,  8-H ) :   0.9337 B(  0-C ,  9-H ) :   0.9389
B(  0-C , 10-H ) :   0.9452 B(  1-C ,  2-C ) :   0.8709 B(  1-C ,  6-C ) :   0.9205
B(  1-C , 11-H ) :   0.9220 B(  2-C ,  3-C ) :   0.9042 B(  2-C ,  5-C ) :   0.9214
B(  2-C , 12-H ) :   0.9158 B(  3-C ,  4-C ) :   0.9094 B(  3-C , 13-H ) :   0.9235
B(  3-C , 14-H ) :   0.9242 B(  4-C ,  5-C ) :   0.9149 B(  4-C ,  6-C ) :   0.8912
B(  4-C , 15-H ) :   0.9177 B(  5-C , 16-H ) :   0.9274 B(  5-C , 17-H ) :   0.9177
B(  6-C ,  7-O ) :   1.0721 B(  6-C , 18-H ) :   0.9665 B(  7-O , 19-H ) :   0.8456

MP2 TOTAL ENERGY:     -348.401224101 Eh
FINAL SINGLE POINT ENERGY      -348.401224100965

DIPOLE MOMENT
-------------
                                X             Y             Z
Electronic contribution:      1.51228      -1.26894       2.41733
Nuclear contribution   :     -2.06454       1.22603      -2.52631
                        -----------------------------------------
Total Dipole Moment    :     -0.55226      -0.04291      -0.10897
                        -----------------------------------------
Magnitude (a.u.)       :      0.56454
Magnitude (Debye)      :      1.43495

                             ****ORCA TERMINATED NORMALLY****
TOTAL RUN TIME: 0 days 0 hours 15 minutes 5 seconds 324 msec
