                         Program Version 3.0.3 - RELEASE   -
|  1> ! RI-MP2 RIJK def2-TZVP def2-TZVP/C def2-TZVP/JK TIGHTSCF
|  2> % maxcore 2000
|  3> % mp2 density relaxed end
|  4> *xyz 0 1
|  5>  C        0.0563010526     1.5273290721     0.1351507671
|  6>  C        0.0345610994     0.0074756679     0.0288571557
|  7>  C        0.4772403322    -0.4742955591    -1.3551525452
|  8>  N        0.4808245417    -1.8980839061    -1.6279384453
|  9>  C        0.8363153558    -2.8005003484    -0.8240603661
| 10>  O        1.2174631372    -2.7782470604     0.4834039496
| 11>  C        0.6753864767    -1.8187888220     1.4033243657
| 12>  C        1.3483944751    -2.0850942222     2.7347807262
| 13>  O        0.9034565466    -0.4986829217     1.0426196024
| 14>  H        1.0668723572     1.9088605077    -0.0404352835
| 15>  H       -0.6168478493     1.9757274769    -0.6009394108
| 16>  H       -0.2590494556     1.8424857280     1.1328121833
| 17>  H       -0.9849367485    -0.3635606157     0.2247116695
| 18>  H       -0.1633591690     0.0037948754    -2.1057697659
| 19>  H        1.4959025618    -0.0985489324    -1.5306994439
| 20>  H        0.9189669404    -3.8248537446    -1.1900433846
| 21>  H       -0.4107056330    -2.0062652028     1.4492431546
| 22>  H        2.4173643667    -1.8743697020     2.6512492565
| 23>  H        0.9176343851    -1.4374031681     3.5013732711
| 24>  H        1.2127931071    -3.1289733827     3.0243000836
| 25> *
| 26>
| 27>                          ****END OF INPUT****

CARTESIAN COORDINATES (ANGSTROEM)
---------------------------------
  C      0.056301    1.527329    0.135151
  C      0.034561    0.007476    0.028857
  C      0.477240   -0.474296   -1.355153
  N      0.480825   -1.898084   -1.627938
  C      0.836315   -2.800500   -0.824060
  O      1.217463   -2.778247    0.483404
  C      0.675386   -1.818789    1.403324
  C      1.348394   -2.085094    2.734781
  O      0.903457   -0.498683    1.042620
  H      1.066872    1.908861   -0.040435
  H     -0.616848    1.975727   -0.600939
  H     -0.259049    1.842486    1.132812
  H     -0.984937   -0.363561    0.224712
  H     -0.163359    0.003795   -2.105770
  H      1.495903   -0.098549   -1.530699
  H      0.918967   -3.824854   -1.190043
  H     -0.410706   -2.006265    1.449243
  H      2.417364   -1.874370    2.651249
  H      0.917634   -1.437403    3.501373
  H      1.212793   -3.128973    3.024300

 Total Charge           Charge          ....    0
 Multiplicity           Mult            ....    1
 Number of Electrons    NEL             ....   70
 Basis Dimension        Dim             ....  345

ORBITAL ENERGIES
----------------

  NO   OCC          E(Eh)            E(eV)
   0   2.0000     -20.588411      -560.2391
   1   2.0000     -20.570666      -559.7563
   2   2.0000     -15.545686      -423.0196
   3   2.0000     -11.349372      -308.8321
   4   2.0000     -11.331522      -308.3464
   5   2.0000     -11.290240      -307.2230
   6   2.0000     -11.255228      -306.2703
   7   2.0000     -11.223159      -305.3977
   8   2.0000     -11.222792      -305.3877
   9   2.0000      -1.442410       -39.2500
  10   2.0000      -1.376427       -37.4545
  11   2.0000      -1.218676       -33.1619
  12   2.0000      -1.062484       -28.9117
  13   2.0000      -1.019752       -27.7488
  14   2.0000      -0.950641       -25.8683
  15   2.0000      -0.875020       -23.8105
  16   2.0000      -0.824190       -22.4273
  17   2.0000      -0.786593       -21.4043
  18   2.0000      -0.713972       -19.4282
  19   2.0000      -0.704272       -19.1642
  20   2.0000      -0.687231       -18.7005
  21   2.0000      -0.619724       -16.8635
  22   2.0000      -0.607936       -16.5428
  23   2.0000      -0.588264       -16.0075
  24   2.0000      -0.570172       -15.5152
  25   2.0000      -0.558918       -15.2089
  26   2.0000      -0.549609       -14.9556
  27   2.0000      -0.546130       -14.8610
  28   2.0000      -0.538271       -14.6471
  29   2.0000      -0.520477       -14.1629
  30   2.0000      -0.495662       -13.4876
  31   2.0000      -0.479541       -13.0490
  32   2.0000      -0.455477       -12.3942
  33   2.0000      -0.401316       -10.9204
  34   2.0000      -0.389337       -10.5944
  35   0.0000       0.137900         3.7525
  36   0.0000       0.145398         3.9565
  37   0.0000       0.163159         4.4398
  38   0.0000       0.176000         4.7892
  39   0.0000       0.182223         4.9585

MULLIKEN ATOMIC CHARGES
-----------------------
   0 C :   -0.371450
   1 C :    0.032936
   2 C :   -0.094644
   3 N :   -0.257004
   4 C :    0.058237
   5 O :   -0.246783
   6 C :    0.158251
   7 C :   -0.343049
   8 O :   -0.272940
   9 H :    0.134539
  10 H :    0.129528
  11 H :    0.139362
  12 H :    0.077646
  13 H :    0.126172
  14 H :    0.118767
  15 H :    0.129569
  16 H :    0.077191
  17 H :    0.137724
  18 H :    0.130366
  19 H :    0.135582
Sum of atomic charges:    0.0000000

LOEWDIN ATOMIC CHARGES
----------------------
   0 C :   -0.287561
   1 C :   -0.347432
   2 C :   -0.285495
   3 N :    0.079416
   4 C :   -0.365815
   5 O :    0.227733
   6 C :   -0.419453
   7 C :   -0.284085
   8 O :    0.222521
   9 H :    0.128925
  10 H :    0.128423
  11 H :    0.127594
  12 H :    0.137010
  13 H :    0.141316
  14 H :    0.146282
  15 H :    0.132723
  16 H :    0.126909
  17 H :    0.132407
  18 H :    0.128986
  19 H :    0.129596

  Mayer bond orders larger than 0.1
B(  0-C ,  1-C ) :   0.9242 B(  0-C ,  9-H ) :   0.9321 B(  0-C , 10-H ) :   0.9334
B(  0-C , 11-H ) :   0.9365 B(  1-C ,  2-C ) :   0.9218 B(  1-C ,  8-O ) :   0.8828
B(  1-C , 12-H ) :   0.9259 B(  2-C ,  3-N ) :   0.9181 B(  2-C , 13-H ) :   0.9287
B(  2-C , 14-H ) :   0.9087 B(  3-N ,  4-C ) :   1.8689 B(  4-C ,  5-O ) :   1.0523
B(  4-C , 15-H ) :   0.9303 B(  5-O ,  6-C ) :   0.8966 B(  6-C ,  7-C ) :   0.9323
B(  6-C ,  8-O ) :   1.0155 B(  6-C , 16-H ) :   0.9362 B(  7-C , 17-H ) :   0.9306
B(  7-C , 18-H ) :   0.9331 B(  7-C , 19-H ) :   0.9340

MP2 TOTAL ENERGY:     -439.576317907 Eh
FINAL SINGLE POINT ENERGY      -439.576317907246

DIPOLE MOMENT
-------------
                                X             Y             Z
Electronic contribution:      1.32520      -5.34474      -2.88175
Nuclear contribution   :     -1.73098       5.70645       3.42649
                        -----------------------------------------
Total Dipole Moment    :     -0.40578       0.36171       0.54474
                        -----------------------------------------
Magnitude (a.u.)       :      0.76956
Magnitude (Debye)      :      1.95607

                             ****ORCA TERMINATED NORMALLY****
TOTAL RUN TIME: 0 days 0 hours 17 minutes 44 seconds 379 msec
