                         Program Version 3.0.3 - RELEASE   -
|  1> ! RI-MP2 RIJK def2-TZVP def2-TZVP/C def2-TZVP/JK TIGHTSCF
|  2> % maxcore 2000
|  3> % mp2 density relaxed end
|  4> *xyz 0 1
|  5>  N       -0.0120828479     1.3183293404     0.2141592260
|  6>  C        0.0271017837     0.0229208492    -0.2185907439
|  7>  O        1.0200306871    -0.4604871536    -0.7276350434
|  8>  C       -1.2713068414    -0.7570205751    -0.0233761296
|  9>  C       -1.0248708892    -2.2594515867     0.1168784641
| 10>  C       -2.3178581930    -3.0778430790    -0.0574483439
| 11>  O       -2.9440900960    -2.8202420063    -1.3141613203
| 12>  C       -2.0649827651    -4.5088472806     0.1342064233
| 13>  C       -1.8278497875    -5.6811972427     0.2544793777
| 14>  H        0.7751155320     1.9100827982     0.0034069288
| 15>  H       -0.8614176340     1.7466171048     0.5379692919
| 16>  H       -1.8292553715    -0.3645849100     0.8352616377
| 17>  H       -1.8964540272    -0.5859065756    -0.9085285474
| 18>  H       -0.2920805863    -2.5684395818    -0.6350379300
| 19>  H       -0.5858188373    -2.4916949346     1.0930954484
| 20>  H       -3.0549846987    -2.7465186249     0.6854505495
| 21>  H       -2.4075669143    -3.2444636388    -1.9938133378
| 22>  H       -1.6323866831    -6.7186998828     0.3708442688
| 23> *
| 24>
| 25>                          ****END OF INPUT****

CARTESIAN COORDINATES (ANGSTROEM)
---------------------------------
  N     -0.012083    1.318329    0.214159
  C      0.027102    0.022921   -0.218591
  O      1.020031   -0.460487   -0.727635
  C     -1.271307   -0.757021   -0.023376
  C     -1.024871   -2.259452    0.116878
  C     -2.317858   -3.077843   -0.057448
  O     -2.944090   -2.820242   -1.314161
  C     -2.064983   -4.508847    0.134206
  C     -1.827850   -5.681197    0.254479
  H      0.775116    1.910083    0.003407
  H     -0.861418    1.746617    0.537969
  H     -1.829255   -0.364585    0.835262
  H     -1.896454   -0.585907   -0.908529
  H     -0.292081   -2.568440   -0.635038
  H     -0.585819   -2.491695    1.093095
  H     -3.054985   -2.746519    0.685451
  H     -2.407567   -3.244464   -1.993813
  H     -1.632387   -6.718700    0.370844

 Total Charge           Charge          ....    0
 Multiplicity           Mult            ....    1
 Number of Electrons    NEL             ....   68
 Basis Dimension        Dim             ....  333

ORBITAL ENERGIES
----------------

  NO   OCC          E(Eh)            E(eV)
   0   2.0000     -20.569478      -559.7239
   1   2.0000     -20.518453      -558.3355
   2   2.0000     -15.585014      -424.0898
   3   2.0000     -11.353262      -308.9380
   4   2.0000     -11.315633      -307.9140
   5   2.0000     -11.244065      -305.9666
   6   2.0000     -11.239449      -305.8409
   7   2.0000     -11.235746      -305.7402
   8   2.0000     -11.233674      -305.6838
   9   2.0000      -1.383545       -37.6482
  10   2.0000      -1.376308       -37.4513
  11   2.0000      -1.212490       -32.9935
  12   2.0000      -1.087556       -29.5939
  13   2.0000      -1.039837       -28.2954
  14   2.0000      -0.961600       -26.1665
  15   2.0000      -0.860697       -23.4207
  16   2.0000      -0.788501       -21.4562
  17   2.0000      -0.753746       -20.5105
  18   2.0000      -0.722004       -19.6467
  19   2.0000      -0.693684       -18.8761
  20   2.0000      -0.679158       -18.4808
  21   2.0000      -0.663690       -18.0599
  22   2.0000      -0.629954       -17.1419
  23   2.0000      -0.607226       -16.5235
  24   2.0000      -0.577815       -15.7231
  25   2.0000      -0.557076       -15.1588
  26   2.0000      -0.552733       -15.0406
  27   2.0000      -0.502774       -13.6812
  28   2.0000      -0.496323       -13.5056
  29   2.0000      -0.472656       -12.8616
  30   2.0000      -0.427636       -11.6366
  31   2.0000      -0.418522       -11.3886
  32   2.0000      -0.403202       -10.9717
  33   2.0000      -0.394595       -10.7375
  34   0.0000       0.120421         3.2768
  35   0.0000       0.135666         3.6916
  36   0.0000       0.155682         4.2363
  37   0.0000       0.163307         4.4438
  38   0.0000       0.171243         4.6597

MULLIKEN ATOMIC CHARGES
-----------------------
   0 N :   -0.479923
   1 C :    0.279739
   2 O :   -0.354859
   3 C :   -0.244105
   4 C :   -0.239814
   5 C :   -0.022585
   6 O :   -0.467636
   7 C :   -0.057866
   8 C :   -0.110738
   9 H :    0.259712
  10 H :    0.258666
  11 H :    0.118411
  12 H :    0.155508
  13 H :    0.148668
  14 H :    0.124853
  15 H :    0.113344
  16 H :    0.323459
  17 H :    0.195167
Sum of atomic charges:   -0.0000000

LOEWDIN ATOMIC CHARGES
----------------------
   0 N :   -0.024085
   1 C :   -0.476135
   2 O :    0.081873
   3 C :   -0.238651
   4 C :   -0.232507
   5 C :   -0.335197
   6 O :   -0.009471
   7 C :   -0.094083
   8 C :   -0.086295
   9 H :    0.172791
  10 H :    0.169441
  11 H :    0.140535
  12 H :    0.159002
  13 H :    0.152851
  14 H :    0.148892
  15 H :    0.160866
  16 H :    0.181720
  17 H :    0.128451

  Mayer bond orders larger than 0.1
B(  0-N ,  1-C ) :   1.1598 B(  0-N ,  9-H ) :   0.8589 B(  0-N , 10-H ) :   0.8712
B(  1-C ,  2-O ) :   1.9717 B(  1-C ,  3-C ) :   0.8962 B(  3-C ,  4-C ) :   0.9321
B(  3-C , 11-H ) :   0.9152 B(  3-C , 12-H ) :   0.8916 B(  4-C ,  5-C ) :   0.9473
B(  4-C , 13-H ) :   0.9150 B(  4-C , 14-H ) :   0.9210 B(  5-C ,  6-O ) :   0.8749
B(  5-C ,  7-C ) :   1.1609 B(  5-C , 15-H ) :   0.9095 B(  6-O , 16-H ) :   0.8381
B(  7-C ,  8-C ) :   2.5767 B(  8-C , 17-H ) :   0.8913

MP2 TOTAL ENERGY:     -438.359918116 Eh
FINAL SINGLE POINT ENERGY      -438.359918115802

DIPOLE MOMENT
-------------
                                X             Y             Z
Electronic contribution:      0.98267      -1.48102      -1.24622
Nuclear contribution   :     -1.43652       2.13269       1.77435
                        -----------------------------------------
Total Dipole Moment    :     -0.45385       0.65167       0.52813
                        -----------------------------------------
Magnitude (a.u.)       :      0.95372
Magnitude (Debye)      :      2.42416

                             ****ORCA TERMINATED NORMALLY****
TOTAL RUN TIME: 0 days 0 hours 15 minutes 34 seconds 798 msec
