                         Program Version 3.0.3 - RELEASE   -
|  1> ! RI-MP2 RIJK def2-TZVP def2-TZVP/C def2-TZVP/JK TIGHTSCF
|  2> % maxcore 2000
|  3> % mp2 density relaxed end
|  4> *xyz 0 1
|  5>  C       -0.1763196477     1.5428388852    -0.0183437786
|  6>  C        0.0252581027     0.0383631011     0.0334385184
|  7>  O        0.8322274061    -0.3960287687    -1.0859194412
|  8>  C        1.8931338470    -1.2220977380    -0.5464209476
|  9>  C        1.2253070942    -1.8996183308     0.6522649864
| 10>  C        0.8194364176    -0.5268941875     1.2390937706
| 11>  N        2.1363383386     0.1147903196     1.2908230317
| 12>  C        2.8460771611    -0.2216174752     0.1471271917
| 13>  O        3.9050249100     0.2261667949    -0.2184709348
| 14>  H        0.7750163480     2.0741120546     0.0690426272
| 15>  H       -0.6308792441     1.8236987720    -0.9720809130
| 16>  H       -0.8438679316     1.8698680882     0.7864507732
| 17>  H       -0.9514546539    -0.4645045499    -0.0208810291
| 18>  H        2.3321544063    -1.8143958010    -1.3446944451
| 19>  H        0.3772991994    -2.5256349134     0.3685312909
| 20>  H        1.9135534500    -2.4462762025     1.2985838394
| 21>  H        0.3016577672    -0.5151929874     2.1973351641
| 22>  H        2.3088703690     0.9913325990     1.7587261859
| 23> *
| 24>
| 25>                          ****END OF INPUT****

CARTESIAN COORDINATES (ANGSTROEM)
---------------------------------
  C     -0.176320    1.542839   -0.018344
  C      0.025258    0.038363    0.033439
  O      0.832227   -0.396029   -1.085919
  C      1.893134   -1.222098   -0.546421
  C      1.225307   -1.899618    0.652265
  C      0.819436   -0.526894    1.239094
  N      2.136338    0.114790    1.290823
  C      2.846077   -0.221617    0.147127
  O      3.905025    0.226167   -0.218471
  H      0.775016    2.074112    0.069043
  H     -0.630879    1.823699   -0.972081
  H     -0.843868    1.869868    0.786451
  H     -0.951455   -0.464505   -0.020881
  H      2.332154   -1.814396   -1.344694
  H      0.377299   -2.525635    0.368531
  H      1.913553   -2.446276    1.298584
  H      0.301658   -0.515193    2.197335
  H      2.308870    0.991333    1.758726

 Total Charge           Charge          ....    0
 Multiplicity           Mult            ....    1
 Number of Electrons    NEL             ....   68
 Basis Dimension        Dim             ....  333

ORBITAL ENERGIES
----------------

  NO   OCC          E(Eh)            E(eV)
   0   2.0000     -20.568767      -559.7046
   1   2.0000     -20.527426      -558.5797
   2   2.0000     -15.584938      -424.0877
   3   2.0000     -11.349178      -308.8268
   4   2.0000     -11.301350      -307.5254
   5   2.0000     -11.295032      -307.3534
   6   2.0000     -11.291604      -307.2602
   7   2.0000     -11.248490      -306.0870
   8   2.0000     -11.227031      -305.5030
   9   2.0000      -1.407497       -38.2999
  10   2.0000      -1.374821       -37.4108
  11   2.0000      -1.250612       -34.0309
  12   2.0000      -1.057626       -28.7795
  13   2.0000      -1.051453       -28.6115
  14   2.0000      -0.950169       -25.8554
  15   2.0000      -0.850387       -23.1402
  16   2.0000      -0.828811       -22.5531
  17   2.0000      -0.777448       -21.1554
  18   2.0000      -0.709285       -19.3006
  19   2.0000      -0.695712       -18.9313
  20   2.0000      -0.669520       -18.2186
  21   2.0000      -0.628652       -17.1065
  22   2.0000      -0.606692       -16.5089
  23   2.0000      -0.591417       -16.0933
  24   2.0000      -0.579091       -15.7579
  25   2.0000      -0.560115       -15.2415
  26   2.0000      -0.543170       -14.7804
  27   2.0000      -0.533918       -14.5286
  28   2.0000      -0.521658       -14.1950
  29   2.0000      -0.514596       -14.0029
  30   2.0000      -0.492326       -13.3969
  31   2.0000      -0.457602       -12.4520
  32   2.0000      -0.409040       -11.1305
  33   2.0000      -0.386661       -10.5216
  34   0.0000       0.123164         3.3515
  35   0.0000       0.147783         4.0214
  36   0.0000       0.160456         4.3662
  37   0.0000       0.165747         4.5102
  38   0.0000       0.173997         4.7347

MULLIKEN ATOMIC CHARGES
-----------------------
   0 C :   -0.435650
   1 C :    0.060448
   2 O :   -0.322376
   3 C :    0.143299
   4 C :   -0.303906
   5 C :    0.066668
   6 N :   -0.351742
   7 C :    0.131214
   8 O :   -0.311439
   9 H :    0.138611
  10 H :    0.150163
  11 H :    0.126739
  12 H :    0.095503
  13 H :    0.144083
  14 H :    0.134668
  15 H :    0.140956
  16 H :    0.151359
  17 H :    0.241403
Sum of atomic charges:    0.0000000

LOEWDIN ATOMIC CHARGES
----------------------
   0 C :   -0.294264
   1 C :   -0.304571
   2 O :    0.184208
   3 C :   -0.247005
   4 C :   -0.202323
   5 C :   -0.242471
   6 N :    0.131668
   7 C :   -0.417868
   8 O :    0.105366
   9 H :    0.126094
  10 H :    0.132617
  11 H :    0.126770
  12 H :    0.141317
  13 H :    0.145561
  14 H :    0.142863
  15 H :    0.145891
  16 H :    0.145567
  17 H :    0.180580

  Mayer bond orders larger than 0.1
B(  0-C ,  1-C ) :   0.9045 B(  0-C ,  9-H ) :   0.9404 B(  0-C , 10-H ) :   0.9361
B(  0-C , 11-H ) :   0.9320 B(  1-C ,  2-O ) :   0.9090 B(  1-C ,  5-C ) :   0.9294
B(  1-C , 12-H ) :   0.9162 B(  2-O ,  3-C ) :   0.8821 B(  3-C ,  4-C ) :   0.9477
B(  3-C ,  6-N ) :  -0.1011 B(  3-C ,  7-C ) :   0.8676 B(  3-C , 13-H ) :   0.9168
B(  4-C ,  5-C ) :   0.9136 B(  4-C , 14-H ) :   0.9146 B(  4-C , 15-H ) :   0.9150
B(  5-C ,  6-N ) :   0.8670 B(  5-C , 16-H ) :   0.9096 B(  6-N ,  7-C ) :   1.1794
B(  6-N , 17-H ) :   0.8631 B(  7-C ,  8-O ) :   2.0262

MP2 TOTAL ENERGY:     -438.409783709 Eh
FINAL SINGLE POINT ENERGY      -438.409783709268

DIPOLE MOMENT
-------------
                                X             Y             Z
Electronic contribution:      6.04077      -1.34404      -1.49910
Nuclear contribution   :     -7.41864       1.02851       2.57322
                        -----------------------------------------
Total Dipole Moment    :     -1.37787      -0.31552       1.07412
                        -----------------------------------------
Magnitude (a.u.)       :      1.77534
Magnitude (Debye)      :      4.51254

                             ****ORCA TERMINATED NORMALLY****
TOTAL RUN TIME: 0 days 0 hours 19 minutes 54 seconds 824 msec
