                         Program Version 3.0.3 - RELEASE   -
|  1> ! RI-MP2 RIJK def2-TZVP def2-TZVP/C def2-TZVP/JK TIGHTSCF
|  2> % maxcore 2000
|  3> % mp2 density relaxed end
|  4> *xyz 0 1
|  5>  C        0.3217887405     1.1460489774    -0.6846654502
|  6>  C       -0.2176173628     0.7326237648     0.6835802873
|  7>  N       -1.4023393376    -0.1113745772     0.5359059626
|  8>  C       -1.9482585398    -0.7678352570     1.7570016371
|  9>  C       -2.5776575759    -1.9091618739     0.9028775775
| 10>  N       -2.0174939741    -3.0455426817     1.6906960388
| 11>  C       -0.9376734762    -2.0003288053     1.7699733981
| 12>  C        0.3227693001    -2.2778244774     2.5399275804
| 13>  C       -1.2049830739    -1.5686863930     0.2690920447
| 14>  H        1.1689083629     1.8308348223    -0.5790039165
| 15>  H        0.6665007274     0.2755939038    -1.2533192374
| 16>  H       -0.4594900043     1.6405497805    -1.2685990707
| 17>  H        0.5884336790     0.2611846269     1.2695710807
| 18>  H       -0.5280662244     1.6256888472     1.2408522383
| 19>  H       -2.3797061952    -0.2156734225     2.5965392179
| 20>  H       -3.5488512335    -1.9194745371     0.4103062517
| 21>  H       -2.4982459654    -3.1183566303     2.5923345823
| 22>  H        0.7896273531    -3.1958132419     2.1680045732
| 23>  H        1.0453849786    -1.4631655793     2.4596054953
| 24>  H        0.0973110141    -2.4244203526     3.6028864417
| 25>  H       -0.7673112627    -1.9743439336    -0.6434554828
| 26> *
| 27>
| 28>                          ****END OF INPUT****

CARTESIAN COORDINATES (ANGSTROEM)
---------------------------------
  C      0.321789    1.146049   -0.684665
  C     -0.217617    0.732624    0.683580
  N     -1.402339   -0.111375    0.535906
  C     -1.948259   -0.767835    1.757002
  C     -2.577658   -1.909162    0.902878
  N     -2.017494   -3.045543    1.690696
  C     -0.937673   -2.000329    1.769973
  C      0.322769   -2.277824    2.539928
  C     -1.204983   -1.568686    0.269092
  H      1.168908    1.830835   -0.579004
  H      0.666501    0.275594   -1.253319
  H     -0.459490    1.640550   -1.268599
  H      0.588434    0.261185    1.269571
  H     -0.528066    1.625689    1.240852
  H     -2.379706   -0.215673    2.596539
  H     -3.548851   -1.919475    0.410306
  H     -2.498246   -3.118357    2.592335
  H      0.789627   -3.195813    2.168005
  H      1.045385   -1.463166    2.459605
  H      0.097311   -2.424420    3.602886
  H     -0.767311   -1.974344   -0.643455

 Total Charge           Charge          ....    0
 Multiplicity           Mult            ....    1
 Number of Electrons    NEL             ....   68
 Basis Dimension        Dim             ....  351

ORBITAL ENERGIES
----------------

  NO   OCC          E(Eh)            E(eV)
   0   2.0000     -15.548307      -423.0910
   1   2.0000     -15.545950      -423.0268
   2   2.0000     -11.279152      -306.9213
   3   2.0000     -11.269671      -306.6633
   4   2.0000     -11.269008      -306.6453
   5   2.0000     -11.268259      -306.6249
   6   2.0000     -11.244996      -305.9919
   7   2.0000     -11.225100      -305.4505
   8   2.0000     -11.210921      -305.0647
   9   2.0000      -1.324958       -36.0539
  10   2.0000      -1.190553       -32.3966
  11   2.0000      -1.037608       -28.2347
  12   2.0000      -1.001038       -27.2396
  13   2.0000      -0.932652       -25.3787
  14   2.0000      -0.880439       -23.9580
  15   2.0000      -0.831324       -22.6215
  16   2.0000      -0.814421       -22.1615
  17   2.0000      -0.704393       -19.1675
  18   2.0000      -0.673669       -18.3315
  19   2.0000      -0.648265       -17.6402
  20   2.0000      -0.627880       -17.0855
  21   2.0000      -0.612847       -16.6764
  22   2.0000      -0.594039       -16.1646
  23   2.0000      -0.568642       -15.4735
  24   2.0000      -0.542001       -14.7486
  25   2.0000      -0.530527       -14.4364
  26   2.0000      -0.519537       -14.1373
  27   2.0000      -0.497770       -13.5450
  28   2.0000      -0.475175       -12.9302
  29   2.0000      -0.455096       -12.3838
  30   2.0000      -0.446748       -12.1566
  31   2.0000      -0.413971       -11.2647
  32   2.0000      -0.379279       -10.3207
  33   2.0000      -0.353579        -9.6214
  34   0.0000       0.136363         3.7106
  35   0.0000       0.147955         4.0260
  36   0.0000       0.164554         4.4777
  37   0.0000       0.170751         4.6464
  38   0.0000       0.187049         5.0899

MULLIKEN ATOMIC CHARGES
-----------------------
   0 C :   -0.374916
   1 C :   -0.129224
   2 N :   -0.212201
   3 C :   -0.028254
   4 C :   -0.060701
   5 N :   -0.342576
   6 C :    0.031887
   7 C :   -0.412395
   8 C :   -0.030323
   9 H :    0.125799
  10 H :    0.119131
  11 H :    0.131267
  12 H :    0.072244
  13 H :    0.112720
  14 H :    0.125123
  15 H :    0.131882
  16 H :    0.194647
  17 H :    0.149569
  18 H :    0.132423
  19 H :    0.131678
  20 H :    0.132221
Sum of atomic charges:   -0.0000000

LOEWDIN ATOMIC CHARGES
----------------------
   0 C :   -0.318499
   1 C :   -0.322602
   2 N :    0.114363
   3 C :   -0.164095
   4 C :   -0.190435
   5 N :    0.009074
   6 C :   -0.238350
   7 C :   -0.284086
   8 C :   -0.146352
   9 H :    0.121128
  10 H :    0.118971
  11 H :    0.123843
  12 H :    0.117469
  13 H :    0.131522
  14 H :    0.124563
  15 H :    0.126637
  16 H :    0.157420
  17 H :    0.135367
  18 H :    0.125075
  19 H :    0.130465
  20 H :    0.128521

  Mayer bond orders larger than 0.1
B(  0-C ,  1-C ) :   0.9379 B(  0-C ,  9-H ) :   0.9377 B(  0-C , 10-H ) :   0.9364
B(  0-C , 11-H ) :   0.9367 B(  1-C ,  2-N ) :   0.9103 B(  1-C , 12-H ) :   0.9117
B(  1-C , 13-H ) :   0.9310 B(  2-N ,  3-C ) :   0.8664 B(  2-N ,  8-C ) :   0.8955
B(  3-C ,  4-C ) :   0.8757 B(  3-C ,  6-C ) :   0.8429 B(  3-C , 14-H ) :   0.9000
B(  4-C ,  5-N ) :   0.9294 B(  4-C ,  8-C ) :   0.9067 B(  4-C , 15-H ) :   0.8955
B(  5-N ,  6-C ) :   0.9126 B(  5-N , 16-H ) :   0.8775 B(  6-C ,  7-C ) :   0.8481
B(  6-C ,  8-C ) :   0.8534 B(  7-C , 17-H ) :   0.9465 B(  7-C , 18-H ) :   0.9348
B(  7-C , 19-H ) :   0.9345 B(  8-C , 20-H ) :   0.8658

MP2 TOTAL ENERGY:     -382.479830060 Eh
FINAL SINGLE POINT ENERGY      -382.479830060495

DIPOLE MOMENT
-------------
                                X             Y             Z
Electronic contribution:     -5.90465      -3.59104       0.60226
Nuclear contribution   :      6.19828       3.89065      -0.04154
                        -----------------------------------------
Total Dipole Moment    :      0.29363       0.29961       0.56072
                        -----------------------------------------
Magnitude (a.u.)       :      0.70028
Magnitude (Debye)      :      1.77997

                             ****ORCA TERMINATED NORMALLY****
TOTAL RUN TIME: 0 days 0 hours 18 minutes 27 seconds 71 msec
