                         Program Version 3.0.3 - RELEASE   -
|  1> ! RI-MP2 RIJK def2-TZVP def2-TZVP/C def2-TZVP/JK TIGHTSCF
|  2> % maxcore 2000
|  3> % mp2 density relaxed end
|  4> *xyz 0 1
|  5>  C        0.0155013988     1.3283715838    -0.1837347522
|  6>  O        0.0775846229    -0.0726478871    -0.0889663575
|  7>  C        0.6228572637    -0.5172376204     1.1358539316
|  8>  C        0.6061914203    -2.0414543705     1.1381100213
|  9>  C        1.3044685328    -2.6940722934     2.3453546354
| 10>  C        0.6057061524    -2.3507731510     3.6715475900
| 11>  C        1.4021170593    -4.2137549899     2.1203948240
| 12>  C        2.2387967616    -4.9658570467     3.1493487625
| 13>  O        2.3410721630    -6.3141057750     2.7112842559
| 14>  H        1.0141924505     1.7897505976    -0.1152025329
| 15>  H       -0.4189291061     1.5736556333    -1.1561892354
| 16>  H       -0.6153566303     1.7659966849     0.6070998562
| 17>  H        1.6569210907    -0.1446721503     1.2518552869
| 18>  H        0.0389759880    -0.1067868063     1.9761698801
| 19>  H       -0.4354373302    -2.3829406731     1.0812832499
| 20>  H        1.0920523973    -2.3753775748     0.2138753006
| 21>  H        2.3305224676    -2.2974542756     2.3911322947
| 22>  H        1.1256176453    -2.7884422144     4.5285976476
| 23>  H        0.5623224921    -1.2710755794     3.8406914529
| 24>  H       -0.4233242743    -2.7302907356     3.6774799737
| 25>  H        0.3962769990    -4.6529936524     2.0968232631
| 26>  H        1.8463468144    -4.4073682906     1.1368364894
| 27>  H        3.2348270366    -4.4981354332     3.2306109645
| 28>  H        1.7721838868    -4.9132417741     4.1444495008
| 29>  H        2.8286705878    -6.8092069654     3.3758065071
| 30> *
| 31>
| 32>                          ****END OF INPUT****

CARTESIAN COORDINATES (ANGSTROEM)
---------------------------------
  C      0.015501    1.328372   -0.183735
  O      0.077585   -0.072648   -0.088966
  C      0.622857   -0.517238    1.135854
  C      0.606191   -2.041454    1.138110
  C      1.304469   -2.694072    2.345355
  C      0.605706   -2.350773    3.671548
  C      1.402117   -4.213755    2.120395
  C      2.238797   -4.965857    3.149349
  O      2.341072   -6.314106    2.711284
  H      1.014192    1.789751   -0.115203
  H     -0.418929    1.573656   -1.156189
  H     -0.615357    1.765997    0.607100
  H      1.656921   -0.144672    1.251855
  H      0.038976   -0.106787    1.976170
  H     -0.435437   -2.382941    1.081283
  H      1.092052   -2.375378    0.213875
  H      2.330522   -2.297454    2.391132
  H      1.125618   -2.788442    4.528598
  H      0.562322   -1.271076    3.840691
  H     -0.423324   -2.730291    3.677480
  H      0.396277   -4.652994    2.096823
  H      1.846347   -4.407368    1.136836
  H      3.234827   -4.498135    3.230611
  H      1.772184   -4.913242    4.144450
  H      2.828671   -6.809207    3.375807

 Total Charge           Charge          ....    0
 Multiplicity           Mult            ....    1
 Number of Electrons    NEL             ....   74
 Basis Dimension        Dim             ....  375

ORBITAL ENERGIES
----------------

  NO   OCC          E(Eh)            E(eV)
   0   2.0000     -20.552436      -559.2602
   1   2.0000     -20.551257      -559.2281
   2   2.0000     -11.272311      -306.7352
   3   2.0000     -11.270289      -306.6801
   4   2.0000     -11.267903      -306.6152
   5   2.0000     -11.229876      -305.5805
   6   2.0000     -11.214934      -305.1739
   7   2.0000     -11.214507      -305.1622
   8   2.0000     -11.214039      -305.1495
   9   2.0000      -1.372510       -37.3479
  10   2.0000      -1.356055       -36.9001
  11   2.0000      -1.097240       -29.8574
  12   2.0000      -1.011854       -27.5339
  13   2.0000      -0.964474       -26.2447
  14   2.0000      -0.914429       -24.8829
  15   2.0000      -0.867659       -23.6102
  16   2.0000      -0.814717       -22.1696
  17   2.0000      -0.768698       -20.9173
  18   2.0000      -0.692970       -18.8567
  19   2.0000      -0.671147       -18.2628
  20   2.0000      -0.651180       -17.7195
  21   2.0000      -0.646053       -17.5800
  22   2.0000      -0.630805       -17.1651
  23   2.0000      -0.605801       -16.4847
  24   2.0000      -0.582326       -15.8459
  25   2.0000      -0.574584       -15.6352
  26   2.0000      -0.553188       -15.0530
  27   2.0000      -0.537399       -14.6234
  28   2.0000      -0.515108       -14.0168
  29   2.0000      -0.501637       -13.6502
  30   2.0000      -0.495465       -13.4823
  31   2.0000      -0.481689       -13.1074
  32   2.0000      -0.461553       -12.5595
  33   2.0000      -0.457546       -12.4505
  34   2.0000      -0.448463       -12.2033
  35   2.0000      -0.439000       -11.9458
  36   2.0000      -0.419216       -11.4075
  37   0.0000       0.133555         3.6342
  38   0.0000       0.143233         3.8976
  39   0.0000       0.156227         4.2511
  40   0.0000       0.162207         4.4139
  41   0.0000       0.172389         4.6909

MULLIKEN ATOMIC CHARGES
-----------------------
   0 C :   -0.214915
   1 O :   -0.298897
   2 C :   -0.076710
   3 C :   -0.153206
   4 C :   -0.091829
   5 C :   -0.435656
   6 C :   -0.153982
   7 C :   -0.084581
   8 O :   -0.464102
   9 H :    0.108729
  10 H :    0.138364
  11 H :    0.108722
  12 H :    0.087230
  13 H :    0.092051
  14 H :    0.112433
  15 H :    0.120012
  16 H :    0.082841
  17 H :    0.131696
  18 H :    0.134036
  19 H :    0.127027
  20 H :    0.110525
  21 H :    0.119222
  22 H :    0.090103
  23 H :    0.097224
  24 H :    0.313661
Sum of atomic charges:    0.0000000

LOEWDIN ATOMIC CHARGES
----------------------
   0 C :   -0.365319
   1 O :    0.133853
   2 C :   -0.329874
   3 C :   -0.245647
   4 C :   -0.282394
   5 C :   -0.293449
   6 C :   -0.249922
   7 C :   -0.351720
   8 O :   -0.052463
   9 H :    0.100183
  10 H :    0.113000
  11 H :    0.100015
  12 H :    0.117889
  13 H :    0.116525
  14 H :    0.142398
  15 H :    0.144980
  16 H :    0.150396
  17 H :    0.120531
  18 H :    0.120902
  19 H :    0.125959
  20 H :    0.142051
  21 H :    0.144773
  22 H :    0.114068
  23 H :    0.112514
  24 H :    0.170752

  Mayer bond orders larger than 0.1
B(  0-C ,  1-O ) :   0.9241 B(  0-C ,  9-H ) :   0.9366 B(  0-C , 10-H ) :   0.9398
B(  0-C , 11-H ) :   0.9374 B(  1-O ,  2-C ) :   0.9653 B(  2-C ,  3-C ) :   0.9403
B(  2-C , 12-H ) :   0.9212 B(  2-C , 13-H ) :   0.9316 B(  3-C ,  4-C ) :   0.9171
B(  3-C , 14-H ) :   0.9209 B(  3-C , 15-H ) :   0.9274 B(  4-C ,  5-C ) :   0.8940
B(  4-C ,  6-C ) :   0.9150 B(  4-C , 16-H ) :   0.9238 B(  5-C , 17-H ) :   0.9417
B(  5-C , 18-H ) :   0.9421 B(  5-C , 19-H ) :   0.9293 B(  6-C ,  7-C ) :   0.9261
B(  6-C , 20-H ) :   0.9189 B(  6-C , 21-H ) :   0.9276 B(  7-C ,  8-O ) :   1.0222
B(  7-C , 22-H ) :   0.9296 B(  7-C , 23-H ) :   0.9381 B(  8-O , 24-H ) :   0.8501

MP2 TOTAL ENERGY:     -425.910981618 Eh
FINAL SINGLE POINT ENERGY      -425.910981617904

DIPOLE MOMENT
-------------
                                X             Y             Z
Electronic contribution:      0.85878      -3.97670      -2.71876
Nuclear contribution   :     -0.47175       4.44518       3.57038
                        -----------------------------------------
Total Dipole Moment    :      0.38702       0.46848       0.85161
                        -----------------------------------------
Magnitude (a.u.)       :      1.04619
Magnitude (Debye)      :      2.65919

                             ****ORCA TERMINATED NORMALLY****
TOTAL RUN TIME: 0 days 0 hours 16 minutes 40 seconds 117 msec
