                         Program Version 3.0.3 - RELEASE   -
|  1> ! RI-MP2 RIJK def2-TZVP def2-TZVP/C def2-TZVP/JK TIGHTSCF
|  2> % maxcore 2000
|  3> % mp2 density relaxed end
|  4> *xyz 0 1
|  5>  C       -0.8848241790     0.5176457389    -0.4910831493
|  6>  C       -0.3678784320    -0.7268034789     0.2408299234
|  7>  C        0.8100219824    -0.4236989757     1.1427650610
|  8>  C        1.9598920301    -1.3507980864     1.2200137093
|  9>  O        2.0620027745    -0.1304669559     0.4950880641
| 10>  C        0.5117529522     0.4228675334     2.3648616704
| 11>  O       -0.5630263187     0.3636412935     2.9096424326
| 12>  C        1.6229554457     1.3592800633     2.8240242902
| 13>  O        1.2391087024     1.9680917584     4.0288459672
| 14>  H       -0.0929754000     0.9692070127    -1.0965697368
| 15>  H       -1.7130999009     0.2571634929    -1.1558538536
| 16>  H       -1.2493747941     1.2675461080     0.2170899197
| 17>  H       -1.1608154312    -1.1538844412     0.8624902383
| 18>  H       -0.0643189926    -1.4894202929    -0.4836242890
| 19>  H        2.5597455398    -1.4142027175     2.1267920721
| 20>  H        1.9317733465    -2.2573765881     0.6173138271
| 21>  H        2.5634029632     0.7922433547     2.9103545414
| 22>  H        1.7848617572     2.0807964638     2.0052174379
| 23>  H        1.9242687643     2.5969946271     4.2725713239
| 24> *
| 25>
| 26>                          ****END OF INPUT****

CARTESIAN COORDINATES (ANGSTROEM)
---------------------------------
  C     -0.884824    0.517646   -0.491083
  C     -0.367878   -0.726803    0.240830
  C      0.810022   -0.423699    1.142765
  C      1.959892   -1.350798    1.220014
  O      2.062003   -0.130467    0.495088
  C      0.511753    0.422868    2.364862
  O     -0.563026    0.363641    2.909642
  C      1.622955    1.359280    2.824024
  O      1.239109    1.968092    4.028846
  H     -0.092975    0.969207   -1.096570
  H     -1.713100    0.257163   -1.155854
  H     -1.249375    1.267546    0.217090
  H     -1.160815   -1.153884    0.862490
  H     -0.064319   -1.489420   -0.483624
  H      2.559746   -1.414203    2.126792
  H      1.931773   -2.257377    0.617314
  H      2.563403    0.792243    2.910355
  H      1.784862    2.080796    2.005217
  H      1.924269    2.596995    4.272571

 Total Charge           Charge          ....    0
 Multiplicity           Mult            ....    1
 Number of Electrons    NEL             ....   70
 Basis Dimension        Dim             ....  339

ORBITAL ENERGIES
----------------

  NO   OCC          E(Eh)            E(eV)
   0   2.0000     -20.590073      -560.2844
   1   2.0000     -20.567954      -559.6825
   2   2.0000     -20.553040      -559.2766
   3   2.0000     -11.337605      -308.5119
   4   2.0000     -11.309524      -307.7478
   5   2.0000     -11.305324      -307.6335
   6   2.0000     -11.297448      -307.4192
   7   2.0000     -11.236265      -305.7543
   8   2.0000     -11.218644      -305.2748
   9   2.0000      -1.436723       -39.0952
  10   2.0000      -1.402100       -38.1531
  11   2.0000      -1.369455       -37.2648
  12   2.0000      -1.064627       -28.9700
  13   2.0000      -1.005340       -27.3567
  14   2.0000      -0.949804       -25.8455
  15   2.0000      -0.896625       -24.3984
  16   2.0000      -0.841316       -22.8934
  17   2.0000      -0.740682       -20.1550
  18   2.0000      -0.732777       -19.9399
  19   2.0000      -0.688642       -18.7389
  20   2.0000      -0.669916       -18.2293
  21   2.0000      -0.652632       -17.7590
  22   2.0000      -0.640376       -17.4255
  23   2.0000      -0.614136       -16.7115
  24   2.0000      -0.592329       -16.1181
  25   2.0000      -0.566783       -15.4230
  26   2.0000      -0.549812       -14.9612
  27   2.0000      -0.537955       -14.6385
  28   2.0000      -0.520894       -14.1742
  29   2.0000      -0.513154       -13.9636
  30   2.0000      -0.497253       -13.5310
  31   2.0000      -0.481583       -13.1045
  32   2.0000      -0.461175       -12.5492
  33   2.0000      -0.442142       -12.0313
  34   2.0000      -0.411871       -11.2076
  35   0.0000       0.125490         3.4148
  36   0.0000       0.131988         3.5916
  37   0.0000       0.150290         4.0896
  38   0.0000       0.157782         4.2935
  39   0.0000       0.167917         4.5693

MULLIKEN ATOMIC CHARGES
-----------------------
   0 C :   -0.440831
   1 C :   -0.170930
   2 C :    0.148527
   3 C :   -0.085377
   4 O :   -0.337545
   5 C :    0.184552
   6 O :   -0.262879
   7 C :   -0.092963
   8 O :   -0.433512
   9 H :    0.140424
  10 H :    0.136974
  11 H :    0.145767
  12 H :    0.135601
  13 H :    0.113327
  14 H :    0.121749
  15 H :    0.128697
  16 H :    0.119201
  17 H :    0.128945
  18 H :    0.320272
Sum of atomic charges:   -0.0000000

LOEWDIN ATOMIC CHARGES
----------------------
   0 C :   -0.307507
   1 C :   -0.244712
   2 C :   -0.289699
   3 C :   -0.235733
   4 O :    0.175562
   5 C :   -0.296668
   6 O :    0.182895
   7 C :   -0.332239
   8 O :   -0.019724
   9 H :    0.125072
  10 H :    0.123727
  11 H :    0.126480
  12 H :    0.153678
  13 H :    0.144118
  14 H :    0.121940
  15 H :    0.126143
  16 H :    0.131295
  17 H :    0.137772
  18 H :    0.177599

  Mayer bond orders larger than 0.1
B(  0-C ,  1-C ) :   0.9171 B(  0-C ,  9-H ) :   0.9377 B(  0-C , 10-H ) :   0.9386
B(  0-C , 11-H ) :   0.9339 B(  1-C ,  2-C ) :   0.9198 B(  1-C , 12-H ) :   0.9239
B(  1-C , 13-H ) :   0.9286 B(  2-C ,  3-C ) :   0.9542 B(  2-C ,  4-O ) :   0.8267
B(  2-C ,  5-C ) :   0.8567 B(  3-C ,  4-O ) :   0.9110 B(  3-C , 14-H ) :   0.9043
B(  3-C , 15-H ) :   0.9102 B(  5-C ,  6-O ) :   1.9908 B(  5-C ,  7-C ) :   0.9340
B(  7-C ,  8-O ) :   1.0376 B(  7-C , 16-H ) :   0.9145 B(  7-C , 17-H ) :   0.9026
B(  8-O , 18-H ) :   0.8443

MP2 TOTAL ENERGY:     -459.413777615 Eh
FINAL SINGLE POINT ENERGY      -459.413777615319

DIPOLE MOMENT
-------------
                                X             Y             Z
Electronic contribution:      1.67258       0.66712       5.53431
Nuclear contribution   :     -0.70006      -0.91623      -5.96558
                        -----------------------------------------
Total Dipole Moment    :      0.97252      -0.24911      -0.43127
                        -----------------------------------------
Magnitude (a.u.)       :      1.09264
Magnitude (Debye)      :      2.77726

                             ****ORCA TERMINATED NORMALLY****
TOTAL RUN TIME: 0 days 0 hours 17 minutes 45 seconds 529 msec
