                         Program Version 3.0.3 - RELEASE   -
|  1> ! RI-MP2 RIJK def2-TZVP def2-TZVP/C def2-TZVP/JK TIGHTSCF
|  2> % maxcore 2000
|  3> % mp2 density relaxed end
|  4> *xyz 0 1
|  5>  C        0.2528321779     1.4200056890    -0.0293256503
|  6>  C       -0.3565231765     0.0373888888     0.0345654418
|  7>  O       -0.8508665219    -0.4340770877     1.0346225250
|  8>  C       -0.3187282810    -0.7192199779    -1.2094114148
|  9>  C       -0.2926894986    -1.3490211307    -2.2398754804
| 10>  C       -0.3249335134    -2.0618243070    -3.5135715300
| 11>  N        0.4530167946    -3.1796088245    -3.5403838252
| 12>  O       -0.9830190333    -1.6631229660    -4.4530672375
| 13>  H        1.2969103638     1.3580803118    -0.3546321554
| 14>  H       -0.2771751817     2.0268557523    -0.7714502820
| 15>  H        0.1919079329     1.8905467456     0.9528839915
| 16>  H        0.8836771894    -3.5385945498    -2.7055618834
| 17>  H        0.4226570679    -3.7561763639    -4.3659960194
| 18> *
| 19>
| 20>                          ****END OF INPUT****

CARTESIAN COORDINATES (ANGSTROEM)
---------------------------------
  C      0.252832    1.420006   -0.029326
  C     -0.356523    0.037389    0.034565
  O     -0.850867   -0.434077    1.034623
  C     -0.318728   -0.719220   -1.209411
  C     -0.292689   -1.349021   -2.239875
  C     -0.324934   -2.061824   -3.513572
  N      0.453017   -3.179609   -3.540384
  O     -0.983019   -1.663123   -4.453067
  H      1.296910    1.358080   -0.354632
  H     -0.277175    2.026856   -0.771450
  H      0.191908    1.890547    0.952884
  H      0.883677   -3.538595   -2.705562
  H      0.422657   -3.756176   -4.365996

 Total Charge           Charge          ....    0
 Multiplicity           Mult            ....    1
 Number of Electrons    NEL             ....   58
 Basis Dimension        Dim             ....  278

ORBITAL ENERGIES
----------------

  NO   OCC          E(Eh)            E(eV)
   0   2.0000     -20.574758      -559.8676
   1   2.0000     -20.545991      -559.0848
   2   2.0000     -15.607792      -424.7096
   3   2.0000     -11.397615      -310.1449
   4   2.0000     -11.375149      -309.5335
   5   2.0000     -11.280510      -306.9583
   6   2.0000     -11.276226      -306.8417
   7   2.0000     -11.254717      -306.2564
   8   2.0000      -1.416257       -38.5383
   9   2.0000      -1.410286       -38.3758
  10   2.0000      -1.238947       -33.7135
  11   2.0000      -1.093199       -29.7475
  12   2.0000      -1.031802       -28.0768
  13   2.0000      -0.921546       -25.0765
  14   2.0000      -0.849557       -23.1176
  15   2.0000      -0.774580       -21.0774
  16   2.0000      -0.713554       -19.4168
  17   2.0000      -0.700781       -19.0692
  18   2.0000      -0.651383       -17.7250
  19   2.0000      -0.639001       -17.3881
  20   2.0000      -0.624792       -17.0014
  21   2.0000      -0.606753       -16.5106
  22   2.0000      -0.580959       -15.8087
  23   2.0000      -0.532598       -14.4927
  24   2.0000      -0.475937       -12.9509
  25   2.0000      -0.459140       -12.4938
  26   2.0000      -0.439767       -11.9667
  27   2.0000      -0.431652       -11.7458
  28   2.0000      -0.429088       -11.6761
  29   0.0000       0.067886         1.8473
  30   0.0000       0.107998         2.9388
  31   0.0000       0.123414         3.3583
  32   0.0000       0.136526         3.7151
  33   0.0000       0.170996         4.6530

MULLIKEN ATOMIC CHARGES
-----------------------
   0 C :   -0.390842
   1 C :    0.129578
   2 O :   -0.259881
   3 C :    0.038664
   4 C :    0.021202
   5 C :    0.234139
   6 N :   -0.468810
   7 O :   -0.308650
   8 H :    0.149614
   9 H :    0.157224
  10 H :    0.156546
  11 H :    0.272186
  12 H :    0.269030
Sum of atomic charges:    0.0000000

LOEWDIN ATOMIC CHARGES
----------------------
   0 C :   -0.260769
   1 C :   -0.349823
   2 O :    0.178118
   3 C :    0.000775
   4 C :    0.008657
   5 C :   -0.480743
   6 N :    0.002983
   7 O :    0.119545
   8 H :    0.141877
   9 H :    0.144467
  10 H :    0.136254
  11 H :    0.179334
  12 H :    0.179324

  Mayer bond orders larger than 0.1
B(  0-C ,  1-C ) :   0.9995 B(  0-C ,  3-C ) :  -0.1229 B(  0-C ,  8-H ) :   0.9078
B(  0-C ,  9-H ) :   0.9071 B(  0-C , 10-H ) :   0.9348 B(  1-C ,  2-O ) :   2.0104
B(  1-C ,  3-C ) :   0.9110 B(  3-C ,  4-C ) :   2.7075 B(  4-C ,  5-C ) :   0.8905
B(  4-C ,  6-N ) :  -0.1015 B(  5-C ,  6-N ) :   1.2368 B(  5-C ,  7-O ) :   2.0204
B(  6-N , 11-H ) :   0.8647 B(  6-N , 12-H ) :   0.8572

MP2 TOTAL ENERGY:     -397.952196514 Eh
FINAL SINGLE POINT ENERGY      -397.952196514142

DIPOLE MOMENT
-------------
                                X             Y             Z
Electronic contribution:     -2.49020      -3.19188      -1.42711
Nuclear contribution   :      3.73925       2.83092       1.43448
                        -----------------------------------------
Total Dipole Moment    :      1.24906      -0.36095       0.00737
                        -----------------------------------------
Magnitude (a.u.)       :      1.30019
Magnitude (Debye)      :      3.30481

                             ****ORCA TERMINATED NORMALLY****
TOTAL RUN TIME: 0 days 0 hours 8 minutes 14 seconds 718 msec
