                         Program Version 3.0.3 - RELEASE   -
|  1> ! RI-MP2 RIJK def2-TZVP def2-TZVP/C def2-TZVP/JK TIGHTSCF
|  2> % maxcore 2000
|  3> % mp2 density relaxed end
|  4> *xyz 0 1
|  5>  C        1.3172910073     1.5145393749    -0.4433779410
|  6>  C        0.3097841976     0.4465626107    -0.0229189936
|  7>  O        0.3867632045    -0.7044216286    -0.8633586802
|  8>  C       -0.4244619006    -0.7451990314    -1.9438854608
|  9>  N       -0.3222935800    -1.6905264830    -2.7694689173
| 10>  C        0.5282942947     0.0003599657     1.4225310153
| 11>  O        0.6680836776     0.8210831889     2.3037528192
| 12>  C        0.5507448826    -1.4803703108     1.7511597529
| 13>  O        0.7126206055    -1.6869696349     3.1221077833
| 14>  H        2.3242688401     1.0899449465    -0.4771964718
| 15>  H        1.0708871220     1.9024112281    -1.4352614336
| 16>  H        1.3017430814     2.3334949324     0.2784754440
| 17>  H       -0.7093010855     0.8617565831    -0.0610562268
| 18>  H       -1.1352484178     0.0924395222    -1.9843786916
| 19>  H       -1.0138025496    -1.5878673605    -3.5090153272
| 20>  H       -0.3818273942    -1.9337778008     1.3786061457
| 21>  H        1.3576007805    -1.9479630564     1.1652747995
| 22>  H        0.7922237139    -0.8018782162     3.5109384538
| 23> *
| 24>
| 25>                          ****END OF INPUT****

CARTESIAN COORDINATES (ANGSTROEM)
---------------------------------
  C      1.317291    1.514539   -0.443378
  C      0.309784    0.446563   -0.022919
  O      0.386763   -0.704422   -0.863359
  C     -0.424462   -0.745199   -1.943885
  N     -0.322294   -1.690526   -2.769469
  C      0.528294    0.000360    1.422531
  O      0.668084    0.821083    2.303753
  C      0.550745   -1.480370    1.751160
  O      0.712621   -1.686970    3.122108
  H      2.324269    1.089945   -0.477196
  H      1.070887    1.902411   -1.435261
  H      1.301743    2.333495    0.278475
  H     -0.709301    0.861757   -0.061056
  H     -1.135248    0.092440   -1.984379
  H     -1.013803   -1.587867   -3.509015
  H     -0.381827   -1.933778    1.378606
  H      1.357601   -1.947963    1.165275
  H      0.792224   -0.801878    3.510938

 Total Charge           Charge          ....    0
 Multiplicity           Mult            ....    1
 Number of Electrons    NEL             ....   70
 Basis Dimension        Dim             ....  333

ORBITAL ENERGIES
----------------

  NO   OCC          E(Eh)            E(eV)
   0   2.0000     -20.614478      -560.9485
   1   2.0000     -20.576099      -559.9041
   2   2.0000     -20.557568      -559.3999
   3   2.0000     -15.557265      -423.3347
   4   2.0000     -11.357059      -309.0413
   5   2.0000     -11.356097      -309.0151
   6   2.0000     -11.332907      -308.3841
   7   2.0000     -11.294785      -307.3467
   8   2.0000     -11.246574      -306.0348
   9   2.0000      -1.454154       -39.5695
  10   2.0000      -1.426115       -38.8066
  11   2.0000      -1.364114       -37.1194
  12   2.0000      -1.218926       -33.1687
  13   2.0000      -1.074467       -29.2377
  14   2.0000      -0.995057       -27.0769
  15   2.0000      -0.907979       -24.7074
  16   2.0000      -0.848508       -23.0891
  17   2.0000      -0.789134       -21.4734
  18   2.0000      -0.752674       -20.4813
  19   2.0000      -0.702127       -19.1058
  20   2.0000      -0.694578       -18.9004
  21   2.0000      -0.682482       -18.5713
  22   2.0000      -0.654172       -17.8009
  23   2.0000      -0.636219       -17.3124
  24   2.0000      -0.610352       -16.6085
  25   2.0000      -0.586135       -15.9496
  26   2.0000      -0.576050       -15.6751
  27   2.0000      -0.554205       -15.0807
  28   2.0000      -0.551657       -15.0113
  29   2.0000      -0.540296       -14.7022
  30   2.0000      -0.512741       -13.9524
  31   2.0000      -0.456301       -12.4166
  32   2.0000      -0.454369       -12.3640
  33   2.0000      -0.444457       -12.0943
  34   2.0000      -0.416987       -11.3468
  35   0.0000       0.105919         2.8822
  36   0.0000       0.131748         3.5850
  37   0.0000       0.136881         3.7247
  38   0.0000       0.147868         4.0237
  39   0.0000       0.160909         4.3786

MULLIKEN ATOMIC CHARGES
-----------------------
   0 C :   -0.382372
   1 C :    0.046728
   2 O :   -0.224212
   3 C :    0.069010
   4 N :   -0.336935
   5 C :    0.163085
   6 O :   -0.321747
   7 C :   -0.008565
   8 O :   -0.480166
   9 H :    0.145577
  10 H :    0.139650
  11 H :    0.160672
  12 H :    0.115954
  13 H :    0.086797
  14 H :    0.229956
  15 H :    0.124062
  16 H :    0.137825
  17 H :    0.334679
Sum of atomic charges:   -0.0000000

LOEWDIN ATOMIC CHARGES
----------------------
   0 C :   -0.277582
   1 C :   -0.303070
   2 O :    0.267953
   3 C :   -0.397703
   4 N :   -0.071519
   5 C :   -0.303708
   6 O :    0.149411
   7 C :   -0.335653
   8 O :   -0.030977
   9 H :    0.134130
  10 H :    0.127521
  11 H :    0.138320
  12 H :    0.154686
  13 H :    0.108832
  14 H :    0.170941
  15 H :    0.142257
  16 H :    0.144879
  17 H :    0.181282

  Mayer bond orders larger than 0.1
B(  0-C ,  1-C ) :   0.9409 B(  0-C ,  9-H ) :   0.9271 B(  0-C , 10-H ) :   0.9273
B(  0-C , 11-H ) :   0.9234 B(  1-C ,  2-O ) :   0.8805 B(  1-C ,  5-C ) :   0.8860
B(  1-C , 12-H ) :   0.9155 B(  2-O ,  3-C ) :   1.0300 B(  3-C ,  4-N ) :   1.9678
B(  3-C , 13-H ) :   0.9207 B(  4-N , 14-H ) :   0.8475 B(  5-C ,  6-O ) :   1.8934
B(  5-C ,  7-C ) :   0.9653 B(  7-C ,  8-O ) :   1.0044 B(  7-C , 15-H ) :   0.8977
B(  7-C , 16-H ) :   0.8973 B(  8-O , 17-H ) :   0.8081

MP2 TOTAL ENERGY:     -475.475914559 Eh
FINAL SINGLE POINT ENERGY      -475.475914559199

DIPOLE MOMENT
-------------
                                X             Y             Z
Electronic contribution:     -0.59458      -2.14052       2.84222
Nuclear contribution   :     -0.14174       3.34139      -3.74666
                        -----------------------------------------
Total Dipole Moment    :     -0.73632       1.20087      -0.90444
                        -----------------------------------------
Magnitude (a.u.)       :      1.67400
Magnitude (Debye)      :      4.25497

                             ****ORCA TERMINATED NORMALLY****
TOTAL RUN TIME: 0 days 0 hours 14 minutes 0 seconds 170 msec
