                         Program Version 3.0.3 - RELEASE   -
|  1> ! RI-MP2 RIJK def2-TZVP def2-TZVP/C def2-TZVP/JK TIGHTSCF
|  2> % maxcore 2000
|  3> % mp2 density relaxed end
|  4> *xyz 0 1
|  5>  C       -0.3408190092     1.4739762846     0.0060246183
|  6>  C        0.1622068198     0.0466409655    -0.0616053698
|  7>  O        1.4053470939    -0.0616952027    -0.7927215800
|  8>  C        2.0127448574    -0.8333871206     0.2562081627
|  9>  C        0.7886389376    -0.6378253816     1.1968675284
| 10>  C        1.0003838809     0.2077852744     2.4775215967
| 11>  C        0.9064058388    -0.7847614719     3.6660645565
| 12>  C        0.2109286365    -1.9769590813     3.0558142106
| 13>  C        0.1452031433    -1.8889771230     1.7284533896
| 14>  H        0.3953319492     2.1359910971     0.4703051404
| 15>  H       -0.5368244098     1.8403753855    -1.0068010287
| 16>  H       -1.2763461090     1.5313210584     0.5731244227
| 17>  H       -0.6064607251    -0.5913729483    -0.5247883474
| 18>  H        2.1949978265    -1.8733575005    -0.0476532626
| 19>  H        2.9577814768    -0.3933521249     0.5999385020
| 20>  H        1.9402551507     0.7659113294     2.4616015032
| 21>  H        0.1938336545     0.9424539925     2.5620186008
| 22>  H        1.8976789867    -1.0684135602     4.0460568095
| 23>  H        0.3636689305    -0.3632243113     4.5196731316
| 24>  H       -0.1511045484    -2.8116410427     3.6462905991
| 25>  H       -0.2740953717    -2.6399840582     1.0664731166
| 26> *
| 27>
| 28>                          ****END OF INPUT****

CARTESIAN COORDINATES (ANGSTROEM)
---------------------------------
  C     -0.340819    1.473976    0.006025
  C      0.162207    0.046641   -0.061605
  O      1.405347   -0.061695   -0.792722
  C      2.012745   -0.833387    0.256208
  C      0.788639   -0.637825    1.196868
  C      1.000384    0.207785    2.477522
  C      0.906406   -0.784761    3.666065
  C      0.210929   -1.976959    3.055814
  C      0.145203   -1.888977    1.728453
  H      0.395332    2.135991    0.470305
  H     -0.536824    1.840375   -1.006801
  H     -1.276346    1.531321    0.573124
  H     -0.606461   -0.591373   -0.524788
  H      2.194998   -1.873358   -0.047653
  H      2.957781   -0.393352    0.599939
  H      1.940255    0.765911    2.461602
  H      0.193834    0.942454    2.562019
  H      1.897679   -1.068414    4.046057
  H      0.363669   -0.363224    4.519673
  H     -0.151105   -2.811641    3.646291
  H     -0.274095   -2.639984    1.066473

 Total Charge           Charge          ....    0
 Multiplicity           Mult            ....    1
 Number of Electrons    NEL             ....   68
 Basis Dimension        Dim             ....  351

ORBITAL ENERGIES
----------------

  NO   OCC          E(Eh)            E(eV)
   0   2.0000     -20.540028      -558.9226
   1   2.0000     -11.278541      -306.9047
   2   2.0000     -11.271275      -306.7070
   3   2.0000     -11.239417      -305.8401
   4   2.0000     -11.230730      -305.6037
   5   2.0000     -11.229538      -305.5713
   6   2.0000     -11.225872      -305.4715
   7   2.0000     -11.225397      -305.4586
   8   2.0000     -11.214778      -305.1696
   9   2.0000      -1.372708       -37.3533
  10   2.0000      -1.139109       -30.9967
  11   2.0000      -1.019539       -27.7431
  12   2.0000      -0.984688       -26.7947
  13   2.0000      -0.971164       -26.4267
  14   2.0000      -0.878007       -23.8918
  15   2.0000      -0.840747       -22.8779
  16   2.0000      -0.753213       -20.4960
  17   2.0000      -0.720529       -19.6066
  18   2.0000      -0.682781       -18.5794
  19   2.0000      -0.651621       -17.7315
  20   2.0000      -0.630769       -17.1641
  21   2.0000      -0.609764       -16.5925
  22   2.0000      -0.601687       -16.3727
  23   2.0000      -0.570961       -15.5366
  24   2.0000      -0.533889       -14.5279
  25   2.0000      -0.525440       -14.2979
  26   2.0000      -0.522758       -14.2250
  27   2.0000      -0.504376       -13.7248
  28   2.0000      -0.493183       -13.4202
  29   2.0000      -0.483503       -13.1568
  30   2.0000      -0.455038       -12.3822
  31   2.0000      -0.442532       -12.0419
  32   2.0000      -0.404248       -11.0002
  33   2.0000      -0.346168        -9.4197
  34   0.0000       0.133801         3.6409
  35   0.0000       0.145429         3.9573
  36   0.0000       0.158794         4.3210
  37   0.0000       0.165576         4.5055
  38   0.0000       0.177122         4.8197

MULLIKEN ATOMIC CHARGES
-----------------------
   0 C :   -0.417683
   1 C :    0.069737
   2 O :   -0.326961
   3 C :   -0.052436
   4 C :    0.188588
   5 C :   -0.314820
   6 C :   -0.157315
   7 C :   -0.159990
   8 C :   -0.251079
   9 H :    0.134918
  10 H :    0.144764
  11 H :    0.129825
  12 H :    0.073768
  13 H :    0.090455
  14 H :    0.090710
  15 H :    0.134423
  16 H :    0.123841
  17 H :    0.115968
  18 H :    0.122482
  19 H :    0.128883
  20 H :    0.131921
Sum of atomic charges:    0.0000000

LOEWDIN ATOMIC CHARGES
----------------------
   0 C :   -0.298640
   1 C :   -0.266190
   2 O :    0.133674
   3 C :   -0.230337
   4 C :   -0.213704
   5 C :   -0.194271
   6 C :   -0.238451
   7 C :   -0.151532
   8 C :   -0.131539
   9 H :    0.126185
  10 H :    0.130928
  11 H :    0.127795
  12 H :    0.135580
  13 H :    0.117811
  14 H :    0.116815
  15 H :    0.136424
  16 H :    0.144333
  17 H :    0.140632
  18 H :    0.136502
  19 H :    0.136554
  20 H :    0.141432

  Mayer bond orders larger than 0.1
B(  0-C ,  1-C ) :   0.8921 B(  0-C ,  9-H ) :   0.9397 B(  0-C , 10-H ) :   0.9313
B(  0-C , 11-H ) :   0.9300 B(  1-C ,  2-O ) :   0.9828 B(  1-C ,  4-C ) :   0.9369
B(  1-C , 12-H ) :   0.9106 B(  2-O ,  3-C ) :   0.9678 B(  3-C ,  4-C ) :   0.9560
B(  3-C , 13-H ) :   0.9025 B(  3-C , 14-H ) :   0.9035 B(  4-C ,  5-C ) :   0.8743
B(  4-C ,  8-C ) :   0.9176 B(  5-C ,  6-C ) :   0.9562 B(  5-C , 15-H ) :   0.9327
B(  5-C , 16-H ) :   0.9295 B(  6-C ,  7-C ) :   0.9444 B(  6-C , 17-H ) :   0.9082
B(  6-C , 18-H ) :   0.9312 B(  7-C ,  8-C ) :   1.7928 B(  7-C , 19-H ) :   0.9267
B(  8-C , 20-H ) :   0.9149

MP2 TOTAL ENERGY:     -386.404296753 Eh
FINAL SINGLE POINT ENERGY      -386.404296752956

DIPOLE MOMENT
-------------
                                X             Y             Z
Electronic contribution:      1.11019      -2.87154      -2.51127
Nuclear contribution   :     -1.33691       2.74091       3.25124
                        -----------------------------------------
Total Dipole Moment    :     -0.22672      -0.13063       0.73997
                        -----------------------------------------
Magnitude (a.u.)       :      0.78487
Magnitude (Debye)      :      1.99499

                             ****ORCA TERMINATED NORMALLY****
TOTAL RUN TIME: 0 days 0 hours 18 minutes 40 seconds 846 msec
