                         Program Version 3.0.3 - RELEASE   -
|  1> ! RI-MP2 RIJK def2-TZVP def2-TZVP/C def2-TZVP/JK TIGHTSCF
|  2> % maxcore 2000
|  3> % mp2 density relaxed end
|  4> *xyz 0 1
|  5>  O       -0.1068840229     0.0099100009    -0.0509678805
|  6>  C       -0.0483466732     1.1974267984     0.0456639603
|  7>  C       -1.1178917911     2.3251391877     0.2028978145
|  8>  C        0.0241795212     3.3036894514    -0.0903317685
|  9>  O        0.9785470436     3.1167214971     0.9514946514
| 10>  C        1.0613130382     2.2321536439    -0.1922156820
| 11>  C        2.3552768937     2.1085699301    -0.8985255894
| 12>  C        3.3308134843     3.2276036342    -0.8593263145
| 13>  N        3.6034229095     1.9862667555    -0.1207521451
| 14>  H       -1.8784915403     2.2450175651    -0.5793004233
| 15>  H       -1.5915161169     2.4369715965     1.1796994783
| 16>  H        0.0058403451     4.2580703953    -0.6013509745
| 17>  H        2.3190118175     1.4613168807    -1.7708610445
| 18>  H        3.9726698586     3.4041828391    -1.7172705422
| 19>  H        3.0520954550     4.1121977733    -0.2948123020
| 20>  H        3.3935149577     2.1346015708     0.8645697621
| 21> *
| 22>
| 23>                          ****END OF INPUT****

CARTESIAN COORDINATES (ANGSTROEM)
---------------------------------
  O     -0.106884    0.009910   -0.050968
  C     -0.048347    1.197427    0.045664
  C     -1.117892    2.325139    0.202898
  C      0.024180    3.303689   -0.090332
  O      0.978547    3.116721    0.951495
  C      1.061313    2.232154   -0.192216
  C      2.355277    2.108570   -0.898526
  C      3.330813    3.227604   -0.859326
  N      3.603423    1.986267   -0.120752
  H     -1.878492    2.245018   -0.579300
  H     -1.591516    2.436972    1.179699
  H      0.005840    4.258070   -0.601351
  H      2.319012    1.461317   -1.770861
  H      3.972670    3.404183   -1.717271
  H      3.052095    4.112198   -0.294812
  H      3.393515    2.134602    0.864570

 Total Charge           Charge          ....    0
 Multiplicity           Mult            ....    1
 Number of Electrons    NEL             ....   66
 Basis Dimension        Dim             ....  321

ORBITAL ENERGIES
----------------

  NO   OCC          E(Eh)            E(eV)
   0   2.0000     -20.606382      -560.7282
   1   2.0000     -20.571506      -559.7792
   2   2.0000     -15.569323      -423.6628
   3   2.0000     -11.354885      -308.9821
   4   2.0000     -11.323727      -308.1343
   5   2.0000     -11.321359      -308.0698
   6   2.0000     -11.281475      -306.9846
   7   2.0000     -11.267465      -306.6033
   8   2.0000     -11.264726      -306.5288
   9   2.0000      -1.457760       -39.6677
  10   2.0000      -1.412022       -38.4231
  11   2.0000      -1.272891       -34.6371
  12   2.0000      -1.098137       -29.8818
  13   2.0000      -0.978499       -26.6263
  14   2.0000      -0.899696       -24.4820
  15   2.0000      -0.871237       -23.7076
  16   2.0000      -0.846500       -23.0344
  17   2.0000      -0.760212       -20.6864
  18   2.0000      -0.718867       -19.5614
  19   2.0000      -0.685620       -18.6567
  20   2.0000      -0.650421       -17.6989
  21   2.0000      -0.646863       -17.6020
  22   2.0000      -0.639822       -17.4104
  23   2.0000      -0.599665       -16.3177
  24   2.0000      -0.576102       -15.6765
  25   2.0000      -0.549999       -14.9662
  26   2.0000      -0.522079       -14.2065
  27   2.0000      -0.514485       -13.9999
  28   2.0000      -0.506031       -13.7698
  29   2.0000      -0.497892       -13.5483
  30   2.0000      -0.444125       -12.0853
  31   2.0000      -0.416230       -11.3262
  32   2.0000      -0.387483       -10.5440
  33   0.0000       0.123301         3.3552
  34   0.0000       0.141482         3.8499
  35   0.0000       0.151377         4.1192
  36   0.0000       0.160189         4.3590
  37   0.0000       0.170251         4.6328

MULLIKEN ATOMIC CHARGES
-----------------------
   0 O :   -0.228638
   1 C :    0.069575
   2 C :   -0.157623
   3 C :   -0.053560
   4 O :   -0.322093
   5 C :    0.187687
   6 C :   -0.075690
   7 C :   -0.153051
   8 N :   -0.347016
   9 H :    0.139863
  10 H :    0.142751
  11 H :    0.154085
  12 H :    0.140129
  13 H :    0.129208
  14 H :    0.141787
  15 H :    0.232587
Sum of atomic charges:    0.0000000

LOEWDIN ATOMIC CHARGES
----------------------
   0 O :    0.182053
   1 C :   -0.266537
   2 C :   -0.189985
   3 C :   -0.210223
   4 O :    0.205335
   5 C :   -0.231636
   6 C :   -0.245855
   7 C :   -0.253224
   8 N :   -0.000593
   9 H :    0.149250
  10 H :    0.143936
  11 H :    0.136655
  12 H :    0.155682
  13 H :    0.126246
  14 H :    0.126876
  15 H :    0.172019

  Mayer bond orders larger than 0.1
B(  0-O ,  1-C ) :   2.0727 B(  1-C ,  2-C ) :   0.9508 B(  1-C ,  5-C ) :   0.7895
B(  2-C ,  3-C ) :   0.9269 B(  2-C ,  5-C ) :  -0.1421 B(  2-C ,  9-H ) :   0.8989
B(  2-C , 10-H ) :   0.8853 B(  3-C ,  4-O ) :   0.9157 B(  3-C ,  5-C ) :   0.8749
B(  3-C , 11-H ) :   0.9049 B(  4-O ,  5-C ) :   0.7767 B(  5-C ,  6-C ) :   0.9172
B(  6-C ,  7-C ) :   0.9452 B(  6-C ,  8-N ) :   0.9372 B(  6-C , 12-H ) :   0.9082
B(  7-C ,  8-N ) :   0.9124 B(  7-C , 13-H ) :   0.9219 B(  7-C , 14-H ) :   0.9161
B(  8-N , 15-H ) :   0.8731

MP2 TOTAL ENERGY:     -437.099352934 Eh
FINAL SINGLE POINT ENERGY      -437.099352933862

DIPOLE MOMENT
-------------
                                X             Y             Z
Electronic contribution:     -1.93049      -3.25376       1.65745
Nuclear contribution   :      1.28785       4.57313      -2.10629
                        -----------------------------------------
Total Dipole Moment    :     -0.64264       1.31937      -0.44885
                        -----------------------------------------
Magnitude (a.u.)       :      1.53466
Magnitude (Debye)      :      3.90079

                             ****ORCA TERMINATED NORMALLY****
TOTAL RUN TIME: 0 days 0 hours 15 minutes 55 seconds 47 msec
