                         Program Version 3.0.3 - RELEASE   -
|  1> ! RI-MP2 RIJK def2-TZVP def2-TZVP/C def2-TZVP/JK TIGHTSCF
|  2> % maxcore 2000
|  3> % mp2 density relaxed end
|  4> *xyz 0 1
|  5>  C       -0.0725944370     1.3743216156     0.1313985807
|  6>  C        0.0022755733    -0.1283111833     0.0532373052
|  7>  N        0.2267825761    -0.8706460800     1.0723654185
|  8>  O        0.3872629149    -0.1258100187     2.2504712407
|  9>  C       -0.1741224187    -0.7815675527    -1.2901638465
| 10>  C        1.1575664656    -0.8040762431    -2.1226829539
| 11>  C        1.3734540521    -2.2777480240    -1.6907491487
| 12>  C       -0.1426411898    -2.3488722410    -1.3539299858
| 13>  O       -0.6146350768    -3.1250691574    -0.2987023346
| 14>  H        0.7599637923     1.7721901080     0.7170600489
| 15>  H       -0.0643182653     1.8189683383    -0.8654083246
| 16>  H       -0.9921525544     1.6806057943     0.6429024338
| 17>  H        0.5594580917    -0.8093039892     2.9066127599
| 18>  H       -1.0243869360    -0.3031536480    -1.7884032229
| 19>  H        0.9563723831    -0.7044644595    -3.1921233820
| 20>  H        1.9263868102    -0.0810842346    -1.8424328415
| 21>  H        1.7662178880    -2.9797907900    -2.4296297403
| 22>  H        1.9740561265    -2.3430670146    -0.7797364259
| 23>  H       -0.6974725131    -2.6627886991    -2.2451781114
| 24>  H       -0.2916115126    -2.6953838311     0.5087889805
| 25> *
| 26>
| 27>                          ****END OF INPUT****

CARTESIAN COORDINATES (ANGSTROEM)
---------------------------------
  C     -0.072594    1.374322    0.131399
  C      0.002276   -0.128311    0.053237
  N      0.226783   -0.870646    1.072365
  O      0.387263   -0.125810    2.250471
  C     -0.174122   -0.781568   -1.290164
  C      1.157566   -0.804076   -2.122683
  C      1.373454   -2.277748   -1.690749
  C     -0.142641   -2.348872   -1.353930
  O     -0.614635   -3.125069   -0.298702
  H      0.759964    1.772190    0.717060
  H     -0.064318    1.818968   -0.865408
  H     -0.992153    1.680606    0.642902
  H      0.559458   -0.809304    2.906613
  H     -1.024387   -0.303154   -1.788403
  H      0.956372   -0.704464   -3.192123
  H      1.926387   -0.081084   -1.842433
  H      1.766218   -2.979791   -2.429630
  H      1.974056   -2.343067   -0.779736
  H     -0.697473   -2.662789   -2.245178
  H     -0.291612   -2.695384    0.508789

 Total Charge           Charge          ....    0
 Multiplicity           Mult            ....    1
 Number of Electrons    NEL             ....   70
 Basis Dimension        Dim             ....  345

ORBITAL ENERGIES
----------------

  NO   OCC          E(Eh)            E(eV)
   0   2.0000     -20.597940      -560.4984
   1   2.0000     -20.534955      -558.7845
   2   2.0000     -15.618862      -425.0108
   3   2.0000     -11.291512      -307.2577
   4   2.0000     -11.277973      -306.8893
   5   2.0000     -11.243457      -305.9500
   6   2.0000     -11.236074      -305.7491
   7   2.0000     -11.235010      -305.7202
   8   2.0000     -11.218835      -305.2800
   9   2.0000      -1.425972       -38.8027
  10   2.0000      -1.351121       -36.7659
  11   2.0000      -1.183648       -32.2087
  12   2.0000      -1.112463       -30.2717
  13   2.0000      -0.994762       -27.0688
  14   2.0000      -0.921493       -25.0751
  15   2.0000      -0.884463       -24.0675
  16   2.0000      -0.800676       -21.7875
  17   2.0000      -0.735641       -20.0178
  18   2.0000      -0.706306       -19.2196
  19   2.0000      -0.688648       -18.7391
  20   2.0000      -0.657938       -17.9034
  21   2.0000      -0.623511       -16.9666
  22   2.0000      -0.614557       -16.7230
  23   2.0000      -0.586340       -15.9551
  24   2.0000      -0.573680       -15.6106
  25   2.0000      -0.569507       -15.4971
  26   2.0000      -0.557744       -15.1770
  27   2.0000      -0.549745       -14.9593
  28   2.0000      -0.538897       -14.6641
  29   2.0000      -0.487475       -13.2649
  30   2.0000      -0.475632       -12.9426
  31   2.0000      -0.457599       -12.4519
  32   2.0000      -0.422911       -11.5080
  33   2.0000      -0.406640       -11.0652
  34   2.0000      -0.383739       -10.4421
  35   0.0000       0.127772         3.4769
  36   0.0000       0.139162         3.7868
  37   0.0000       0.152868         4.1597
  38   0.0000       0.158328         4.3083
  39   0.0000       0.165932         4.5152

MULLIKEN ATOMIC CHARGES
-----------------------
   0 C :   -0.434940
   1 C :    0.111403
   2 N :   -0.192513
   3 O :   -0.380158
   4 C :   -0.044757
   5 C :   -0.277160
   6 C :   -0.203541
   7 C :    0.055384
   8 O :   -0.469812
   9 H :    0.160318
  10 H :    0.146399
  11 H :    0.157422
  12 H :    0.336429
  13 H :    0.127693
  14 H :    0.123118
  15 H :    0.125272
  16 H :    0.119382
  17 H :    0.111925
  18 H :    0.092089
  19 H :    0.336047
Sum of atomic charges:    0.0000000

LOEWDIN ATOMIC CHARGES
----------------------
   0 C :   -0.277707
   1 C :   -0.271879
   2 N :    0.007533
   3 O :   -0.067028
   4 C :   -0.186132
   5 C :   -0.211135
   6 C :   -0.228808
   7 C :   -0.321599
   8 O :   -0.011726
   9 H :    0.138664
  10 H :    0.132938
  11 H :    0.142287
  12 H :    0.171074
  13 H :    0.150924
  14 H :    0.134741
  15 H :    0.128747
  16 H :    0.122719
  17 H :    0.136990
  18 H :    0.144515
  19 H :    0.164883

  Mayer bond orders larger than 0.1
B(  0-C ,  1-C ) :   0.9292 B(  0-C ,  9-H ) :   0.9208 B(  0-C , 10-H ) :   0.9374
B(  0-C , 11-H ) :   0.9201 B(  1-C ,  2-N ) :   1.6886 B(  1-C ,  4-C ) :   0.9313
B(  2-N ,  3-O ) :   0.8280 B(  3-O , 12-H ) :   0.8447 B(  4-C ,  5-C ) :   0.8591
B(  4-C ,  7-C ) :   0.8740 B(  4-C , 13-H ) :   0.9169 B(  5-C ,  6-C ) :   0.9355
B(  5-C , 14-H ) :   0.9259 B(  5-C , 15-H ) :   0.9198 B(  6-C ,  7-C ) :   0.9265
B(  6-C , 16-H ) :   0.9301 B(  6-C , 17-H ) :   0.9145 B(  7-C ,  8-O ) :   1.0211
B(  7-C , 18-H ) :   0.9375 B(  8-O , 19-H ) :   0.8004

MP2 TOTAL ENERGY:     -439.517771789 Eh
FINAL SINGLE POINT ENERGY      -439.517771789267

DIPOLE MOMENT
-------------
                                X             Y             Z
Electronic contribution:     -1.77673      -2.79798       4.76821
Nuclear contribution   :      2.14786       3.61199      -4.80649
                        -----------------------------------------
Total Dipole Moment    :      0.37112       0.81401      -0.03828
                        -----------------------------------------
Magnitude (a.u.)       :      0.89544
Magnitude (Debye)      :      2.27602

                             ****ORCA TERMINATED NORMALLY****
TOTAL RUN TIME: 0 days 0 hours 17 minutes 38 seconds 270 msec
