                         Program Version 3.0.3 - RELEASE   -
|  1> ! RI-MP2 RIJK def2-TZVP def2-TZVP/C def2-TZVP/JK TIGHTSCF
|  2> % maxcore 2000
|  3> % mp2 density relaxed end
|  4> *xyz 0 1
|  5>  O        0.0328606673     0.0974475628     0.5779928023
|  6>  C       -0.0233726657     1.1865205783     0.0800426958
|  7>  C       -1.3329186227     1.9414083224    -0.1713672559
|  8>  C       -1.0968606813     3.3071598410    -0.8183880738
|  9>  C       -0.0886512002     3.1200511192    -1.9905050340
| 10>  C        0.9963812196     3.1279298173    -0.8901570090
| 11>  C        0.0547529192     4.0163475696    -0.0462531574
| 12>  O        1.1204004374     1.8204743178    -0.2965717143
| 13>  H       -1.9602738009     1.2963869973    -0.7963529260
| 14>  H       -1.8429592908     2.0296248252     0.7941948228
| 15>  H       -2.0270923594     3.8486543553    -0.9994034350
| 16>  H       -0.1655060189     2.2248558041    -2.6130642837
| 17>  H       -0.0195820993     4.0083971332    -2.6224114537
| 18>  H        2.0150301957     3.4444880961    -1.1112225043
| 19>  H        0.1501392690     5.0691792311    -0.3213565320
| 20>  H        0.1039708010     3.9091237292     1.0404583681
| 21> *
| 22>
| 23>                          ****END OF INPUT****

CARTESIAN COORDINATES (ANGSTROEM)
---------------------------------
  O      0.032861    0.097448    0.577993
  C     -0.023373    1.186521    0.080043
  C     -1.332919    1.941408   -0.171367
  C     -1.096861    3.307160   -0.818388
  C     -0.088651    3.120051   -1.990505
  C      0.996381    3.127930   -0.890157
  C      0.054753    4.016348   -0.046253
  O      1.120400    1.820474   -0.296572
  H     -1.960274    1.296387   -0.796353
  H     -1.842959    2.029625    0.794195
  H     -2.027092    3.848654   -0.999403
  H     -0.165506    2.224856   -2.613064
  H     -0.019582    4.008397   -2.622411
  H      2.015030    3.444488   -1.111223
  H      0.150139    5.069179   -0.321357
  H      0.103971    3.909124    1.040458

 Total Charge           Charge          ....    0
 Multiplicity           Mult            ....    1
 Number of Electrons    NEL             ....   60
 Basis Dimension        Dim             ....  296

ORBITAL ENERGIES
----------------

  NO   OCC          E(Eh)            E(eV)
   0   2.0000     -20.596088      -560.4481
   1   2.0000     -20.533104      -558.7342
   2   2.0000     -11.376488      -309.5700
   3   2.0000     -11.308528      -307.7207
   4   2.0000     -11.258874      -306.3695
   5   2.0000     -11.253657      -306.2276
   6   2.0000     -11.244806      -305.9867
   7   2.0000     -11.244790      -305.9863
   8   2.0000      -1.452099       -39.5136
   9   2.0000      -1.359482       -36.9934
  10   2.0000      -1.163979       -31.6735
  11   2.0000      -1.032436       -28.0940
  12   2.0000      -0.928961       -25.2783
  13   2.0000      -0.892298       -24.2807
  14   2.0000      -0.830626       -22.6025
  15   2.0000      -0.736810       -20.0496
  16   2.0000      -0.698775       -19.0146
  17   2.0000      -0.662430       -18.0256
  18   2.0000      -0.657115       -17.8810
  19   2.0000      -0.637054       -17.3351
  20   2.0000      -0.620224       -16.8772
  21   2.0000      -0.605553       -16.4779
  22   2.0000      -0.566486       -15.4149
  23   2.0000      -0.556361       -15.1393
  24   2.0000      -0.504404       -13.7255
  25   2.0000      -0.499683       -13.5971
  26   2.0000      -0.471768       -12.8375
  27   2.0000      -0.463285       -12.6066
  28   2.0000      -0.434080       -11.8119
  29   2.0000      -0.424837       -11.5604
  30   0.0000       0.123843         3.3699
  31   0.0000       0.149132         4.0581
  32   0.0000       0.150924         4.1068
  33   0.0000       0.165249         4.4967
  34   0.0000       0.177065         4.8182

MULLIKEN ATOMIC CHARGES
-----------------------
   0 O :   -0.281712
   1 C :    0.225811
   2 C :   -0.308932
   3 C :    0.019924
   4 C :   -0.318060
   5 C :    0.127295
   6 C :   -0.318059
   7 O :   -0.231730
   8 H :    0.149121
   9 H :    0.149122
  10 H :    0.125841
  11 H :    0.133863
  12 H :    0.129178
  13 H :    0.135297
  14 H :    0.129178
  15 H :    0.133864
Sum of atomic charges:   -0.0000000

LOEWDIN ATOMIC CHARGES
----------------------
   0 O :    0.137091
   1 C :   -0.462490
   2 C :   -0.212247
   3 C :   -0.223038
   4 C :   -0.199801
   5 C :   -0.254061
   6 C :   -0.199801
   7 O :    0.271923
   8 H :    0.158001
   9 H :    0.158001
  10 H :    0.138131
  11 H :    0.134072
  12 H :    0.142865
  13 H :    0.134416
  14 H :    0.142865
  15 H :    0.134072

  Mayer bond orders larger than 0.1
B(  0-O ,  1-C ) :   2.0368 B(  1-C ,  2-C ) :   0.9531 B(  1-C ,  7-O ) :   1.1260
B(  2-C ,  3-C ) :   0.8674 B(  2-C ,  8-H ) :   0.9111 B(  2-C ,  9-H ) :   0.9111
B(  3-C ,  4-C ) :   0.9046 B(  3-C ,  6-C ) :   0.9046 B(  3-C , 10-H ) :   0.9187
B(  4-C ,  5-C ) :   0.9158 B(  4-C , 11-H ) :   0.9193 B(  4-C , 12-H ) :   0.9190
B(  5-C ,  6-C ) :   0.9158 B(  5-C ,  7-O ) :   0.8148 B(  5-C , 13-H ) :   0.9358
B(  6-C , 14-H ) :   0.9190 B(  6-C , 15-H ) :   0.9193

MP2 TOTAL ENERGY:     -383.136080312 Eh
FINAL SINGLE POINT ENERGY      -383.136080311865

DIPOLE MOMENT
-------------
                                X             Y             Z
Electronic contribution:      2.70024      -5.37438       2.27843
Nuclear contribution   :     -3.28058       6.97167      -2.97199
                        -----------------------------------------
Total Dipole Moment    :     -0.58034       1.59729      -0.69357
                        -----------------------------------------
Magnitude (a.u.)       :      1.83553
Magnitude (Debye)      :      4.66555

                             ****ORCA TERMINATED NORMALLY****
TOTAL RUN TIME: 0 days 0 hours 12 minutes 19 seconds 703 msec
