                         Program Version 3.0.3 - RELEASE   -
|  1> ! RI-MP2 RIJK def2-TZVP def2-TZVP/C def2-TZVP/JK TIGHTSCF
|  2> % maxcore 2000
|  3> % mp2 density relaxed end
|  4> *xyz 0 1
|  5>  C       -0.1354287128     1.2124901457     0.2563645712
|  6>  C       -0.2419479138    -0.2913422878     0.2064551007
|  7>  O        0.3416015540    -1.0548674813     0.9381619181
|  8>  O       -1.0807942199    -0.6759443445    -0.7773421861
|  9>  C       -1.2603489540    -2.1003129446    -0.9581949390
| 10>  C       -2.3603725149    -2.6456868105    -0.0890197616
| 11>  C       -2.2511733555    -4.0416906239     0.4109585936
| 12>  N       -2.1204279817    -2.9111545731     1.3361805162
| 13>  H        0.5770352301     1.5011914452     1.0278390725
| 14>  H        0.1805632755     1.6012324782    -0.7153905109
| 15>  H       -1.1164111483     1.6437360444     0.4760519504
| 16>  H       -1.5094243096    -2.2099107270    -2.0171488842
| 17>  H       -0.3133936228    -2.6056414189    -0.7507461599
| 18>  H       -3.3484132217    -2.2421780018    -0.3019088344
| 19>  H       -3.1480973527    -4.6420524204     0.5337354624
| 20>  H       -1.3623307010    -4.6093208523     0.1443871702
| 21>  H       -1.1408851408    -2.7313919174     1.5466756607
| 22> *
| 23>
| 24>                          ****END OF INPUT****

CARTESIAN COORDINATES (ANGSTROEM)
---------------------------------
  C     -0.135429    1.212490    0.256365
  C     -0.241948   -0.291342    0.206455
  O      0.341602   -1.054867    0.938162
  O     -1.080794   -0.675944   -0.777342
  C     -1.260349   -2.100313   -0.958195
  C     -2.360373   -2.645687   -0.089020
  C     -2.251173   -4.041691    0.410959
  N     -2.120428   -2.911155    1.336181
  H      0.577035    1.501191    1.027839
  H      0.180563    1.601232   -0.715391
  H     -1.116411    1.643736    0.476052
  H     -1.509424   -2.209911   -2.017149
  H     -0.313394   -2.605641   -0.750746
  H     -3.348413   -2.242178   -0.301909
  H     -3.148097   -4.642052    0.533735
  H     -1.362331   -4.609321    0.144387
  H     -1.140885   -2.731392    1.546676

 Total Charge           Charge          ....    0
 Multiplicity           Mult            ....    1
 Number of Electrons    NEL             ....   62
 Basis Dimension        Dim             ....  302

ORBITAL ENERGIES
----------------

  NO   OCC          E(Eh)            E(eV)
   0   2.0000     -20.605316      -560.6991
   1   2.0000     -20.547576      -559.1280
   2   2.0000     -15.553502      -423.2323
   3   2.0000     -11.386514      -309.8428
   4   2.0000     -11.298360      -307.4440
   5   2.0000     -11.262855      -306.4779
   6   2.0000     -11.258189      -306.3509
   7   2.0000     -11.243383      -305.9480
   8   2.0000      -1.463253       -39.8171
   9   2.0000      -1.364524       -37.1306
  10   2.0000      -1.262160       -34.3451
  11   2.0000      -1.042628       -28.3714
  12   2.0000      -0.979237       -26.6464
  13   2.0000      -0.885248       -24.0888
  14   2.0000      -0.826549       -22.4915
  15   2.0000      -0.781497       -21.2656
  16   2.0000      -0.706525       -19.2255
  17   2.0000      -0.694060       -18.8863
  18   2.0000      -0.684551       -18.6276
  19   2.0000      -0.646792       -17.6001
  20   2.0000      -0.628946       -17.1145
  21   2.0000      -0.596893       -16.2423
  22   2.0000      -0.571667       -15.5558
  23   2.0000      -0.560697       -15.2573
  24   2.0000      -0.532671       -14.4947
  25   2.0000      -0.519863       -14.1462
  26   2.0000      -0.496296       -13.5049
  27   2.0000      -0.471884       -12.8406
  28   2.0000      -0.460177       -12.5221
  29   2.0000      -0.449226       -12.2241
  30   2.0000      -0.390858       -10.6358
  31   0.0000       0.140109         3.8126
  32   0.0000       0.156071         4.2469
  33   0.0000       0.165963         4.5161
  34   0.0000       0.169461         4.6113
  35   0.0000       0.185185         5.0391

MULLIKEN ATOMIC CHARGES
-----------------------
   0 C :   -0.397291
   1 C :    0.372270
   2 O :   -0.367813
   3 O :   -0.258217
   4 C :   -0.105317
   5 C :   -0.050625
   6 C :   -0.187983
   7 N :   -0.364851
   8 H :    0.154723
   9 H :    0.150665
  10 H :    0.154170
  11 H :    0.131348
  12 H :    0.146787
  13 H :    0.127338
  14 H :    0.125209
  15 H :    0.127729
  16 H :    0.241858
Sum of atomic charges:    0.0000000

LOEWDIN ATOMIC CHARGES
----------------------
   0 C :   -0.269811
   1 C :   -0.498036
   2 O :    0.104685
   3 O :    0.247008
   4 C :   -0.269471
   5 C :   -0.291639
   6 C :   -0.264198
   7 N :   -0.009475
   8 H :    0.136239
   9 H :    0.139206
  10 H :    0.141577
  11 H :    0.137787
  12 H :    0.137672
  13 H :    0.142460
  14 H :    0.125127
  15 H :    0.122159
  16 H :    0.168710

  Mayer bond orders larger than 0.1
B(  0-C ,  1-C ) :   0.9227 B(  0-C ,  8-H ) :   0.9423 B(  0-C ,  9-H ) :   0.9169
B(  0-C , 10-H ) :   0.9155 B(  1-C ,  2-O ) :   1.8698 B(  1-C ,  3-O ) :   1.1141
B(  3-O ,  4-C ) :   0.8206 B(  4-C ,  5-C ) :   0.9581 B(  4-C , 11-H ) :   0.9245
B(  4-C , 12-H ) :   0.9374 B(  5-C ,  6-C ) :   0.9303 B(  5-C ,  7-N ) :   0.9265
B(  5-C , 13-H ) :   0.9122 B(  6-C ,  7-N ) :   0.9300 B(  6-C , 14-H ) :   0.9228
B(  6-C , 15-H ) :   0.9155 B(  7-N , 16-H ) :   0.8659

MP2 TOTAL ENERGY:     -400.356044411 Eh
FINAL SINGLE POINT ENERGY      -400.356044410711

DIPOLE MOMENT
-------------
                                X             Y             Z
Electronic contribution:      1.12975       0.52602       0.51518
Nuclear contribution   :     -1.09684      -0.39079      -1.45345
                        -----------------------------------------
Total Dipole Moment    :      0.03291       0.13523      -0.93826
                        -----------------------------------------
Magnitude (a.u.)       :      0.94853
Magnitude (Debye)      :      2.41097

                             ****ORCA TERMINATED NORMALLY****
TOTAL RUN TIME: 0 days 0 hours 10 minutes 30 seconds 971 msec
