                         Program Version 3.0.3 - RELEASE   -
|  1> ! RI-MP2 RIJK def2-TZVP def2-TZVP/C def2-TZVP/JK TIGHTSCF
|  2> % maxcore 2000
|  3> % mp2 density relaxed end
|  4> *xyz 0 1
|  5>  C        0.0684229213     1.4842941147     0.0228900625
|  6>  C       -0.0736784453    -0.0021287071     0.0027229556
|  7>  C       -1.2275891992    -0.6943078554    -0.1536653974
|  8>  C       -1.1723546106    -2.1201506067    -0.1471525078
|  9>  C        0.0075768734    -2.7688415360     0.0118933023
| 10>  C        1.2455041415    -2.0397870669     0.1796907195
| 11>  O        2.3534388720    -2.4778765604     0.3291624008
| 12>  O        1.1059420155    -0.6318234078     0.1617402910
| 13>  H        0.7432297760     1.8136059405    -0.7744010585
| 14>  H       -0.9005163437     1.9687523676    -0.1080376034
| 15>  H        0.5068530924     1.8124412974     0.9713448511
| 16>  H       -2.1623633071    -0.1656707086    -0.2796156251
| 17>  H       -2.0905215068    -2.6863079531    -0.2716114138
| 18>  H        0.0884314305    -3.8479400781     0.0221203333
| 19> *
| 20>
| 21>                          ****END OF INPUT****

CARTESIAN COORDINATES (ANGSTROEM)
---------------------------------
  C      0.068423    1.484294    0.022890
  C     -0.073678   -0.002129    0.002723
  C     -1.227589   -0.694308   -0.153665
  C     -1.172355   -2.120151   -0.147153
  C      0.007577   -2.768842    0.011893
  C      1.245504   -2.039787    0.179691
  O      2.353439   -2.477877    0.329162
  O      1.105942   -0.631823    0.161740
  H      0.743230    1.813606   -0.774401
  H     -0.900516    1.968752   -0.108038
  H      0.506853    1.812441    0.971345
  H     -2.162363   -0.165671   -0.279616
  H     -2.090522   -2.686308   -0.271611
  H      0.088431   -3.847940    0.022120

 Total Charge           Charge          ....    0
 Multiplicity           Mult            ....    1
 Number of Electrons    NEL             ....   58
 Basis Dimension        Dim             ....  284

ORBITAL ENERGIES
----------------

  NO   OCC          E(Eh)            E(eV)
   0   2.0000     -20.628311      -561.3249
   1   2.0000     -20.534127      -558.7620
   2   2.0000     -11.385093      -309.8041
   3   2.0000     -11.341078      -308.6064
   4   2.0000     -11.283893      -307.0504
   5   2.0000     -11.250809      -306.1501
   6   2.0000     -11.246473      -306.0321
   7   2.0000     -11.241758      -305.9038
   8   2.0000      -1.472777       -40.0763
   9   2.0000      -1.373627       -37.3783
  10   2.0000      -1.130829       -30.7714
  11   2.0000      -1.077941       -29.3323
  12   2.0000      -0.974582       -26.5197
  13   2.0000      -0.881657       -23.9911
  14   2.0000      -0.867359       -23.6020
  15   2.0000      -0.718929       -19.5630
  16   2.0000      -0.715156       -19.4604
  17   2.0000      -0.664789       -18.0898
  18   2.0000      -0.662885       -18.0380
  19   2.0000      -0.628381       -17.0991
  20   2.0000      -0.612033       -16.6543
  21   2.0000      -0.586653       -15.9636
  22   2.0000      -0.577954       -15.7269
  23   2.0000      -0.562723       -15.3125
  24   2.0000      -0.527923       -14.3655
  25   2.0000      -0.509302       -13.8588
  26   2.0000      -0.455388       -12.3917
  27   2.0000      -0.448057       -12.1922
  28   2.0000      -0.327409        -8.9093
  29   0.0000       0.070883         1.9288
  30   0.0000       0.133937         3.6446
  31   0.0000       0.151231         4.1152
  32   0.0000       0.158255         4.3063
  33   0.0000       0.177546         4.8313

MULLIKEN ATOMIC CHARGES
-----------------------
   0 C :   -0.403433
   1 C :    0.263664
   2 C :   -0.254051
   3 C :   -0.055495
   4 C :   -0.227420
   5 C :    0.258366
   6 O :   -0.292082
   7 O :   -0.179526
   8 H :    0.154606
   9 H :    0.142052
  10 H :    0.154599
  11 H :    0.144464
  12 H :    0.144564
  13 H :    0.149691
Sum of atomic charges:   -0.0000000

LOEWDIN ATOMIC CHARGES
----------------------
   0 C :   -0.258836
   1 C :   -0.258700
   2 C :   -0.164468
   3 C :   -0.121527
   4 C :   -0.129467
   5 C :   -0.430541
   6 O :    0.132369
   7 O :    0.350421
   8 H :    0.140082
   9 H :    0.135202
  10 H :    0.140082
  11 H :    0.154474
  12 H :    0.152892
  13 H :    0.158016

  Mayer bond orders larger than 0.1
B(  0-C ,  1-C ) :   0.9047 B(  0-C ,  8-H ) :   0.9192 B(  0-C ,  9-H ) :   0.9491
B(  0-C , 10-H ) :   0.9192 B(  1-C ,  2-C ) :   1.5780 B(  1-C ,  7-O ) :   1.0817
B(  2-C ,  3-C ) :   1.0982 B(  2-C , 11-H ) :   0.9113 B(  3-C ,  4-C ) :   1.5327
B(  3-C , 12-H ) :   0.9212 B(  4-C ,  5-C ) :   1.0816 B(  4-C , 13-H ) :   0.9247
B(  5-C ,  6-O ) :   2.0155 B(  5-C ,  7-O ) :   0.9901

MP2 TOTAL ENERGY:     -381.957224512 Eh
FINAL SINGLE POINT ENERGY      -381.957224511627

DIPOLE MOMENT
-------------
                                X             Y             Z
Electronic contribution:      3.82619      -4.64685       0.51409
Nuclear contribution   :     -5.46338       5.32165      -0.73492
                        -----------------------------------------
Total Dipole Moment    :     -1.63718       0.67480      -0.22083
                        -----------------------------------------
Magnitude (a.u.)       :      1.78452
Magnitude (Debye)      :      4.53588

                             ****ORCA TERMINATED NORMALLY****
TOTAL RUN TIME: 0 days 0 hours 11 minutes 47 seconds 859 msec
