                         Program Version 3.0.3 - RELEASE   -
|  1> ! RI-MP2 RIJK def2-TZVP def2-TZVP/C def2-TZVP/JK TIGHTSCF
|  2> % maxcore 2000
|  3> % mp2 density relaxed end
|  4> *xyz 0 1
|  5>  C       -0.0289998974     1.3684295217     0.0519388130
|  6>  N        0.1703129343    -0.0670327201     0.0882353105
|  7>  C        0.5977171776    -0.6146910652    -0.9518163006
|  8>  O        0.7917562456    -1.9798290969    -0.9307262237
|  9>  C        1.2482718337    -2.5754325490    -2.0369982777
| 10>  N        1.4493704648    -3.8865083442    -2.0609231557
| 11>  N        1.8863245922    -4.0270345231    -3.3096551196
| 12>  N        1.9567137955    -2.9148949442    -4.0122705299
| 13>  N        1.5480764176    -1.9620183846    -3.2074535954
| 14>  H        0.5780590668     1.8350297466     0.8349651654
| 15>  H        0.2241118278     1.8336548091    -0.9129312199
| 16>  H       -1.0758717470     1.5914414871     0.2836487958
| 17>  H        0.8464602152    -0.1443135132    -1.9057455173
| 18>  H        2.1463370535    -4.9233445641    -3.6935974050
| 19> *
| 20>
| 21>                          ****END OF INPUT****

CARTESIAN COORDINATES (ANGSTROEM)
---------------------------------
  C     -0.029000    1.368430    0.051939
  N      0.170313   -0.067033    0.088235
  C      0.597717   -0.614691   -0.951816
  O      0.791756   -1.979829   -0.930726
  C      1.248272   -2.575433   -2.036998
  N      1.449370   -3.886508   -2.060923
  N      1.886325   -4.027035   -3.309655
  N      1.956714   -2.914895   -4.012271
  N      1.548076   -1.962018   -3.207454
  H      0.578059    1.835030    0.834965
  H      0.224112    1.833655   -0.912931
  H     -1.075872    1.591441    0.283649
  H      0.846460   -0.144314   -1.905746
  H      2.146337   -4.923345   -3.693597

 Total Charge           Charge          ....    0
 Multiplicity           Mult            ....    1
 Number of Electrons    NEL             ....   66
 Basis Dimension        Dim             ....  309

ORBITAL ENERGIES
----------------

  NO   OCC          E(Eh)            E(eV)
   0   2.0000     -20.635163      -561.5113
   1   2.0000     -15.718950      -427.7344
   2   2.0000     -15.693392      -427.0389
   3   2.0000     -15.631923      -425.3662
   4   2.0000     -15.624035      -425.1516
   5   2.0000     -15.564222      -423.5240
   6   2.0000     -11.380882      -309.6895
   7   2.0000     -11.346823      -308.7628
   8   2.0000     -11.257874      -306.3423
   9   2.0000      -1.527878       -41.5757
  10   2.0000      -1.471683       -40.0465
  11   2.0000      -1.279501       -34.8170
  12   2.0000      -1.246308       -33.9138
  13   2.0000      -1.185359       -32.2552
  14   2.0000      -0.978836       -26.6355
  15   2.0000      -0.948927       -25.8216
  16   2.0000      -0.885271       -24.0894
  17   2.0000      -0.836539       -22.7634
  18   2.0000      -0.782906       -21.3040
  19   2.0000      -0.729609       -19.8537
  20   2.0000      -0.716031       -19.4842
  21   2.0000      -0.664396       -18.0791
  22   2.0000      -0.644436       -17.5360
  23   2.0000      -0.617630       -16.8066
  24   2.0000      -0.590597       -16.0710
  25   2.0000      -0.583392       -15.8749
  26   2.0000      -0.562204       -15.2984
  27   2.0000      -0.514659       -14.0046
  28   2.0000      -0.490629       -13.3507
  29   2.0000      -0.464332       -12.6351
  30   2.0000      -0.440346       -11.9824
  31   2.0000      -0.430198       -11.7063
  32   2.0000      -0.379994       -10.3402
  33   0.0000       0.101447         2.7605
  34   0.0000       0.120308         3.2737
  35   0.0000       0.149302         4.0627
  36   0.0000       0.152222         4.1422
  37   0.0000       0.184010         5.0072

MULLIKEN ATOMIC CHARGES
-----------------------
   0 C :   -0.249552
   1 N :   -0.171961
   2 C :    0.033908
   3 O :   -0.194017
   4 C :    0.257928
   5 N :   -0.197467
   6 N :    0.033955
   7 N :   -0.123580
   8 N :   -0.196861
   9 H :    0.143260
  10 H :    0.102751
  11 H :    0.143261
  12 H :    0.134131
  13 H :    0.284244
Sum of atomic charges:   -0.0000000

LOEWDIN ATOMIC CHARGES
----------------------
   0 C :   -0.327750
   1 N :    0.081277
   2 C :   -0.316025
   3 O :    0.324776
   4 C :   -0.491992
   5 N :    0.048572
   6 N :    0.066043
   7 N :   -0.051181
   8 N :   -0.002757
   9 H :    0.121068
  10 H :    0.105304
  11 H :    0.121068
  12 H :    0.125851
  13 H :    0.195747

  Mayer bond orders larger than 0.1
B(  0-C ,  1-N ) :   0.8722 B(  0-C ,  9-H ) :   0.9305 B(  0-C , 10-H ) :   0.9281
B(  0-C , 11-H ) :   0.9305 B(  1-N ,  2-C ) :   1.9166 B(  2-C ,  3-O ) :   0.9421
B(  2-C , 12-H ) :   0.9243 B(  3-O ,  4-C ) :   1.0842 B(  4-C ,  5-N ) :   1.4914
B(  4-C ,  8-N ) :   1.3337 B(  5-N ,  6-N ) :   1.1020 B(  5-N ,  7-N ) :   0.1278
B(  6-N ,  7-N ) :   1.1490 B(  6-N , 13-H ) :   0.8605 B(  7-N ,  8-N ) :   1.2357

MP2 TOTAL ENERGY:     -465.402353462 Eh
FINAL SINGLE POINT ENERGY      -465.402353462249

DIPOLE MOMENT
-------------
                                X             Y             Z
Electronic contribution:      2.67181      -8.99496      -4.04054
Nuclear contribution   :     -2.44191       8.77393       3.44868
                        -----------------------------------------
Total Dipole Moment    :      0.22989      -0.22103      -0.59186
                        -----------------------------------------
Magnitude (a.u.)       :      0.67231
Magnitude (Debye)      :      1.70888

                             ****ORCA TERMINATED NORMALLY****
TOTAL RUN TIME: 0 days 0 hours 13 minutes 32 seconds 287 msec
