                         Program Version 3.0.3 - RELEASE   -
|  1> ! RI-MP2 RIJK def2-TZVP def2-TZVP/C def2-TZVP/JK TIGHTSCF
|  2> % maxcore 2000
|  3> % mp2 density relaxed end
|  4> *xyz 0 1
|  5>  O        0.0574506919     1.4633803888     0.1603106669
|  6>  C       -0.0094589803     0.0725597751    -0.0532525403
|  7>  C       -1.3908776540    -0.5937219786    -0.0760853720
|  8>  C       -2.2942732955    -0.1197202062    -1.2863746106
|  9>  C       -1.5547072157     0.8858097896    -2.1851378821
| 10>  N       -0.5830867972    -0.1980795297    -2.5893987212
| 11>  C        0.2895384433    -0.6161763921    -1.4120791959
| 12>  C       -0.7558075195    -1.7079646211    -0.9988532652
| 13>  C       -1.6299257528    -1.2256276675    -2.1649852040
| 14>  H        0.9838467721     1.7253162322     0.1663109174
| 15>  H        0.5991592598    -0.4630093025     0.6947956093
| 16>  H       -1.9040166480    -0.7964878626     0.8630615407
| 17>  H       -3.3629318855    -0.0287628666    -1.0837490393
| 18>  H       -2.1495640795     1.1439682833    -3.0682804799
| 19>  H       -1.1201404126     1.7830210380    -1.7501219079
| 20>  H        1.3258144403    -0.8011452177    -1.7021958943
| 21>  H       -0.5319502328    -2.7264897853    -0.6914553726
| 22>  H       -2.1157447938    -1.8255216871    -2.9359438491
| 23> *
| 24>
| 25>                          ****END OF INPUT****

CARTESIAN COORDINATES (ANGSTROEM)
---------------------------------
  O      0.057451    1.463380    0.160311
  C     -0.009459    0.072560   -0.053253
  C     -1.390878   -0.593722   -0.076085
  C     -2.294273   -0.119720   -1.286375
  C     -1.554707    0.885810   -2.185138
  N     -0.583087   -0.198080   -2.589399
  C      0.289538   -0.616176   -1.412079
  C     -0.755808   -1.707965   -0.998853
  C     -1.629926   -1.225628   -2.164985
  H      0.983847    1.725316    0.166311
  H      0.599159   -0.463009    0.694796
  H     -1.904017   -0.796488    0.863062
  H     -3.362932   -0.028763   -1.083749
  H     -2.149564    1.143968   -3.068280
  H     -1.120140    1.783021   -1.750122
  H      1.325814   -0.801145   -1.702196
  H     -0.531950   -2.726490   -0.691455
  H     -2.115745   -1.825522   -2.935944

 Total Charge           Charge          ....    0
 Multiplicity           Mult            ....    1
 Number of Electrons    NEL             ....   66
 Basis Dimension        Dim             ....  333

ORBITAL ENERGIES
----------------

  NO   OCC          E(Eh)            E(eV)
   0   2.0000     -20.560658      -559.4840
   1   2.0000     -15.542729      -422.9392
   2   2.0000     -11.286543      -307.1225
   3   2.0000     -11.257021      -306.3191
   4   2.0000     -11.254523      -306.2511
   5   2.0000     -11.238391      -305.8122
   6   2.0000     -11.235963      -305.7461
   7   2.0000     -11.234279      -305.7003
   8   2.0000     -11.230477      -305.5968
   9   2.0000      -1.370006       -37.2798
  10   2.0000      -1.281310       -34.8662
  11   2.0000      -1.087941       -29.6044
  12   2.0000      -1.010595       -27.4997
  13   2.0000      -0.953362       -25.9423
  14   2.0000      -0.826727       -22.4964
  15   2.0000      -0.808964       -22.0130
  16   2.0000      -0.800830       -21.7917
  17   2.0000      -0.714968       -19.4553
  18   2.0000      -0.704279       -19.1644
  19   2.0000      -0.675205       -18.3732
  20   2.0000      -0.618390       -16.8273
  21   2.0000      -0.610063       -16.6006
  22   2.0000      -0.602383       -16.3917
  23   2.0000      -0.569153       -15.4874
  24   2.0000      -0.557049       -15.1581
  25   2.0000      -0.512514       -13.9462
  26   2.0000      -0.487546       -13.2668
  27   2.0000      -0.469988       -12.7890
  28   2.0000      -0.449751       -12.2383
  29   2.0000      -0.425333       -11.5739
  30   2.0000      -0.406398       -11.0587
  31   2.0000      -0.397162       -10.8073
  32   2.0000      -0.341816        -9.3013
  33   0.0000       0.130719         3.5571
  34   0.0000       0.153601         4.1797
  35   0.0000       0.166247         4.5238
  36   0.0000       0.173793         4.7292
  37   0.0000       0.183539         4.9944

MULLIKEN ATOMIC CHARGES
-----------------------
   0 O :   -0.468449
   1 C :   -0.025895
   2 C :   -0.016775
   3 C :   -0.122349
   4 C :   -0.172755
   5 N :   -0.174884
   6 C :   -0.006928
   7 C :   -0.215664
   8 C :   -0.094042
   9 H :    0.319917
  10 H :    0.089084
  11 H :    0.131057
  12 H :    0.116882
  13 H :    0.115945
  14 H :    0.141042
  15 H :    0.123405
  16 H :    0.131592
  17 H :    0.128818
Sum of atomic charges:   -0.0000000

LOEWDIN ATOMIC CHARGES
----------------------
   0 O :   -0.015814
   1 C :   -0.317510
   2 C :   -0.131385
   3 C :   -0.164788
   4 C :   -0.237979
   5 N :    0.110033
   6 C :   -0.181920
   7 C :   -0.128208
   8 C :   -0.157297
   9 H :    0.177688
  10 H :    0.146666
  11 H :    0.134616
  12 H :    0.130268
  13 H :    0.131508
  14 H :    0.125278
  15 H :    0.125760
  16 H :    0.128826
  17 H :    0.124259

  Mayer bond orders larger than 0.1
B(  0-O ,  1-C ) :   1.1051 B(  0-O ,  9-H ) :   0.8414 B(  1-C ,  2-C ) :   0.9302
B(  1-C ,  6-C ) :   0.9253 B(  1-C , 10-H ) :   0.9498 B(  2-C ,  3-C ) :   0.9182
B(  2-C ,  7-C ) :   0.9447 B(  2-C , 11-H ) :   0.9019 B(  3-C ,  4-C ) :   0.9355
B(  3-C ,  8-C ) :   0.9275 B(  3-C , 12-H ) :   0.9210 B(  4-C ,  5-N ) :   0.9144
B(  4-C , 13-H ) :   0.9188 B(  4-C , 14-H ) :   0.9190 B(  5-N ,  6-C ) :   0.9413
B(  5-N ,  8-C ) :   1.0105 B(  6-C ,  7-C ) :   0.8633 B(  6-C , 15-H ) :   0.9055
B(  7-C ,  8-C ) :   0.9548 B(  7-C , 16-H ) :   0.9166 B(  8-C , 17-H ) :   0.8839

MP2 TOTAL ENERGY:     -401.162529250 Eh
FINAL SINGLE POINT ENERGY      -401.162529250343

DIPOLE MOMENT
-------------
                                X             Y             Z
Electronic contribution:      0.81597       0.06766      -0.24186
Nuclear contribution   :     -0.63141      -0.39813       0.79296
                        -----------------------------------------
Total Dipole Moment    :      0.18456      -0.33048       0.55110
                        -----------------------------------------
Magnitude (a.u.)       :      0.66857
Magnitude (Debye)      :      1.69938

                             ****ORCA TERMINATED NORMALLY****
TOTAL RUN TIME: 0 days 0 hours 20 minutes 28 seconds 179 msec
