                         Program Version 3.0.3 - RELEASE   -
|  1> ! RI-MP2 RIJK def2-TZVP def2-TZVP/C def2-TZVP/JK TIGHTSCF
|  2> % maxcore 2000
|  3> % mp2 density relaxed end
|  4> *xyz 0 1
|  5>  C        0.2633035531     1.5819970616    -0.2580958237
|  6>  C        0.0140652134     0.0951615127     0.0218210260
|  7>  N        0.4937720125    -0.7627077512    -1.0668263975
|  8>  C        1.7417938534    -1.2925799717    -0.8595649415
|  9>  N        2.4886018432    -1.8426013496    -1.7323679623
| 10>  C        2.0322861084    -1.0865565362     0.6174954790
| 11>  O        3.0699506192    -1.3678835478     1.1591823542
| 12>  C        0.7858028219    -0.4734269051     1.2461112800
| 13>  C        1.0681820688     0.4500517571     2.4266767507
| 14>  H        1.3325482825     1.7935490247    -0.3642890815
| 15>  H       -0.2299795976     1.8766897102    -1.1900273217
| 16>  H       -0.1372178950     2.2090599123     0.5438765306
| 17>  H       -1.0629053086    -0.0603187395     0.1515245297
| 18>  H        0.1687804459    -0.6251960841    -2.0119257842
| 19>  H        3.3391436847    -2.1629847175    -1.2642591935
| 20>  H        0.2114773093    -1.3411728681     1.6040705947
| 21>  H        1.6335235467     1.3347794438     2.1227838397
| 22>  H        0.1421073052     0.7819883016     2.9050490914
| 23>  H        1.6682775429    -0.0842681433     3.1674652400
| 24> *
| 25>
| 26>                          ****END OF INPUT****

CARTESIAN COORDINATES (ANGSTROEM)
---------------------------------
  C      0.263304    1.581997   -0.258096
  C      0.014065    0.095162    0.021821
  N      0.493772   -0.762708   -1.066826
  C      1.741794   -1.292580   -0.859565
  N      2.488602   -1.842601   -1.732368
  C      2.032286   -1.086557    0.617495
  O      3.069951   -1.367884    1.159182
  C      0.785803   -0.473427    1.246111
  C      1.068182    0.450052    2.426677
  H      1.332548    1.793549   -0.364289
  H     -0.229980    1.876690   -1.190027
  H     -0.137218    2.209060    0.543877
  H     -1.062905   -0.060319    0.151525
  H      0.168780   -0.625196   -2.011926
  H      3.339144   -2.162985   -1.264259
  H      0.211477   -1.341173    1.604071
  H      1.633524    1.334779    2.122784
  H      0.142107    0.781988    2.905049
  H      1.668278   -0.084268    3.167465

 Total Charge           Charge          ....    0
 Multiplicity           Mult            ....    1
 Number of Electrons    NEL             ....   68
 Basis Dimension        Dim             ....  339

ORBITAL ENERGIES
----------------

  NO   OCC          E(Eh)            E(eV)
   0   2.0000     -20.571225      -559.7715
   1   2.0000     -15.584624      -424.0792
   2   2.0000     -15.534216      -422.7075
   3   2.0000     -11.346490      -308.7537
   4   2.0000     -11.317649      -307.9689
   5   2.0000     -11.294039      -307.3264
   6   2.0000     -11.262419      -306.4660
   7   2.0000     -11.237529      -305.7887
   8   2.0000     -11.236711      -305.7665
   9   2.0000      -1.413355       -38.4593
  10   2.0000      -1.292034       -35.1580
  11   2.0000      -1.178031       -32.0558
  12   2.0000      -1.084378       -29.5074
  13   2.0000      -1.014290       -27.6002
  14   2.0000      -0.947903       -25.7937
  15   2.0000      -0.891340       -24.2546
  16   2.0000      -0.798899       -21.7391
  17   2.0000      -0.753997       -20.5173
  18   2.0000      -0.705921       -19.2091
  19   2.0000      -0.680279       -18.5113
  20   2.0000      -0.653342       -17.7783
  21   2.0000      -0.633301       -17.2330
  22   2.0000      -0.621822       -16.9206
  23   2.0000      -0.595640       -16.2082
  24   2.0000      -0.565424       -15.3860
  25   2.0000      -0.558833       -15.2066
  26   2.0000      -0.551599       -15.0098
  27   2.0000      -0.539291       -14.6749
  28   2.0000      -0.524752       -14.2792
  29   2.0000      -0.505329       -13.7507
  30   2.0000      -0.475049       -12.9267
  31   2.0000      -0.469484       -12.7753
  32   2.0000      -0.400702       -10.9036
  33   2.0000      -0.361767        -9.8442
  34   0.0000       0.082558         2.2465
  35   0.0000       0.120925         3.2905
  36   0.0000       0.149171         4.0591
  37   0.0000       0.150521         4.0959
  38   0.0000       0.170403         4.6369

MULLIKEN ATOMIC CHARGES
-----------------------
   0 C :   -0.445856
   1 C :    0.072239
   2 N :   -0.315081
   3 C :    0.053546
   4 N :   -0.359609
   5 C :    0.139327
   6 O :   -0.272241
   7 C :   -0.041598
   8 C :   -0.413629
   9 H :    0.146844
  10 H :    0.137175
  11 H :    0.137879
  12 H :    0.115904
  13 H :    0.237738
  14 H :    0.234470
  15 H :    0.132117
  16 H :    0.138312
  17 H :    0.142516
  18 H :    0.159948
Sum of atomic charges:   -0.0000000

LOEWDIN ATOMIC CHARGES
----------------------
   0 C :   -0.291994
   1 C :   -0.267829
   2 N :    0.139474
   3 C :   -0.378484
   4 N :   -0.065220
   5 C :   -0.268143
   6 O :    0.174731
   7 C :   -0.219379
   8 C :   -0.280987
   9 H :    0.129038
  10 H :    0.125559
  11 H :    0.127816
  12 H :    0.146133
  13 H :    0.185431
  14 H :    0.173477
  15 H :    0.178491
  16 H :    0.128937
  17 H :    0.126863
  18 H :    0.136086

  Mayer bond orders larger than 0.1
B(  0-C ,  1-C ) :   0.9191 B(  0-C ,  9-H ) :   0.9291 B(  0-C , 10-H ) :   0.9336
B(  0-C , 11-H ) :   0.9342 B(  1-C ,  2-N ) :   0.8328 B(  1-C ,  7-C ) :   0.9028
B(  1-C , 12-H ) :   0.9216 B(  2-N ,  3-C ) :   1.1596 B(  2-N , 13-H ) :   0.8655
B(  3-C ,  4-N ) :   1.9682 B(  3-C ,  5-C ) :   0.9218 B(  4-N , 14-H ) :   0.8518
B(  5-C ,  6-O ) :   1.9801 B(  5-C ,  7-C ) :   0.8741 B(  7-C ,  8-C ) :   0.8996
B(  7-C , 15-H ) :   0.8924 B(  8-C , 16-H ) :   0.9288 B(  8-C , 17-H ) :   0.9424
B(  8-C , 18-H ) :   0.9286

MP2 TOTAL ENERGY:     -418.541935285 Eh
FINAL SINGLE POINT ENERGY      -418.541935284815

DIPOLE MOMENT
-------------
                                X             Y             Z
Electronic contribution:      4.56659      -7.20930      -3.05776
Nuclear contribution   :     -5.90716       8.18047       3.56974
                        -----------------------------------------
Total Dipole Moment    :     -1.34057       0.97117       0.51198
                        -----------------------------------------
Magnitude (a.u.)       :      1.73275
Magnitude (Debye)      :      4.40429

                             ****ORCA TERMINATED NORMALLY****
TOTAL RUN TIME: 0 days 0 hours 19 minutes 19 seconds 143 msec
