                         Program Version 3.0.3 - RELEASE   -
|  1> ! RI-MP2 RIJK def2-TZVP def2-TZVP/C def2-TZVP/JK TIGHTSCF
|  2> % maxcore 2000
|  3> % mp2 density relaxed end
|  4> *xyz 0 1
|  5>  C       -0.0257857481     1.5461330489     0.0079932570
|  6>  C        0.0663984909     0.0430641277     0.0292979483
|  7>  C       -0.8063997603    -0.8054685707     0.9361147611
|  8>  C        0.6846071570    -0.8080391154     1.1209986989
|  9>  C        1.4535010062    -1.9417635491     0.4486632155
| 10>  N        1.0652604076    -1.8154586806    -0.9465052022
| 11>  C        0.4122644012    -0.6508935401    -1.2699657069
| 12>  O        0.1679436820    -0.2582289200    -2.3910017460
| 13>  H        0.9352687384     2.0024003627    -0.2513339152
| 14>  H       -0.7541010459     1.8640218100    -0.7439081810
| 15>  H       -0.3376824623     1.9368847831     0.9811354863
| 16>  H       -1.3936559333    -0.2673626835     1.6729862761
| 17>  H       -1.2905139817    -1.6874011595     0.5279547906
| 18>  H        1.1087748414    -0.3623302577     2.0125034267
| 19>  H        2.5367566051    -1.8114523030     0.5803182339
| 20>  H        1.1832222816    -2.9254999830     0.8531614193
| 21>  H        1.4123410405    -2.4188186298    -1.6742469427
| 22> *
| 23>
| 24>                          ****END OF INPUT****

CARTESIAN COORDINATES (ANGSTROEM)
---------------------------------
  C     -0.025786    1.546133    0.007993
  C      0.066398    0.043064    0.029298
  C     -0.806400   -0.805469    0.936115
  C      0.684607   -0.808039    1.120999
  C      1.453501   -1.941764    0.448663
  N      1.065260   -1.815459   -0.946505
  C      0.412264   -0.650894   -1.269966
  O      0.167944   -0.258229   -2.391002
  H      0.935269    2.002400   -0.251334
  H     -0.754101    1.864022   -0.743908
  H     -0.337682    1.936885    0.981135
  H     -1.393656   -0.267363    1.672986
  H     -1.290514   -1.687401    0.527955
  H      1.108775   -0.362330    2.012503
  H      2.536757   -1.811452    0.580318
  H      1.183222   -2.925500    0.853161
  H      1.412341   -2.418819   -1.674247

 Total Charge           Charge          ....    0
 Multiplicity           Mult            ....    1
 Number of Electrons    NEL             ....   60
 Basis Dimension        Dim             ....  302

ORBITAL ENERGIES
----------------

  NO   OCC          E(Eh)            E(eV)
   0   2.0000     -20.512932      -558.1853
   1   2.0000     -15.577865      -423.8953
   2   2.0000     -11.342155      -308.6357
   3   2.0000     -11.279671      -306.9355
   4   2.0000     -11.251356      -306.1650
   5   2.0000     -11.250133      -306.1317
   6   2.0000     -11.242360      -305.9202
   7   2.0000     -11.222564      -305.3815
   8   2.0000      -1.377086       -37.4724
   9   2.0000      -1.256166       -34.1820
  10   2.0000      -1.150054       -31.2946
  11   2.0000      -0.995516       -27.0894
  12   2.0000      -0.949202       -25.8291
  13   2.0000      -0.875330       -23.8189
  14   2.0000      -0.803389       -21.8613
  15   2.0000      -0.746646       -20.3173
  16   2.0000      -0.692887       -18.8544
  17   2.0000      -0.656626       -17.8677
  18   2.0000      -0.640102       -17.4181
  19   2.0000      -0.608615       -16.5613
  20   2.0000      -0.602409       -16.3924
  21   2.0000      -0.576666       -15.6919
  22   2.0000      -0.556017       -15.1300
  23   2.0000      -0.546734       -14.8774
  24   2.0000      -0.528780       -14.3888
  25   2.0000      -0.517337       -14.0775
  26   2.0000      -0.443292       -12.0626
  27   2.0000      -0.414362       -11.2754
  28   2.0000      -0.402796       -10.9606
  29   2.0000      -0.386487       -10.5168
  30   0.0000       0.133484         3.6323
  31   0.0000       0.150092         4.0842
  32   0.0000       0.162762         4.4290
  33   0.0000       0.166479         4.5301
  34   0.0000       0.179852         4.8940

MULLIKEN ATOMIC CHARGES
-----------------------
   0 C :   -0.400596
   1 C :    0.102185
   2 C :   -0.303246
   3 C :   -0.127346
   4 C :   -0.095751
   5 N :   -0.339984
   6 C :    0.189329
   7 O :   -0.340147
   8 H :    0.133583
   9 H :    0.154434
  10 H :    0.126340
  11 H :    0.139039
  12 H :    0.141649
  13 H :    0.138984
  14 H :    0.121068
  15 H :    0.123274
  16 H :    0.237185
Sum of atomic charges:    0.0000000

LOEWDIN ATOMIC CHARGES
----------------------
   0 C :   -0.258732
   1 C :   -0.209358
   2 C :   -0.171965
   3 C :   -0.176577
   4 C :   -0.247567
   5 N :    0.117432
   6 C :   -0.410657
   7 O :    0.088643
   8 H :    0.130594
   9 H :    0.138518
  10 H :    0.127825
  11 H :    0.139276
  12 H :    0.140278
  13 H :    0.147836
  14 H :    0.130739
  15 H :    0.131829
  16 H :    0.181888

  Mayer bond orders larger than 0.1
B(  0-C ,  1-C ) :   0.9095 B(  0-C ,  8-H ) :   0.9351 B(  0-C ,  9-H ) :   0.9324
B(  0-C , 10-H ) :   0.9373 B(  1-C ,  2-C ) :   0.8500 B(  1-C ,  3-C ) :   0.8360
B(  1-C ,  6-C ) :   0.8987 B(  2-C ,  3-C ) :   0.8994 B(  2-C , 11-H ) :   0.9298
B(  2-C , 12-H ) :   0.9143 B(  3-C ,  4-C ) :   0.9470 B(  3-C , 13-H ) :   0.9177
B(  4-C ,  5-N ) :   0.9031 B(  4-C , 14-H ) :   0.9288 B(  4-C , 15-H ) :   0.9240
B(  5-N ,  6-C ) :   1.1773 B(  5-N , 16-H ) :   0.8669 B(  6-C ,  7-O ) :   2.0195

MP2 TOTAL ENERGY:     -363.282501223 Eh
FINAL SINGLE POINT ENERGY      -363.282501222655

DIPOLE MOMENT
-------------
                                X             Y             Z
Electronic contribution:      0.53502      -2.04796      -4.82979
Nuclear contribution   :     -0.03568       1.46993       6.12765
                        -----------------------------------------
Total Dipole Moment    :      0.49934      -0.57803       1.29785
                        -----------------------------------------
Magnitude (a.u.)       :      1.50595
Magnitude (Debye)      :      3.82782

                             ****ORCA TERMINATED NORMALLY****
TOTAL RUN TIME: 0 days 0 hours 13 minutes 0 seconds 7 msec
