                         Program Version 3.0.3 - RELEASE   -
|  1> ! RI-MP2 RIJK def2-TZVP def2-TZVP/C def2-TZVP/JK TIGHTSCF
|  2> % maxcore 2000
|  3> % mp2 density relaxed end
|  4> *xyz 0 1
|  5>  N       -0.0834270829     1.2816816347     0.1628036797
|  6>  C       -0.0009377710     0.0353333673    -0.0053225721
|  7>  O        1.1764918945    -0.6425915417    -0.1084745736
|  8>  C        1.2048441249    -1.7847498809    -0.9785612046
|  9>  O        0.1288986569    -2.6408682582    -0.7994178352
| 10>  C       -1.0957018264    -1.9739511432    -1.0414527081
| 11>  C       -1.2591627933    -0.8332097095    -0.0139486218
| 12>  C       -1.4964906052    -1.3800799034     1.3257844783
| 13>  N       -1.7004868223    -1.8204712348     2.3739219203
| 14>  H        0.8470443752     1.7050648472     0.1592487155
| 15>  H        1.2440254989    -1.4146312773    -2.0162414957
| 16>  H        2.1142360382    -2.3291752759    -0.7257861155
| 17>  H       -1.1142234363    -1.5505181849    -2.0574927518
| 18>  H       -1.8924619622    -2.7125924223    -0.9469019162
| 19>  H       -2.0996732991    -0.1872046571    -0.2800504190
| 20> *
| 21>
| 22>                          ****END OF INPUT****

CARTESIAN COORDINATES (ANGSTROEM)
---------------------------------
  N     -0.083427    1.281682    0.162804
  C     -0.000938    0.035333   -0.005323
  O      1.176492   -0.642592   -0.108475
  C      1.204844   -1.784750   -0.978561
  O      0.128899   -2.640868   -0.799418
  C     -1.095702   -1.973951   -1.041453
  C     -1.259163   -0.833210   -0.013949
  C     -1.496491   -1.380080    1.325784
  N     -1.700487   -1.820471    2.373922
  H      0.847044    1.705065    0.159249
  H      1.244025   -1.414631   -2.016241
  H      2.114236   -2.329175   -0.725786
  H     -1.114223   -1.550518   -2.057493
  H     -1.892462   -2.712592   -0.946902
  H     -2.099673   -0.187205   -0.280050

 Total Charge           Charge          ....    0
 Multiplicity           Mult            ....    1
 Number of Electrons    NEL             ....   66
 Basis Dimension        Dim             ....  315

ORBITAL ENERGIES
----------------

  NO   OCC          E(Eh)            E(eV)
   0   2.0000     -20.618764      -561.0651
   1   2.0000     -20.608341      -560.7815
   2   2.0000     -15.579204      -423.9317
   3   2.0000     -15.565571      -423.5607
   4   2.0000     -11.372295      -309.4559
   5   2.0000     -11.370678      -309.4119
   6   2.0000     -11.330776      -308.3261
   7   2.0000     -11.312636      -307.8325
   8   2.0000     -11.282605      -307.0153
   9   2.0000      -1.480907       -40.2975
  10   2.0000      -1.409777       -38.3620
  11   2.0000      -1.237090       -33.6629
  12   2.0000      -1.221106       -33.2280
  13   2.0000      -1.107037       -30.1240
  14   2.0000      -0.982750       -26.7420
  15   2.0000      -0.920949       -25.0603
  16   2.0000      -0.826415       -22.4879
  17   2.0000      -0.750233       -20.4149
  18   2.0000      -0.740238       -20.1429
  19   2.0000      -0.724805       -19.7229
  20   2.0000      -0.700798       -19.0697
  21   2.0000      -0.664196       -18.0737
  22   2.0000      -0.646511       -17.5925
  23   2.0000      -0.622994       -16.9525
  24   2.0000      -0.582796       -15.8587
  25   2.0000      -0.563255       -15.3270
  26   2.0000      -0.549256       -14.9460
  27   2.0000      -0.512468       -13.9450
  28   2.0000      -0.505328       -13.7507
  29   2.0000      -0.475918       -12.9504
  30   2.0000      -0.465251       -12.6601
  31   2.0000      -0.454542       -12.3687
  32   2.0000      -0.431647       -11.7457
  33   0.0000       0.112803         3.0695
  34   0.0000       0.133034         3.6200
  35   0.0000       0.153548         4.1782
  36   0.0000       0.157964         4.2984
  37   0.0000       0.174967         4.7611

MULLIKEN ATOMIC CHARGES
-----------------------
   0 N :   -0.349344
   1 C :    0.113518
   2 O :   -0.268162
   3 C :    0.075319
   4 O :   -0.289890
   5 C :   -0.096824
   6 C :    0.176939
   7 C :   -0.254077
   8 N :   -0.044894
   9 H :    0.231136
  10 H :    0.106420
  11 H :    0.151853
  12 H :    0.138393
  13 H :    0.155491
  14 H :    0.154122
Sum of atomic charges:   -0.0000000

LOEWDIN ATOMIC CHARGES
----------------------
   0 N :   -0.018174
   1 C :   -0.386484
   2 O :    0.232889
   3 C :   -0.355385
   4 O :    0.190459
   5 C :   -0.262642
   6 C :   -0.206655
   7 C :   -0.158646
   8 N :    0.077263
   9 H :    0.174187
  10 H :    0.114262
  11 H :    0.131574
  12 H :    0.132645
  13 H :    0.144093
  14 H :    0.190614

  Mayer bond orders larger than 0.1
B(  0-N ,  1-C ) :   2.0554 B(  0-N ,  9-H ) :   0.8510 B(  1-C ,  2-O ) :   1.0738
B(  1-C ,  6-C ) :   0.8357 B(  2-O ,  3-C ) :   0.8856 B(  3-C ,  4-O ) :   0.9984
B(  3-C , 10-H ) :   0.9275 B(  3-C , 11-H ) :   0.9283 B(  4-O ,  5-C ) :   0.9024
B(  5-C ,  6-C ) :   0.8827 B(  5-C , 12-H ) :   0.9374 B(  5-C , 13-H ) :   0.9227
B(  6-C ,  7-C ) :   0.9181 B(  6-C , 14-H ) :   0.8808 B(  7-C ,  8-N ) :   2.8598

MP2 TOTAL ENERGY:     -453.224337967 Eh
FINAL SINGLE POINT ENERGY      -453.224337967011

DIPOLE MOMENT
-------------
                                X             Y             Z
Electronic contribution:     -0.35146      -0.05657       3.87281
Nuclear contribution   :      0.81893       0.06118      -5.79718
                        -----------------------------------------
Total Dipole Moment    :      0.46747       0.00461      -1.92436
                        -----------------------------------------
Magnitude (a.u.)       :      1.98034
Magnitude (Debye)      :      5.03361

                             ****ORCA TERMINATED NORMALLY****
TOTAL RUN TIME: 0 days 0 hours 14 minutes 4 seconds 533 msec
