                         Program Version 3.0.3 - RELEASE   -
|  1> ! RI-MP2 RIJK def2-TZVP def2-TZVP/C def2-TZVP/JK TIGHTSCF
|  2> % maxcore 2000
|  3> % mp2 density relaxed end
|  4> *xyz 0 1
|  5>  C        0.3952548191     1.2714666592     0.3784013825
|  6>  C       -0.0209678353    -0.1923229852     0.2593732468
|  7>  O       -0.0374805521    -0.8236644183     1.5476271480
|  8>  C       -1.3685977511    -0.3490151621    -0.4665010666
|  9>  C       -1.7817813262    -1.7686225742    -0.8551648718
| 10>  O       -2.3427323165    -2.0084231066    -1.9056771093
| 11>  N       -1.4973006722    -2.7388176385     0.0835253222
| 12>  C       -1.8261460431    -4.0739155894    -0.0796379378
| 13>  N       -1.5334556635    -4.9223489499     0.8206125617
| 14>  H        1.3375477006     1.3514705487     0.9266343022
| 15>  H        0.5256958491     1.7250371930    -0.6084941609
| 16>  H       -0.3670017886     1.8517199057     0.9136441785
| 17>  H        0.7494551367    -0.7413188052    -0.2939180128
| 18>  H       -0.5957163567    -0.2953176804     2.1304740677
| 19>  H       -2.1621460349     0.0743734579     0.1664423488
| 20>  H       -1.3688255674     0.2264919502    -1.3952766006
| 21>  H       -0.9977166621    -2.4636574884     0.9244816488
| 22>  H       -2.3364833857    -4.2601406805    -1.0267230521
| 23>  H       -1.8465793301    -5.8501016261     0.5398177747
| 24> *
| 25>
| 26>                          ****END OF INPUT****

CARTESIAN COORDINATES (ANGSTROEM)
---------------------------------
  C      0.395255    1.271467    0.378401
  C     -0.020968   -0.192323    0.259373
  O     -0.037481   -0.823664    1.547627
  C     -1.368598   -0.349015   -0.466501
  C     -1.781781   -1.768623   -0.855165
  O     -2.342732   -2.008423   -1.905677
  N     -1.497301   -2.738818    0.083525
  C     -1.826146   -4.073916   -0.079638
  N     -1.533456   -4.922349    0.820613
  H      1.337548    1.351471    0.926634
  H      0.525696    1.725037   -0.608494
  H     -0.367002    1.851720    0.913644
  H      0.749455   -0.741319   -0.293918
  H     -0.595716   -0.295318    2.130474
  H     -2.162146    0.074373    0.166442
  H     -1.368826    0.226492   -1.395277
  H     -0.997717   -2.463657    0.924482
  H     -2.336483   -4.260141   -1.026723
  H     -1.846579   -5.850102    0.539818

 Total Charge           Charge          ....    0
 Multiplicity           Mult            ....    1
 Number of Electrons    NEL             ....   70
 Basis Dimension        Dim             ....  339

ORBITAL ENERGIES
----------------

  NO   OCC          E(Eh)            E(eV)
   0   2.0000     -20.584541      -560.1338
   1   2.0000     -20.532827      -558.7266
   2   2.0000     -15.594431      -424.3460
   3   2.0000     -15.538969      -422.8369
   4   2.0000     -11.365523      -309.2716
   5   2.0000     -11.316144      -307.9279
   6   2.0000     -11.311813      -307.8101
   7   2.0000     -11.255592      -306.2802
   8   2.0000     -11.241229      -305.8894
   9   2.0000      -1.400367       -38.1059
  10   2.0000      -1.389016       -37.7970
  11   2.0000      -1.273561       -34.6554
  12   2.0000      -1.171314       -31.8731
  13   2.0000      -1.078550       -29.3488
  14   2.0000      -0.990242       -26.9458
  15   2.0000      -0.872668       -23.7465
  16   2.0000      -0.847346       -23.0574
  17   2.0000      -0.804633       -21.8952
  18   2.0000      -0.721461       -19.6319
  19   2.0000      -0.682389       -18.5688
  20   2.0000      -0.674323       -18.3493
  21   2.0000      -0.660078       -17.9616
  22   2.0000      -0.634114       -17.2551
  23   2.0000      -0.626941       -17.0599
  24   2.0000      -0.609581       -16.5875
  25   2.0000      -0.595706       -16.2100
  26   2.0000      -0.569788       -15.5047
  27   2.0000      -0.550585       -14.9822
  28   2.0000      -0.542193       -14.7538
  29   2.0000      -0.503766       -13.7082
  30   2.0000      -0.490253       -13.3405
  31   2.0000      -0.474943       -12.9239
  32   2.0000      -0.450540       -12.2598
  33   2.0000      -0.418831       -11.3970
  34   2.0000      -0.377599       -10.2750
  35   0.0000       0.110825         3.0157
  36   0.0000       0.136077         3.7028
  37   0.0000       0.152751         4.1566
  38   0.0000       0.158958         4.3255
  39   0.0000       0.171293         4.6611

MULLIKEN ATOMIC CHARGES
-----------------------
   0 C :   -0.393139
   1 C :    0.055174
   2 O :   -0.490732
   3 C :   -0.255996
   4 C :    0.273134
   5 O :   -0.350161
   6 N :   -0.254408
   7 C :    0.028999
   8 N :   -0.380529
   9 H :    0.156560
  10 H :    0.138292
  11 H :    0.120713
  12 H :    0.117827
  13 H :    0.323817
  14 H :    0.130146
  15 H :    0.145298
  16 H :    0.270630
  17 H :    0.139255
  18 H :    0.225117
Sum of atomic charges:   -0.0000000

LOEWDIN ATOMIC CHARGES
----------------------
   0 C :   -0.300449
   1 C :   -0.363147
   2 O :   -0.027976
   3 C :   -0.217781
   4 C :   -0.429213
   5 O :    0.096238
   6 N :    0.139126
   7 C :   -0.325648
   8 N :   -0.090425
   9 H :    0.129938
  10 H :    0.130494
  11 H :    0.123395
  12 H :    0.150207
  13 H :    0.177331
  14 H :    0.153206
  15 H :    0.159664
  16 H :    0.200034
  17 H :    0.129609
  18 H :    0.165396

  Mayer bond orders larger than 0.1
B(  0-C ,  1-C ) :   0.9363 B(  0-C ,  9-H ) :   0.9404 B(  0-C , 10-H ) :   0.9345
B(  0-C , 11-H ) :   0.9184 B(  1-C ,  2-O ) :   0.8555 B(  1-C ,  3-C ) :   0.9008
B(  1-C , 12-H ) :   0.9296 B(  2-O , 13-H ) :   0.8343 B(  3-C ,  4-C ) :   0.9451
B(  3-C , 14-H ) :   0.8901 B(  3-C , 15-H ) :   0.9239 B(  4-C ,  5-O ) :   1.9435
B(  4-C ,  6-N ) :   1.0946 B(  6-N ,  7-C ) :   1.0005 B(  6-N , 16-H ) :   0.8215
B(  7-C ,  8-N ) :   1.9222 B(  7-C , 17-H ) :   0.9264 B(  8-N , 18-H ) :   0.8642

MP2 TOTAL ENERGY:     -455.652293867 Eh
FINAL SINGLE POINT ENERGY      -455.652293867219

DIPOLE MOMENT
-------------
                                X             Y             Z
Electronic contribution:     -3.51292      -7.03233      -1.77539
Nuclear contribution   :      3.67064       8.15930       2.13162
                        -----------------------------------------
Total Dipole Moment    :      0.15772       1.12697       0.35622
                        -----------------------------------------
Magnitude (a.u.)       :      1.19240
Magnitude (Debye)      :      3.03085

                             ****ORCA TERMINATED NORMALLY****
TOTAL RUN TIME: 0 days 0 hours 15 minutes 43 seconds 788 msec
