                         Program Version 3.0.3 - RELEASE   -
|  1> ! RI-MP2 RIJK def2-TZVP def2-TZVP/C def2-TZVP/JK TIGHTSCF
|  2> % maxcore 2000
|  3> % mp2 density relaxed end
|  4> *xyz 0 1
|  5>  O       -0.0576301750    -0.0073220744     0.0035099776
|  6>  N       -0.0233583599     1.2162658179     0.0067417267
|  7>  O        0.9958652834     1.8929560219     0.0017371871
|  8>  C       -1.3097844176     1.9286988408     0.0175089548
|  9>  C       -1.3272400853     3.3209077290     0.0213555350
| 10>  N       -2.4653410644     4.0142372402     0.0310394976
| 11>  C       -3.6093972560     3.3224872832     0.0370717659
| 12>  C       -3.6791051969     1.9296609249     0.0338293406
| 13>  C       -2.4948296015     1.2057572303     0.0237297678
| 14>  H       -0.3943496770     3.8729021891     0.0164092740
| 15>  H       -4.5214241623     3.9140705264     0.0449376932
| 16>  H       -4.6394891083     1.4277066929     0.0391075908
| 17>  H       -2.4661289492     0.1241165077     0.0206284089
| 18> *
| 19>
| 20>                          ****END OF INPUT****

CARTESIAN COORDINATES (ANGSTROEM)
---------------------------------
  O     -0.057630   -0.007322    0.003510
  N     -0.023358    1.216266    0.006742
  O      0.995865    1.892956    0.001737
  C     -1.309784    1.928699    0.017509
  C     -1.327240    3.320908    0.021356
  N     -2.465341    4.014237    0.031039
  C     -3.609397    3.322487    0.037072
  C     -3.679105    1.929661    0.033829
  C     -2.494830    1.205757    0.023730
  H     -0.394350    3.872902    0.016409
  H     -4.521424    3.914071    0.044938
  H     -4.639489    1.427707    0.039108
  H     -2.466129    0.124117    0.020628

 Total Charge           Charge          ....    0
 Multiplicity           Mult            ....    1
 Number of Electrons    NEL             ....   64
 Basis Dimension        Dim             ....  303

ORBITAL ENERGIES
----------------

  NO   OCC          E(Eh)            E(eV)
   0   2.0000     -20.609198      -560.8048
   1   2.0000     -20.609058      -560.8010
   2   2.0000     -15.862981      -431.6537
   3   2.0000     -15.597794      -424.4376
   4   2.0000     -11.318765      -307.9992
   5   2.0000     -11.316788      -307.9455
   6   2.0000     -11.313682      -307.8609
   7   2.0000     -11.300270      -307.4960
   8   2.0000     -11.273692      -306.7728
   9   2.0000      -1.614696       -43.9381
  10   2.0000      -1.408842       -38.3365
  11   2.0000      -1.297728       -35.3130
  12   2.0000      -1.153689       -31.3935
  13   2.0000      -1.092163       -29.7193
  14   2.0000      -0.982191       -26.7268
  15   2.0000      -0.901819       -24.5397
  16   2.0000      -0.855916       -23.2907
  17   2.0000      -0.793599       -21.5949
  18   2.0000      -0.741876       -20.1875
  19   2.0000      -0.733877       -19.9698
  20   2.0000      -0.730236       -19.8707
  21   2.0000      -0.695483       -18.9251
  22   2.0000      -0.653321       -17.7778
  23   2.0000      -0.616555       -16.7773
  24   2.0000      -0.577078       -15.7031
  25   2.0000      -0.575827       -15.6690
  26   2.0000      -0.509963       -13.8768
  27   2.0000      -0.505237       -13.7482
  28   2.0000      -0.464285       -12.6338
  29   2.0000      -0.451879       -12.2962
  30   2.0000      -0.423217       -11.5163
  31   2.0000      -0.387668       -10.5490
  32   0.0000       0.031592         0.8597
  33   0.0000       0.077705         2.1145
  34   0.0000       0.138547         3.7700
  35   0.0000       0.140138         3.8134
  36   0.0000       0.166562         4.5324

MULLIKEN ATOMIC CHARGES
-----------------------
   0 O :   -0.291455
   1 N :    0.424596
   2 O :   -0.286419
   3 C :    0.068879
   4 C :   -0.060892
   5 N :   -0.216980
   6 C :   -0.036645
   7 C :   -0.053344
   8 C :   -0.194137
   9 H :    0.174353
  10 H :    0.143733
  11 H :    0.149848
  12 H :    0.178465
Sum of atomic charges:   -0.0000000

LOEWDIN ATOMIC CHARGES
----------------------
   0 O :    0.007518
   1 N :   -0.046170
   2 O :    0.012621
   3 C :   -0.158529
   4 C :   -0.172753
   5 N :    0.152131
   6 C :   -0.194843
   7 C :   -0.121952
   8 C :   -0.092675
   9 H :    0.152700
  10 H :    0.143649
  11 H :    0.155591
  12 H :    0.162713

  Mayer bond orders larger than 0.1
B(  0-O ,  1-N ) :   1.4778 B(  0-O ,  2-O ) :   0.1762 B(  1-N ,  2-O ) :   1.4770
B(  1-N ,  3-C ) :   0.9191 B(  3-C ,  4-C ) :   1.3116 B(  3-C ,  8-C ) :   1.3734
B(  4-C ,  5-N ) :   1.4034 B(  4-C ,  9-H ) :   0.9173 B(  5-N ,  6-C ) :   1.3787
B(  6-C ,  7-C ) :   1.3064 B(  6-C , 10-H ) :   0.9404 B(  7-C ,  8-C ) :   1.3526
B(  7-C , 11-H ) :   0.9200 B(  8-C , 12-H ) :   0.8989

MP2 TOTAL ENERGY:     -451.972729757 Eh
FINAL SINGLE POINT ENERGY      -451.972729757337

DIPOLE MOMENT
-------------
                                X             Y             Z
Electronic contribution:      4.33228      -1.19548      -0.03303
Nuclear contribution   :     -5.74095       1.07056       0.04240
                        -----------------------------------------
Total Dipole Moment    :     -1.40867      -0.12492       0.00937
                        -----------------------------------------
Magnitude (a.u.)       :      1.41423
Magnitude (Debye)      :      3.59470

                             ****ORCA TERMINATED NORMALLY****
TOTAL RUN TIME: 0 days 0 hours 14 minutes 51 seconds 355 msec
