                         Program Version 3.0.3 - RELEASE   -
|  1> ! RI-MP2 RIJK def2-TZVP def2-TZVP/C def2-TZVP/JK TIGHTSCF
|  2> % maxcore 2000
|  3> % mp2 density relaxed end
|  4> *xyz 0 1
|  5>  C       -0.0527831418     1.5391862401     0.0868480051
|  6>  C        0.1128189214     0.0177311342     0.0816165372
|  7>  C        0.6728895656    -0.5151587777    -1.2425959203
|  8>  O        1.9627659550     0.0286767745    -1.5342336481
|  9>  C        0.7044365332    -2.0233826807    -1.3194339841
| 10>  C        0.4822558070    -2.7583517605    -2.5793783261
| 11>  N       -0.5567033605    -2.8523176122    -1.5323887230
| 12>  C       -0.0135168302    -3.8468691654    -0.5396440880
| 13>  C        1.2390943240    -2.9812909770    -0.2452319256
| 14>  H        0.8965311578     2.0306917014    -0.1421757892
| 15>  H       -0.7819676707     1.8570431536    -0.6663905085
| 16>  H       -0.4012625784     1.8965932751     1.0604016888
| 17>  H        0.7818044096    -0.2825571369     0.9009102250
| 18>  H       -0.8489129206    -0.4745432396     0.2687036445
| 19>  H        0.0305269464    -0.1593468113    -2.0577603941
| 20>  H        2.5571811010    -0.2371069688    -0.8235893152
| 21>  H        0.1640231226    -2.1847732075    -3.4444628505
| 22>  H        1.0732603807    -3.6425230514    -2.8129493412
| 23>  H       -0.6945030185    -3.9396220698     0.3084494750
| 24>  H        0.1562858887    -4.8398867431    -0.9690875355
| 25>  H        2.2238283831    -3.4195857236    -0.4325810895
| 26>  H        1.2276490745    -2.5635249832     0.7630749332
| 27> *
| 28>
| 29>                          ****END OF INPUT****

CARTESIAN COORDINATES (ANGSTROEM)
---------------------------------
  C     -0.052783    1.539186    0.086848
  C      0.112819    0.017731    0.081617
  C      0.672890   -0.515159   -1.242596
  O      1.962766    0.028677   -1.534234
  C      0.704437   -2.023383   -1.319434
  C      0.482256   -2.758352   -2.579378
  N     -0.556703   -2.852318   -1.532389
  C     -0.013517   -3.846869   -0.539644
  C      1.239094   -2.981291   -0.245232
  H      0.896531    2.030692   -0.142176
  H     -0.781968    1.857043   -0.666391
  H     -0.401263    1.896593    1.060402
  H      0.781804   -0.282557    0.900910
  H     -0.848913   -0.474543    0.268704
  H      0.030527   -0.159347   -2.057760
  H      2.557181   -0.237107   -0.823589
  H      0.164023   -2.184773   -3.444463
  H      1.073260   -3.642523   -2.812949
  H     -0.694503   -3.939622    0.308449
  H      0.156286   -4.839887   -0.969088
  H      2.223828   -3.419586   -0.432581
  H      1.227649   -2.563525    0.763075

 Total Charge           Charge          ....    0
 Multiplicity           Mult            ....    1
 Number of Electrons    NEL             ....   70
 Basis Dimension        Dim             ....  357

ORBITAL ENERGIES
----------------

  NO   OCC          E(Eh)            E(eV)
   0   2.0000     -20.556492      -559.3706
   1   2.0000     -15.559668      -423.4001
   2   2.0000     -11.282060      -307.0005
   3   2.0000     -11.264837      -306.5318
   4   2.0000     -11.257927      -306.3438
   5   2.0000     -11.253162      -306.2141
   6   2.0000     -11.235835      -305.7426
   7   2.0000     -11.223446      -305.4055
   8   2.0000     -11.211502      -305.0805
   9   2.0000      -1.362082       -37.0641
  10   2.0000      -1.289507       -35.0893
  11   2.0000      -1.054269       -28.6881
  12   2.0000      -1.009438       -27.4682
  13   2.0000      -0.965985       -26.2858
  14   2.0000      -0.901338       -24.5266
  15   2.0000      -0.825474       -22.4623
  16   2.0000      -0.819507       -22.2999
  17   2.0000      -0.734820       -19.9955
  18   2.0000      -0.689378       -18.7589
  19   2.0000      -0.655434       -17.8353
  20   2.0000      -0.640786       -17.4367
  21   2.0000      -0.632415       -17.2089
  22   2.0000      -0.620587       -16.8870
  23   2.0000      -0.565488       -15.3877
  24   2.0000      -0.550037       -14.9673
  25   2.0000      -0.548648       -14.9295
  26   2.0000      -0.543542       -14.7905
  27   2.0000      -0.521717       -14.1966
  28   2.0000      -0.505374       -13.7519
  29   2.0000      -0.486079       -13.2269
  30   2.0000      -0.473338       -12.8802
  31   2.0000      -0.454836       -12.3767
  32   2.0000      -0.439203       -11.9513
  33   2.0000      -0.413200       -11.2437
  34   2.0000      -0.369002       -10.0411
  35   0.0000       0.128016         3.4835
  36   0.0000       0.152292         4.1441
  37   0.0000       0.156686         4.2637
  38   0.0000       0.166516         4.5311
  39   0.0000       0.180254         4.9050

MULLIKEN ATOMIC CHARGES
-----------------------
   0 C :   -0.391426
   1 C :   -0.222727
   2 C :    0.030253
   3 O :   -0.464340
   4 C :    0.143140
   5 C :   -0.186508
   6 N :   -0.261180
   7 C :   -0.142506
   8 C :   -0.261052
   9 H :    0.135643
  10 H :    0.124476
  11 H :    0.132602
  12 H :    0.092167
  13 H :    0.129532
  14 H :    0.093290
  15 H :    0.311851
  16 H :    0.127176
  17 H :    0.115837
  18 H :    0.123120
  19 H :    0.116974
  20 H :    0.127846
  21 H :    0.125833
Sum of atomic charges:    0.0000000

LOEWDIN ATOMIC CHARGES
----------------------
   0 C :   -0.317522
   1 C :   -0.278775
   2 C :   -0.315284
   3 O :   -0.014425
   4 C :   -0.244843
   5 C :   -0.226259
   6 N :    0.108594
   7 C :   -0.245147
   8 C :   -0.217293
   9 H :    0.123669
  10 H :    0.122505
  11 H :    0.120115
  12 H :    0.132826
  13 H :    0.146290
  14 H :    0.156901
  15 H :    0.174639
  16 H :    0.135436
  17 H :    0.127242
  18 H :    0.126641
  19 H :    0.120536
  20 H :    0.129274
  21 H :    0.134882

  Mayer bond orders larger than 0.1
B(  0-C ,  1-C ) :   0.9254 B(  0-C ,  9-H ) :   0.9356 B(  0-C , 10-H ) :   0.9397
B(  0-C , 11-H ) :   0.9424 B(  1-C ,  2-C ) :   0.9601 B(  1-C , 12-H ) :   0.9069
B(  1-C , 13-H ) :   0.9311 B(  2-C ,  3-O ) :   0.8797 B(  2-C ,  4-C ) :   0.9269
B(  2-C , 14-H ) :   0.9058 B(  3-O , 15-H ) :   0.8440 B(  4-C ,  5-C ) :   0.9393
B(  4-C ,  6-N ) :   0.8045 B(  4-C ,  8-C ) :   0.8692 B(  5-C ,  6-N ) :   0.9323
B(  5-C , 16-H ) :   0.9175 B(  5-C , 17-H ) :   0.9078 B(  6-N ,  7-C ) :   0.9122
B(  7-C ,  8-C ) :   0.9697 B(  7-C , 18-H ) :   0.9214 B(  7-C , 19-H ) :   0.9371
B(  8-C , 20-H ) :   0.9130 B(  8-C , 21-H ) :   0.9326

MP2 TOTAL ENERGY:     -403.616437863 Eh
FINAL SINGLE POINT ENERGY      -403.616437862571

DIPOLE MOMENT
-------------
                                X             Y             Z
Electronic contribution:      0.95524      -2.98378      -3.62986
Nuclear contribution   :     -0.49827       2.54313       4.26019
                        -----------------------------------------
Total Dipole Moment    :      0.45696      -0.44065       0.63033
                        -----------------------------------------
Magnitude (a.u.)       :      0.89460
Magnitude (Debye)      :      2.27389

                             ****ORCA TERMINATED NORMALLY****
TOTAL RUN TIME: 0 days 0 hours 19 minutes 57 seconds 427 msec
