                         Program Version 3.0.3 - RELEASE   -
|  1> ! RI-MP2 RIJK def2-TZVP def2-TZVP/C def2-TZVP/JK TIGHTSCF
|  2> % maxcore 2000
|  3> % mp2 density relaxed end
|  4> *xyz 0 1
|  5>  C       -0.0020829428     1.2873789314     0.2485447442
|  6>  O        0.4342742515    -0.0388665293     0.0805055507
|  7>  C        0.7300600166    -0.5063074695    -1.2191349692
|  8>  C        0.3213849471     0.2621081582    -2.4486260866
|  9>  C        1.7829246287     0.1951814440    -2.0345938991
| 10>  C        0.6100958408    -2.0299269243    -1.1707737399
| 11>  C       -0.8615721486    -2.4353802934    -0.9901004909
| 12>  C        1.2416541790    -2.7679293541    -2.3563112322
| 13>  H        0.7147752990     2.0283333009    -0.1358854772
| 14>  H       -0.9786020103     1.4701789439    -0.2215846463
| 15>  H       -0.1021535857     1.4418906053     1.3260134247
| 16>  H        0.0045249069    -0.3017957691    -3.3193589924
| 17>  H       -0.1857886919     1.2129462166    -2.3394431203
| 18>  H        2.2175829096     1.0975995101    -1.6176209868
| 19>  H        2.4704611870    -0.3870655650    -2.6355813383
| 20>  H        1.1528273389    -2.3287002637    -0.2640311555
| 21>  H       -0.9520431909    -3.5119592727    -0.8125590201
| 22>  H       -1.3044389279    -1.9088512143    -0.1416716076
| 23>  H       -1.4467270043    -2.1941646740    -1.8852060310
| 24>  H        2.3183251432    -2.5917054520    -2.4273076409
| 25>  H        1.0932112861    -3.8460305702    -2.2398950058
| 26>  H        0.7840918781    -2.4822329787    -3.3103674295
| 27> *
| 28>
| 29>                          ****END OF INPUT****

CARTESIAN COORDINATES (ANGSTROEM)
---------------------------------
  C     -0.002083    1.287379    0.248545
  O      0.434274   -0.038867    0.080506
  C      0.730060   -0.506307   -1.219135
  C      0.321385    0.262108   -2.448626
  C      1.782925    0.195181   -2.034594
  C      0.610096   -2.029927   -1.170774
  C     -0.861572   -2.435380   -0.990100
  C      1.241654   -2.767929   -2.356311
  H      0.714775    2.028333   -0.135885
  H     -0.978602    1.470179   -0.221585
  H     -0.102154    1.441891    1.326013
  H      0.004525   -0.301796   -3.319359
  H     -0.185789    1.212946   -2.339443
  H      2.217583    1.097600   -1.617621
  H      2.470461   -0.387066   -2.635581
  H      1.152827   -2.328700   -0.264031
  H     -0.952043   -3.511959   -0.812559
  H     -1.304439   -1.908851   -0.141672
  H     -1.446727   -2.194165   -1.885206
  H      2.318325   -2.591705   -2.427308
  H      1.093211   -3.846031   -2.239895
  H      0.784092   -2.482233   -3.310367

 Total Charge           Charge          ....    0
 Multiplicity           Mult            ....    1
 Number of Electrons    NEL             ....   64
 Basis Dimension        Dim             ....  332

ORBITAL ENERGIES
----------------

  NO   OCC          E(Eh)            E(eV)
   0   2.0000     -20.552727      -559.2681
   1   2.0000     -11.284330      -307.0622
   2   2.0000     -11.269885      -306.6692
   3   2.0000     -11.224765      -305.4414
   4   2.0000     -11.222713      -305.3855
   5   2.0000     -11.219116      -305.2877
   6   2.0000     -11.211816      -305.0890
   7   2.0000     -11.203091      -304.8516
   8   2.0000      -1.375039       -37.4167
   9   2.0000      -1.135043       -30.8861
  10   2.0000      -1.049224       -28.5508
  11   2.0000      -0.944991       -25.7145
  12   2.0000      -0.921949       -25.0875
  13   2.0000      -0.829527       -22.5726
  14   2.0000      -0.828140       -22.5348
  15   2.0000      -0.736452       -20.0399
  16   2.0000      -0.687645       -18.7118
  17   2.0000      -0.660960       -17.9856
  18   2.0000      -0.630761       -17.1639
  19   2.0000      -0.612435       -16.6652
  20   2.0000      -0.590220       -16.0607
  21   2.0000      -0.574595       -15.6355
  22   2.0000      -0.551705       -15.0127
  23   2.0000      -0.530709       -14.4413
  24   2.0000      -0.511836       -13.9278
  25   2.0000      -0.506807       -13.7909
  26   2.0000      -0.494542       -13.4572
  27   2.0000      -0.481966       -13.1150
  28   2.0000      -0.471538       -12.8312
  29   2.0000      -0.460415       -12.5285
  30   2.0000      -0.407735       -11.0950
  31   2.0000      -0.372000       -10.1226
  32   0.0000       0.139752         3.8029
  33   0.0000       0.154622         4.2075
  34   0.0000       0.167108         4.5472
  35   0.0000       0.174595         4.7510
  36   0.0000       0.197100         5.3634

MULLIKEN ATOMIC CHARGES
-----------------------
   0 C :   -0.243128
   1 O :   -0.300110
   2 C :    0.225877
   3 C :   -0.320287
   4 C :   -0.270160
   5 C :   -0.014651
   6 C :   -0.423738
   7 C :   -0.431532
   8 H :    0.114221
   9 H :    0.122205
  10 H :    0.143803
  11 H :    0.128805
  12 H :    0.137777
  13 H :    0.128993
  14 H :    0.130877
  15 H :    0.088400
  16 H :    0.127188
  17 H :    0.145037
  18 H :    0.115184
  19 H :    0.134036
  20 H :    0.137722
  21 H :    0.123480
Sum of atomic charges:   -0.0000000

LOEWDIN ATOMIC CHARGES
----------------------
   0 C :   -0.358600
   1 O :    0.191109
   2 C :   -0.314917
   3 C :   -0.216012
   4 C :   -0.211678
   5 C :   -0.265363
   6 C :   -0.288630
   7 C :   -0.289734
   8 H :    0.102645
   9 H :    0.103070
  10 H :    0.115557
  11 H :    0.132782
  12 H :    0.133726
  13 H :    0.133713
  14 H :    0.131830
  15 H :    0.160321
  16 H :    0.120867
  17 H :    0.126765
  18 H :    0.121359
  19 H :    0.122132
  20 H :    0.126834
  21 H :    0.122222

  Mayer bond orders larger than 0.1
B(  0-C ,  1-O ) :   0.9132 B(  0-C ,  8-H ) :   0.9313 B(  0-C ,  9-H ) :   0.9350
B(  0-C , 10-H ) :   0.9396 B(  1-O ,  2-C ) :   0.9651 B(  2-C ,  3-C ) :   0.8640
B(  2-C ,  4-C ) :   0.8845 B(  2-C ,  5-C ) :   0.9240 B(  3-C ,  4-C ) :   0.8620
B(  3-C , 11-H ) :   0.9185 B(  3-C , 12-H ) :   0.9214 B(  4-C , 13-H ) :   0.9212
B(  4-C , 14-H ) :   0.9238 B(  5-C ,  6-C ) :   0.9160 B(  5-C ,  7-C ) :   0.8967
B(  5-C , 15-H ) :   0.9255 B(  6-C , 16-H ) :   0.9404 B(  6-C , 17-H ) :   0.9390
B(  6-C , 18-H ) :   0.9312 B(  7-C , 19-H ) :   0.9404 B(  7-C , 20-H ) :   0.9380
B(  7-C , 21-H ) :   0.9327

MP2 TOTAL ENERGY:     -349.572707339 Eh
FINAL SINGLE POINT ENERGY      -349.572707339145

DIPOLE MOMENT
-------------
                                X             Y             Z
Electronic contribution:      1.26687       2.02812       2.57480
Nuclear contribution   :     -1.32388      -1.75045      -2.81820
                        -----------------------------------------
Total Dipole Moment    :     -0.05701       0.27767      -0.24340
                        -----------------------------------------
Magnitude (a.u.)       :      0.37362
Magnitude (Debye)      :      0.94966

                             ****ORCA TERMINATED NORMALLY****
TOTAL RUN TIME: 0 days 0 hours 15 minutes 43 seconds 985 msec
