                         Program Version 3.0.3 - RELEASE   -
|  1> ! RI-MP2 RIJK def2-TZVP def2-TZVP/C def2-TZVP/JK TIGHTSCF
|  2> % maxcore 2000
|  3> % mp2 density relaxed end
|  4> *xyz 0 1
|  5>  C       -0.1478709968     1.5467031701     0.0608860601
|  6>  C        0.1855670096     0.0545295486    -0.0551528092
|  7>  C        0.8168774093    -0.5087475519     1.2109630538
|  8>  C       -0.1480429439    -0.8496806856     2.4038975826
|  9>  O       -0.5284560452    -2.0660010777     1.6726882262
| 10>  C        0.8947838028    -2.0702244049     1.3251487388
| 11>  C        1.5608562393    -2.2525879476     2.7072470012
| 12>  C        2.7049886109    -3.1492349767     3.0233943983
| 13>  C        0.8333673443    -1.4060019514     3.4445428136
| 14>  H        0.7481886780     2.1406202764     0.2735415947
| 15>  H       -0.5861020721     1.9266333480    -0.8669851160
| 16>  H       -0.8663454095     1.7332615171     0.8663828341
| 17>  H       -0.7168167687    -0.5192681559    -0.2873489895
| 18>  H        0.8817952616    -0.0960638205    -0.8911778817
| 19>  H        1.7274813596     0.0342191775     1.4843225446
| 20>  H       -0.9865585745    -0.2251719116     2.7112627434
| 21>  H        1.1600534398    -2.7288671660     0.4967376916
| 22>  H        3.5870521251    -2.9011999122     2.4189083467
| 23>  H        2.9889373728    -3.0796182257     4.0771451373
| 24>  H        2.4624417255    -4.1969772588     2.8046654570
| 25>  H        0.8973972719    -1.1504415013     4.4923298625
| 26> *
| 27>
| 28>                          ****END OF INPUT****

CARTESIAN COORDINATES (ANGSTROEM)
---------------------------------
  C     -0.147871    1.546703    0.060886
  C      0.185567    0.054530   -0.055153
  C      0.816877   -0.508748    1.210963
  C     -0.148043   -0.849681    2.403898
  O     -0.528456   -2.066001    1.672688
  C      0.894784   -2.070224    1.325149
  C      1.560856   -2.252588    2.707247
  C      2.704989   -3.149235    3.023394
  C      0.833367   -1.406002    3.444543
  H      0.748189    2.140620    0.273542
  H     -0.586102    1.926633   -0.866985
  H     -0.866345    1.733262    0.866383
  H     -0.716817   -0.519268   -0.287349
  H      0.881795   -0.096064   -0.891178
  H      1.727481    0.034219    1.484323
  H     -0.986559   -0.225172    2.711263
  H      1.160053   -2.728867    0.496738
  H      3.587052   -2.901200    2.418908
  H      2.988937   -3.079618    4.077145
  H      2.462442   -4.196977    2.804665
  H      0.897397   -1.150442    4.492330

 Total Charge           Charge          ....    0
 Multiplicity           Mult            ....    1
 Number of Electrons    NEL             ....   68
 Basis Dimension        Dim             ....  351

ORBITAL ENERGIES
----------------

  NO   OCC          E(Eh)            E(eV)
   0   2.0000     -20.540064      -558.9236
   1   2.0000     -11.287392      -307.1455
   2   2.0000     -11.287369      -307.1449
   3   2.0000     -11.236518      -305.7612
   4   2.0000     -11.236474      -305.7600
   5   2.0000     -11.230429      -305.5955
   6   2.0000     -11.219683      -305.3031
   7   2.0000     -11.217519      -305.2442
   8   2.0000     -11.214281      -305.1561
   9   2.0000      -1.382118       -37.6093
  10   2.0000      -1.102528       -30.0013
  11   2.0000      -1.054797       -28.7025
  12   2.0000      -0.986184       -26.8354
  13   2.0000      -0.942887       -25.6573
  14   2.0000      -0.905580       -24.6421
  15   2.0000      -0.832908       -22.6646
  16   2.0000      -0.742723       -20.2105
  17   2.0000      -0.718968       -19.5641
  18   2.0000      -0.685134       -18.6434
  19   2.0000      -0.658845       -17.9281
  20   2.0000      -0.599134       -16.3033
  21   2.0000      -0.588164       -16.0048
  22   2.0000      -0.580775       -15.8037
  23   2.0000      -0.567657       -15.4467
  24   2.0000      -0.552583       -15.0365
  25   2.0000      -0.539565       -14.6823
  26   2.0000      -0.516845       -14.0641
  27   2.0000      -0.504786       -13.7359
  28   2.0000      -0.495593       -13.4858
  29   2.0000      -0.488038       -13.2802
  30   2.0000      -0.458334       -12.4719
  31   2.0000      -0.431170       -11.7327
  32   2.0000      -0.409308       -11.1378
  33   2.0000      -0.335377        -9.1261
  34   0.0000       0.138789         3.7766
  35   0.0000       0.144386         3.9289
  36   0.0000       0.147162         4.0045
  37   0.0000       0.169369         4.6088
  38   0.0000       0.174628         4.7519

MULLIKEN ATOMIC CHARGES
-----------------------
   0 C :   -0.397699
   1 C :   -0.243133
   2 C :   -0.037260
   3 C :    0.043560
   4 O :   -0.307189
   5 C :    0.025121
   6 C :    0.036944
   7 C :   -0.454412
   8 C :   -0.239947
   9 H :    0.121871
  10 H :    0.136122
  11 H :    0.123911
  12 H :    0.142000
  13 H :    0.108204
  14 H :    0.106738
  15 H :    0.137065
  16 H :    0.132639
  17 H :    0.141091
  18 H :    0.143405
  19 H :    0.149384
  20 H :    0.131585
Sum of atomic charges:    0.0000000

LOEWDIN ATOMIC CHARGES
----------------------
   0 C :   -0.316782
   1 C :   -0.277362
   2 C :   -0.181705
   3 C :   -0.214073
   4 O :    0.150058
   5 C :   -0.193115
   6 C :   -0.159076
   7 C :   -0.278314
   8 C :   -0.117655
   9 H :    0.119959
  10 H :    0.121617
  11 H :    0.119860
  12 H :    0.145184
  13 H :    0.138198
  14 H :    0.145188
  15 H :    0.130777
  16 H :    0.132778
  17 H :    0.132665
  18 H :    0.132863
  19 H :    0.134747
  20 H :    0.134188

  Mayer bond orders larger than 0.1
B(  0-C ,  1-C ) :   0.9087 B(  0-C ,  9-H ) :   0.9382 B(  0-C , 10-H ) :   0.9412
B(  0-C , 11-H ) :   0.9424 B(  1-C ,  2-C ) :   0.8986 B(  1-C , 12-H ) :   0.9377
B(  1-C , 13-H ) :   0.9276 B(  2-C ,  3-C ) :   0.9385 B(  2-C ,  5-C ) :   0.9063
B(  2-C , 14-H ) :   0.9107 B(  3-C ,  4-O ) :   0.9004 B(  3-C ,  8-C ) :   0.9570
B(  3-C , 15-H ) :   0.9018 B(  4-O ,  5-C ) :   0.9195 B(  5-C ,  6-C ) :   0.9574
B(  5-C , 16-H ) :   0.8980 B(  6-C ,  7-C ) :   0.8621 B(  6-C ,  8-C ) :   1.7507
B(  7-C , 17-H ) :   0.9296 B(  7-C , 18-H ) :   0.9517 B(  7-C , 19-H ) :   0.9402
B(  8-C , 20-H ) :   0.9284

MP2 TOTAL ENERGY:     -386.371630601 Eh
FINAL SINGLE POINT ENERGY      -386.371630600616

DIPOLE MOMENT
-------------
                                X             Y             Z
Electronic contribution:     -2.32183      -4.36578       2.94830
Nuclear contribution   :      3.01930       4.71183      -2.91652
                        -----------------------------------------
Total Dipole Moment    :      0.69747       0.34605       0.03179
                        -----------------------------------------
Magnitude (a.u.)       :      0.77925
Magnitude (Debye)      :      1.98069

                             ****ORCA TERMINATED NORMALLY****
TOTAL RUN TIME: 0 days 0 hours 31 minutes 3 seconds 940 msec
