                         Program Version 3.0.3 - RELEASE   -
|  1> ! RI-MP2 RIJK def2-TZVP def2-TZVP/C def2-TZVP/JK TIGHTSCF
|  2> % maxcore 2000
|  3> % mp2 density relaxed end
|  4> *xyz 0 1
|  5>  C       -0.6018279497     1.0181739277     0.0086784723
|  6>  N        0.4068867330    -0.0253899711    -0.1987781109
|  7>  C        0.8936777007    -0.6481300006     0.9850919291
|  8>  C        1.6939241573    -0.1859689835     2.0150584412
|  9>  N        1.8805284472    -1.2111944153     2.8999629687
| 10>  C        2.5656033301    -1.1086931857     4.1681356207
| 11>  C        1.1963399228    -2.3355419699     2.4668147988
| 12>  C        0.5859309885    -2.0061993252     1.2803742075
| 13>  O       -0.1667810342    -2.8017184693     0.4791164356
| 14>  H       -0.2478388767     1.8681731497     0.6129951119
| 15>  H       -0.9350197390     1.3989875962    -0.9623074148
| 16>  H       -1.4657598514     0.5841119824     0.5200902891
| 17>  H        1.1657019514     0.3354503485    -0.7659351599
| 18>  H        2.1453366566     0.7790810438     2.1853716309
| 19>  H        1.8676539368    -0.9628352527     5.0019528878
| 20>  H        3.1448688873    -2.0175285280     4.3566229757
| 21>  H        3.2554425450    -0.2622053895     4.1396722149
| 22>  H        1.2191496361    -3.2553401408     3.0262583163
| 23>  H       -0.3633152518    -2.2490204067    -0.2933683348
| 24> *
| 25>
| 26>                          ****END OF INPUT****

CARTESIAN COORDINATES (ANGSTROEM)
---------------------------------
  C     -0.601828    1.018174    0.008678
  N      0.406887   -0.025390   -0.198778
  C      0.893678   -0.648130    0.985092
  C      1.693924   -0.185969    2.015058
  N      1.880528   -1.211194    2.899963
  C      2.565603   -1.108693    4.168136
  C      1.196340   -2.335542    2.466815
  C      0.585931   -2.006199    1.280374
  O     -0.166781   -2.801718    0.479116
  H     -0.247839    1.868173    0.612995
  H     -0.935020    1.398988   -0.962307
  H     -1.465760    0.584112    0.520090
  H      1.165702    0.335450   -0.765935
  H      2.145337    0.779081    2.185372
  H      1.867654   -0.962835    5.001953
  H      3.144869   -2.017529    4.356623
  H      3.255443   -0.262205    4.139672
  H      1.219150   -3.255340    3.026258
  H     -0.363315   -2.249020   -0.293368

 Total Charge           Charge          ....    0
 Multiplicity           Mult            ....    1
 Number of Electrons    NEL             ....   68
 Basis Dimension        Dim             ....  339

ORBITAL ENERGIES
----------------

  NO   OCC          E(Eh)            E(eV)
   0   2.0000     -20.561121      -559.4966
   1   2.0000     -15.599727      -424.4902
   2   2.0000     -15.555652      -423.2908
   3   2.0000     -11.270373      -306.6824
   4   2.0000     -11.261542      -306.4421
   5   2.0000     -11.250725      -306.1478
   6   2.0000     -11.247367      -306.0564
   7   2.0000     -11.232620      -305.6551
   8   2.0000     -11.230589      -305.5999
   9   2.0000      -1.379531       -37.5390
  10   2.0000      -1.293607       -35.2008
  11   2.0000      -1.207011       -32.8444
  12   2.0000      -1.056830       -28.7578
  13   2.0000      -0.971648       -26.4399
  14   2.0000      -0.934787       -25.4369
  15   2.0000      -0.887722       -24.1561
  16   2.0000      -0.781201       -21.2575
  17   2.0000      -0.760102       -20.6834
  18   2.0000      -0.711996       -19.3744
  19   2.0000      -0.663003       -18.0412
  20   2.0000      -0.647678       -17.6242
  21   2.0000      -0.629887       -17.1401
  22   2.0000      -0.610583       -16.6148
  23   2.0000      -0.591448       -16.0941
  24   2.0000      -0.582588       -15.8530
  25   2.0000      -0.574810       -15.6414
  26   2.0000      -0.560444       -15.2505
  27   2.0000      -0.547584       -14.9005
  28   2.0000      -0.530305       -14.4303
  29   2.0000      -0.497882       -13.5481
  30   2.0000      -0.496329       -13.5058
  31   2.0000      -0.389004       -10.5853
  32   2.0000      -0.313334        -8.5263
  33   2.0000      -0.284104        -7.7309
  34   0.0000       0.132282         3.5996
  35   0.0000       0.141131         3.8404
  36   0.0000       0.156207         4.2506
  37   0.0000       0.172046         4.6816
  38   0.0000       0.181447         4.9374

MULLIKEN ATOMIC CHARGES
-----------------------
   0 C :   -0.268800
   1 N :   -0.437103
   2 C :    0.098213
   3 C :   -0.191882
   4 N :    0.013429
   5 C :   -0.320398
   6 C :   -0.187218
   7 C :    0.085359
   8 O :   -0.453558
   9 H :    0.113331
  10 H :    0.127874
  11 H :    0.137572
  12 H :    0.224382
  13 H :    0.140012
  14 H :    0.147303
  15 H :    0.148937
  16 H :    0.144959
  17 H :    0.140957
  18 H :    0.336631
Sum of atomic charges:    0.0000000

LOEWDIN ATOMIC CHARGES
----------------------
   0 C :   -0.337629
   1 N :   -0.014007
   2 C :   -0.267744
   3 C :   -0.216349
   4 N :    0.223725
   5 C :   -0.276065
   6 C :   -0.208267
   7 C :   -0.301317
   8 O :    0.055035
   9 H :    0.100656
  10 H :    0.112076
  11 H :    0.118849
  12 H :    0.175554
  13 H :    0.133381
  14 H :    0.120468
  15 H :    0.124921
  16 H :    0.126123
  17 H :    0.135344
  18 H :    0.195245

  Mayer bond orders larger than 0.1
B(  0-C ,  1-N ) :   0.9050 B(  0-C ,  9-H ) :   0.9327 B(  0-C , 10-H ) :   0.9345
B(  0-C , 11-H ) :   0.9400 B(  1-N ,  2-C ) :   0.9044 B(  1-N , 12-H ) :   0.8828
B(  2-C ,  3-C ) :   1.3817 B(  2-C ,  7-C ) :   1.2386 B(  3-C ,  4-N ) :   1.1888
B(  3-C , 13-H ) :   0.8974 B(  4-N ,  5-C ) :   0.8679 B(  4-N ,  6-C ) :   1.0897
B(  5-C , 14-H ) :   0.9250 B(  5-C , 15-H ) :   0.9333 B(  5-C , 16-H ) :   0.9346
B(  6-C ,  7-C ) :   1.4887 B(  6-C , 17-H ) :   0.9133 B(  7-C ,  8-O ) :   1.1128
B(  8-O , 18-H ) :   0.8092

MP2 TOTAL ENERGY:     -418.512279214 Eh
FINAL SINGLE POINT ENERGY      -418.512279213713

DIPOLE MOMENT
-------------
                                X             Y             Z
Electronic contribution:      0.03510      -5.06098      -1.73324
Nuclear contribution   :      0.59280       6.03956       2.22480
                        -----------------------------------------
Total Dipole Moment    :      0.62791       0.97857       0.49156
                        -----------------------------------------
Magnitude (a.u.)       :      1.26234
Magnitude (Debye)      :      3.20862

                             ****ORCA TERMINATED NORMALLY****
TOTAL RUN TIME: 0 days 0 hours 17 minutes 12 seconds 919 msec
