                         Program Version 3.0.3 - RELEASE   -
|  1> ! RI-MP2 RIJK def2-TZVP def2-TZVP/C def2-TZVP/JK TIGHTSCF
|  2> % maxcore 2000
|  3> % mp2 density relaxed end
|  4> *xyz 0 1
|  5>  C        0.0112849244     1.5224102033    -0.0143447135
|  6>  C       -0.0317082043    -0.0146729458    -0.0138865479
|  7>  C       -1.4710736933    -0.5512234292    -0.0342582588
|  8>  C        0.7788460838    -0.5534798650    -1.1574356102
|  9>  C        1.0146287391    -2.0023626917    -1.6701426200
| 10>  C        1.5587959685    -1.0741773970    -2.7779171366
| 11>  O        0.3820785282    -0.1926344017    -2.5666508297
| 12>  C        2.2100905894    -0.2075027447    -1.6709189964
| 13>  O        3.1613825972     0.4581674625    -1.4225588100
| 14>  H        1.0407915417     1.8876785329     0.0345620869
| 15>  H       -0.4451496584     1.9180216637    -0.9267466408
| 16>  H       -0.5379890045     1.9207149507     0.8436692865
| 17>  H        0.4641978706    -0.3769295208     0.8979747728
| 18>  H       -1.9800430216    -0.2542505621    -0.9562838064
| 19>  H       -1.4953305904    -1.6434984048     0.0289781967
| 20>  H       -2.0387329598    -0.1526905271     0.8120074068
| 21>  H        1.7124895928    -2.6452122656    -1.1267885201
| 22>  H        0.0936191281    -2.5103525983    -1.9601853404
| 23>  H        1.8420432583    -1.2967597593    -3.8038146190
| 24> *
| 25>
| 26>                          ****END OF INPUT****

CARTESIAN COORDINATES (ANGSTROEM)
---------------------------------
  C      0.011285    1.522410   -0.014345
  C     -0.031708   -0.014673   -0.013887
  C     -1.471074   -0.551223   -0.034258
  C      0.778846   -0.553480   -1.157436
  C      1.014629   -2.002363   -1.670143
  C      1.558796   -1.074177   -2.777917
  O      0.382079   -0.192634   -2.566651
  C      2.210091   -0.207503   -1.670919
  O      3.161383    0.458167   -1.422559
  H      1.040792    1.887679    0.034562
  H     -0.445150    1.918022   -0.926747
  H     -0.537989    1.920715    0.843669
  H      0.464198   -0.376930    0.897975
  H     -1.980043   -0.254251   -0.956284
  H     -1.495331   -1.643498    0.028978
  H     -2.038733   -0.152691    0.812007
  H      1.712490   -2.645212   -1.126789
  H      0.093619   -2.510353   -1.960185
  H      1.842043   -1.296760   -3.803815

 Total Charge           Charge          ....    0
 Multiplicity           Mult            ....    1
 Number of Electrons    NEL             ....   68
 Basis Dimension        Dim             ....  339

ORBITAL ENERGIES
----------------

  NO   OCC          E(Eh)            E(eV)
   0   2.0000     -20.577840      -559.9515
   1   2.0000     -20.567893      -559.6808
   2   2.0000     -11.352661      -308.9216
   3   2.0000     -11.320230      -308.0391
   4   2.0000     -11.318248      -307.9852
   5   2.0000     -11.261066      -306.4292
   6   2.0000     -11.249351      -306.1104
   7   2.0000     -11.224775      -305.4416
   8   2.0000     -11.218095      -305.2599
   9   2.0000      -1.431750       -38.9599
  10   2.0000      -1.397002       -38.0143
  11   2.0000      -1.099264       -29.9125
  12   2.0000      -1.072818       -29.1929
  13   2.0000      -0.941261       -25.6130
  14   2.0000      -0.913931       -24.8693
  15   2.0000      -0.895231       -24.3605
  16   2.0000      -0.814337       -22.1592
  17   2.0000      -0.715058       -19.4577
  18   2.0000      -0.687050       -18.6956
  19   2.0000      -0.662802       -18.0358
  20   2.0000      -0.645991       -17.5783
  21   2.0000      -0.614920       -16.7328
  22   2.0000      -0.612047       -16.6546
  23   2.0000      -0.570585       -15.5264
  24   2.0000      -0.568351       -15.4656
  25   2.0000      -0.547941       -14.9102
  26   2.0000      -0.540729       -14.7140
  27   2.0000      -0.535231       -14.5644
  28   2.0000      -0.505682       -13.7603
  29   2.0000      -0.495809       -13.4917
  30   2.0000      -0.479482       -13.0474
  31   2.0000      -0.465502       -12.6669
  32   2.0000      -0.444495       -12.0953
  33   2.0000      -0.400675       -10.9029
  34   0.0000       0.130486         3.5507
  35   0.0000       0.140623         3.8266
  36   0.0000       0.160827         4.3763
  37   0.0000       0.169966         4.6250
  38   0.0000       0.174978         4.7614

MULLIKEN ATOMIC CHARGES
-----------------------
   0 C :   -0.426023
   1 C :   -0.016290
   2 C :   -0.419902
   3 C :   -0.021564
   4 C :   -0.146803
   5 C :   -0.056489
   6 O :   -0.285504
   7 C :    0.247871
   8 O :   -0.238273
   9 H :    0.153944
  10 H :    0.142962
  11 H :    0.133258
  12 H :    0.098388
  13 H :    0.145327
  14 H :    0.130761
  15 H :    0.137950
  16 H :    0.129360
  17 H :    0.133656
  18 H :    0.157372
Sum of atomic charges:    0.0000000

LOEWDIN ATOMIC CHARGES
----------------------
   0 C :   -0.278022
   1 C :   -0.276297
   2 C :   -0.282958
   3 C :   -0.212022
   4 C :   -0.175796
   5 C :   -0.197469
   6 O :    0.172038
   7 C :   -0.262343
   8 O :    0.176223
   9 H :    0.130876
  10 H :    0.130468
  11 H :    0.124236
  12 H :    0.165563
  13 H :    0.130034
  14 H :    0.123237
  15 H :    0.125563
  16 H :    0.135136
  17 H :    0.142913
  18 H :    0.128620

  Mayer bond orders larger than 0.1
B(  0-C ,  1-C ) :   0.9269 B(  0-C ,  9-H ) :   0.9336 B(  0-C , 10-H ) :   0.9280
B(  0-C , 11-H ) :   0.9364 B(  1-C ,  2-C ) :   0.9154 B(  1-C ,  3-C ) :   0.9056
B(  1-C , 12-H ) :   0.9178 B(  2-C , 13-H ) :   0.9295 B(  2-C , 14-H ) :   0.9369
B(  2-C , 15-H ) :   0.9388 B(  3-C ,  4-C ) :   0.8662 B(  3-C ,  6-O ) :   0.8447
B(  3-C ,  7-C ) :   0.8328 B(  4-C ,  5-C ) :   0.9128 B(  4-C , 16-H ) :   0.9115
B(  4-C , 17-H ) :   0.9092 B(  5-C ,  6-O ) :   0.9006 B(  5-C ,  7-C ) :   0.9008
B(  5-C , 18-H ) :   0.8814 B(  7-C ,  8-O ) :   2.0625

MP2 TOTAL ENERGY:     -422.270864475 Eh
FINAL SINGLE POINT ENERGY      -422.270864475285

DIPOLE MOMENT
-------------
                                X             Y             Z
Electronic contribution:      8.46813      -0.43427      -5.65469
Nuclear contribution   :     -8.98447      -0.45272       5.96522
                        -----------------------------------------
Total Dipole Moment    :     -0.51634      -0.88699       0.31053
                        -----------------------------------------
Magnitude (a.u.)       :      1.07228
Magnitude (Debye)      :      2.72551

                             ****ORCA TERMINATED NORMALLY****
TOTAL RUN TIME: 0 days 0 hours 21 minutes 14 seconds 131 msec
